/*--------------------------------*- C++ -*----------------------------------*\
| =========                 |                                                 |
| \\      /  F ield         | OpenFOAM: The Open Source CFD Toolbox           |
|  \\    /   O peration     | Version:  2206                                  |
|   \\  /    A nd           | Website:  www.openfoam.com                      |
|    \\/     M anipulation  |                                                 |
\*---------------------------------------------------------------------------*/
FoamFile
{
    version     2.0;
    format      ascii;
    arch        "LSB;label=32;scalar=64";
    class       surfaceScalarField;
    location    "0.0299999999999999989";
    object      alphaPhi0.water;
}
// * * * * * * * * * * * * * * * * * * * * * * * * * * * * * * * * * * * * * //

dimensions      [0 3 -1 0 0 0 0];

oriented        oriented;

internalField   nonuniform List<scalar> 
20789
(
7.51884906841536254e-06
-7.53782187290563301e-06
-1.50966170673177328e-07
1.69938975163432929e-07
1.53286005273655226e-05
-7.83038169666504126e-06
-1.67490189356623976e-07
1.88120427071254801e-07
2.34416519426569146e-05
-8.13613297996319696e-06
-2.00811932643816353e-07
2.2389349731609489e-07
3.21228637975652431e-05
-8.70729116745735743e-06
-2.54672496060965347e-07
2.80751808611225556e-07
4.16454638943640693e-05
-9.55152172526589876e-06
-3.36145444885621696e-07
3.65067073353982e-07
5.24158660926917042e-05
-1.08004894141637943e-05
-4.55726266332832729e-07
4.85813482169424866e-07
6.5036125414477474e-05
-1.26462237961340858e-05
-6.32367957176544422e-07
6.58332431524679442e-07
8.04008922479927776e-05
-1.5374281152948337e-05
-8.97330860758871745e-07
9.06845180191762578e-07
0.000100350707384385998
-1.99047059098135348e-05
-1.30628070188730923e-06
1.261171475307667e-06
0.000128613536059971555
-2.80527070853272081e-05
-2.08631764608551358e-06
1.87619605582802311e-06
0.000173303448591240737
-4.43039293049217784e-05
-3.87358987496958333e-06
3.48760664863004497e-06
4.82381634619576618e-05
-6.78582171521194602e-05
-5.79470557342917335e-06
6.30783508700795776e-06
3.40927634783758148e-05
-1.2668857992360925e-05
-4.54151692866835055e-06
4.79617282264867457e-06
2.60661146286300717e-05
-5.38373705962283908e-06
-5.49809027605472321e-06
5.57508925391585361e-06
1.53572278855312687e-05
1.18295886924889949e-06
-3.40848734366980739e-06
4.5841774230295276e-06
5.13953466083162503e-06
-4.79966702857668651e-06
8.71378366819981248e-06
7.49754918957686864e-06
-1.50551072186447181e-05
-1.5224766823204027e-07
1.71983824393671119e-07
1.52343604365343061e-05
-1.55886739404109823e-05
-1.69235858652578781e-07
1.90716855441889971e-07
2.32569698927934682e-05
-1.61829332883989577e-05
-2.04100169434654228e-07
2.28291021614496767e-07
3.18406829058686137e-05
-1.73187248608375443e-05
-2.60584503668090458e-07
2.8830518397628442e-07
4.12625937362793655e-05
-1.90047333767885575e-05
-3.46125898948373278e-07
3.77426720062069223e-07
5.18867306634725401e-05
-2.14577787685160216e-05
-4.7252907448315785e-07
5.05681501641898936e-07
6.42589225211304978e-05
-2.5047965549723965e-05
-6.61139946031790595e-07
6.90689841963701576e-07
7.93095825120066167e-05
-3.04406685892526632e-05
-9.49092964618928181e-07
9.64820410047182685e-07
9.86396189162881898e-05
-3.92111858348447807e-05
-1.3961925593955092e-06
1.37263608014603929e-06
0.000125663395486151619
-5.49288764218024275e-05
-2.24441259867754951e-06
2.09680536529712885e-06
0.000160420873176530523
-7.89409658091299774e-05
-4.05487706325205863e-06
3.93443587718280114e-06
2.97602486119522526e-05
-0.000101097834122205224
-5.81524740725694104e-06
6.95570041145536413e-06
2.17230438401238006e-05
-2.02689047194753175e-05
-4.16008730847639029e-06
4.17833670871498649e-06
1.56548845732547016e-05
-8.07844203944578428e-06
-4.26677878949083907e-06
3.73562727364825507e-06
9.72606220067110508e-06
7.72203417981422771e-07
-3.25412019526906636e-06
3.51017309902837964e-06
7.58343246103486135e-06
-5.23283655817858414e-06
8.11270385237341135e-06
7.44380129530209761e-06
-2.25196946998460115e-05
-1.50445949328222431e-07
1.71232135227395783e-07
1.50833777339115234e-05
-2.32509127483926884e-05
-1.67490667537164324e-07
1.90153036910180359e-07
2.3026544571831869e-05
-2.41517810654158762e-05
-2.03412212863890303e-07
2.29093151963021871e-07
3.15038766132123713e-05
-2.58259619340919996e-05
-2.61643602498983611e-07
2.91548634375067468e-07
4.0775376654993011e-05
-2.83109117302724543e-05
-3.50057171913000675e-07
3.84735483616817507e-07
5.11788063488381815e-05
-3.18997517145260421e-05
-4.81852109433984759e-07
5.20395361598858046e-07
6.32010769665713746e-05
-3.71091255532640541e-05
-6.81134356204485649e-07
7.20023742011147728e-07
7.75997003480895128e-05
-4.48726802139844903e-05
-9.91735929001344838e-07
1.02512417221717856e-06
9.54211539760774327e-05
-5.70453405932796608e-05
-1.48457726107009e-06
1.49727839153258267e-06
0.000118215766495961299
-7.76653356580428737e-05
-2.43021648167346743e-06
2.37206319813158088e-06
0.000147188194047638175
-0.000108032775448733666
-4.46869280634899498e-06
4.58807489510398796e-06
2.39766445124276557e-05
-0.000113640158766046753
-6.08741727541467052e-06
7.54489466578181055e-06
1.79915150947542451e-05
-2.45262719942031058e-05
-3.76791390896620838e-06
2.88365154764784353e-06
1.18454203079442725e-05
-7.98512350022765547e-06
-3.32139153983647933e-06
2.75520227705392593e-06
6.72590407088794294e-06
7.48553854508369819e-07
-2.86421067920359488e-06
3.38707331465922511e-06
8.46164262495386164e-06
-4.61193659260971e-06
7.4357650662478945e-06
7.3529165933902466e-06
-2.98948477070282054e-05
-1.45329176858410843e-07
1.67565590650513126e-07
1.4868249981049926e-05
-3.07905265146269361e-05
-1.62199560245669732e-07
1.8647993882166161e-07
2.26880570525682771e-05
-3.1999239348528298e-05
-1.9873861499347877e-07
2.26389826590023942e-07
3.10066353331666655e-05
-3.41771354215835758e-05
-2.58089054757589669e-07
2.90684261652579228e-07
4.00584552158920012e-05
-3.74014965202423304e-05
-3.48540424251305437e-07
3.87305331496645694e-07
5.01398263340941704e-05
-4.20266497407054121e-05
-4.84530763942920015e-07
5.30057671920339829e-07
6.16531284985695466e-05
-4.86744040226716503e-05
-6.9288436538612251e-07
7.44860670321287335e-07
7.51499122433581728e-05
-5.84286657268230167e-05
-1.02344439224972046e-06
1.08264616032342573e-06
9.13108546390623379e-05
-7.32699604128275874e-05
-1.56003722168143538e-06
1.62371464567645098e-06
0.00011056439427545165
-9.69537696323970839e-05
-2.61767686613457669e-06
2.65257120492763021e-06
0.000133142365437814578
-0.000130990540907377229
-4.93510747060675995e-06
5.31490177184140473e-06
2.01028363994047238e-05
-0.000117529431224491641
-6.59764451761787471e-06
8.19430424752430439e-06
1.42337983874262026e-05
-2.53765312427428154e-05
-3.10613188305481355e-06
1.73283506849612954e-06
8.8339694311471993e-06
-7.17641761408668298e-06
-2.55966803489575398e-06
2.43960685764375065e-06
4.61759296127079626e-06
5.29855206429621392e-07
-2.31735676996599642e-06
3.78341059203335102e-06
8.01593049443853316e-06
-3.81093469162014285e-06
6.40285692385962478e-06
7.2266633515118344e-06
-3.71456538154449513e-05
-1.36608895248891386e-07
1.60751652159396636e-07
1.45929344844959986e-05
-3.81831966171107458e-05
-1.53135575241230559e-07
1.79534544751562421e-07
2.22488998031285939e-05
-3.96853923505856521e-05
-1.89845732666686e-07
2.2003341610086722e-07
3.03611906437136684e-05
-4.232538348714651e-05
-2.49618522230452856e-07
2.85575747216051183e-07
3.91324902424062854e-05
-4.62165892829614092e-05
-3.41096176786998801e-07
3.84889340823568218e-07
4.88083141045944505e-05
-5.17566402860456838e-05
-4.7971072763631835e-07
5.33877410806136703e-07
5.96950828228385162e-05
-5.96293714308771791e-05
-6.94584763976259135e-07
7.62783453983787512e-07
7.21512536931061895e-05
-7.09758309802069445e-05
-1.04053894740048455e-06
1.1315333307247238e-06
8.65259687519274887e-05
-8.77684398705357515e-05
-1.61487323782290796e-06
1.73863763782434031e-06
0.000102668194982867675
-0.000113231699048287586
-2.7630683756525525e-06
2.89877156555096377e-06
0.000119848046975493084
-0.000148834438081515703
-5.35832481935594986e-06
6.02237002503791249e-06
1.70045146141405891e-05
-0.000117334844454735872
-7.15165661473761156e-06
8.92704188982656276e-06
1.12168656854794936e-05
-2.38146308876604245e-05
-2.37270391382672773e-06
7.84281867413618816e-07
6.38875101786279561e-06
-6.13561645757690318e-06
-1.73617489628358662e-06
2.47008394224568345e-06
3.10213069197069337e-06
2.12862913229449725e-08
-1.43959079694276865e-06
3.62204155865659918e-06
6.69817744202426728e-06
-2.9634459825712492e-06
5.33018814371146288e-06
7.06976170890882237e-06
-4.42419402302458322e-05
-1.23978887006543821e-07
1.50503592961019691e-07
1.42604450292942885e-05
-4.54028914353981239e-05
-1.40059251374670606e-07
1.69070749384037732e-07
2.17173214355832139e-05
-4.71754751209280622e-05
-1.7653320730075704e-07
2.09739571436686198e-07
2.95818637655323393e-05
-5.02297416520929528e-05
-2.36033077971375764e-07
2.75848913045924485e-07
3.80219396452734492e-05
-5.47061186525510287e-05
-3.27430450419654803e-07
3.7688394039250662e-07
4.72280901899061847e-05
-6.10266749527486478e-05
-4.66728222210656624e-07
5.30612344498147849e-07
5.74100261052214942e-05
-6.98975173184083104e-05
-6.8463527805205869e-07
7.70845250691470713e-07
6.87556276583042251e-05
-8.24468016956940458e-05
-1.03990916348329125e-06
1.16527832735538531e-06
8.13460263030986187e-05
-0.000100544095483775188
-1.64483274833224963e-06
1.83008972341547787e-06
9.46968217951074578e-05
-0.00012682009126165105
-2.86407740850908801e-06
3.10167415395979043e-06
0.000108009012396241127
-0.000163055005475202841
-5.79320436759972318e-06
6.70158126221983081e-06
1.408465964157019e-05
-0.000112616483044352219
-7.49248103961761596e-06
9.5518582097355129e-06
8.42622986971311506e-06
-2.05151827556789739e-05
-1.81072336459945276e-06
4.21109486757047057e-07
3.98199607909262053e-06
-4.88561128412152819e-06
-9.33155687310620003e-07
2.43962393998377204e-06
1.7177809764061882e-06
-3.18150224538013615e-07
-6.23407202845761772e-07
2.54407239108484923e-06
4.82023361390217213e-06
-2.07957360122714567e-06
4.24180877787461717e-06
6.88588002369022053e-06
-5.11572192940057635e-05
-1.07083553122242234e-07
1.36482593699879658e-07
1.38755636235289776e-05
-5.24246923827351012e-05
-1.22706906598274212e-07
1.54824254832824293e-07
2.11029324963685188e-05
-5.44394421215482123e-05
-1.5859049658023744e-07
1.95188624997329813e-07
2.86850321931098526e-05
-5.78557867716221165e-05
-2.17151021306732501e-07
2.6109644466953724e-07
3.67541566334922626e-05
-6.28305728722304677e-05
-3.07331928817021821e-07
3.62661708974465396e-07
4.54458677223727853e-05
-6.97923042627739777e-05
-4.45097729875664569e-07
5.19015952352202207e-07
5.4879163930150095e-05
-7.94350654118945298e-05
-6.61891807642725103e-07
7.66143696430489954e-07
6.50979876799059372e-05
-9.28233828591568013e-05
-1.01948300219256818e-06
1.17724042463841194e-06
7.59710103092352582e-05
-0.000111656441830089743
-1.64408430323245716e-06
1.88340805390858295e-06
8.6817428688169536e-05
-0.000137989359108914896
-2.91205308124196088e-06
3.23490265117570144e-06
9.65316028228803598e-05
-0.000173947627392279168
-6.23624759416294644e-06
7.41469576365484404e-06
1.12246283405967194e-05
-0.000103666848340051669
-7.47414555649298823e-06
9.74457078138619582e-06
5.44054243028835269e-06
-1.61201164707805043e-05
-1.30415817442837404e-06
7.02127884794439138e-07
2.09131941766273024e-06
-3.44623053888400399e-06
-4.11986639642511663e-07
1.60715942508111561e-06
7.54212179465856519e-07
-2.59598773131612368e-07
-2.0947763232753068e-07
1.23333956335616757e-06
3.04803217449286508e-06
-1.33885983919830789e-06
3.15203447608847532e-06
6.67839712001270551e-06
-5.78685258135235294e-05
-8.58049267609037943e-08
1.1871432880177542e-07
1.34440990122159358e-05
-5.9226210099919882e-05
-1.00762075638646557e-07
1.36577904112123382e-07
2.04162674110104585e-05
-6.14519345841747035e-05
-1.35763099803807597e-07
1.76087166860911768e-07
2.76882661498568632e-05
-6.51759911230628786e-05
-1.92772562752640576e-07
2.4097817827417624e-07
3.5357675467432171e-05
-7.05610055631036522e-05
-2.80682323315173077e-07
3.41705701194359575e-07
4.3508256741222748e-05
-7.80263592766334153e-05
-4.14598667682138346e-07
4.98072413691880788e-07
5.21780736063724154e-05
-8.82253098543226772e-05
-6.25887418404717854e-07
7.46315014660865793e-07
6.12966008553388764e-05
-0.000102125012267506484
-9.78587738023560251e-07
1.16168994295624342e-06
7.05655025085878679e-05
-0.000121196935071879583
-1.61115968303470601e-06
1.88275142332862027e-06
7.91674470345601764e-05
-0.000146951449615855299
-2.88157685101317608e-06
3.24172321688651587e-06
8.57089708965639511e-05
-0.000181768381967376279
-6.4628874155568227e-06
7.74211948043802138e-06
8.1440608957095161e-06
-9.3483846639295698e-05
-7.22400292782376487e-06
9.78363932306372847e-06
3.20116944251094875e-06
-1.26297715157103022e-05
-8.28292629145957457e-07
1.27627886465709783e-06
1.0523479548147817e-06
-2.34126419810870553e-06
-1.96972499728279148e-07
9.48182241029819306e-07
3.05184117223370889e-07
-1.4881543065381258e-07
-8.64515214782010746e-08
5.85832412735277975e-07
1.82481669687976112e-06
-8.85910866663999597e-07
2.12517831180204299e-06
6.45062822684448277e-06
-6.43561852241530372e-05
-5.98022086117116388e-08
9.68334024794885366e-08
1.29724433633190709e-05
-6.57884555491212942e-05
-7.38497707163608459e-08
1.14280104977077408e-07
1.96683771745054025e-05
-6.81923630508078822e-05
-1.0771013890009718e-07
1.52204807617607e-07
2.66095643950301271e-05
-7.2169831925612688e-05
-1.62636068056349406e-07
2.15289662571515426e-07
3.38608090965855719e-05
-7.78784386982916174e-05
-2.47484457845170227e-07
3.13672917285925152e-07
4.14596779446372747e-05
-8.57170622829766881e-05
-3.75335675756304819e-07
4.67169863176422669e-07
4.93750163055747568e-05
-9.6273666020661478e-05
-5.76943373062456858e-07
7.09961280404659744e-07
5.74519874265024233e-05
-0.000110399906378085892
-9.17391486904007058e-07
1.11531468903996086e-06
6.52955172511451181e-05
-0.000129308875688151511
-1.54926213502116302e-06
1.81767354993483369e-06
7.21264016119588518e-05
-0.00015409741893724187
-2.8131121468965196e-06
3.12819845038902324e-06
7.66790519403339128e-05
-0.000187223317540739369
-6.72130897978628288e-06
7.62359864880474262e-06
6.30569035672221904e-06
-8.44156233442900142e-05
-7.15319577351813703e-06
9.60939773486268643e-06
2.3072262732782296e-06
-9.81868247034751459e-06
-3.05082335046485885e-07
1.26225541874339447e-06
6.19654391558162962e-07
-1.36807834319180974e-06
-1.54933355269377804e-07
6.79574303362177188e-07
1.35546131851015366e-07
-5.31733272697531442e-08
-7.19888051781929194e-08
3.46224803479961629e-07
1.25800112614127337e-06
-5.82694046691405941e-07
1.20925641763164114e-06
6.2057726512075408e-06
-7.06041232685862736e-05
-2.8055841451955296e-08
7.02212877638414073e-08
1.24672614129389481e-05
-7.2096546778884277e-05
-4.12121073293930175e-08
8.78147050148210494e-08
1.88703974360000078e-05
-7.46449068401279454e-05
-7.39327396465066822e-08
1.23340574873888983e-07
2.54667001025508799e-05
-7.88237980048869569e-05
-1.26316748904758896e-07
1.83980226903622937e-07
3.22905249761817388e-05
-8.47727466708515255e-05
-2.07882064160819557e-07
2.78365303734215073e-07
3.9340954440944965e-05
-9.28659499682522275e-05
-3.27721797174231957e-07
4.26180159200999293e-07
4.65295003023509675e-05
-0.000103602878429819934
-5.16203230389589304e-07
6.56870269854829516e-07
5.36399830045542674e-05
-0.000117712742196942428
-8.35949681477360054e-07
1.03830370009357718e-06
6.02459742948557953e-05
-0.000136147781576948028
-1.45239747521169842e-06
1.6853144517199456e-06
6.56149012459555491e-05
-0.000159676741833784296
-2.67293312044599094e-06
2.88333345865417543e-06
6.92173849927555962e-05
-0.000190848008460944591
-6.9444362517885422e-06
6.966657172405693e-06
5.31785106280633056e-06
-7.42594465333040342e-05
-7.09341733413181708e-06
8.38088542729612299e-06
1.57484437190623871e-06
-6.62403931638434747e-06
-5.83486428006238337e-08
9.02259665602406374e-07
2.19081946629157775e-07
-5.0772822221763645e-07
-9.1747942155901837e-08
4.56296660209790193e-07
3.75415618473859237e-08
-1.32268657918983021e-08
-9.89260378491898476e-08
1.78010454868436857e-07
1.07427677484835141e-06
-4.13769084836738153e-07
6.62857370578757056e-07
5.94693506818092234e-06
-7.65995568721202104e-05
9.81637885600809322e-09
3.86824334914848699e-08
1.1935125831909713e-05
-7.81402891218784505e-05
-1.62544311822734261e-09
5.71777438324371055e-08
1.80331624971644144e-05
-8.07984473192517431e-05
-3.37298985416854699e-08
8.92340708397485228e-08
2.42766813253432499e-05
-8.5131312003768262e-05
-8.3110100007497962e-08
1.47105604269360567e-07
3.06714859925509223e-05
-9.12408950225791223e-05
-1.62216866267454775e-07
2.35561256176476141e-07
3.71884898247095173e-05
-9.94859965830665591e-05
-2.72391919202818379e-07
3.75435336821755315e-07
4.36931594713512955e-05
-0.000110249803378297014
-4.45770930057672024e-07
5.88028414736600679e-07
4.99274111951839527e-05
-0.000124146513322437074
-7.36172164872154643e-07
9.35695110976216103e-07
5.54416184146251388e-05
-0.000141845543600635488
-1.31518538358169876e-06
1.4987487281599646e-06
5.94116677252366792e-05
-0.000163742271787092213
-2.44787272413353903e-06
2.54336700920796072e-06
6.14130010357862195e-05
-0.000191923493181221297
-6.71240676800362221e-06
5.78659914507772414e-06
3.39947083423869144e-06
-6.31332741164816633e-05
-7.05415840198259668e-06
6.91196247421984072e-06
4.81437450292503733e-07
-4.12856201144239186e-06
-8.27106172559636743e-08
6.60690091421274624e-07
2.69798191066435153e-08
-2.26638283867325225e-07
-6.56003672238284163e-08
1.44907725236050372e-07
-2.14672342617003099e-08
5.71645617063986807e-09
-7.87082402707129901e-08
5.05862928017262477e-08
1.01767943379072924e-06
-2.94187079894512752e-07
3.87770866473390676e-07
5.67692980957840899e-06
-8.23323794801865291e-05
5.45638261370612092e-08
1.33032528256934268e-09
1.13827047513226436e-05
-8.39155227096312876e-05
4.70022627536077514e-08
2.24601043726548755e-08
1.7166592913645042e-05
-8.66454293739377936e-05
1.39627496468844502e-08
4.91328680331053546e-08
2.3055415311882946e-05
-9.10932130577756899e-05
-3.16238450738128194e-08
1.04704086984169954e-07
2.90252620372059501e-05
-9.72842048188869203e-05
-1.11164635395746475e-07
1.84631002186968641e-07
3.50333457660375277e-05
-0.00010559955561427562
-2.09996888179126784e-07
3.1547483594581358e-07
4.09081562434963331e-05
-0.000116260710596729897
-3.68777730535449464e-07
5.04883552111898531e-07
4.63788691455878054e-05
-0.000129809918199789005
-6.2273019963876782e-07
8.15435255821807295e-07
5.09666329152193994e-05
-0.000146569205027237794
-1.15126143338039472e-06
1.28718828179043896e-06
5.38610385831588285e-05
-0.000166616061359773564
-2.16657988650105326e-06
2.14600440895695811e-06
5.39018044280683986e-05
-0.000190526385184122687
-6.28216329065214019e-06
4.84440754551408409e-06
1.05433298708224449e-06
-5.36502151760979035e-05
-5.85518457103214777e-06
5.55671843453656344e-06
-1.86176085869310664e-09
-3.23270317962925207e-06
-1.10688623529572253e-07
2.96651120671368623e-07
-1.79869742265980713e-08
-3.05050037529992774e-07
-7.38167758221028316e-08
5.36162304078383593e-08
-9.75648522717214789e-08
3.9267580449569622e-08
-6.8262997582385996e-08
4.33914448317482283e-08
9.12207036627559969e-07
-2.18124589480786192e-07
2.1111560795190902e-07
5.39843070827736164e-06
-8.77948621776195883e-05
1.05325629510561924e-07
-4.12674068553776034e-08
1.08172523338255161e-05
-8.94264040631608404e-05
1.07518788344928912e-07
-1.54410848444875068e-08
1.62798424155335179e-05
-9.2180089883666565e-05
7.00102581434115841e-08
2.06793875441046975e-09
2.18178143621708693e-05
-9.67186138905707201e-05
3.03436245047580468e-08
5.7092353729204076e-08
2.73694322243104656e-05
-0.000102903601341964275
-5.59431982853469144e-08
1.23736352169576178e-07
3.28997362738760396e-05
-0.000111235985990066531
-1.40225712003713487e-07
2.46362377122468931e-07
3.82026527061147674e-05
-0.000121682906717293714
-2.88147096844743679e-07
4.07462598141962217e-07
4.3033265858584848e-05
-0.000134827536286268908
-4.97871206394518385e-07
6.84921958976658453e-07
4.68913020039636686e-05
-0.000150518027601642825
-9.77828939269107692e-07
1.0687113074526782e-06
4.91452478997070669e-05
-0.000168713928378260819
-1.84371045936318121e-06
1.68774856565317447e-06
4.90825202533578658e-05
-0.00018852009609838453
-5.86046470217238233e-06
3.9172348611518388e-06
1.1807538938939875e-06
-4.32199913764157412e-05
-4.02300330607594517e-06
2.45115322004564032e-06
7.60393556153056184e-08
-1.93799062508183661e-06
-1.87248862291895111e-07
-2.96288918009899056e-08
-5.99876787354382135e-08
-3.16619196341348912e-07
-9.76736541073030541e-08
1.2202667677886416e-07
-1.5955926824950213e-07
5.30647433620799827e-08
-4.73814754508845268e-08
3.01607351098826257e-08
7.14189760379937364e-07
-1.35880507980714846e-07
9.4738424262514e-08
5.11024472728072868e-06
-9.29760809258305565e-05
1.75845033261373097e-07
-1.04843745522146192e-07
1.02424942038728251e-05
-9.46882964046912495e-05
1.88351872414434855e-07
-5.86270363794134709e-08
1.53783466792366799e-05
-9.73984188530422343e-05
1.39222139271937521e-07
-5.67126346388466439e-08
2.05751801235378828e-05
-0.000102026818794597935
1.09440547972425341e-07
1.96096739476009175e-09
2.57152897525003917e-05
-0.000108093385708150271
2.29035454213835992e-09
4.74448554650512131e-08
3.08022046747172457e-05
-0.000116428783135119135
-6.17800652578639992e-08
1.67700479160741009e-07
3.5585511535844281e-05
-0.00012655189427536497
-2.10071081760099896e-07
2.9588411992428922e-07
3.99003912080240383e-05
-0.000139331605574152155
-3.68800960568491094e-07
5.58144210800240378e-07
4.32014035508974736e-05
-0.000153865846424584574
-8.16984077700043952e-07
8.64096306365203823e-07
4.50565072266453326e-05
-0.000170335389439640775
-1.55599267069877814e-06
1.32267833612956664e-06
4.51210072118114945e-05
-0.000186376271485587137
-5.57606232790258824e-06
3.36864889204715362e-06
4.50696240125907846e-07
-3.29818511032125259e-05
-3.7321281111160806e-06
1.10899483066863085e-06
2.16504666459477679e-07
-1.61790410920987081e-06
-3.73537492830628516e-07
1.88717752466930813e-07
-3.12242907252850789e-08
-3.44955908876403887e-07
-7.98311695784100001e-08
2.41319108472405243e-07
-1.29070599760693323e-07
7.46433160255752833e-08
-5.32720491693570657e-08
3.05826394997884726e-08
4.90245623158426809e-07
-1.18500730064649429e-07
5.62435267619269066e-08
4.80548952823930894e-06
-9.78548794001337426e-05
2.29144303588723544e-07
-1.55721487944600437e-07
9.67048399139927274e-06
-9.97475864406981595e-05
2.82524009886721419e-07
-8.78730764145909366e-08
1.44827144785733588e-05
-0.000102299426466872102
2.03999687790336032e-07
-1.15089308108577658e-07
1.93684300467494131e-05
-0.000107072418242395396
2.01218919447764109e-07
-4.12134642658259733e-08
2.41047192598032349e-05
-0.000112838879106047743
4.53617696852586295e-08
-3.59165760897350216e-08
2.88006589729005579e-05
-0.000121234175417221952
1.9460380532835266e-08
9.01263395287060755e-08
3.31327260985376466e-05
-0.000130903345478025477
-1.4506603760146572e-07
1.64899098321592587e-07
3.71245768960542553e-05
-0.000143535943546770366
-2.1945237082946439e-07
4.32435531419029225e-07
4.01432057547485577e-05
-0.000156872628527074826
-6.26015842122792349e-07
6.15119455203303154e-07
4.19300166502103378e-05
-0.000171883761166151438
-1.20871713396887288e-06
9.71179834016925437e-07
4.22761003605677361e-05
-0.000184311307155966776
-5.30153168472712541e-06
2.89294077159858427e-06
-6.50187841502868086e-07
-2.97050093209103877e-05
-3.75694205775856371e-06
3.57048613285327266e-07
1.21308650226062063e-09
-2.61872559770485467e-06
-6.42206522795124559e-07
7.74403466514707325e-07
-9.76482315014657852e-08
-6.79367545962770275e-07
-1.06246313645622496e-07
4.6016223749965031e-07
-1.48329224262626029e-07
6.77407330151680259e-08
-6.25704661991505552e-08
2.32680662128325937e-08
2.78854870723661086e-07
-7.95800515425972109e-08
2.98930171489914581e-08
4.43236120433139867e-06
4.90085650328630162e-07
-3.68103231150070669e-07
-0.000102408766351151659
9.0626074193646106e-06
5.55668222338015017e-07
-2.62427248850955422e-07
-0.000104669599939976032
1.3579561958554194e-05
4.60675324023195572e-07
-3.11934475288715252e-07
-0.000106964607376456165
1.81235052367129054e-05
4.51328121801111339e-07
-2.35668433343160786e-07
-0.000111831548755205725
2.24466328733760992e-05
2.26972256931679681e-07
-2.47041135687664024e-07
-0.000117141060737632042
2.66781013738018338e-05
2.30518901710447176e-07
-1.27535557300451473e-07
-0.000125568176282420682
3.05578494117777436e-05
5.26991346813322699e-08
-7.93308180273765539e-08
-0.000134755014328470884
3.42469828475266624e-05
4.19973596878359444e-08
1.58483390655427149e-07
-0.000147424007977836494
3.7354017618465472e-05
-2.79623093146831158e-07
2.51770468637977527e-07
-0.000159948916170998286
3.98317804963927412e-05
-7.90635800861568829e-07
4.11003112507555351e-07
-0.000173979458297889706
4.62797854163970017e-05
-4.13158821405470243e-06
1.63672258728616079e-06
-0.000188257929811269425
3.49654604743314233e-06
-5.51505603001327374e-06
1.6013172665205121e-06
-3.32623317581749218e-05
2.44053134068923531e-06
-1.08913504874075949e-06
-4.61251255745344661e-07
-9.31454030770323526e-07
-5.30019939229095116e-08
-2.72677841728709784e-07
1.15967384955360823e-06
8.96267107159301068e-07
-1.04167703547462135e-07
-4.4860500739257911e-08
1.25625533237385926e-08
-4.48827055948694729e-08
1.44613357998625233e-08
7.50762687464411667e-06
-7.53084419804561907e-06
-1.27748847271806906e-07
1.53046652513922199e-05
-7.82289686751164756e-06
-1.41631698593190087e-07
2.3401616411060258e-05
-8.12775027938655035e-06
-1.70012812924161155e-07
3.20614534109567531e-05
-8.69867992041378432e-06
-2.15829575541869358e-07
4.15540830383701479e-05
-9.54352645143235241e-06
-2.85248620865817346e-07
5.22798319176300384e-05
-1.07948171132365383e-05
-3.86658032356515801e-07
6.48287979722233566e-05
-1.26479080593957831e-05
-5.33425952374963023e-07
8.00753283390221848e-05
-1.54001184602633965e-05
-7.43742767294319379e-07
9.98018690810853655e-05
-1.99811501538884928e-05
-1.05167129006130852e-06
0.000127558556078872349
-2.82729720391089904e-05
-1.57003260476160005e-06
0.000171691838666702051
-4.53071468095160804e-05
-2.69972565327146681e-06
4.84747012750738425e-05
-7.28519595994701815e-05
-3.37412454031712161e-06
3.18506793460218078e-05
-1.48602833456679311e-05
-2.77971388157586562e-06
2.36876436197342013e-05
-6.38226252454880098e-06
-3.82207447153077418e-06
1.32290080510399643e-05
1.51616150516652943e-06
-2.39911417074037666e-06
4.94732306400979241e-06
-2.66250413632991393e-06
7.48535135648196311e-06
-1.50399901357184232e-05
-1.28453087043123285e-07
1.5208413069516252e-05
-1.55724246964770786e-05
-1.42769742722100396e-07
2.32137478740472297e-05
-1.6164621470106547e-05
-1.7256378324469812e-07
3.17745794774252976e-05
-1.72993203069908899e-05
-2.20775720468179602e-07
4.11640559183067291e-05
-1.89855214293152922e-05
-2.93607361947337533e-07
5.17385027341004685e-05
-2.14417112110360516e-05
-4.00081792478605652e-07
6.40291331066555056e-05
-2.50444639226593617e-05
-5.55214455323634051e-07
7.89407816586271068e-05
-3.04799173514363746e-05
-7.80942625417451556e-07
9.80239723897576015e-05
-3.93528144452912906e-05
-1.10771899912178109e-06
0.000124479257407605063
-5.53351070545675402e-05
-1.63756260105472211e-06
0.000158049348659355487
-8.02387485574761905e-05
-2.69336656689391026e-06
2.96303224624100379e-05
-0.000106657887524198061
-3.26499791792424216e-06
2.10994768067825459e-05
-2.27655313631088373e-05
-2.4879681332701464e-06
1.36939649290681589e-05
-9.12728422999959726e-06
-2.89754359137911082e-06
7.75841034525386918e-06
1.09780713367176514e-06
-2.270845348678778e-06
6.17232303811556928e-06
-2.91882571514436079e-06
7.43082842541583066e-06
-2.24953276494849063e-05
-1.25936860979080295e-07
1.5055831590718701e-05
-2.32247191534667949e-05
-1.4019937585082753e-07
2.29809073295149675e-05
-2.41223244082992151e-05
-1.70785013466961585e-07
3.14341173176939482e-05
-2.57939831286600873e-05
-2.20190769008731982e-07
4.06706712790925288e-05
-2.82774927812725717e-05
-2.94639781354992881e-07
5.10189346239394039e-05
-3.18681428958308361e-05
-4.03683769486144964e-07
6.29471581644999896e-05
-3.70903172875870651e-05
-5.63504531837531152e-07
7.71708722474628644e-05
-4.48969832693856634e-05
-7.98384094012656533e-07
9.46576874838434251e-05
-5.71808535332984265e-05
-1.143353409429559e-06
0.000116706667342273229
-7.81174863500113141e-05
-1.69681704453284767e-06
0.000144078363205417875
-0.000109209832638232617
-2.86930458753686474e-06
2.4287512910677194e-05
-0.000116838288377987419
-2.9051127434344073e-06
1.63279821946611319e-05
-2.63428182689878287e-05
-2.02756910353289735e-06
8.74884669259198747e-06
-8.4075610922082461e-06
-2.10469496393265738e-06
5.15008212250204086e-06
5.2894151037123479e-07
-1.86208397511101143e-06
6.00146369602190985e-06
-2.52770021710788087e-06
7.3393286234168041e-06
-2.98600339293929785e-05
-1.19951520368022257e-07
1.48394299752933018e-05
-3.07531345520173027e-05
-1.33885513571667611e-07
2.26404519664997722e-05
-3.19573687745676176e-05
-1.64716239931377733e-07
3.09337855164775442e-05
-3.41309692484673954e-05
-2.14436484927872644e-07
3.99483183259967175e-05
-3.73513729280578282e-05
-2.89193086985325087e-07
4.99692064350866919e-05
-4.1974810978176901e-05
-3.98750790686747527e-07
6.13759488566144968e-05
-4.8630161458626322e-05
-5.59782615872528384e-07
7.46701166236934651e-05
-5.84171191980055376e-05
-7.97476230683081515e-07
9.04432770749536802e-05
-7.33644381597181952e-05
-1.14961304639401799e-06
0.000108763916209042162
-9.73348670978192325e-05
-1.72093525146998405e-06
0.000129519433269342121
-0.000131974428941836891
-2.92602822017465386e-06
2.00246225659321192e-05
-0.000117994924269975926
-2.39426908248405515e-06
1.11855250569749359e-05
-2.51557269465106022e-05
-1.51063702203128307e-06
5.06813944397843132e-06
-6.64061285512002218e-06
-1.48674124898842499e-06
2.98827386044655904e-06