/*--------------------------------*- C++ -*----------------------------------*\
| =========                 |                                                 |
| \\      /  F ield         | OpenFOAM: The Open Source CFD Toolbox           |
|  \\    /   O peration     | Version:  2206                                  |
|   \\  /    A nd           | Website:  www.openfoam.com                      |
|    \\/     M anipulation  |                                                 |
\*---------------------------------------------------------------------------*/
FoamFile
{
    version     2.0;
    format      ascii;
    arch        "LSB;label=32;scalar=64";
    class       volScalarField;
    location    "0.0299999999999999989";
    object      rAU;
}
// * * * * * * * * * * * * * * * * * * * * * * * * * * * * * * * * * * * * * //

dimensions      [-1 3 1 0 0 0 0];

internalField   nonuniform List<scalar> 
7360
(
2.92104368018703931e-05
2.84707885986655322e-05
2.77385778519033827e-05
2.69941429779817688e-05
2.62204803837675682e-05
2.53953437462820085e-05
2.44900971039215165e-05
2.34690684222742569e-05
2.2262078515668425e-05
2.07446957984714551e-05
1.87010471893945625e-05
3.55160684873727657e-05
0.000132894834546688339
0.000192115360190260023
0.000290448865353243226
0.00041902386670008738
2.85035209923833746e-05
2.77794629314492231e-05
2.70638384877712315e-05
2.63170895136644681e-05
2.55256225742413671e-05
2.46658945134619035e-05
2.37076129485047425e-05
2.26067599690857732e-05
2.12785211981453471e-05
1.95771691133348732e-05
1.75154755428111982e-05
3.2813393244115933e-05
0.000160070018586949773
0.000252177342198510273
0.000420568245227927932
0.000413140073359730662
2.78299712260498072e-05
2.71272550510247266e-05
2.64276935801559746e-05
2.56805601488127384e-05
2.48773025618242707e-05
2.39949128502998914e-05
2.30019556101814352e-05
2.18526257680028216e-05
2.04748581613764168e-05
1.87540687492061337e-05
1.67779552030240747e-05
3.28603168627732164e-05
0.000165747280365896674
0.000292030109080757862
0.000540219381821633866
0.000431619635426835609
2.71953216027904254e-05
2.65180294854739947e-05
2.58351519316469941e-05
2.50933335499515903e-05
2.42866742051246691e-05
2.33937547427186718e-05
2.23846050647322732e-05
2.12174817388709322e-05
1.98348775853720143e-05
1.81586986030430373e-05
1.62875539144711706e-05
3.4085055512768471e-05
0.000177976040498944467
0.000354324749027469001
0.00069130493262939993
0.000474243059468765367
2.65992684276543689e-05
2.59498164060446782e-05
2.52850066768185653e-05
2.45535060187671748e-05
2.37509829970266707e-05
2.28583939586216695e-05
2.18489981567298485e-05
2.06877869381773113e-05
1.9330803995218752e-05
1.77323133732533134e-05
1.59804342235027552e-05
3.58800632585073076e-05
0.000199600931896851136
0.000439916192614019726
0.000957646286619576745
0.000553758252586750567
2.6041000985335701e-05
2.54207003716508018e-05
2.4775785487131792e-05
2.40588803546105564e-05
2.32670604007933377e-05
2.23841359849886448e-05
2.13876068200217219e-05
2.02499740402220234e-05
1.89388367427409763e-05
1.74330197885939175e-05
1.57885615364611749e-05
3.84183686120017183e-05
0.000235623195940608374
0.000577994369528493819
0.00152587196881542896
0.000710921561460115263
2.55194064426137002e-05
2.49289225471708373e-05
2.43056865854387156e-05
2.36070003074221102e-05
2.28314299970284814e-05
2.19658931794759037e-05
2.09925948056943071e-05
1.98913440167969962e-05
1.86394512127706404e-05
1.72333200526273339e-05
1.56911451734809833e-05
4.21832901633652446e-05
0.000297116397248466482
0.000853834938482093508
0.00263235723849339831
0.000999877203581970653
2.50331433246780424e-05
2.44727313515482703e-05
2.38727223976742128e-05
2.31952409663044398e-05
2.24404526606163151e-05
2.15984506393320794e-05
2.06562804892473342e-05
1.96003621472852896e-05
1.84165844718685553e-05
1.71149890757960703e-05
1.5680025002798872e-05
4.69714323037380492e-05
0.000389284324935320236
0.00130220128184285007
0.00435842165984486572
0.00144590413667097686
2.45807544441579764e-05
2.40503325675917872e-05
2.34748021633003321e-05
2.28208832407074822e-05
2.20904488869826048e-05
2.12766541131200642e-05
2.03713705472687063e-05
1.93666800698457582e-05
1.82557142219422702e-05
1.70549591625278481e-05
1.57172567620843407e-05
5.20192434625366346e-05
0.00050357591474409311
0.00180250258322369209
0.00613321797885225169
0.00203320852526371306
2.41607180797147143e-05
2.36598948881039525e-05
2.31097909491231682e-05
2.24811742625389086e-05
2.17778033798880274e-05
2.09955348716616047e-05
2.01310832117354292e-05
1.91813066923221069e-05
1.81452826914843162e-05
1.70420751663583099e-05
1.57924859812311289e-05
5.80956802109455447e-05
0.000673996214821528787
0.00273003545508375845
0.00926709490555947292
0.0025790479340544294
2.37707812362542848e-05
2.32995389652290632e-05
2.27755572607254198e-05
2.2173370608334043e-05
2.14990646190150156e-05
2.07503823809877332e-05
1.99291391895480965e-05
1.90359991997450524e-05
1.80763178118014198e-05
1.70739861839633228e-05
1.5946059502328096e-05
6.64313945087511486e-05
0.00102438261101019264
0.00502363285934153553
0.0142514007194681266
0.0029596143980057622
2.34078445820737366e-05
2.29644897044659147e-05
2.24692415798923629e-05
2.18947641464537286e-05
2.12510563377034202e-05
2.0536804427592539e-05
1.97598303416270449e-05
1.89226797206531279e-05
1.8038802355755047e-05
1.71366549001555831e-05
1.616241010716462e-05
7.70432412000490973e-05
0.00168066589318979125
0.00667407601082597394
0.0131796376750931751
0.00318999736419131076
2.30696868832330335e-05
2.26538651628471029e-05
2.21873779590771246e-05
2.16410049527350486e-05
2.10310460468427803e-05
2.03508350576193628e-05
1.9618338535331635e-05
1.88339882372473726e-05
1.80229043330536166e-05
1.72138611618977114e-05
1.63775623682416445e-05
9.06414234452025691e-05
0.00217816787629821276
0.00598097042070570677
0.0107364894587533913
0.00357757602796008375
2.27564078127070323e-05
2.23646660480664938e-05
2.19271999072164132e-05
2.14087100061506395e-05
2.08370296372832321e-05
2.01890797486460813e-05
1.9501098378736464e-05
1.87633088195829123e-05
1.80209051461296354e-05
1.72936655163288326e-05
1.65788930091010393e-05
0.000106622556541132309
0.00286309746450291421
0.00580053035108391447
0.0102642178142102244
0.00415746987116715708
2.24696104850554432e-05
2.20956991034181622e-05
2.1689789024636587e-05
2.11923566700662129e-05
2.06619245432197916e-05
2.00448209391679393e-05
1.94027319782403104e-05
1.86993484061036314e-05
1.80194272580692172e-05
1.73570899698514677e-05
1.67516070774022466e-05
0.000114281966425888845
0.00232075609228901258
0.00521226944350915503
0.00855404353115084282
0.00504085528903395596
2.2200687649618519e-05
2.18379237812690544e-05
2.1465919832361814e-05
2.09887933428445227e-05
2.05057238953605396e-05
1.9918744045298275e-05
1.93329403743055927e-05
1.86570498043209637e-05
1.80259250419291995e-05
1.73962441267091374e-05
1.67308636975845325e-05
0.000102621990909783744
0.00133980211058544007
0.00246299647538038898
0.0092779107792980639
0.00644793866538608158
2.92133684520297639e-05
2.84748993201975035e-05
2.77441044687969425e-05
2.70013985252044627e-05
2.62298942761188169e-05
2.54075392489844e-05
2.45060272793342977e-05
2.34900860704071868e-05
2.22905192209806313e-05
2.0786145595146498e-05
1.87499431908773017e-05
3.53783946609713762e-05
0.000131554858059514129
0.000205188966417467239
0.000327187048521848645
0.000527825531594186201
2.85071183952971469e-05
2.77842852646895526e-05
2.70701565142089419e-05
2.63251640254159332e-05
2.55358446737410658e-05
2.46788496833471766e-05
2.37241011655987171e-05
2.26276363604865719e-05
2.13051183006466362e-05
1.96128289401363927e-05
1.75591442844835773e-05
3.27348778079018489e-05
0.000158019779456067771
0.000259094885440104507
0.000481052798874236011
0.000525107514776549972
2.78342789421001867e-05
2.71328205475567816e-05
2.64348179495413417e-05
2.56894976440714326e-05
2.48884750589982594e-05
2.40089714515290804e-05
2.301980691319758e-05
2.18756311129232875e-05
2.05051691452433043e-05
1.87959689011387388e-05
1.68400493102013601e-05
3.32442860695809288e-05
0.000164464412784082295
0.000317775967940963125
0.000705865686831672664
0.000578138089111433361
2.72003875589744831e-05
2.65243752517545579e-05
2.58431064446870861e-05
2.51031828788859003e-05
2.42989160954711934e-05
2.34091918998991109e-05
2.24044603417684999e-05
2.12438775163792558e-05
1.98705612470452118e-05
1.82107415157902715e-05
1.63732964412600219e-05
3.50862538111452061e-05
0.000184922567033409934
0.000435534584212314167
0.00114468957171916306
0.000698696141602446518
2.66051462957905523e-05
2.59569846872131159e-05
2.52938183665670038e-05
2.45642996977407495e-05
2.37643591520391718e-05
2.28753763891399656e-05
2.18712647134837426e-05
2.07182836707566373e-05
1.93732172742880954e-05
1.77966366524137989e-05
1.60816084516258826e-05
3.76948158607941203e-05
0.000226745816531778781
0.000655433883741263408
0.00210388861782072681
0.000941567133584498748
2.60477502755417369e-05
2.54287392757321173e-05
2.47854837752407304e-05
2.40706373531772593e-05
2.32815843432242423e-05
2.24027148245096803e-05
2.14124473883731347e-05
2.02848492056197247e-05
1.89888692210805177e-05
1.75111998789621489e-05
1.59079843946921427e-05
4.13627138429919209e-05
0.00030666785849404679
0.00109311385074461424
0.00400015491483461921
0.00133482085497658022
2.55270925834160734e-05
2.49378885318069536e-05
2.43162985949362206e-05
2.36197204843858281e-05
2.28470538312621678e-05
2.19859957223287238e-05
2.1019929617399389e-05
1.99305146763840383e-05
1.86972978152505734e-05
1.73266477073373391e-05
1.58340440563322089e-05
4.64857474073505954e-05
0.0004775599215282012
0.00198785207813770987
0.00706817564682349526
0.00180457575889158596
2.50418459275507687e-05
2.44827004306016927e-05
2.38842748188335872e-05
2.32089110090678815e-05
2.24570662739385248e-05
2.16198894195503598e-05
2.06857980315480256e-05
1.96435037912571566e-05
1.84817109960349571e-05
1.72206112603206982e-05
1.58460418290992396e-05
5.37821869788865985e-05
0.000921329727950792121
0.00347473007228406468
0.0100405325031531142
0.00219535016937896397
2.45905514206602453e-05
2.40614300648258897e-05
2.3487332960785422e-05
2.28355031908158927e-05
2.21078882804601603e-05
2.12991536944443383e-05
2.04025417275877919e-05
1.94132822557244307e-05
1.83283840956916923e-05
1.71794324666022083e-05
1.59375629301659046e-05
6.48940786516022047e-05
0.00249201224875950393
0.0045275114730794078
0.0110563354710188355
0.00233724159660037576
2.41713031422203809e-05
2.36723524940185114e-05
2.3123369146265251e-05
2.24968156736165908e-05
2.17958593261926492e-05
2.10187768647726162e-05
2.01631488917332118e-05
1.92303273661024477e-05
1.82241436118003831e-05
1.7183599875917638e-05
1.6092417074101473e-05
7.85364650093901058e-05
0.00535011198610012371
0.00527780006779396491
0.00981893171511530674
0.00245300321167614844
2.37801230429169597e-05
2.33115539712091974e-05
2.27895225719491003e-05
2.2190280690668597e-05
2.15174703649475807e-05
2.07740908208847497e-05
1.99611462740741934e-05
1.90860264256287749e-05
1.81568788430733854e-05
1.72217039130070794e-05
1.62500572942920239e-05
9.12591082506040253e-05
0.00456833081449443349
0.00526154434225359086
0.00835409194495737549
0.0027091481759896922
2.34157118680731951e-05
2.29763705108059128e-05
2.24817241655664615e-05
2.19123466906310031e-05
2.12694133458070103e-05
2.05608773939751446e-05
1.97906234743408216e-05
1.89727175263905244e-05
1.81170750210317142e-05
1.72862605904718901e-05
1.64203414642715941e-05
0.000104315415861558954
0.00406316430277585319
0.00490310111763096051
0.00768051919807077703
0.00273285184891686921
2.30781780219875576e-05
2.2667809127753766e-05
2.21981300585521678e-05
2.16590453853700029e-05
2.10470605539515289e-05
2.03755281311187808e-05
1.96462858894438878e-05
1.88839300649182984e-05
1.80975068225241342e-05
1.73640483088149884e-05
1.66329858497772836e-05
0.00012806963832677563
0.00362324591752810577
0.00488638412039541902
0.00745964372297924869
0.00287635037038751597
2.27650590367340006e-05
2.23845954705742687e-05
2.1938659110642908e-05
2.14296954673736057e-05
2.08477068582473112e-05
2.02144622101563895e-05
1.95231497354129345e-05
1.88149305855958389e-05
1.80905179412621732e-05
1.74418073526091861e-05
1.68743080551955948e-05
0.000158494209717818324
0.00249842983343030256
0.0054077523978340019
0.00758173260416807743
0.00321184377880863068
2.24764467951002185e-05
2.21264373596321984e-05
2.17006854987216078e-05
2.12243729308259218e-05
2.06654681033453919e-05
2.0072805525165522e-05
1.94116431550800638e-05
1.87557727000831877e-05
1.80728190897452409e-05
1.74982961752383305e-05
1.71632490209755031e-05
0.00018759585906102179
0.00141009917406119314
0.00441070210098765125
0.00714928339889878053
0.00381871886805872736
2.22035421786490504e-05
2.18839621964879491e-05
2.14779993642735161e-05
2.10379810079019828e-05
2.05020554378493909e-05
1.99514487629055279e-05
1.93237300390602448e-05
1.87152881926666333e-05
1.80520663498745176e-05
1.75212710396988673e-05
1.71062162479689252e-05
0.000141841032912075652
0.00127886718444982363
0.00361777925166893418
0.00678369799614203864
0.00473288718473296923
2.92165556193978649e-05
2.84791782477055289e-05
2.77498059760428992e-05
2.70089474162930953e-05
2.62398703146116829e-05
2.54207869669651628e-05
2.45238096407274259e-05
2.35141022093695577e-05
2.23229103090194591e-05
2.08304717097503167e-05
1.87946763401604382e-05
3.55039017815377578e-05
0.000131993964341000318
0.000213161232074938518
0.000356383308294492955
0.000633716570640350499
2.85109930938865069e-05
2.77893177681205778e-05
2.70767361219067466e-05
2.63337070915365915e-05
2.55469401186330464e-05
2.46933634329413739e-05
2.3743295265200127e-05
2.26531110627530814e-05
2.13382913994181769e-05
1.96567943594295321e-05
1.76097970546661178e-05
3.30151291605324771e-05
0.000159786466265226303
0.000269206117714262028
0.000528214109851887401
0.000656087443457486629
2.78388637197436083e-05
2.71386002105869949e-05
2.6442218485838344e-05
2.56989339192435453e-05
2.4900585657017991e-05
2.40247352802186512e-05
2.30406718259295467e-05
2.19035938703713162e-05
2.05424175313020378e-05
1.88460651973318935e-05
1.69099661365969167e-05
3.38051198715119669e-05
0.000165746273176023748
0.000317062419555392226
0.000734812627270814553
0.00071878858960579251
2.72057072294088672e-05
2.65309066868541043e-05
2.58512991672865286e-05
2.51134750941066421e-05
2.43120237788197508e-05
2.34262554577207413e-05
2.24272255076654423e-05
2.12748384546692669e-05
1.99127844279021084e-05
1.82691051847238941e-05
1.64619428050718166e-05
3.58996936453107824e-05
0.0001817763318112619
0.00041450162687158541
0.00113906061024284856
0.000818646549861846182
2.66112300387078326e-05
2.59642771536725647e-05
2.53027824424470791e-05
2.45754068203762257e-05
2.37784134204862283e-05
2.2893705547049508e-05
2.18959733179914535e-05
2.07523831911943859e-05
1.9420514904253919e-05
1.78619395781292524e-05
1.61842400189378502e-05
3.84665000207499779e-05
0.000208665564787076857
0.000558366695662650993
0.00192588503231056027
0.00100832006872843033
2.60546354341998616e-05
2.54368105787532632e-05
2.4795206768643276e-05
2.40825102286218252e-05
2.32964948616250582e-05
2.2422176458504692e-05
2.14389359555664651e-05
2.03219146866412966e-05
1.90409948577839499e-05
1.75830595633980752e-05
1.60240020525417348e-05
4.16295656959663453e-05
0.00024797218345375512
0.000790798926556776833
0.00368334207562717297
0.00128176112506661589
2.55348302831059229e-05
2.49467715306186369e-05
2.43267808233398916e-05
2.36323035948639567e-05
2.2862693380303263e-05
2.20063572651467089e-05
2.10478241725657523e-05
1.99699788993182311e-05
1.8753435847857803e-05
1.74049739130664497e-05
1.59535131513033451e-05
4.57549544580795843e-05
0.000326376939818657976
0.00126924939330985199
0.00693035598909200537
0.00151041069078688907
2.50505164238054852e-05
2.44924489603033403e-05
2.38955370384494171e-05
2.32221459847783995e-05
2.24732823462775326e-05
2.16408348598483432e-05
2.07145603768406795e-05
1.96844308452531984e-05
1.85402724284278343e-05
1.72956158172157123e-05
1.59001183538439951e-05
5.08734924101662364e-05
0.00048642788764115052
0.00199383034535890102
0.00850014487648067391
0.00160146744741992823
2.46002425636492422e-05
2.40721221898082484e-05
2.34994274956204221e-05
2.28493292098910993e-05
2.21245228263922331e-05
2.13203067983129432e-05
2.04315645498696261e-05
1.94546973167586199e-05
1.8379813194541271e-05
1.7234634966873336e-05
1.58892667469963411e-05
5.94901428069415257e-05
0.000826826527402801026
0.00240092191006688414
0.00678134069875389184
0.00167434140692280836
2.41802756513869825e-05
2.36826549073437398e-05
2.31360124346144649e-05
2.25111557468311815e-05
2.18127764534079342e-05
2.10397078286265828e-05
2.01918317128983244e-05
1.92673063575896707e-05
1.82667518124728496e-05
1.72289646092822834e-05
1.59666728539587469e-05
8.2327262918258494e-05
0.00204383010162185758
0.00310929104312914883
0.00616384555380424665
0.00201720453061235601
2.3788688544306369e-05
2.33206207771943249e-05
2.28009658653993981e-05
2.22034792404826938e-05
2.15343174870367259e-05
2.0794081022147092e-05
1.99865476258734386e-05
1.91159632662413645e-05
1.81945409208228352e-05
1.72687493170875294e-05
1.61987210663071845e-05
0.000117483063264687014
0.00448251388602128892
0.00395214171508638003
0.00572188516322027791
0.00231328013807002115
2.34260021294582535e-05
2.29867149773731977e-05
2.24928956022006547e-05
2.19230172176232927e-05
2.12841041951506441e-05
2.05766230594649029e-05
1.98113090611679955e-05
1.89948198870627436e-05
1.81518148795958681e-05
1.73359434690883188e-05
1.65911658832235198e-05
0.00015309536424507953
0.00422040070028751029
0.00359094114028987244
0.00562971341063956462
0.00223462687853253966
2.30905554899605898e-05
2.26794198381669759e-05
2.22117726224788037e-05
2.16677817771178864e-05
2.10600536566997074e-05
2.03859990984519285e-05
1.96627180291818401e-05
1.88966408542730434e-05
1.81244749047747915e-05
1.73960534478759511e-05
1.69357172675317355e-05
0.000149504609004316551
0.00449872315424209614
0.00337992541540863044
0.00560555917021699282
0.00238946374594135825
2.27803108069573588e-05
2.23970594508509864e-05
2.19562456626908915e-05
2.14368713852449589e-05
2.0860300948634235e-05
2.02177835801877448e-05
1.95368340643996494e-05
1.88167947173841491e-05
1.81100353365575235e-05
1.74449603043675681e-05
1.7031672790337727e-05
0.000134781853171187557
0.00565379565258434819
0.00457808574566757973
0.00652284610270655041
0.00279025461284242984
2.24952397362729008e-05
2.21379684757083192e-05
2.172502604992252e-05
2.12264682522198893e-05
2.06829048413520556e-05
2.00659174119385567e-05
1.94257599053436617e-05
1.87421075007043267e-05
1.80901532757962042e-05
1.74879762546698037e-05
1.71927028065869218e-05
0.000145494061890356555
0.00609531165906933639
0.00476564427532099287
0.00670160690891898666
0.00347359966432043716
2.22279905537968365e-05
2.18956254439401516e-05
2.15127296655254224e-05
2.1034019053684783e-05
2.05270192632431428e-05
1.99339299952110225e-05
1.93365363372652622e-05
1.86798168597178593e-05
1.80711023314974732e-05
1.74943874406632809e-05
1.70768175483462995e-05
0.000148126981794292293
0.00644021809791008211
0.00439987941277166037
0.00517946073804353372
0.00427052641456112433
2.92197179897826448e-05
2.84832370278224131e-05
2.77551012578321678e-05
2.70158815386405616e-05
2.62489979451313776e-05
2.54328606017217252e-05
2.45397455033467654e-05
2.35347398385801109e-05
2.23486223775325643e-05
2.08594172619912568e-05
1.88117958022074162e-05
3.54775579158706538e-05
0.00013146386592690761
0.000216331515782404823
0.000358848057348000579
0.00067192181362835579
2.85148102956200289e-05
2.77941036294256264e-05
2.70828970405525388e-05
2.63416710134126477e-05
2.55573209011427314e-05
2.47069910376361924e-05
2.37611741004701974e-05
2.26761477623877453e-05
2.13664050156127108e-05
1.96890438641479307e-05
1.76338129561722853e-05
3.30252595458459865e-05
0.000160510367310729378
0.000277229223405411234
0.000531125303031509412
0.00070482816419621913
2.78433271849769579e-05
2.71440747609832992e-05
2.64491562879432333e-05
2.57077789584002034e-05
2.49120079031990249e-05
2.40396721574037324e-05
2.30603229108615795e-05
2.19291527719607072e-05
2.05741761339230864e-05
1.8884134171260769e-05
1.69448499758158144e-05
3.39258700082563532e-05
0.000163127341397020841
0.000309683970254727523
0.00065467410699975232
0.000737182363748025153
2.72108145087051847e-05
2.65370442822460695e-05
2.58589460331698372e-05
2.51230994255422485e-05
2.43243541211093413e-05
2.34423619148043966e-05
2.24485946901860107e-05
2.13031033413200382e-05
1.99488812732554709e-05
1.83128326347039858e-05
1.65072490460357333e-05
3.60705197573039807e-05
0.000171331337378481289
0.000380967175025625679
0.000935376064297199208
0.000835948331400711763
2.66169850222672206e-05
2.59710588050452203e-05
2.53110825141790108e-05
2.45857151711095307e-05
2.3791506847969397e-05
2.29107940144804496e-05
2.19188802443068193e-05
2.07834109157446519e-05
1.94618752308165077e-05
1.79130222576870699e-05
1.62489715913966424e-05
3.86285644172278364e-05
0.000183927522906404635
0.000500945880856972143
0.00146007832688239449
0.000932825496420725247
2.60610490339485968e-05
2.5444225954778138e-05
2.48041144353249568e-05
2.40934082165777194e-05
2.33101814976686928e-05
2.24399798451733622e-05
2.14629804754972013e-05
2.03553152534737276e-05
1.90881575894834693e-05
1.76471647334157738e-05
1.61304925581368791e-05
4.19365273094037964e-05
0.000209586607512606866
0.00080993872346440184
0.00268434800402557157
0.00115221875794663752
2.55419223648964001e-05
2.49548235840764341e-05
2.43362610909637926e-05
2.36437000153984647e-05
2.28767776836155597e-05
2.20245246703341542e-05
2.10723469628392654e-05
2.00045373603413065e-05
1.88043866123024797e-05
1.74790826939009515e-05
1.61198769693773348e-05
4.61953674524457028e-05
0.000285559273346964429
0.00177702076222932396
0.0049763194206997154
0.00145313710357897804
2.50583276720066372e-05
2.45011621474045134e-05
2.39055686333099017e-05
2.32339640681779323e-05
2.24875523033027592e-05
2.16589609779692698e-05
2.07387133896768339e-05
1.97172613958459724e-05
1.85836302720299112e-05
1.73528768118210885e-05
1.6095447441478658e-05
5.00672746237380638e-05
0.000408071699708129141
0.00206157828862615043
0.00524525058113678184
0.00161153149314242818
2.4608200284122358e-05
2.40811708952851349e-05
2.35100071424441206e-05
2.28615299666182282e-05
2.21387628243302162e-05
2.13379838607289599e-05
2.04526927790438857e-05
1.94786039327286648e-05
1.84056284928927296e-05
1.72551790416559551e-05
1.60258283157395761e-05
5.3197705729610702e-05
0.000518265597023752117
0.0019102277579290945
0.00552833969006184898
0.00186985582048519597
2.41877032715420361e-05
2.36908248244541211e-05
2.31455204346800785e-05
2.25226275359536132e-05
2.18256053548744552e-05
2.10543844055724389e-05
2.02069790649075087e-05
1.92804960473727725e-05
1.82691843106302861e-05
1.72047311887274987e-05
1.5972068448237823e-05
5.87339574103630611e-05
0.000650058738635979653
0.00195700732978630436
0.00665100896695457623
0.00191085848188463189
2.37976214816291118e-05
2.33302728342775113e-05
2.28099077073515077e-05
2.22136084993300106e-05
2.15444226894158809e-05
2.08050907112704804e-05
1.99952076162266272e-05
1.91177162898020047e-05
1.8169882529255975e-05
1.71847065123252843e-05
1.59539083099511632e-05
6.73854153425335387e-05
0.000745460629064267888
0.00285471153367019767
0.0078233369565564384
0.00203856305389927672
2.34365548779501879e-05
2.29987310918337082e-05
2.25031188139953257e-05
2.19335222254331665e-05
2.12911424703664233e-05
2.05841817909177496e-05
1.9813332366950722e-05
1.89863178232207992e-05
1.81006142816209306e-05
1.71840203164296572e-05
1.60180789624230986e-05
7.37883516603106318e-05
0.00126222144168728614
0.00361988220710750307
0.00882320549403425337
0.00220012888740755107
2.31026239849518942e-05
2.26949291274614005e-05
2.2223190633712887e-05
2.16814039926868257e-05
2.1064869123128586e-05
2.03908065342339537e-05
1.96581279991365115e-05
1.8881967502901065e-05
1.8056791350380083e-05
1.72125803746406944e-05
1.6012807190581186e-05
7.77995264254143193e-05
0.000755421628541262159
0.00242651957340892475
0.00766742144786140226
0.00252941807377536415
2.27936165862384707e-05
2.24182275065966589e-05
2.19683974095546395e-05
2.14562608435903382e-05
2.08628950746441138e-05
2.02222928250169407e-05
1.95259920758974357e-05
1.88019441942606443e-05
1.80367386202942452e-05
1.72856874481872745e-05
1.61936495143136903e-05
0.000122336640911298468
0.00341577998003541466
0.00611929492750363634
0.007920977080028287
0.00292076837945126795
2.25075749699027131e-05
2.21685853725974696e-05
2.17355273055318443e-05
2.12565080164980477e-05
2.06797277725854411e-05
2.00739326735860769e-05
1.94091934325126831e-05
1.87365468219261742e-05
1.80260134572773828e-05
1.7380472042705857e-05
1.66736040347427369e-05
0.00020990713894970185
0.00537641065891554613
0.0049343176939671933
0.00725347534871994409
0.00335966200927946979
2.22404952583998363e-05
2.19422145971016898e-05
2.15222273903347703e-05
2.10815529406574982e-05
2.05155977435746853e-05
1.99466743574231556e-05
1.93108758736143895e-05
1.86885615060578142e-05
1.80227101529352377e-05
1.74829757784017979e-05
1.7318263597416297e-05
0.000242811392121505896
0.00346915690209178076
0.00304030218195220194
0.00667820808625561781
0.00425434470921258467
2.92226291908211508e-05
2.84868263261017597e-05
2.77596795905671328e-05
2.70217573320904428e-05
2.62565594776090037e-05
2.54425930888468581e-05
2.45521642058631552e-05
2.35501805115103818e-05
2.23673152079915926e-05
2.08823958799154149e-05
1.88211526176624838e-05
3.5444387655811248e-05
0.000130062863838204353
0.000219404035172691232
0.000358666285728787904
0.000676738384301297461
2.85182911247019419e-05
2.77983395487355441e-05
2.7088254781388853e-05
2.63484902147151233e-05
2.5566069405697168e-05
2.47182578896690275e-05
2.37755595690151729e-05
2.26939377918997803e-05
2.13866971842940048e-05
1.97111145862772731e-05
1.76365409243015482e-05
3.29540179673817022e-05
0.000156498121570702945
0.000272900208241084444
0.000510431663268007783
0.000679569226056976183
2.78473388594010284e-05
2.71488860361999302e-05
2.6455177242459987e-05
2.57153687819414945e-05
2.49216908078316779e-05
2.40521346087150193e-05
2.30763480047756117e-05
2.19492466274830024e-05
2.05977482089672249e-05
1.89103922398691758e-05
1.69461951612904622e-05
3.38263091580970967e-05
0.000158546911669876523
0.000312588726975801697
0.00071591796425705533
0.000707161550494500558
2.72153242634559499e-05
2.65423730254560248e-05
2.58655314289550178e-05
2.51313224084326748e-05
2.43347846798131215e-05
2.34557940006258119e-05
2.24660954193990477e-05
2.13257227359172831e-05
1.99768177345607122e-05
1.83453678305904304e-05
1.65165282703944112e-05
3.60386632962993517e-05
0.000169049716647841033
0.000419286037672631613
0.00117241386233289083
0.000800983973837048014
2.66219641366813683e-05
2.59768510139934531e-05
2.53181424729842572e-05
2.45944369924194726e-05
2.38024903823962264e-05
2.29249330615561966e-05
2.19375666404119197e-05
2.08085527430596814e-05
1.94963687150156705e-05
1.79619263211586264e-05
1.62949761523580219e-05
3.94709065034035237e-05
0.000190761559902397759
0.000638585758958995584
0.00198652953312089585
0.000943991567952610325
2.60664709686354839e-05
2.54504304625632101e-05
2.48115661234755859e-05
2.41024942566661029e-05
2.33215082738968233e-05
2.24544964937615688e-05
2.14823233215301718e-05
2.03821799627365386e-05
1.91286162438473437e-05
1.77130181210550153e-05
1.62306042799634517e-05
4.47019811825777159e-05
0.000242361607242686845
0.00139646668619580381
0.00423998236379699491
0.00120396171842866695
2.55477614692966965e-05
2.49613909575620806e-05
2.43440279921911009e-05
2.36530150415659088e-05
2.28882282199469571e-05
2.20390290448436755e-05
2.10916053743498365e-05
2.00310044786922263e-05
1.88431001315440567e-05
1.75461028127054802e-05
1.62654485702009941e-05
5.03002945521364755e-05
0.000340639137698871405
0.00250693233059694686
0.00603363368390608026
0.00152164328087284434
2.5064564795683769e-05
2.45080417625958668e-05
2.39135828609818231e-05
2.32433730338915784e-05
2.24989135447908711e-05
2.16730265948305458e-05
2.07552955421362794e-05
1.97377715777863946e-05
1.86135769746345527e-05
1.74107499597098675e-05
1.63038340688875745e-05
5.16285185896325955e-05
0.000396240289411081215
0.001940087736819469
0.00678558237756610606
0.00182308427186381335
2.46140039493930199e-05
2.40874765236836494e-05
2.35175631606182893e-05
2.28702379657099419e-05
2.21488203703878958e-05
2.13489203709125152e-05
2.04643037389355154e-05
1.94907337963695518e-05
1.84299072365488078e-05
1.73038244139677095e-05
1.63050348852671982e-05
5.07566782527712684e-05
0.000422085922511685309
0.00167264302461261113
0.00752811773945117647
0.00207169463346987834
2.41945645293386564e-05
2.36974334803537784e-05
2.31522749693544633e-05
2.25295736414792146e-05
2.18334696012548371e-05
2.10617241365203872e-05
2.02129330990965405e-05
1.92865617277974535e-05
1.82855610717724896e-05
1.72319691876561605e-05
1.62800577856348248e-05
5.34400027483620881e-05
0.000558052308086395442
0.00215870818120816096
0.00880915436805049593
0.00251710826384012347
2.38061076353535402e-05
2.3337850033362238e-05
2.2817782046217683e-05
2.22199889764200535e-05
2.15503900123139402e-05
2.08086651445296795e-05
1.99976534181673231e-05
1.91183927598335087e-05
1.8174342805730914e-05
1.71963173936300442e-05
1.62074323359461698e-05
5.79058534890396242e-05
0.000698277722498525603
0.00261322144657085646
0.0100003685218444001
0.00286845932513378173
2.34472424729121008e-05
2.30070968961420348e-05
2.25124620447237371e-05
2.19398215997261678e-05
2.12976928584481418e-05
2.05861758304958329e-05
1.98135171807015019e-05
1.8980275491509035e-05
1.80913891333893162e-05
1.71834896804149993e-05
1.61307418641389776e-05
6.50588658878318535e-05
0.00105335030005243189
0.00489147078842880854
0.00784635467087517122
0.00299764338929937304
2.31165819903113041e-05
2.27034863430088435e-05
2.22346935465655224e-05
2.16866777481018883e-05
2.10728077506667865e-05
2.03903542679862943e-05
1.96562500733512237e-05
1.88675738229748956e-05