/*--------------------------------*- C++ -*----------------------------------*\
| =========                 |                                                 |
| \\      /  F ield         | OpenFOAM: The Open Source CFD Toolbox           |
|  \\    /   O peration     | Version:  2206                                  |
|   \\  /    A nd           | Website:  www.openfoam.com                      |
|    \\/     M anipulation  |                                                 |
\*---------------------------------------------------------------------------*/
FoamFile
{
    version     2.0;
    format      ascii;
    arch        "LSB;label=32;scalar=64";
    class       surfaceVectorField;
    location    "0.0299999999999999989";
    object      Uf;
}
// * * * * * * * * * * * * * * * * * * * * * * * * * * * * * * * * * * * * * //

dimensions      [0 1 -1 0 0 0 0];

internalField   nonuniform List<vector> 
20789
(
(0.0243902694735618486 -0.00546894594157679333 -0.000488724605550708703)
(0.0121122369121069683 -0.0108114858667504258 -0.00050789168665591757)
(0.0121297253456552172 -0.00536469431847637433 -0.000535541331502097854)
(0.0121164090303530342 -0.00535338410581964654 -0.000478273529666551538)
(0.0497144087584798222 -0.00568612855800550415 -0.000433928485016582435)
(0.0368036178033881722 -0.0112213649694166175 -0.000470234469248140762)
(0.0368793721388783191 -0.00558539346477102561 -0.000504176154761882514)
(0.0368390486497414613 -0.00557378903735320907 -0.000436570907049404176)
(0.0760118832852029747 -0.00598963442692957131 -0.00033983283703659914)
(0.0624887933362712894 -0.011646178267776473 -0.000396034659932098412)
(0.0626949532894262168 -0.00579908878803594898 -0.000439337330284544545)
(0.0626207626871259221 -0.00578681772418501369 -0.000356060347526078122)
(0.10411183932691899 -0.00647146096688207013 -0.00019532272602525402)
(0.089572078253644688 -0.0124347190829935117 -0.000278536525862543144)
(0.0899709551074976549 -0.00619237691294432721 -0.000337176112041586524)
(0.0898541080355463873 -0.00617945757989625533 -0.000228748537323676952)
(0.134846857662181435 -0.00717130206558740102 2.29013752159082059e-05)
(0.118779551351737442 -0.0135858584899913575 -0.00010096316605455463)
(0.119319594198838197 -0.0067632070495173861 -0.000184176769169350343)
(0.119140852431565622 -0.00674974633154907643 -3.6023233566131114e-05)
(0.169420667528990682 -0.00818851085060149676 0.000361596777524825826)
(0.151205240027575433 -0.0152615470537228286 0.000168433277253157015)
(0.151972470280379635 -0.00759339264293132366 4.59116945914628797e-05)
(0.151692910398065345 -0.00758009197225309114 0.000254798733226721888)
(0.209566503254755843 -0.00965610296510161642 0.000913552403074097737)
(0.188097885054464675 -0.0176913630750604213 0.000593828995874915431)
(0.189211047798854393 -0.0087985878289428901 0.00040624991049964922)
(0.188750786197000531 -0.00878717354242340015 0.000708606062461631108)
(0.257779996315981086 -0.011925200784525648 0.00188240609112142604)
(0.232271965494077692 -0.0211993154490451169 0.00130240333288123727)
(0.23412415778853829 -0.0105275737952925871 0.000996860484456752296)
(0.233321978096884236 -0.0105232903686391793 0.00145482727094929979)
(0.319109773373646377 -0.0157137724527603717 0.00381960804335314741)
(0.282517296346393776 -0.0268884542200705581 0.00258006013013617648)
(0.285069600602909701 -0.0133329449785952181 0.00203088920528518915)
(0.283458337544431227 -0.0133519613800508231 0.00276943196074594129)
(0.403279081544206497 -0.021881092428916081 0.00894823482327561891)
(0.367486905888360305 -0.0366858107562193086 0.00523913137633138029)
(0.373919065183811294 -0.018104910673285908 0.00413602236192732453)
(0.370543342977961543 -0.0181464587123404304 0.00558125728162829366)
(0.533922273929024582 -0.0598027701179876803 0.0276159428159120021)
(0.342521434186851159 -0.0559927117145377837 0.0125689330930651329)
(0.343493952322820928 -0.0252815508208482122 0.00983688772413781817)
(0.336794248648106143 -0.0262324510621111291 0.0139786233156692103)
(0.925234071407137204 -0.0774324342193625365 0.0720721274347014829)
(0.623703753455885357 -0.163788238302916361 0.0427327233470811696)
(0.663445115606758562 -0.0913067439951884413 0.0292346983693313085)
(0.654182760314693801 -0.102140122523880036 0.0494912300015496534)
(1.14097709235215272 -0.0493771621705330274 0.0893873506426100389)
(1.00286541187316836 -0.0681336965494239027 0.0954295257588098078)
(1.13282576035023608 -0.0578917889281448522 0.0672467605030238474)
(1.13901407497548801 -0.0877384191108347561 0.122750796545497795)
(1.25893570163328716 -0.0246726757533173822 0.0305231172243027732)
(1.15500227222748797 -0.0257453817590506256 0.0609649120557044649)
(1.25437053968612378 -0.0369511515677929323 0.053485827819984233)
(1.34663569800365091 -0.0520072182328400051 0.106845878267578048)
(1.08335123213441209 0.0362608172094234585 -0.184083290084206597)
(1.20309428117457773 0.0675616031501194425 -0.0750518813943721885)
(1.23157678263984427 -0.0103993510884192314 0.00828654240767488955)
(1.43269490247950637 -0.00685264434430235807 -0.0126664820593085231)
(1.09859136264627555 0.274493956519779703 -0.468758851095854134)
(0.99537238272682238 0.103539411354942129 -0.145211659493181822)
(1.28768690552410248 0.0612381724183106435 -0.559202908893438044)
(0.0243479379242437198 -0.0164360426146434556 -0.000489401550353349684)
(0.0120647890366942546 -0.0216007392536595871 -0.000516247375741120786)
(0.0121073535272775631 -0.0161443247381951073 -0.000540516321076047151)
(0.0120931217804156454 -0.0161104385033550984 -0.000476452691602106244)
(0.0494700247854338929 -0.0170493496684378659 -0.000432340644163656739)
(0.0366033792803475214 -0.0223493900411702098 -0.000477677904441508802)
(0.0367657952517808154 -0.016763999875430282 -0.000507537190466290054)
(0.0367228590517458681 -0.0167294505570939542 -0.000432741001257673811)
(0.0755153181601599943 -0.0179401307179624797 -0.000334738348758042308)
(0.062046483823454332 -0.0231761574764521722 -0.00040147935517220268)
(0.0623515716614345683 -0.0173717749410811986 -0.000440540581542201717)
(0.0622731403855247834 -0.0173356109058322751 -0.000348928257912865521)
(0.103344702152955423 -0.0193868183272345659 -0.000184176965891843863)
(0.0888256715934159641 -0.024743841698750605 -0.000280545137865854575)
(0.0892817028041069521 -0.0185465181861525531 -0.000334772298265865781)
(0.0891571212176157368 -0.0185088928660022412 -0.000216138029236417564)
(0.133802374257986079 -0.0214827954607858772 4.45687359826944503e-05)
(0.117740279123421512 -0.0270419058618905361 -9.67581302071659561e-05)
(0.11840500921694147 -0.0202668018140238736 -0.00017530513817664759)
(0.118213601999042822 -0.0202273809817260404 -1.46089019560610557e-05)
(0.167960155013980067 -0.0245007693932763719 0.000400665495603247216)
(0.149723419858911827 -0.0303298398129142402 0.000183366347878127257)
(0.150695853729854168 -0.0227419437095551444 6.54377956370825076e-05)
(0.150395401390674061 -0.0227011821192742019 0.000291163015627969287)
(0.207382400034282433 -0.0288845211399633324 0.000982679925682055939)
(0.185952128059493904 -0.03504795746062149 0.000626782767874914035)
(0.187406790666158174 -0.0263069731217539828 0.000441579908874594395)
(0.186910499859912121 -0.0262681066628038876 0.000770770245381844341)
(0.254721195100469311 -0.0356511938115572358 0.00200005737189598576)
(0.228824444514874326 -0.0419842293301261812 0.00137066218012359326)
(0.231144434791862086 -0.0315121145241584258 0.00105582357033022663)
(0.230275996909144548 -0.0314878562730686803 0.00156500930932492442)
(0.314454442055686956 -0.0471108311775314953 0.00399958346311442888)
(0.277436370344130268 -0.0530109884243507995 0.00271699289744268451)
(0.28137056189674875 -0.0398384132064615315 0.00211450818615855837)
(0.279664924108124713 -0.0398673713808928229 0.00296500682595321387)
(0.396294595761798707 -0.0649493475320675751 0.00885982964612090293)
(0.355323247120189811 -0.0722520831647137235 0.00544097114151301416)
(0.363748126065825017 -0.0544672823806081965 0.00423361708268114433)
(0.36018272699686732 -0.0544905503706322666 0.00584763646913852471)
(0.497871076163431625 -0.148839174274853603 0.0276857136242343004)
(0.332786217265792161 -0.0987801815746067735 0.0129512376187765361)
(0.346221638732882142 -0.0750270215025288095 0.00946509095469708593)
(0.339117689011162904 -0.0764768106808734055 0.0141807141325148)
(0.720433065394569749 -0.164812399233411039 0.0660901216711894668)
(0.559384259796211869 -0.253335195634647181 0.0443800444420330703)
(0.589400147499407834 -0.217284886410784889 0.029001289418475313)
(0.580966380006860517 -0.241839163980559796 0.0477399747524034287)
(0.929153800584348155 -0.0738825454974153667 0.0670070871719041505)
(0.815258407205519897 -0.127975821679811697 0.0835547415447105146)
(0.880928330910770385 -0.103664031471437323 0.0617441303862763871)
(0.864025302716561194 -0.168318466171248904 0.127587062690368569)
(1.11281772684322289 0.018618631803499236 -0.0446100865629707743)
(1.0203010921055149 -0.0728074833402629351 0.0205956969423381382)
(1.06691029802367154 -0.0294610018811479121 0.0378464686825184526)
(1.07686912227559994 -0.0773614895123146268 0.106977095082406826)
(1.11967109256612751 0.238649321239538054 -0.359727442406018727)
(1.08927297737470807 0.0588034739153355177 -0.14784142553353935)
(1.12464265522825113 0.105338628102577825 -0.0726414583877334763)
(1.28238743496254082 0.0734358751738512366 -0.0840665274593484224)
(1.17883228697542819 0.531117345504160676 -0.645029257791595256)
(1.13531075823107441 0.475225399112862545 -0.325913366584360431)
(1.41760810297326123 0.320367264422823816 -0.807930700007567282)
(0.0242017155243010595 -0.0273583610979577646 -0.000504523729829279904)
(0.0119634844465744388 -0.0323210220682369834 -0.000538355729466694207)
(0.0120355325258171605 -0.0269351995720830788 -0.000559534368133568971)
(0.0120206680137589089 -0.0268775396052744232 -0.000487567690506656901)
(0.0490435688619326529 -0.0283255563498497932 -0.000446816615450054851)
(0.0362378580438299513 -0.0333487943708379725 -0.000500242424934053791)
(0.0364809346755967934 -0.0278434822336241748 -0.000526728539341034577)
(0.0364361337657825302 -0.0277846279509456721 -0.000443871814949013742)
(0.0748724178147142233 -0.0298077484223626329 -0.000347286144280014837)
(0.0613720968011650936 -0.0346054871949325604 -0.000423219683165038823)
(0.0618136415555162952 -0.028871393644537148 -0.000458656877982337706)
(0.0617320968351034588 -0.0288096418803282829 -0.000358288425008129502)
(0.102411248913185191 -0.032197542186490874 -0.000193126302181177007)
(0.0878174374025537385 -0.0369188194606702436 -0.000300662723884071868)
(0.0884834575776683452 -0.0308105834803418556 -0.000351019843257488191)
(0.0883538149176463783 -0.0307460178599461738 -0.000222308991069432413)
(0.132456406656585229 -0.0356423466356623614 4.20394816882670001e-05)
(0.116285383814400678 -0.0403086881197537369 -0.000113572483295718918)
(0.11724928602563929 -0.033654812716056845 -0.000188131697561235518)
(0.117049464909867992 -0.0335863753667385301 -1.50279657192824895e-05)
(0.166012222661659575 -0.0405552396289173278 0.000409483620149795593)
(0.14763204730820792 -0.0451219823114230381 0.000172402010559103553)
(0.149022520567675038 -0.0377065377455585299 5.78294054453406834e-05)
(0.148707717165408482 -0.0376331524872818637 0.000301170212344647309)
(0.204486908854935812 -0.0476707296371883041 0.00101476502231645136)
(0.182896413241873002 -0.0519682617494474641 0.000626549839656859999)
(0.184943390234442201 -0.0434904514473885562 0.000441156004963251329)
(0.184419084820777318 -0.0434134889127186438 0.000800293174019516451)
(0.250030036254110521 -0.0584664599847810398 0.00208759770567029006)
(0.22412243239022353 -0.0619408418191943824 0.00139515171886917325)
(0.227275515089596841 -0.0519523183772074917 0.0010687268820305225)
(0.226340758648591406 -0.0518828638389906699 0.00163794373824565059)
(0.305514518858575779 -0.0762136597091745138 0.00415838057584128062)
(0.269809062658576904 -0.077175760220236464 0.00279922115842166658)
(0.274973450068387359 -0.0651081142391634199 0.00215650612330890029)
(0.273142207285385019 -0.0650754329855963015 0.00314629135131685956)
(0.375446091172326746 -0.102542423427391269 0.00953237911416864037)
(0.341189236535925977 -0.102383729119765274 0.00558259301882613104)
(0.350023853224491366 -0.0875688626321871194 0.00425800683120612991)
(0.345569794577339606 -0.0874876527324281728 0.00615632472177827638)
(0.461334464155149893 -0.199226008542519123 0.0296455684365753425)
(0.311093892400583882 -0.13437024142332496 0.0141052212622001134)
(0.324457509086251483 -0.117724572668098326 0.0100943586671455501)
(0.315823343798143308 -0.118715622463105852 0.0152596301081426283)
(0.608042964383055495 -0.218773985129573412 0.0618446643155543402)
(0.50745078839297264 -0.306376130623939702 0.0450411001611284167)
(0.536681065357382248 -0.276471530834718537 0.0280468260448743928)
(0.528345648976575544 -0.309092292619036257 0.0523720434833635229)
(0.858456185011432837 -0.126128926255306584 0.037143351315144478)
(0.751938415569690211 -0.183723922499749115 0.0627026226906704509)
(0.788896468934788819 -0.168066808777230819 0.0471325045248279506)
(0.701006249219635391 -0.222351698844332202 0.158224596913575349)
(1.05432062512985558 -0.0212506317120723966 -0.0826356420282309545)
(1.0290938779897707 -0.11284802808278864 -0.0380909652912176933)
(1.02701350778966316 -0.0914166418031382016 0.00730098072587519881)
(0.928778047961635544 -0.130396290240533091 0.101321280333447894)
(1.0280149213781975 0.343063243323484868 -0.433143240919115935)
(1.05741148532599727 0.0614176742926066735 -0.18872072935244022)
(1.03827600578138068 0.103856966158650671 -0.0842963254741857793)
(1.12270454953370291 0.0561246123578633682 -0.102451360926789498)
(1.13508459699259645 0.723892474638006989 -0.760066858113508714)
(1.06639019471590424 0.756173720255255755 -0.397554774176033021)
(1.32036561104808525 0.498488141925519213 -0.925797136049964386)
(0.0239367465968304861 -0.0381467387616697962 -0.000534074424571468094)
(0.0118050097777718504 -0.0429188983621592926 -0.000574799398650494096)
(0.0119052587764073604 -0.0376172602917356144 -0.00059330749273905567)
(0.0118899852813614901 -0.0375349416682562928 -0.00051213089520309998)
(0.0484124032144330543 -0.0394576623837326473 -0.000476645492649037925)
(0.0357167695088893983 -0.0441807736147945204 -0.000537839123828416947)
(0.0360361732072728772 -0.0387652481488298326 -0.000561346607346021025)
(0.0359901914972411419 -0.0386809997276060663 -0.000469155988931358749)
(0.0738875061749861561 -0.0415275747166186648 -0.000376596262769095637)
(0.0604357441416509822 -0.0458727725576113382 -0.000461062416489612043)
(0.0610049239219843525 -0.0402420021206434456 -0.000493119498829687171)
(0.0609214114246445226 -0.0401535398197808216 -0.000383120681792877666)
(0.100977720935915616 -0.044809821835154133 -0.000221108904998614078)
(0.0864078342587054488 -0.0488893778163242976 -0.000338612293366186774)
(0.087268339602059708 -0.0429093766618193206 -0.000385077994792475987)
(0.0871354002368849023 -0.0428161874914733953 -0.000246013153661802362)
(0.130410394704051275 -0.0495172975520749084 1.67900455751173903e-05)
(0.11426248138173134 -0.0532971589699323817 -0.000150991111224103066)
(0.115500186972768523 -0.0468123916650100488 -0.00022136493669064168)
(0.115294800759084284 -0.046712332104619142 -3.56775314214346598e-05)
(0.163083088900714296 -0.0561761259397024065 0.000389468230066170723)
(0.144756541347839801 -0.0595122740186975335 0.000136211180789623819)
(0.146520866770829261 -0.0523341435972517685 2.50810564882970138e-05)
(0.146196430788062132 -0.0522240935166449621 0.000286922104472102141)
(0.200187356738858235 -0.0657121609189463829 0.0010069365362095821)
(0.178756732030621673 -0.0682630929925049507 0.000593024747586748629)
(0.181308132594650645 -0.0601476437427580016 0.000407363330387946598)
(0.180764511072395828 -0.0600240219498608604 0.000798855166589703086)
(0.243340703267363484 -0.0798219779891809061 0.00210677517162055064)
(0.217948166073718336 -0.0808020441903666148 0.00136946927298701743)
(0.221765865624363651 -0.0714396361620756454 0.00103205807110225774)
(0.220790329023539122 -0.0712990484603344271 0.00166793217829715006)
(0.294604856130134207 -0.10189139426513906 0.004223433601406517)
(0.260217784929625051 -0.0993888971175966446 0.00278138276954436377)
(0.266151188340409017 -0.0884489975998829364 0.00210680981925015455)
(0.264246426600114215 -0.0882648272818896268 0.00324877833527516561)
(0.355488331901983479 -0.132368179172682621 0.0101554351668575946)
(0.32630421711069324 -0.128319323860112688 0.0055634740928787816)
(0.335924765894129784 -0.11584162553705353 0.00414446774787470724)
(0.330972205506601946 -0.115445622455474906 0.00639202302095329654)
(0.426145542361604457 -0.238579183997303351 0.029500752986753264)
(0.290436480132800101 -0.162745204241923624 0.0149283557028019476)
(0.302971121021604284 -0.14961463433057165 0.0104850293390130415)
(0.293086607823104084 -0.150207935712386165 0.0165413873300088651)
(0.556117176977992567 -0.272257583647271262 0.0458990585362447565)
(0.459642802973462827 -0.345659136319163229 0.0389253421164122287)
(0.486686927435209804 -0.32538668819264116 0.020886276095810119)
(0.4774195210216855 -0.355478810757574371 0.0578503363887172412)
(0.891619634900132185 -0.17818462674186536 -0.0125316939156917932)
(0.765200951066376978 -0.248430179429579484 0.00996594513676130056)
(0.78450600676825144 -0.260004049973847073 0.0139880373384453603)
(0.624293688081473119 -0.277852426521578322 0.182799883564791182)
(1.13500404237986596 -0.0418373171598687837 -0.144176052615427097)
(1.1510146233357621 -0.170047639828738772 -0.129690376828966863)
(1.1123901756527188 -0.150802472312331737 -0.0439185020440749502)
(0.94297731535456375 -0.179347493297547567 0.0580235649294006881)
(1.02831107364157925 0.43666816555249871 -0.515644346546833443)
(1.13304742417251791 0.0561399008147529105 -0.270494770550958163)
(1.06511567680146402 0.144940261726331177 -0.104373853298045632)
(1.15603362078757899 0.0458475048545828254 -0.209768900480832188)
(1.153058152479016 0.865668440565749653 -0.85576391971433774)
(1.04972902169756188 1.00211488587480324 -0.446058800315209947)
(1.31074309588231119 0.636994939496797863 -1.07656277415266688)
(0.0235582715557230427 -0.0487748754554210365 -0.000578564097907443057)
(0.0115940325141364198 -0.0533431566776745442 -0.000626207049270406592)
(0.0117189194931147621 -0.0481493205061719123 -0.00064253805640367514)
(0.0117034646035070241 -0.0480412969927421496 -0.000550510140290799851)
(0.0475881574878354655 -0.0504101423446548028 -0.000522256047668991281)
(0.0350495284434661561 -0.054809236388161521 -0.000590933015667722303)
(0.0354395799361579972 -0.0495178129910094217 -0.000611898339149791952)
(0.0353931013195782698 -0.049407015125487147 -0.000508866384713711046)
(0.0725829403175499155 -0.053034272777492987 -0.000423078447086703017)
(0.0592533834299631204 -0.0569211628992404989 -0.000515439497943278322)
(0.0599420266852407485 -0.0514239068564277604 -0.000544463372914724838)
(0.0598577130715759465 -0.0513074609360574946 -0.000423643049006448608)
(0.0990806518427812255 -0.057144442285387731 -0.000268494499591675627)
(0.0846272969461214913 -0.0605910740408550433 -0.000394737606551731081)
(0.0856658887394423918 -0.0547719566423847254 -0.000437486052982429755)
(0.0855315054017748433 -0.0546486665514261394 -0.000287231445013242932)
(0.127724356225308394 -0.0630056796678878511 -3.15699760095968819e-05)
(0.111722487398558099 -0.0659283891587805759 -0.000209254321913813774)
(0.11320591975147011 -0.0596521089357509582 -0.000275370853461285301)
(0.112998102950891757 -0.0595185994062549378 -7.65850144756303428e-05)
(0.159282677937510553 -0.0712213942929653676 0.000339767698310203215)
(0.141184359713054819 -0.0733978641863196057 7.46740321708826133e-05)
(0.143274032795331879 -0.0665077815001325484 -3.27232270863809748e-05)
(0.142945682073167102 -0.0663584291594957881 0.00024760168792416009)
(0.194709178287407331 -0.0828175842257001804 0.000955557484364182984)
(0.173698122240345754 -0.0837966339013260231 0.000525757958605771437)
(0.176665429074786023 -0.0761091450502051348 0.000340651994173780113)
(0.176114994994684637 -0.0759336980529888017 0.000763398148442328834)
(0.235156411342778898 -0.0995707964623848835 0.00204407687091083144)
(0.210603111116477199 -0.0984287909313718012 0.00129046266572730448)
(0.214920611294160652 -0.089753289232658684 0.000944758115058661569)
(0.213939136989157008 -0.0895275021699323686 0.00164443822067544842)
(0.28194354210452055 -0.124602561030494399 0.00412142326101662751)
(0.249338515800106714 -0.119540769695964888 0.00265248970041339965)
(0.255743938497080214 -0.10976025284062324 0.00195567200333784681)
(0.253860293342152765 -0.109382272925966015 0.00324070428572429715)
(0.335291311660747438 -0.157108850339880368 0.0103363946288231451)
(0.310397925246418405 -0.150741369481931814 0.00529255206783798594)
(0.320319763141726055 -0.140294687985823868 0.00381388996320533276)
(0.315126244993455262 -0.139397633682402655 0.00639007020174345731)
(0.395884166771937662 -0.269486158382828911 0.024352944832460921)
(0.270840646487923886 -0.186046535311582939 0.0149253661998276516)
(0.282447257887991299 -0.175687867375743545 0.0103040183015768623)
(0.272699368057002622 -0.174618975640419477 0.017561455384009033)
(0.537991522470695926 -0.327842969090327063 0.0029922287169289255)
(0.415459243928874955 -0.383273170821682219 0.0222522882520789882)
(0.441725398842385486 -0.376005103042617361 0.00478283404910210229)
(0.431363665367547333 -0.389854996064590287 0.0558722935390406419)
(0.995901695776821638 -0.254272746296306307 -0.107192737776513919)
(0.825890808162499046 -0.342266048135863699 -0.0956256929154006979)
(0.827037609941125851 -0.395921923347105631 -0.054695212594857788)
(0.628057943698269505 -0.346025472548160795 0.164664370474526311)
(1.30185949235250908 -0.0902131214974498108 -0.25600909476449768)
(1.32178791335836565 -0.264474800190594272 -0.26775997460768608)
(1.22945751468458875 -0.24843713239939233 -0.144898827820623605)
(1.07868679287890301 -0.27231698567964624 -0.0617920913003299696)
(1.09681468065610854 0.479336308762907615 -0.610614343718463459)
(1.2729594630471972 0.026246699320790115 -0.399698265791343821)
(1.07818935258119497 0.206145055250044146 -0.157626426817859516)
(1.2704238085989803 -0.0196568546136894583 -0.399675503058875004)
(1.22288283824010025 0.979890378678072715 -0.928396504486348806)
(1.09075668615216559 1.19114038022899749 -0.470572832629542859)
(1.38586001467391995 0.703297918580019887 -1.21707595764377796)
(0.0230804075698732014 -0.0591937111344909006 -0.000638575967030686163)
(0.0113365492994186145 -0.0635485913995394863 -0.000693298095631165166)
(0.0114834454997267913 -0.0584864274240806253 -0.000708054560143122486)
(0.0114680510220047625 -0.0583515471626648574 -0.000603011688897046373)
(0.046578682524549074 -0.0611290367372119559 -0.000584116465942009669)
(0.0342471340014837353 -0.0651950318418504787 -0.000660027136103867422)
(0.0347019041853048257 -0.06004805951227455 -0.000679038913946336769)
(0.0346555919790962619 -0.0599094469313361036 -0.000563201819915467162)
(0.0709819946675924324 -0.0642700211796070481 -0.000487098657408306331)
(0.0578421900272111447 -0.0677004204031661644 -0.000586748011118960896)
(0.0586403083812305145 -0.0623623695711049628 -0.000613223816534376443)
(0.0585563180653769014 -0.062216646557251197 -0.000480006930813237412)
(0.0967603502393714898 -0.0691344118371364363 -0.000335497428873868958)
(0.0825089305041098592 -0.07196685314939609 -0.000469270268541921486)
(0.083707518579512849 -0.066337396617655392 -0.000508589367666005109)
(0.0835735430718282796 -0.0661826769522592673 -0.000346043139180726223)
(0.124466127119452902 -0.0760251920971935086 -0.000103010313733334184)
(0.108721189684247641 -0.0781359081251312149 -0.0002883303742299187)
(0.110420076336984196 -0.0721008095684195494 -0.000350162427561454231)
(0.110213019207553775 -0.0719325256849512873 -0.000137930066763841121)
(0.15473060914133327 -0.0855889054592173931 0.000260664292466451363)
(0.137009083715405405 -0.0866998150950532981 -1.16856409803187618e-05)
(0.139373684134896564 -0.0801355644156521441 -0.000114874244159151283)
(0.139047428641955961 -0.0799456760358172591 0.000182609029120855954)
(0.188274548482137954 -0.0988820351172807477 0.000860663139968893039)
(0.167882884985913639 -0.0984806112953332813 0.00042604354471875109)
(0.171180657984605078 -0.0912602460912116248 0.000243250380300296764)
(0.170637077240671203 -0.0910319714036135486 0.000692128037829289476)
(0.225863767001133559 -0.117656355317351455 0.00189887549522987421)
(0.202364982186296893 -0.114760154119129182 0.00116092796805246021)
(0.207036327575360612 -0.106789190253349875 0.000811721479250300634)
(0.206087438405134077 -0.106478124019873971 0.00156192159579412689)
(0.268257948310256955 -0.144625230003191746 0.00382361850723475765)
(0.237612095763647113 -0.137683862342408758 0.00242091742295698527)
(0.244240247521822773 -0.12900303675704472 0.00171104089885668964)
(0.242485871584148721 -0.128435206883706299 0.00310870260670435914)
(0.315085317479516736 -0.178227922802106864 0.00988152363884251331)
(0.294040379065586333 -0.170105523506130507 0.00477147757896723146)
(0.303836198661220969 -0.161407274053035482 0.00322157449173071393)
(0.298792222672181362 -0.160030013156591377 0.0061173456523466712)
(0.368518272199906682 -0.29835328653471338 0.0128247096194456962)
(0.251782634064877275 -0.205658552389873961 0.013997334442608398)
(0.26201486126881568 -0.197885596614076259 0.00937706718395268923)
(0.254026621567007227 -0.194979490105335135 0.0176486208183700838)
(0.534918014136764763 -0.399428281631675042 -0.0763656333802512216)
(0.374328285014380202 -0.425017977412996351 -0.0096732082114861645)
(0.394717279191458825 -0.431675967752912726 -0.0222108283838507899)
(0.388797190467319309 -0.42015064057603807 0.0422102176764294276)
(1.12086919074219571 -0.36367627282232734 -0.256192929746573261)
(0.9286163799012086 -0.473005216419250862 -0.268250470822504417)
(0.881359215159250753 -0.568933094276593665 -0.172856987620169739)
(0.68933758050854832 -0.437701844561617204 0.0865101012383931167)
(1.50590713495926942 -0.169628217267402376 -0.411449145634532276)
(1.47794713708022352 -0.395573680929759808 -0.466931366378067925)
(1.25447224271679492 -0.360474523787013112 -0.301566285130058453)
(1.28132276392227262 -0.40120681316580159 -0.221509006900570377)
(1.20790169996561136 0.510466009625984984 -0.717480426559229834)
(1.37198914323967536 -0.0152963710946900974 -0.546609675410426155)
(0.916975950922490735 0.271154635357869711 -0.234940516606819916)
(1.44085680087104007 -0.133649983647359583 -0.582918204389293093)
(1.29910300231863829 1.10258487636585856 -0.980898123775477027)
(1.15887765462338188 1.37705479235219874 -0.480707151552781209)
(1.49981119464038515 0.745910323753172677 -1.30900542500275874)
(0.0225136036561687028 -0.069361950344055151 -0.000714749264704346533)
(0.0110373188529214496 -0.0734942134981173001 -0.000776870168266997159)
(0.0112038505199405242 -0.0685849976481867213 -0.000790836745850485162)
(0.0111887543738556049 -0.0684219910322959313 -0.000669852644384188014)
(0.0453965959324926713 -0.0715711404228261266 -0.000662658681280818866)
(0.0333210808455375596 -0.0752996822649727726 -0.000745603941173398612)
(0.0338343709774619264 -0.0703171888750257629 -0.000763505407635737166)
(0.0337888450317841357 -0.0701494799088823034 -0.000632333306989936407)
(0.0691108085192333604 -0.0751843955177783352 -0.00056891962225257605)
(0.056222151849933566 -0.0781661099414236171 -0.000675323384443879426)
(0.0571188456683739895 -0.0730100127517142594 -0.000699978227985270933)
(0.0570362163711699635 -0.0728337604750565054 -0.000552297447654349774)
(0.0940612690655274475 -0.080723009571526283 -0.000422103213897971283)
(0.0800883660387171903 -0.0829677629972211395 -0.000562325364482215697)
(0.0814281354882499392 -0.0775524586633543483 -0.0005986969331855705)
(0.0812963077525421657 -0.0773651857417328448 -0.000422498054897391042)
(0.120709159228669635 -0.0885120566691952881 -0.00019700570147690273)
(0.105317118713018701 -0.089866462491694582 -0.00038793457267913262)
(0.107200766355837293 -0.084098432901976744 -0.00044551019176411672)
(0.106997443870597481 -0.0838945988813988991 -0.000219900249501670333)
(0.149549781439438229 -0.0992108578188815593 0.00015369361127198181)
(0.132325577499916913 -0.0993619421536398872 -0.000121828189701664004)
(0.134916091314369213 -0.0931496686673295715 -0.000220003505047291071)
(0.134597403355565221 -0.092919300897513421 9.16426777392186293e-05)
(0.18108961671336779 -0.113855836712638284 0.0007263083728023188)
(0.161464579116181534 -0.112265598081032023 0.000296673466710348547)
(0.165015781282533719 -0.10553104821734649 0.000119194194406298227)
(0.164490925934132476 -0.105252732597844484 0.000584858170692453393)
(0.215783420132932224 -0.134110320067817285 0.00168296989577957083)
(0.193473354416769772 -0.129790924296758287 0.000989685119170625105)
(0.1983786404441647 -0.122509345350673954 0.000643550595707313776)
(0.197494504756592637 -0.122126944605483234 0.00142099991827441012)
(0.253987671038705953 -0.162240593225005447 0.00336877649468946428)
(0.225374804527084915 -0.153933921786512939 0.00211703665263220575)
(0.232036747775763857 -0.146244226729096233 0.00140031629485082927)
(0.230498827748821522 -0.14554506441499579 0.00285934292521116242)
(0.295182855573817793 -0.196520388785820288 0.00888728838273313698)
(0.277487685142838336 -0.186814820599784492 0.00409052294302681904)
(0.286968542888924094 -0.179521822166718054 0.00241751253383416711)
(0.282431769483528883 -0.177880025876569176 0.00561641350100667777)
(0.345063821096884216 -0.330975089806018197 -0.0085005833883235668)
(0.233503663704883818 -0.223315070268295834 0.0123944099926127909)
(0.240759365343954146 -0.216816502153322072 0.00791890282623439017)
(0.236534146660690892 -0.212591918308280725 0.0169441831008173144)