/*--------------------------------*- C++ -*----------------------------------*\
| =========                 |                                                 |
| \\      /  F ield         | OpenFOAM: The Open Source CFD Toolbox           |
|  \\    /   O peration     | Version:  2206                                  |
|   \\  /    A nd           | Website:  www.openfoam.com                      |
|    \\/     M anipulation  |                                                 |
\*---------------------------------------------------------------------------*/
FoamFile
{
    version     2.0;
    format      ascii;
    arch        "LSB;label=32;scalar=64";
    class       volVectorField;
    location    "0.780000000000000471";
    object      faceTraction;
}
// * * * * * * * * * * * * * * * * * * * * * * * * * * * * * * * * * * * * * //

dimensions      [1 -1 -2 0 0 0 0];

internalField   uniform (0 0 0);

boundaryField
{
    inlet
    {
        type            calculated;
        value           uniform (0 0 0);
    }
    outlet
    {
        type            calculated;
        value           uniform (0 0 0);
    }
    top
    {
        type            calculated;
        value           uniform (0 0 0);
    }
    bottom
    {
        type            calculated;
        value           uniform (0 0 0);
    }
    left
    {
        type            calculated;
        value           uniform (0 0 0);
    }
    symmetry
    {
        type            symmetryPlane;
    }
    interface
    {
        type            calculated;
        value           nonuniform List<vector> 
352
(
(1377.27206864797654 -0.0111589974267587676 -0.0390091257450342482)
(1257.08201383240771 -3.81443273989842045e-05 -0.0401245700869690691)
(1137.57617222982208 -0.00075450483691805138 -0.0401410323265780217)
(1019.16748558074971 -0.00203759136667263719 -0.0401310518473435782)
(902.514493268123488 -0.00317348097084949998 -0.0392660135946628006)
(788.345068594834402 -0.00447149638691358379 -0.0382503699784567525)
(676.655215801140798 -0.00626782290254361465 -0.03737990645801198)
(567.495269525432377 -0.00877398450977641756 -0.0369934596853902994)
(458.716381362038248 -0.0120257370787433971 -0.0374620276946322148)
(349.004905300470909 -0.0148897349082162834 -0.0364518831045655481)
(239.909033565543979 -0.0168116343004300201 -0.0336333974314581702)
(135.242142244063416 -0.0195849036971709398 -0.0304901057756204082)
(42.8003768216396097 -0.0205568711534745638 -0.0233902792078467085)
(-14.6411287814034647 -0.00833297962701625046 -0.00657624378653763782)
(-34.2970760127362766 -0.00120009035356674013 -0.000569275912820551948)
(-29.7847811274437824 -0.00140839412456092048 -0.000821041274087702297)
(1442.80349525333509 -6.48813162760591934e-05 -0.0268515108695346373)
(1322.14251317315916 -8.28915627008748173e-05 -0.0279702780941523364)
(1201.35039010855371 -0.000433988186479888937 -0.0277618342943294384)
(1081.17756546413716 -0.00128323070945232653 -0.0276154994597663898)
(961.986385740253922 -0.00219734741569622451 -0.0276502657369547579)
(843.865177897977219 -0.00333488088567279913 -0.0275201897843427544)
(727.75944692438577 -0.00456584153341421661 -0.0269460790822821997)
(614.262028788352723 -0.00587093086569066315 -0.0265401904931530618)
(503.140816122321155 -0.0072703342250115743 -0.0261914139689621225)
(393.057897131780237 -0.0104915403170226622 -0.0262329811356192856)
(283.509630602573054 -0.0139703275250500029 -0.0258189234732726057)
(176.996701297916928 -0.0171305067448160632 -0.0246254060315606559)
(74.2724439742462152 -0.0194812592093259705 -0.0219809629602726216)
(-8.4750265172989252 -0.0129129412284687273 -0.0112387892906798612)
(-48.0937285691224545 -0.00321549544648355029 -0.00214373379509551036)
(-43.1889448637746014 -0.00286515562516427265 -0.00133589239667059588)
(1474.23211024674333 -0.00768682910922135251 -0.0217885021297173666)
(1353.52743080738196 0.000955845904058475197 -0.0233703069763848068)
(1232.64065636219129 0.00126255160661020217 -0.0230415057734300044)
(1112.25125029358992 0.000601386351858077916 -0.0229798490975505199)
(992.679630719171996 -0.000245004402538985652 -0.0230357485854217198)
(873.858657908561213 -0.00134482030342757456 -0.0233189288642227308)
(756.21306026570187 -0.00259362696343487867 -0.023275841769059738)
(641.153032542479195 -0.00398863254392786432 -0.0229809063002462122)
(528.763830256562073 -0.00592609139565687063 -0.0227408681420937474)
(417.929832991353521 -0.00878636718659899126 -0.0222886954941056217)
(308.592425510469127 -0.0126427925331438207 -0.0215634172330197681)
(201.757584092709266 -0.0148938485499524962 -0.020335010673992366)
(96.4394851087041474 -0.0176431824518194294 -0.0185787747803577742)
(-1.11857621238656635 -0.0164932869604172 -0.0127734912534565627)
(-56.6648540451595224 -0.00561032611195669707 -0.00318068354944421681)
(-51.8698479282731739 -0.00264193987145598793 -0.000970044769761145326)
(1488.08995128084234 -6.76661982905063416e-05 -0.0142226920550047094)
(1367.21023497030433 0.000724741210463584811 -0.0158398740831505978)
(1246.37856394297341 0.000984615168675841623 -0.0155216447004527126)
(1125.97799115984571 0.000584209711037514921 -0.0154355245864415368)
(1006.2817934927815 1.44217004198421018e-05 -0.0154680317948169901)
(887.725808626819003 -0.000813724914545408849 -0.0155655687606193992)
(770.618999344832673 -0.00178237197527983848 -0.0157557398419839977)
(655.899951354081054 -0.00291452647067227911 -0.0158306052090124612)
(543.67790775357696 -0.00497941382376187493 -0.0159435830929570352)
(433.035236484630786 -0.00802726568731125349 -0.015836671181744727)
(324.573945794461167 -0.0118275301908683673 -0.0152801786925227841)
(218.819582543564451 -0.0142217836065206289 -0.0144871233702173439)
(112.627201441866774 -0.0168583619149707681 -0.0133852334956056623)
(4.8525612366034041 -0.0189851647686404279 -0.0111685445901145049)
(-62.3053858972870316 -0.00672415523193116947 -0.003018630696808953)
(-57.3860040109655998 -0.00245077286053677892 -0.000740494052925230023)
(1496.13860822138668 -0.00107293180779941726 -0.0117403816785328109)
(1375.60334883143628 0.000873491680379343905 -0.0127995594565725578)
(1254.65130451556138 0.00122419674139498912 -0.0129243592631606667)
(1133.94901231764197 0.000928255522425216269 -0.012882165350436155)
(1014.34535219894906 0.000521733501274251085 -0.0129008276061802936)
(896.093600757443255 -8.77844515334527431e-05 -0.0129918152723117637)
(779.569226875199433 -0.000794518011984689417 -0.0131281364621549032)
(665.520552674913461 -0.00216617096846807942 -0.0133425889685479439)
(553.614831997812985 -0.00433439374286630642 -0.0134234018042825604)
(442.817395855326083 -0.00767881828096288362 -0.0132834817575431044)
(334.666848648399764 -0.0112625887351168845 -0.0127397389095835999)
(229.290247078208694 -0.0138330077581825354 -0.0121789515717313761)
(122.199705832973279 -0.0165883795383664732 -0.0113886677400840009)
(8.86257116231607256 -0.0202745652368267713 -0.0100512732677346239)
(-65.4745504136033674 -0.00810375201701512421 -0.00291823418800238061)
(-61.7203402799641125 -0.00306258035293013528 -0.000737822649820580332)
(1500.12649266532935 6.1608451818625384e-05 -0.00649956062652013757)
(1379.63586035904473 0.000964015093115423824 -0.00798272826595755949)
(1258.65864355805138 0.00139092727500644809 -0.00792412025177485595)
(1138.06236905709898 0.00118304978376500454 -0.00782213570629358527)
(1018.77134615352463 0.000824179163911161632 -0.00784191845166560923)
(900.795292739899196 0.000318124062939991793 -0.00793348789567119989)
(784.649977751763004 -0.000420215747493658321 -0.00803181180106627216)
(670.981330136112319 -0.00183457629306569398 -0.00817520946745763609)
(559.189876048106953 -0.00415508343795758812 -0.0081877804471169064)
(448.578053343002125 -0.00783428112567835684 -0.00801532713131911621)
(340.526412844144545 -0.0112011678304327691 -0.00742882322407137797)
(235.182378600404718 -0.0137902240648101384 -0.00679824310086547985)
(127.255535125749844 -0.0165460163378942093 -0.00617472182611950027)
(11.7141716953487904 -0.0205477005762489326 -0.00572227776313493242)
(-66.8744914266191017 -0.00979658847599367347 -0.00218879700805064926)
(-65.1636140420544621 -0.00358126436327041659 -0.000609979006508762247)
(1503.03686781322313 -0.000164889555713420769 -0.00400980019369216734)
(1382.20622883810006 0.00117005341160540243 -0.00490214848392420306)
(1261.31610696899679 0.00171635758167255578 -0.00481856623654730067)
(1141.36663415567546 0.00163586938650932528 -0.00485275927100586434)
(1022.43161247478065 0.00123935858042355652 -0.00495356888548460078)
(904.796570842635788 0.000800233428241486347 -0.00505369221995699298)
(788.990811702077849 -7.4003482088470099e-05 -0.00516523650505150769)
(675.865808737174916 -0.0016082034027268175 -0.00527171275508039015)
(564.141423192712864 -0.00418557400459437356 -0.00528197168871628528)
(453.750032347942295 -0.00812067517304581807 -0.00516998689623560364)
(345.994845299777182 -0.011116196441423162 -0.00480725695914177315)
(241.046919820223678 -0.0133904504430604147 -0.00441497225841867152)
(133.116417269835551 -0.0159958155018563378 -0.00387084514018710924)
(16.5007767539763783 -0.0204575254298699875 -0.00341889569415919532)
(-66.2862686635704108 -0.0115362056130359058 -0.00153024687008759298)
(-67.6977670137569021 -0.0039473140194190284 -0.000443160133037158986)
(1504.27762893834074 0.000258168419768151363 -0.00127705844807298992)
(1383.28247101193892 0.0012287762393583296 -0.00156567511648254333)
(1262.41944817214562 0.00187828036534172862 -0.00153675693852650241)
(1142.74996828410963 0.00182782105762063383 -0.00154975048384668941)
(1023.9796652667435 0.00138770473845513647 -0.00158329265759492343)
(906.522639445493041 0.000968616766591883665 -0.00162315412031088378)
(791.012063822151845 4.20288194193567814e-05 -0.00166225752850529085)
(677.946770660051243 -0.00157249432402139394 -0.00168660684735988733)
(566.198231609118238 -0.00424772497348458941 -0.00168155814026888775)
(455.841607940186179 -0.0081642829318883843 -0.00162236867464115924)
(348.175156774414972 -0.0111480989030813809 -0.00151597240616798638)
(243.32847619285684 -0.013380326936327543 -0.00141543605657451022)
(135.278164708558819 -0.0157246333254848769 -0.00124954361629537876)
(18.4911519842627428 -0.0201616447296791602 -0.00106789507655345012)
(-66.1249891377343602 -0.0126055536909657848 -0.000498063917393429755)
(-68.8048883100374411 -0.00416910338662796875 -0.000146532693084298746)
(0.0495996412950344481 0.0301482838992118037 844.976321994582463)
(0.0487574456548818536 -0.0029180209635427906 727.167351367526749)
(0.0469273040719985282 -0.00739000540178042387 618.763590546111232)
(0.0444120378958899331 -0.0113243766476151166 518.435429698816051)
(0.0405502741551733645 -0.0171599956227647364 427.226087828371078)
(0.0353038870480890665 -0.0259558093282983085 339.442949008352628)
(0.0295879110636330968 -0.0361519400626411982 250.423267680615169)
(0.0235501944765244726 -0.0452570623576336942 165.311703108225231)
(0.0170355889172308511 -0.051795241844040267 94.2074921395529969)
(0.0102475191556252385 -0.0538390016136716804 43.2242163756809887)
(0.00387951610596377373 -0.0377534704011772901 12.9011951703360808)
(0.00251164882325848656 -0.0145069154514329921 -0.619832026467047048)
(0.00377781458959266158 -0.0116789704786926154 -19.1980448259198724)
(0.0010848983951673879 -0.0020732798671857758 -39.0614542216344773)
(0.000965795803981600999 -0.00143610376456564126 -51.2351013163493931)
(-0.000457764149115463944 -0.00715857900438691009 -52.456279325069417)
(0.0413538221521767765 0.0149550530332991562 924.347888881801282)
(0.0398072042514501373 -0.00804568728166615149 814.651770901317036)
(0.0364953728874800945 -0.0167041274250245494 708.084508839363707)
(0.0318480326028085375 -0.0267148742267795114 596.569672057816774)
(0.0267731780404853043 -0.0356147964321161387 480.097169746387578)
(0.0218759383404412422 -0.0409461137164507313 364.105884422494512)
(0.0155192627476010894 -0.0386168799798002546 254.655965750016662)
(0.00586105703415973171 -0.0230492545596910695 160.296048701615973)
(-8.70321722678406745e-05 -0.0088614591671497666 92.9280187035069503)
(-0.00307795999666300507 -0.00553135756135322062 53.9430034492322363)
(-0.00358907912869841413 -0.00149915049864343024 38.91333853591928)
(-0.00556264658114703336 0.00142830362119790379 28.6364698759062861)
(-0.00347473913819338655 0.000198634154865456148 7.34304842120377632)
(0.0016682235056274964 -0.00481977970138193663 -29.0391745912108732)
(0.00291903199289234678 -0.0130285280024892685 -74.2921716130381782)
(0.00179170968942391666 -0.0164754370095400275 -93.9870408265594222)
(0.041610833441658765 0.00215522857331805961 977.423791396454817)
(0.0388665788715893759 -0.01505566052134516 856.599119999069444)
(0.0350690176309010754 -0.0278228836968972791 728.341992849743519)
(0.0326917447587641435 -0.0362556996781062263 598.983764051286812)
(0.0314482860001030762 -0.0398402562369589222 476.594645148606503)
(0.0264605903099910909 -0.0357189883073921813 356.342431562209754)
(0.015663505266173286 -0.0223416874920632849 238.57502448240561)
(0.00550749986097434467 -0.00908221033825775369 144.971366118827717)
(0.000449796379915209021 -0.00149417643122342725 89.2586481298537393)
(-0.000600994124865039192 0.00108255604208346815 61.9078901767299357)
(-0.00163293620664012556 0.00275981530697597685 42.2565074676887775)
(-0.00137132335301978704 0.00196927367112429081 26.4558709951335445)
(0.00404345947014807337 0.000163507954169512057 5.54220754711832253)
(0.00555925656081106279 -0.00698143807546221067 -26.2693232131327044)
(0.00595951141241361001 -0.0174913547550134794 -79.0994885977217592)
(0.00471325217233411423 -0.0217468515642264409 -106.988425103353677)
(0.0607495105264631852 -0.00618388327337698798 863.685976061516158)
(0.0598333749787760619 -0.0229169953747869436 736.184922939578541)
(0.0604121741841802049 -0.034813301669341469 608.080407347012851)
(0.0605069505217547057 -0.0398467717600468896 492.585055690311037)
(0.0564077309774741811 -0.0391782766091689771 383.42895288967253)
(0.034998576629018438 -0.0239880843238665514 270.567434290702238)
(0.0143925524324108808 -0.00812534997669417565 178.791904650756749)
(0.00218313528589938501 -0.000576469436168701443 122.866755262307876)
(0.00133543309848410457 0.000497137293079432828 91.149245674158422)
(0.000466116521739674665 0.00152457456218299731 79.294202689138416)
(0.000216113870344682293 0.000801863378301274519 65.21624902222419)
(0.00282042535131975854 -0.00964736459539863866 36.2817383303516863)
(0.00386977374593828029 -0.0123934505863358881 7.3955122968769631)
(0.00496411958624072645 -0.018007688204290058 -37.2175142506735881)
(0.005818753293172425 -0.0231739110159434672 -96.8248878375122359)
(0.00670188007562014503 -0.0219656985768509512 -116.438985980756073)
(-161.857129147130593 0.0363016385791427934 0.01632138869789845)
(-77.0482510320390475 -0.00863460522886624025 0.0118361608369219121)
(-82.9888334844848146 -0.0123453207337428147 0.0130531739846574645)
(-85.5358091901367885 -0.00928067409561598826 0.0122077487602796596)
(-83.9552308025530891 -0.00807030992220927369 0.0127959622624642839)
(-81.2679130221628867 -5.44808875501079327e-05 0.000115729929691362377)
(-81.6461447216477154 -7.14096700590419908e-05 0.000170969224745417815)
(-81.1225259187781376 -0.000115599861577205334 -1.37251945385833421e-05)
(-81.4531969594833782 3.8777371942645301e-05 -0.000335479078712750908)
(-81.5917531017039863 0.000100862547360993645 -0.00028235721611463661)
(-81.8669196711759923 7.5056725975403512e-05 -0.000228085173014403825)
(-81.6013052591844996 0.000141183458435679683 -0.00024433603762742521)
(-80.618432767404471 0.000272828887710374688 -0.000375645237554295705)
(-75.7461619606044962 0.0011264126500738251 -0.00126780505124218616)
(-49.0202441635874209 -0.00907358684910626427 -0.00835419773149580908)
(-2.58174482786940596 -0.0155482685248503096 -0.0101128979839735615)
(-130.755744807903909 -0.00425311981637184824 0.00890885485598715519)
(-86.7934085076568209 -0.000147511647955465017 -7.46004985049417233e-05)
(-86.7591397744878066 -4.00294788517878514e-05 -0.000400918548540282207)
(-86.5616342257863352 -4.01008927690659487e-05 -0.000497941631170671292)
(-85.860945632798007 -0.00015673754135466742 -0.000560599327208165894)
(-85.0624698094609073 -9.94661240093036255e-05 -0.000575831306111875604)
(-84.4553406321669087 9.0458039214832594e-06 -0.000579537012700270934)
(-83.8486140643096718 0.00015317091232114517 -0.000529437767347604735)
(-82.7856422467674662 0.000250847138519784353 -0.000455697517634351314)
(-82.2879109370979052 0.000228186716970108324 -0.000391529298115934768)
(-82.3228394155869552 0.000141332960692137016 -0.000361247169523159703)
(-82.5108976935691203 0.00012682214415815003 -0.000363740416846294716)
(-82.5823217052164864 0.000180115128175923901 -0.000407180291042854789)
(-78.0246845393174624 0.00156556060971545078 -0.00173868804140483502)
(-49.7760882352713949 -0.0108050408423968815 -0.00605308817415028694)
(-4.2918381393214986 -0.0171487975645721567 -0.00708703564974068161)
(-116.993052519807947 -0.00972090124557149077 0.00994271902183164677)
(-89.6191428970810051 -2.11609397438981031e-05 -4.4909955032478e-05)
(-87.8702092680715054 -1.80315168534224849e-05 -0.000343553752528848232)
(-86.6349794524495991 -0.00011852043180810957 -0.000421075956735547858)
(-85.7768099864613873 -0.000188355686240071165 -0.000396345229283491811)
(-85.9393708335579021 -6.90730796411543696e-05 -0.000369596614131720389)
(-86.2251266252780653 6.83164881057691831e-05 -0.000386610734399539838)
(-85.714978430933229 0.000257767727694441543 -0.000400407349687189229)
(-84.6471941118675915 0.000361905396213233485 -0.000415686613458520653)
(-83.7906020307879942 0.000288119911707035426 -0.000398565337425756691)
(-83.3023318006891884 0.000176172377082116393 -0.000386443269460339824)
(-83.2991600216263066 0.000155822191911743888 -0.000378789434364711877)
(-83.2589853086964524 0.000208966928646263015 -0.000390298930960620248)
(-82.1628066050989787 0.000723307134123588177 -0.000404239265182992295)
(-61.4539769088305405 -0.00684106887023154964 -0.0069160726889088012)
(-17.0472892922462727 -0.0156635125661790907 -0.00722320530813138056)
(-109.671424733726468 -0.00367950483129588857 0.013668159376432119)
(-90.5910477988328893 8.89325813211401051e-05 -0.000267574230506629433)
(-89.7066459551845981 -5.06195503370676834e-05 -0.000469380967949053194)
(-89.352909950998793 -0.000205344146172053619 -0.000466235079258858114)
(-89.8201777241074808 -0.000196570242501195526 -0.000398588568371485903)
(-90.7616150034152298 4.97523895691014589e-06 -0.000429652539541612707)
(-90.4747849701701341 0.000221861604317723042 -0.000409139095436549601)
(-89.0004575740535842 0.000342800472552121712 -0.000368546841873234189)
(-87.1889412883958244 0.000393127396185774568 -0.000403406897868505815)
(-85.8165865905827587 0.000337799429547015371 -0.000440932053966887057)
(-85.0198734449011084 0.000220119676083703329 -0.000436968615742829481)
(-84.9665855608063509 0.000205102975467183864 -0.000410038281297640664)
(-85.1414994857423437 0.000260254853342437964 -0.000411532541828886489)
(-83.1366446723859696 0.00141691677723609758 -0.00044652345387607978)
(-59.1192427135756162 -0.00680335148308964122 -0.00279387866965250323)
(-15.0385013096312203 -0.016119981010439044 -0.00449088166345845349)
(-109.708107029412488 -0.00327026903760256745 0.010102724254730874)
(-92.0201935842585215 0.000110761414120667261 0.000479779095775381876)
(-91.6563923572932282 0.000149128238395059958 -0.000490858066526106722)
(-93.1089409594599999 -3.65059326982263208e-05 -0.000589747287781897003)
(-94.0246901389289178 8.28271673181569478e-07 -0.000561801650349698042)
(-93.7254330875526165 0.0001937541429551336 -0.000545321659391120568)
(-92.2707019255767307 0.000314070184401966197 -0.000449309724909970867)
(-90.4463532304813356 0.000389769884924978226 -0.000406035387807060619)
(-88.6720374378606948 0.000404992050952780475 -0.000425321554838088982)
(-87.3540524483617844 0.000356473564514293709 -0.000443649010511559078)
(-86.4108479432856456 0.000284561532492776125 -0.000471949217343389695)
(-86.2480530053767751 0.00029908733126109442 -0.000432951239783149874)
(-86.6625041414305031 0.000357598577218539067 -0.000386993467572055644)
(-84.179396064359679 0.00198160448382915825 -0.000519004573479871114)
(-58.4697382884791352 -0.00674043486089103989 -0.00313693180238527707)
(-14.1839743121889246 -0.0165785359284157212 -0.00411340884956433363)
(-120.586066390187995 -0.002158305898213008 0.0074062701630988265)
(-102.206923447429602 0.000761036216942518402 0.00134232399725304086)
(-97.2848687694946506 0.000432892957496573661 -0.000377663881586299817)
(-97.1201204479185236 0.000308167875817294697 -0.000793922842179032857)
(-97.0797384937796437 0.000310888099279955129 -0.000794201050066930983)
(-95.6720631649934603 0.000436418231314116185 -0.000772869164280506329)
(-93.220458036087706 0.000908406830411629816 -0.00113766892773458196)
(-90.7993506578112175 0.000430355810937951984 -0.000452969501490142876)
(-89.1836591811141517 0.000471898887378060139 -0.000498221072704004789)
(-87.8333740294809502 0.000449745466344780647 -0.000513402464206325656)
(-86.681140690888185 0.000410203321454693202 -0.000510966826675534301)
(-86.2223226504060989 0.000414247075593926809 -0.000515399712670782674)
(-85.8794456723483819 0.000535001131156651196 -0.000306562761884417341)
(-81.9043286419818486 0.00210632760910156114 0.000298849184782091386)
(-53.4543444563014631 -0.00884620388858965538 -0.0002947174409511854)
(-6.43433235200120102 -0.0177997821196311211 -0.00237368188895311152)
(-138.850467655608924 -0.000572537355412872876 0.00131862183922142051)
(-123.072506568846961 0.00165836972151177722 0.000557458411456997096)
(-110.216436973008825 0.00227883647867907577 -0.00268090931801006531)
(-105.006142036880391 0.00129956476304019354 -0.00200216056270099583)
(-103.172254226054633 0.00154818901497949394 -0.00195499413009493596)
(-99.6648482456362927 0.00270017960053332796 -0.00262918133935396547)
(-94.7990434499479875 0.00263161485813929617 -0.00190934230315080119)
(-91.3875306078037823 0.00099530140733586521 -0.000640747478632782601)
(-89.9704192874601603 0.000667358887948418518 -0.000420436896023676911)
(-88.6615916054350208 0.000632259249628104028 -0.000444011889505566712)
(-88.3531665819722036 0.000638806139275292805 -0.000424483371090592792)
(-88.8549130737283974 0.000660426881627436293 -0.000464045877519188451)
(-87.8350951142946883 0.000800478711630056941 -9.0977153307409878e-05)
(-75.2384656538354051 -0.00129554661848717821 0.00150806482013867284)
(-31.7138858593235078 -0.0152455698532236155 0.000404210894881149496)
(19.3988741653433863 -0.0212704734990693638 -0.00116076654839715487)
(-165.586417430709872 -0.0017073866136710907 -0.00127644727768558785)
(-156.404632615987822 0.00110961848061533848 -0.000866461175208507544)
(-144.923411107702577 0.00272168222560502859 -0.000314732653895951134)
(-134.053691213961997 0.00341385355687306774 0.000228031917220749316)
(-124.63836319932939 0.0041563242315714689 0.000394558190669821443)
(-113.854082199784273 0.00474341686190393654 0.000387214868491438634)
(-103.629672697288527 0.00339546023827470497 0.000220027183993676143)
(-98.391847986700725 0.00146592107567738517 4.76344930940455805e-05)
(-95.3390758396738391 0.00127232957167938416 -4.91860396598828197e-05)
(-92.7724674469661323 0.00111114631786152739 -9.30075543593027919e-05)
(-93.7743016805599865 0.000935169758942496214 -0.000136009020310507946)
(-96.9162266083888255 0.000753320824999187595 -0.00017874597871972981)
(-93.556330397525798 0.00265404144167713605 0.000557048951820031087)
(-69.1623499036792282 -0.00877240773461424733 0.000690767812161213182)
(-8.27713468601261404 -0.0190300910634090964 0.000361118843995827498)
(44.6908482906285727 -0.0238510066539483374 -0.000195590978577628045)
(-0.00265182283112379768 -86.875261938690528 -0.00652076056970113047)
(-0.00295081482612823912 -100.50502955284415 -0.00521699686468376275)
(-0.00338200568951587018 -105.142313582168967 -0.00479085216023257369)
(-0.00356394877205686673 -108.476012109525797 -0.00382919589967353584)
(-0.00373930436338082992 -110.694002886534562 -0.00309231666411509095)
(-0.00388346777576369269 -111.652471329157891 -0.00223794031948145291)
(-0.0040969739469878955 -112.349716890429463 -0.00153576171973496527)
(-0.0041274798011761071 -112.01921673333176 -0.000531365237136685728)
(-0.000797772907609132576 -99.7792859062865602 -0.00658921052182947879)
(-0.00257064392363148429 -108.281222654757642 -0.0066035353835148065)
(-0.00278693441813412067 -114.394396374536598 -0.00562585220803097676)
(-0.00296911767139913709 -120.07748502810577 -0.00423956205053711583)
(-0.00319245045122817407 -124.702164244621116 -0.00330740699899972164)
(-0.0034970669583357511 -127.038919850521225 -0.00255795615175073753)
(-0.00388126963901521587 -127.924972200020562 -0.00214161230704999848)
(-0.0041667504835801979 -127.7317931555813 -0.000869795681321110996)
(0.00140611827233273865 -93.4987274800416372 -0.00552546041668653103)
(0.00201530312309719691 -105.86660693783098 -0.00672717679923953617)
(0.00159503940318461604 -116.318456750208952 -0.00545995150346362083)
(0.0017618493279904922 -123.412630166722082 -0.00411956477765787737)
(0.0017985662554650388 -129.289228751778268 -0.00343449317806504084)
(0.00167985928572662651 -131.842276362248555 -0.00294970294730803346)
(0.0013667967400445367 -132.732151762064376 -0.00246985612733262782)
(0.00156791284789191063 -134.083956319214508 -0.000908463417196023692)
(0.00225726092767174029 -82.8599752820939415 -0.00478239773345305163)
(0.00347112930348204146 -96.8124493824308843 -0.00643865532078944161)
(0.00392562489613684264 -105.604510550809849 -0.00473999103156820534)
(0.00420944644473161128 -111.186264613500072 -0.00367268436292326724)
(0.00432861067517992509 -116.211018325723813 -0.00326758209003715936)
(0.00453856005072709838 -117.448104209640888 -0.00312372721978328681)
(0.00504666328545873202 -117.323941205329362 -0.00270010923866889456)
(0.00386328283369579036 -115.936550036932118 -0.000996905113607430724)
)
;
    }
}


// ************************************************************************* //
