# Force                   
# CofR                    : (0.000000000000000000e+00 0.000000000000000000e+00 0.000000000000000000e+00)
#
# Time                    	total_x total_y total_z   	pressure_x pressure_y pressure_z	viscous_x viscous_y viscous_z
0.0299999999999999989      1.068335332806189752e+00 -9.805773056952805586e-03 1.052724011065292453e-01 1.068326050229966739e+00 -9.830753546702469120e-03 1.052734768284460803e-01 9.282576223049195362e-06 2.498048974966305308e-05 -1.075721916835666627e-06
0.0599999999999999978      3.545067928037990423e+00 1.740239630441888299e-02 -8.980465445174716510e-02 3.545066817816187488e+00 1.738592848995521717e-02 -8.980534518704406943e-02 1.110221802917896223e-06 1.646781446366450048e-05 6.907352969052348435e-07
0.0899999999999999967      1.344961932438462071e+01 8.602908566993297534e-02 -1.868329836590105208e-01 1.344964008401459310e+01 8.601649111899337119e-02 -1.868214338900433535e-01 -2.075962997228618208e-05 1.259455093960057653e-05 -1.154976896716080129e-05
0.119999999999999996       3.323974887400459721e+01 1.631739866442111775e-01 -3.733749903758848965e-01 3.323978900539415093e+01 1.631518304802072328e-01 -3.733553911109132595e-01 -4.013138955243316356e-05 2.215616400395848778e-05 -1.959926497161809244e-05
0.149999999999999994       5.982465822912036657e+01 1.518475678565451292e-01 -7.871660914164614331e-01 5.982469956053873261e+01 1.518179748427091469e-01 -7.871465622821356423e-01 -4.133141836592857171e-05 2.959301383599062762e-05 -1.952913432578774216e-05
0.179999999999999993       8.189207613416346021e+01 1.101569089802363482e-01 -1.231811331444110369e+00 8.189212252441427609e+01 1.101440694164696754e-01 -1.231798791668297310e+00 -4.639025082264656909e-05 1.283956376667903320e-05 -1.253977581300038966e-05
0.209999999999999992       8.854359794025791075e+01 -3.014617611678253005e-03 -1.469404654021125411e+00 8.854364155043435858e+01 -3.023998864589606036e-03 -1.469390769594248303e+00 -4.361017644474113959e-05 9.381252911352844535e-06 -1.388442687703623986e-05
0.239999999999999991       8.340940517340816029e+01 -5.081236050806209326e-02 -1.252785630854978516e+00 8.340944475000955549e+01 -5.082119476504945443e-02 -1.252771881540300392e+00 -3.957660138931042286e-05 8.834256987364331944e-06 -1.374931467815551176e-05
0.270000000000000018       7.508939721268821188e+01 -8.770810076437056402e-02 -8.423177595073852997e-01 7.508943206971473217e+01 -8.771687698341340544e-02 -8.423032618472003907e-01 -3.485702651708472670e-05 8.776219042837445566e-06 -1.449766018487812298e-05
0.300000000000000044       6.712278154209819547e+01 -1.302902626887359472e-01 -4.817760212851497914e-01 6.712281091462247673e+01 -1.302966187731695868e-01 -4.817613241890800757e-01 -2.937252428341899553e-05 6.356084433643420391e-06 -1.469709606970135630e-05
0.330000000000000071       6.009331709657084275e+01 -1.791258482937182206e-01 -1.749053413952430525e-01 6.009334160367505717e+01 -1.791294965459927502e-01 -1.748905728011592442e-01 -2.450710421326890870e-05 3.648252274518735853e-06 -1.476859408380468402e-05
