/*--------------------------------*- C++ -*----------------------------------*\
| =========                 |                                                 |
| \\      /  F ield         | OpenFOAM: The Open Source CFD Toolbox           |
|  \\    /   O peration     | Version:  2206                                  |
|   \\  /    A nd           | Website:  www.openfoam.com                      |
|    \\/     M anipulation  |                                                 |
\*---------------------------------------------------------------------------*/
FoamFile
{
    version     2.0;
    format      ascii;
    arch        "LSB;label=32;scalar=64";
    class       volScalarField;
    location    "0.570000000000000284";
    object      alpha.water;
}
// * * * * * * * * * * * * * * * * * * * * * * * * * * * * * * * * * * * * * //

dimensions      [0 0 0 0 0 0 0];

internalField   nonuniform List<scalar> 
29184
(
0.999999982347753447
0.999999981297995055
0.999999967002332513
0.999999942012503418
0.999999954319777062
0.99999996950313319
0.999999977708734167
0.999999983035352313
0.999999986974499766
0.999999991054658866
0.999999991670999067
0.999999991098136531
0.999999990352589463
0.999999987456626993
0.99999998093030007
0.967389913911686827
0.999999981353774992
0.999999967670682222
0.999999943565231364
0.999999926778865733
0.999999944539817553
0.999999961301192397
0.9999999719467354
0.999999978932751388
0.999999984387852647
0.999999990166976938
0.999999991279317268
0.999999990352646084
0.99999998811509494
0.99999998158797343
0.999999945847899308
0.967700323601065393
0.999999925282676116
0.999999701266976349
0.999999620716711002
0.999999655341658689
0.999999741059941938
0.999999814106897089
0.999999871187032263
0.999999912691458714
0.999999944872490998
0.999999965579558836
0.999999983924141578
0.999999988196996092
0.999999958995658078
0.999999940622257943
0.999999873660585958
0.971831972638751651
0.999999123955559011
0.999997147317536639
0.999996668996294691
0.999997095933667035
0.999997667191609985
0.999998278061855705
0.999998785912451948
0.999999173474123704
0.999999497090426237
0.999999600885309814
0.999999659679577602
0.999999805658868146
0.99999987695351289
0.999999781734993376
0.999999741079231397
0.985677824686894355
0.999992090431049085
0.999980507718711831
0.999978373083916461
0.999980417819375189
0.999984023853701665
0.999987827728716305
0.999991084826814092
0.999993706346535172
0.999995957124891754
0.999996863983491746
0.999997184779956028
0.99999781396436116
0.999998785170505888
0.999999580119030118
0.99999954303384353
0.970765552826153622
0.999947631778500323
0.999897038466420862
0.99989034380113484
0.999898775379080007
0.999915986733701079
0.999933896299322389
0.99994966793859974
0.999962994616548473
0.999975160882913272
0.999980608648524338
0.999983129916600211
0.999985168810084923
0.999987183474377983
0.999998839645232174
0.999999017632655862
0.966741064748417145
0.999728387064271029
0.999553572921495048
0.99953947757487549
0.999572628630126081
0.999638458795383045
0.99970614031368954
0.999767279801211384
0.999821808160906489
0.99987398992139831
0.999902698317083893
0.999915168667192766
0.999924957403211412
0.999928988076382197
0.999990749229057396
0.999996656948260454
0.965230970884867201
0.998839698731308623
0.998345760395951798
0.998337487354740927
0.998456708016431271
0.99866696049552417
0.998879467331663218
0.999077930121251678
0.999262886452231491
0.999448991981879198
0.99958510965873959
0.999636228174631158
0.999668681706517126
0.999685115617426012
0.999900830388841588
0.999986632267996334
0.967110060279186445
0.995770773050838276
0.994606412160042863
0.994670730049413088
0.99507144155877425
0.995632212312492437
0.996202651151663288
0.996750938167934475
0.99728319963883727
0.997853699159634844
0.998412039526025752
0.998594570660937597
0.998681796954258627
0.998665160521566841
0.999495076446364594
0.999946694926296509
0.981658116714283491
0.98650926174273823
0.984181252525949013
0.984508398403813434
0.985653586506086254
0.987084429277102493
0.9885608325239994
0.990100595466284705
0.991652567970759513
0.993046242514556532
0.994948159800530751
0.995403293864518979
0.995245746398132569
0.995007594409743845
0.998113744069071052
0.999818564342436655
0.985409464151525638
0.961597705462638785
0.957554045469201087
0.958486825490180938
0.960610221271231191
0.963220010335287258
0.96589729708770089
0.968857476100058235
0.972668985318437262
0.976572111328643411
0.982153532051870948
0.985122805721500017
0.983643105444415577
0.985584548320909692
0.996908115054441879
0.99945310926373665
0.980552056231046465
0.665257827837210769
0.631424136707708916
0.633125160730796166
0.629690866267685445
0.62640300245513858
0.618920805765975635
0.60944296190508207
0.608558814564555295
0.639396564484701946
0.697344596504902547
0.804265753732148259
0.9061712136341733
0.963795678428607028
0.996151325470894244
0.998581863770684253
0.97426886180342398
0.170790567253626124
0.152323209699124634
0.150772251009773511
0.146863832413740347
0.140874376600060747
0.134006875109497436
0.122094305830903777
0.111977267674022885
0.108146182498555704
0.12541599480143284
0.205634487245153819
0.471310578317619355
0.835840658859239749
0.987340934725979169
0.996254870538088033
0.983862609250028886
0.03954394969436828
0.0379115312311932573
0.0357796312400526437
0.0307513162392166958
0.0270350927043316487
0.023632710937540987
0.0218814585733887942
0.0178316005174604178
0.0119526081801319163
0.0138173743897750632
0.0161952239468570978
0.0654078501671483681
0.349000271566974274
0.877662830157971752
0.988623010435919825
0.980598382058913032
0.015229438086328418
0.0125713514711079145
0.0121606109616488062
0.0113448173186139287
0.0103986219180455808
0.0101600419106853933
0.00957622625544717922
0.00879507607076232545
0.00849714442087531018
0.0107428880273391855
0.0163183779966656547
0.0310225399911114516
0.23953436020156102
0.687416438088555792
0.975097895187134744
0.9771714601085284
0.00572518493357941291
0.00491955783385129939
0.00492231037834281633
0.00414223375278734672
0.00363891421182117435
0.00384401529392638898
0.00443223455365282341
0.00462447294489542419
0.00577657793499092645
0.0101046974814180662
0.0253280568812827983
0.0165798241214475915
0.00922764444509080982
0.289065714019094089
0.823640677609339456
0.971696617778061156
0.999999981297960194
0.999999980011309408
0.999999966720690692
0.999999947321704052
0.999999959503389269
0.999999973181717072
0.999999980562307988
0.999999985452226348
0.999999989861133143
0.999999991671002952
0.999999991985321302
0.999999989747847096
0.999999986371922778
0.999999981015590178
0.999999965828501036
0.963360579298222941
0.999999980057097559
0.999999967606082119
0.999999945691937286
0.999999933467573765
0.999999950682955774
0.999999965928528134
0.99999997548311681
0.999999982378414032
0.99999998845975635
0.999999990788270399
0.999999991792039244
0.999999989857956795
0.999999783221614424
0.999999461213934571
0.999999893637711468
0.964229004074783846
0.999999925505774101
0.999999717681177902
0.999999652236977621
0.999999690172812872
0.99999976992428441
0.999999836220687111
0.999999886446884312
0.999999923157879
0.999999950845749996
0.999999972940264215
0.999999987746150842
0.999999987697653747
0.999999947368520159
0.999999225979897099
0.999999751377128154
0.973549289664420003
0.999999142295539878
0.999997315340931836
0.999996951159360048
0.999997374101820768
0.999997915361099832
0.999998457884470726
0.999998900434718729
0.999999245548276128
0.999999535930210071
0.999999649203066276
0.999999763049032153
0.999999934906781407
0.999999727365686431
0.999999141287435722
0.999999515504559788
0.998000732980465766
0.999992274879738408
0.999981594016130737
0.999980101563851309
0.999982109865209301
0.999985564296375751
0.999988900058137009
0.999991730794506983
0.999994082956381147
0.999996181878311186
0.999997152033955894
0.999997478966251352
0.999998679599365281
0.999998569247534164
0.999999189588721915
0.999999291940295909
0.969854110777139011
0.999948885659315501
0.999902420877141429
0.999898499128502816
0.999906798432155464
0.999923145175207084
0.999938606354582538
0.999952233246860667
0.999964278790078986
0.999975709939748492
0.999981791311678636
0.999984884887742842
0.999987339711807532
0.999987458980662991
0.99999742712283668
0.999998817405167162
0.963616251918553712
0.999734920390707216
0.999575587425883039
0.999570243757432308
0.99960362284422799
0.999664867948628855
0.999721908772929768
0.999774088230226399
0.999823517545672336
0.999873775493796302
0.99990568993801876
0.999919917230876365
0.999935378770820948
0.999934813901744213
0.999971681894110453
0.999996983773027592
0.961761011769420415
0.998867841214268748
0.998423277099368067
0.998438308590171575
0.998560865904446926
0.998746522179581264
0.998919106067813645
0.999083849031045634
0.999253591041457057
0.999439231839571729
0.999583767150996727
0.999647023081453368
0.999711720496522238
0.999710996378012862
0.999869953712217763
0.999989108469740318
0.960394820120009873
0.995875731154645338
0.994846738152650012
0.994971901091846078
0.995361375214846023
0.995831454618302025
0.99626732705122456
0.996711751425366055
0.997209574760449247
0.997802353760971483
0.998398710807185452
0.998632774215784114
0.998820485126601154
0.998844663826460422
0.999548897624745747
0.999961742525823816
0.95957961687253146
0.986850005404113384
0.984842679459346004
0.985269721668632914
0.986268641742115593
0.987320171308718741
0.988484672665136732
0.989908002886243477
0.991374593128566683
0.992891218878255488
0.994823458980829578
0.995415775403269087
0.99558927820469667
0.996115705302224819
0.999016351177854922
0.999882598531356637
0.960481609305214867
0.962548408770456887
0.959161492313422848
0.960184114346976481
0.961922642647520032
0.963628399667993296
0.965743979477934555
0.968708850856092596
0.973003564531187415
0.978918828977999866
0.984778498873652319
0.986477553250429073
0.985181449240298157
0.988954134769777338
0.998746662565741739
0.999688028077491131
0.96366999002940501
0.675892472551713475
0.648417455502482865
0.648413117249351578
0.646290840000160238
0.638812460564151419
0.631710433414833683
0.633058641791877319
0.647056823144999571
0.6843255038185313
0.756820941447510664
0.865684974274447683
0.938934903639337293
0.972580744469789815
0.997744285073322912
0.998899598278334633
0.962499757676820167
0.174032835997199514
0.158668583798131146
0.157012669100682678
0.153576189604092972
0.146998561481524292
0.140095879839010062
0.135419287748393902
0.13119529446600503
0.14117458616036796
0.174859633850141583
0.305272878270935411
0.62515661409058132
0.920755051580308348
0.994037683008298312
0.997432148732746993
0.962737784957175879
0.0391225541257477077
0.0376669392937545103
0.0355494723343664429
0.0325238751153568012
0.0294240252627081464
0.0267783117553757125
0.023950681165833803
0.0211986096352712317
0.0149749382615867437
0.0184784555719499088
0.023276408659805195
0.130512398137687613
0.489222735980967771
0.938269060761283802
0.993868047771245822
0.979914626346035433
0.0153450601777135286
0.0132510001986403409
0.0129161953763139124
0.0120183131343129107
0.011240553894198797
0.0106110315950607818
0.00999019788875482075
0.00892057249694409686
0.00848975357189667504
0.0123182826072720103
0.0193936036834967164
0.0347664789264362853
0.340862407923847199
0.814567017063519749
0.98403525210352738
0.976750055150765073
0.00608546608781252579
0.00556672614992440029
0.00551930846332425798
0.00488443416750494047
0.00447950288247864377
0.00449351164718619564
0.00495949431036205556
0.00508640614587196893
0.0059039072210842064
0.0112013449148326942
0.0173018144851507967
0.0120372690765445448
0.0425320729966515224
0.480174860776808377
0.91019039253764511
0.975744745839011163
0.999999980479478356
0.999999979907958525
0.999999969706135472
0.999999952890023858
0.999999963567041461
0.999999976198107099
0.999999983401336334
0.999999988680507657
0.999999991447814596
0.999999991985321746
0.999999992132450721
0.999999966535413343
0.999999881598261031
0.999999965801507518
0.999999933020219833
0.960810948711950941
0.999999979940092931
0.999999970120803994
0.999999951985363511
0.999999940504642471
0.999999955708628541
0.999999969718071147
0.999999978970443015
0.999999986462064561
0.999999989919730936
0.999999991460139404
0.999999991987183812
0.999999990160423735
0.999998877755903681
0.99999883037300541
0.999999790756801676
0.962164977926265097
0.999999937074926626
0.999999765737520474
0.999999701986166167
0.99999972622770894
0.999999791821875927
0.999999850976161397
0.999999898187471148
0.999999933945595831
0.999999968522150784
0.999999983470023723
0.999999988991439048
0.999999988344479451
0.999999333845231431
0.999995729063788974
0.999999578922755261
0.976845208363336326
0.999999308180978153
0.999997768674369958
0.999997368556898469
0.999997652073840171
0.999998087020016357
0.999998566353239582
0.999998974911084804
0.999999304688521717
0.999999581711234153
0.999999756790878935
0.999999942470897185
0.999999973674394305
0.999999829967692433
0.999997186613245104
0.99999931781390583
0.984770212950511148
0.999993678036512401
0.999984434992301163
0.999982521605992103
0.999983776870575936
0.999986546026768508
0.999989499745161159
0.999992112949466883
0.999994382045454433
0.9999964594735129
0.999997513790412906
0.999998033807344866
0.999999138001253618
0.999998767741011152
0.999998466454019797
0.999998940855358787
0.973211053325242492
0.999957109515646536
0.999915569499817525
0.999908192996830092
0.999914074009514264
0.999927230629547692
0.999940951024187896
0.999953552098290954
0.999965347052000464
0.999977061452221871
0.999983360595346094
0.999988149308101759
0.999990468851888914
0.999988796321261919
0.999994714432262288
0.99999846090852107
0.961785699176822328
0.999770558131437337
0.999622922789680235
0.999603489751784924
0.999627859926281004
0.999677709889891464
0.999728218904823773
0.999776550922704121
0.999825750093950028
0.999879132982505081
0.999913452263300417
0.999933430353984631
0.999954170480508719
0.99994420664269501
0.99996835476213386
0.99999703742986612
0.959821092764211792
0.998986032234126076
0.998559898041553318
0.998533521564969773
0.998621340810696978
0.998776739548303372
0.998929139514965314
0.999082522513967564
0.999254545342060041
0.999460601784981861
0.999615700945557517
0.999706658793467207
0.999785286509286886
0.999749405587143647
0.999865705304578967
0.999991344018332784
0.957836342501496074
0.996180023971604878
0.995169359353973437
0.995180151206696895
0.995475220137145511
0.995880311144423658
0.996268245140960351
0.99668321685242578
0.997207986440613148
0.99789909907676333
0.998516602864974789
0.998861118990742369
0.999056044331089632
0.999064275594508722
0.999636636662834088
0.999972414719102476
0.956745643516720423
0.987457693405817793
0.985471759793768332
0.985657184209949966
0.986458211073301561
0.987418485287844039
0.988524052388308316
0.9900036248745675
0.991390200033556823
0.993233768828792885
0.995270064579692137
0.996145769494710009
0.996339320078864055
0.996950604368289084
0.99932983803873543
0.999922703762342824
0.957666783106902786
0.963467481164514306
0.960158360180366155
0.960804357865379544
0.962317629706495703
0.964089466550612006
0.966270715434377481
0.969535148928075907
0.974639482442848815
0.981459694113026027
0.986977390913682751
0.988343688625036965
0.987528489783732977
0.991126114939195446
0.999162827667130049
0.999809834849509027
0.961146742799454112
0.673557314191756129
0.646979205096513854
0.650992984854395162
0.653783506641901768
0.657466687810627448
0.658850178382483831
0.661783751194360059
0.686620372695499359
0.737524136364882565
0.821287535189661022
0.912377682612706797
0.955845431926302336
0.977354236075077099
0.998703965000508065
0.999522626849320472
0.96133762187782601
0.169646279359568108
0.157175542241454941
0.158066424970432551
0.157076367830778579
0.155789636250015046
0.153259426495050533
0.149267752060105202
0.147559162412664341
0.175489827057458192
0.242916110211946257
0.423802796535685644
0.733238072870928459
0.953533230315129376
0.996296655610218629
0.997935477681027083
0.96144276774701698
0.0384676450875468118
0.0366156943638550406
0.0358223440025953674
0.0337669181946533559
0.0315167748057342961
0.0275045321815959448
0.0229249527136639389
0.0203858208133091585
0.0178343563672973757
0.0231278249855494181
0.049490628979695854
0.20823613942139671
0.630518133011178428
0.979516758175500435
0.995880795700810006
0.965098683126438317
0.01456429600009225
0.0136013421902707703
0.0136347956065074379
0.0129659593915130954
0.0121997700219830061
0.0113567440825472488
0.0101100918693037469
0.00868615219061475916
0.00911694370251227293
0.0127002712035601539
0.0190798119503587695
0.0660785751144409989
0.426898891814572523
0.859793094487997678
0.988644162146564032
0.978489998757938739
0.00616450693605911058
0.00591258637925144367
0.00616523592349228159
0.00578662470411502299
0.00551771476941139045
0.00511816615827674105
0.00490993608953712527
0.00501980956783904322
0.00680560889343481169
0.00872779015060852828
0.0106090104862728209
0.00752600488140295169
0.150235127738662183
0.607392032425798534
0.947933432460445147
0.975349412713614861
0.999999980886016715
0.999999980479529427
0.999999969664208344
0.99999995535857189
0.999999966434488519
0.999999978802335154
0.999999985682946679
0.999999990353241275
0.99999999179646093
0.999999992132442506
0.999999992188757347
0.999999947986047744
0.999999806750735853
0.999999932989500628
0.999999888953825522
0.958111242454411038
0.999999980506442787
0.999999970348465661
0.99999995195299074
0.999999942762368255
0.999999958477827411
0.99999997251209205
0.999999981943466065
0.999999988191658584
0.999999990825576224
0.999999991799878751
0.999999992133274285
0.999999990155463925
0.999998651628714375
0.999998675319107688
0.999999677124546515
0.960199063143125864
0.999999936639776599
0.999999763795930363
0.999999700394178292
0.999999727282362194
0.999999795544616266
0.999999856530229714
0.999999906018227747
0.999999944458371592
0.999999975620184056
0.99999998571542692
0.999999990012108375
0.999999988330959377
0.999998771480292148
0.999995755802363329
0.999999442472641276
0.964857524895130103
0.999999299065059577
0.999997756061590248
0.999997360812251768
0.999997648013183582
0.999998097968212596
0.999998599749893913
0.999999034491035221
0.999999387753330637
0.999999651899513231
0.999999788014561464
0.999999934514499866
0.999999978256232103
0.999999863069372275
0.999998579922790398
0.999999065381329766
0.96016052351985115
0.999993623381218333
0.999984405334600646
0.999982505115483256
0.999983725843756277
0.999986590965765254
0.999989732020980959
0.999992581781379841
0.999995030986398081
0.999997078352080404
0.999997877543812974
0.999998590338750826
0.999999259848144417
0.999998054886372056
0.99999796042630118
0.999998668191204754
0.959905405180630056
0.999956963865794801
0.999915582233203759
0.999907869025830509
0.999913805837842173
0.999927430600346723
0.999942355793270066
0.999956578345274849
0.999969605275973894
0.999981259246154663
0.999986535386255815
0.999991405272041223
0.999992462225507639
0.999989160578609648
0.999993741940743863
0.999998266470768504
0.9602919663909113
0.999770824302282701
0.999622964825250371
0.999602662899905847
0.999626735846230408
0.999679091899536632
0.999736053360848587
0.999792983789589806
0.999848952351119924
0.999902531483024548
0.999932923343848534
0.9999501288136039
0.999964544722423243
0.999949545846857246
0.999968220311458822
0.999997018235924795
0.958017342337072808
0.998989996650160972
0.99855764373376521
0.998530791644836491
0.99861830204888602
0.998788271878494505
0.998969333970340712
0.99915901788257333
0.999360226662960649
0.999567373792887848
0.999708890916476633
0.999784692188684154
0.999820210951356092
0.999779362253147008
0.999884262878716124
0.999992724967899482
0.955626748989863328
0.996196252221784428
0.995150697197037415
0.995183336704164145
0.995489831532192948
0.995959387762317183
0.996450869139546391
0.996990396733090201
0.997610808070841459
0.9983038231927297
0.998875554572903113
0.999146177579203876
0.999159849967570013
0.999195557760753861
0.999740391169057219
0.99997948357514177
0.954879102448484951
0.987488005413257319
0.985389364151044278
0.985747994847985254
0.986728685202213907
0.987878828328777159
0.989204465567862901
0.990916783228039888
0.992528015158745447
0.994359531675979458
0.996242382807894011
0.996903025912136087
0.996774823776308549
0.997312477144861154
0.999525551711905602
0.999947593411452007
0.955688602792081232
0.963443064876566613
0.9599035408949953
0.96120693887808728
0.963368583855249039
0.965617233827783306
0.9682011433307387
0.971906349146267279
0.977289969760326116
0.98393607092995905
0.989428272552205001
0.989983881572614077
0.988883316813948254
0.992367915928244693
0.99942696193443803
0.999876484224222484
0.957980485580302465
0.670696411259974035
0.641583460622076052
0.657999533892107413
0.675573860047537167
0.685592106984964755
0.688420594910205907
0.692601980838716491
0.72238532062805394
0.776748895376038972
0.859765131556903262
0.934316063218620485
0.963865909723892855
0.98124690634081102
0.999208596815735151
0.999707181185568672
0.959933566977791086
0.168669392751769065
0.154533225856446299
0.160710480191404298
0.167318076349403988
0.168928655697247021
0.166933681978455983
0.163724970719664797
0.166694207745496537
0.203017261343863192
0.29092343242361085
0.504705213688056653
0.799341880907571412
0.967606437165258737
0.997529774394381175
0.998572023956322607
0.96095410680291804
0.038237720650267544
0.0359699604463143696
0.0357574318515648318
0.0339962022619874488
0.0319792527993640954
0.028088607874573273
0.0232446914886853886
0.020851888636983007
0.0212469649554443731
0.0298817540042171023
0.0709092990422339198
0.279640486814598355
0.733630339913842411
0.990502777955146296
0.996699227767669615
0.961081073370557704
0.0144812703382573779
0.0133731838945579176
0.0133852625514424735
0.0127836566551860036
0.011978781527855302
0.0110236443344755991
0.0100307512813912376
0.00908254296828528429
0.00980878428829408226
0.0134662089451676771
0.0222021838574673648
0.102113497399562256
0.490277139171323706
0.89770094981951809
0.99176193778290811
0.978829487417052224
0.00589908781183456129
0.00566910376639577322
0.00589969925063790496
0.00553206531463311044
0.00523068277359551963
0.00489980114929722266
0.00477474353311911192
0.00544697592895830932
0.00665438567125399213
0.00857707885318938386
0.0126813520054042672
0.00984337984006138263
0.237361460202410057
0.680996777177783508
0.956421951386099645
0.971214608930626166
0.999999980886016715
0.999999980886042916
0.999999971359564865
0.999999958384440557
0.999999969197154726
0.999999981014340733
0.999999987249761357
0.999999991073730943
0.999999991969700242
0.999999992188755904
0.999999992201608956
0.999999918226471385
0.999999765189666601
0.999999888978131413
0.999999849114437067
0.95578027617820871
0.999999980901378871
0.999999972070678256
0.999999954562206028
0.999999945852217853
0.999999961457968212
0.999999975093153193
0.999999983935629833
0.999999989137937195
0.999999991248549769
0.999999991998828275
0.999999992188760789
0.99999998421521763
0.999998647908166172
0.99999887475639293
0.999999614462531827
0.957969970355082467
0.999999948476214762
0.999999785594419599
0.999999711721136775
0.999999733494882137
0.999999801565287783
0.999999863308291492
0.999999912742404962
0.999999950537441729
0.999999979687038354
0.999999986837816879
0.999999990588934518
0.999999987579130445
0.999999595827998133
0.999996238509160862
0.999999384814382664
0.959661634645279316
0.999999463505587771
0.999997958239386531
0.999997438969536967
0.999997689082642971
0.999998129198232055
0.99999866045595398
0.999999112040614424
0.999999460399995876
0.999999710390739871
0.999999779286754542
0.999999837204268105
0.999999976782223188
0.999999731128770053
0.999999560495316242
0.999999408187266292
0.957876011084127343
0.999995043510885973
0.999985661673885806
0.999982883584981552
0.999983961195503701
0.999986793249548089
0.999990212565926684
0.99999325217662749
0.999995705175690364
0.999997517751877396
0.999998003933701529
0.99999895649618753
0.999998790826557293
0.999995788098914318
0.9999975071736521
0.999998855415627719
0.956888227151450499
0.999965587770334396
0.999921333526876732
0.999909187587419312
0.999914538963137645
0.999928551032145285
0.9999453236349094
0.999960856827599942
0.999974029041178936
0.999984450004754666
0.999987774506609139
0.999991714736029325
0.999992978384350195
0.999988398232136588
0.999993074000352866
0.999998203528835949
0.957702848500275872
0.999809983695196802
0.999643096358054928
0.999605645668894205
0.999628000521812998
0.999684447224285844
0.999750920759359563
0.999814756821207462
0.999871766513324323
0.999921504997574706
0.999941734286342587
0.999953184186305077
0.999964406458478505
0.999952429114313257
0.99997253613956294
0.999997136131699715
0.955656414566702361
0.99912669371037377
0.998611137141734106
0.998532363021897518
0.998618393352779909
0.998811118675788423
0.99903159893080562
0.999250768265216749
0.999458269407013766
0.999648610651957981
0.999752608819485244
0.999805714931605083
0.99981220065017995
0.999799383676719167
0.999916323454350997
0.999993779268933403
0.953654824545073332
0.996563410994580678
0.995250852697749933
0.995175085035982399
0.9954747096732941
0.996047254706809104
0.996672650031283691
0.997313862767714721
0.997960099768177233
0.998593268043967308
0.999056942548268712
0.999222910289313981
0.99917540436269614
0.999250753097042033
0.999830960994250062
0.999984777063059549
0.952844818439132268
0.988225582278211334
0.985481804913396431
0.985661453820185995
0.986727145515381432
0.988144700798934572
0.989821359860219241
0.991785717862510019
0.993452413296610493
0.995136663127754506
0.996764037492048338
0.997091104640206227
0.996871116064677487
0.997606601976344431
0.999739151034317763
0.99996401922175282
0.953353717351740348
0.964460295234579768
0.959760993251097982
0.960971724517107884
0.963386011060373137
0.966114733082672705
0.969419917083332194
0.973793355317203124
0.979353278037803587
0.985663465000953476
0.990639624910430339
0.990403661104124255
0.989427018149295678
0.993536940202825347
0.999648398321909992
0.999918016275565091
0.954553513750214577
0.669882432733013955
0.636635047672889698
0.655820360304980587
0.677809832793958567
0.6865490920831685
0.6919995171966562
0.706393662118069754
0.742061613496587169
0.803589803911886946
0.884036582488362033
0.94629266168462034
0.969556377061935759
0.984997008596060541
0.999406591452087767
0.999798645488849891
0.960813887638873876
0.168545635674461292
0.15222996618183865
0.15921310851629028
0.169153542573722337
0.170256576236180124
0.168371621036370794
0.167409582975171611
0.182144877247778447
0.222887849652379011
0.331484289489309358
0.571232948638949023
0.845109111610888308
0.97379657196869962
0.99829083712913147
0.999196422515503779
0.960448540414423846
0.0382585381206644315
0.0358680258586411838
0.0353337080167017287
0.0344045007266204211
0.0318646755616955879
0.0280080195536738415
0.0244689785295176959
0.0225888864034450507
0.0251635960663252889
0.0343123718872428082
0.0904069147719641086
0.348948755085493334
0.810745687371316137
0.993845133461829677
0.99763135909720202
0.96108211169387725
0.0142728368976451948
0.013004102494775056
0.0129674870572850758
0.012089267790298109
0.0113405183106420997
0.0104458121772972173
0.0101603495266014039
0.0100386789882157164
0.0110877409865132084
0.014533374359907902
0.0238344597579510167
0.1280524520224674
0.530745008900861848
0.920504410413929941
0.993378133949249009
0.978721939499813565
0.00533902212971070021
0.0052654355649523997
0.00536959402071860402
0.004656063827604702
0.00423204323206908487
0.00410107339329186544
0.00479255106975195154
0.00609512832866441513
0.00672036860159807344
0.00911189779470946565
0.0149387937003167166
0.0256033103120422538
0.300996798543916366
0.724746723145811123
0.960323684092441843
0.970767294405418757
0.999999980886023154
0.999999979877591594
0.999999961801594783
0.999999957078221646
0.999999969428225777
0.999999981285942585
0.99999998744522145
0.999999991161815593
0.999999992011032512
0.999999992201601184
0.999999992207614374
0.999999897318710973
0.99999988064191081
0.999999910709907347
0.999346881618509819
0.954277969950345639
0.999999979896364688
0.999999965677944358
0.9999999415277534
0.99999994253352098
0.999999960973952939
0.999999975316393952
0.99999998405625079
0.999999989330628392
0.99999999133143358
0.999999992032781448
0.999999992201695109
0.999999990719622422
0.999998659404206069
0.999999235363146943
0.999999476748414828
0.956656071410432296
0.999999919902490153
0.999999698697097816
0.999999644989951864
0.99999970793599835
0.999999791172395236
0.999999861760835662
0.999999913972856036
0.999999952884290999
0.999999980219728135
0.999999987685107561
0.999999990723211774
0.999999989325519589
0.999998699453206408
0.999999602467634086
0.9999994354161994
0.960694154976167392
0.999999078960327914
0.999997191795863882
0.999996967709550044
0.999997392867993495
0.999998060424227453
0.999998665927626762
0.999999130808711056
0.999999471474506407
0.999999717837820157
0.999999751523486413
0.999999819215683483
0.999999902028333221
0.999999380655582248
0.999999452908200359
0.999999280819698688
0.957013963843207138
0.999991812140573311
0.999981089854629746
0.999980246910415427
0.999982387937580763
0.999986621762647854
0.999990395644717811
0.999993421873572319
0.999995768056291756
0.999997524705290797
0.999997988391357451
0.999999038358751813
0.999998572779807415
0.999995005648109503
0.999998130566769894
0.99999862893290703
0.955074608824569626
0.999946521472659056
0.999901137939331219
0.999898607516659599
0.999909474682693422
0.999929114701625044
0.999946889433883768
0.999961797608895253
0.999974164704672153
0.999984488940400817
0.999986916451432339
0.999990173203182953
0.999993372991345386
0.999987866847404705
0.999992782195265884
0.99999784787200463
0.955004336613813121
0.999725903737564314
0.999574089158827395
0.999571893934413924
0.999619864473020869
0.999691796689620715