/*--------------------------------*- C++ -*----------------------------------*\
| =========                 |                                                 |
| \\      /  F ield         | OpenFOAM: The Open Source CFD Toolbox           |
|  \\    /   O peration     | Version:  2206                                  |
|   \\  /    A nd           | Website:  www.openfoam.com                      |
|    \\/     M anipulation  |                                                 |
\*---------------------------------------------------------------------------*/
FoamFile
{
    version     2.0;
    format      ascii;
    arch        "LSB;label=32;scalar=64";
    class       volScalarField;
    location    "0.570000000000000284";
    object      p_rgh;
}
// * * * * * * * * * * * * * * * * * * * * * * * * * * * * * * * * * * * * * //

dimensions      [1 -1 -2 0 0 0 0];

internalField   nonuniform List<scalar> 
29184
(
1521.14599029920532
1523.89838045020178
1525.76016944469848
1527.09911216220416
1529.47657586471792
1533.20743105533393
1538.9663065469756
1547.8423456697808
1560.58465708288691
1577.24082177806258
1597.49817623560693
1619.00470052178889
1638.92042907514269
1646.25375765323179
1641.83433243368131
1534.71869204878521
1520.4375852623366
1522.82439553601989
1524.57034060652495
1525.89984980973418
1528.10929661229784
1531.78843062549618
1537.60282428640789
1546.50718432783833
1559.2600517749222
1576.07712080937063
1596.58679043333336
1618.7433804780369
1639.14031157346017
1648.07669924016614
1642.48117255277816
1537.68874135228998
1518.86223400780568
1520.68909845877215
1522.18802874294533
1523.45909734766587
1525.57793310854663
1529.23533523015954
1535.06203871389425
1543.94505145000107
1556.72122651112181
1573.78169488000344
1594.83514145263325
1618.02371543788672
1639.7583132076486
1650.91286540099168
1646.70712855858346
1543.43357094847238
1516.30654241077877
1517.5456015550069
1518.71602045432178
1519.89351768982033
1521.91691815890204
1525.47778422241913
1531.22137004630554
1540.02782670981856
1552.82757601296817
1570.21099348898588
1592.06725852564364
1616.74168449337867
1640.6173357347991
1654.72149404969491
1653.1722263803365
1557.32153823991962
1512.7064694793105
1513.37334449272862
1514.14727506026156
1515.17364323307424
1517.07469645195329
1520.48766171280295
1526.07498285307838
1534.73714403952636
1547.52797711477388
1565.29009904733834
1588.19736830406896
1614.85059159526827
1641.71188873939855
1659.55663232899474
1662.00820801604527
1563.04524803245681
1508.01180102154831
1508.10794981709046
1508.4427439565834
1509.27587753949911
1511.02427003616208
1514.2348290572063
1519.5738318991946
1527.98531446751258
1540.69193993851286
1558.85263883534276
1583.03840966216535
1612.18028293921202
1642.95580757032462
1665.63991311163272
1673.27352914318249
1577.27393131088934
1502.10645936590208
1501.55902577574147
1501.42476557662462
1502.03691204600727
1503.60988093406422
1506.570738640949
1511.56486922823842
1519.59258964741207
1532.10238242038804
1550.64668104771908
1576.32741074320757
1608.67843227383742
1644.18739901474783
1673.08412179157267
1686.81202847767008
1596.16868926855545
1494.57942436644453
1493.12209045353484
1492.52636539154355
1492.93707332528334
1494.3613272407149
1497.06276535893198
1501.63111190623908
1509.12249784572509
1521.28077482019398
1540.14478912043319
1567.50825847213582
1603.86742177108249
1645.28129902263436
1681.93112657242455
1702.56057868478911
1620.71678417230919
1483.87190303129682
1480.98866121923993
1480.08105276209176
1480.48066321508145
1481.91322600100807
1484.46863036102832
1488.63717422975219
1495.52249608454667
1507.24562029432332
1526.4241185553733
1555.47001802192176
1596.50629614815489
1645.60199358525074
1692.16791776094828
1720.63359981758572
1661.16577460041003
1464.71921468330038
1459.75263640141725
1459.02232645018648
1459.97528351293522
1461.95548099892403
1464.86342666656174
1469.1211662475298
1475.80552233362482
1487.28559519564919
1507.6071213039686
1538.36646225386517
1584.28032633196699
1642.61949991341453
1703.27280265536615
1741.25889372801271
1694.88298864002786
1423.68244797588022
1415.52947859379333
1415.75651132860935
1417.56325323786405
1420.35935146226461
1423.71019247132631
1428.04535999546351
1435.29324772360769
1447.97658269918088
1472.14130643613066
1508.00897735981357
1559.49751511393197
1632.10778973318043
1717.10004194214844
1764.4150117649192
1721.43797611532591
1014.60021825620572
964.08010994628853
965.727722965337648
959.525165925629153
953.573426859186839
941.860066032982786
927.167179832810916
925.212620700658704
971.221313656564689
1062.91479821153735
1238.36296277073052
1439.4419578393647
1604.79353860918241
1735.8475374605855
1789.77548872790385
1748.503708491216
282.835941227249748
253.137339289004359
250.292227712868254
243.171915456222791
233.008823199080155
221.786844138931428
202.979013807034107
186.847408606551681
180.930963740070325
209.827803811244593
339.522591060752347
775.946894610239497
1415.17561270150168
1747.17642234043933
1816.38676493086223
1802.33515424099642
72.5294149382266369
69.2558158307878671
65.5543570216135976
56.7045875203554459
50.2323948300933694
44.643917734738956
42.0321398366619192
35.7597050878421001
27.0413671707996883
31.4351090558074304
36.7471130475387042
126.104922905206209
638.151172662648264
1596.04255967899394
1835.33148016880978
1842.937187193608
30.4102329986916082
25.3172212137874695
24.5587817974574101
22.9237972342239544
21.1941231812968418
21.0359925305191346
20.4841372325529818
19.83061161571257
20.7309283954601966
26.2248808149559842
36.9271013385267963
65.2610993272538593
452.71151098834207
1292.54776255777233
1848.44912497276391
1891.31160482114387
12.7714479989573704
11.0452109256876696
11.0361240077994314
9.46820898476635797
8.52537232577498294
9.16141791397061489
10.779113467451495
11.8824510828958623
15.1954036147294964
24.7241015965381585
53.6436607884534808
36.2565830077348181
25.082626060373105
567.529311680695173
1626.18363342590419
1955.07410059641006
1522.15641824268573
1524.97322624793924
1527.01229525080021
1528.6889502164945
1531.58642419562511
1536.08910983054079
1542.9698352748469
1553.40232629984325
1568.15058062501384
1587.43818096014616
1610.9814301574645
1637.16781010591535
1663.27507120744008
1683.90389204789744
1693.82472134938848
1673.6260402720211
1521.45293466610246
1523.90234968758546
1525.83170890017186
1527.50140157518581
1530.23953419836175
1534.70121550022418
1541.64205123272609
1552.10328205469523
1566.89837002913055
1586.36546520037996
1610.21842695762666
1636.96573091360574
1663.62725190925971
1685.27382355583904
1694.57896996159366
1674.18529850817913
1519.88768667629711
1521.77558396105132
1523.47158317198773
1525.09152467565036
1527.75006664754642
1532.20060702055275
1539.163054316748
1549.62334222618165
1564.49221819782383
1584.25821897052629
1608.71310263525561
1636.46457083488235
1664.37744002984027
1687.63780861608871
1697.84094465564317
1678.06270346098836
1517.35068111165833
1518.65579663089216
1520.03867305800895
1521.57647684681342
1524.15123139620664
1528.51749422299099
1535.41349773424599
1545.83309996045455
1560.79613009761783
1580.97406950708455
1606.31660171195358
1635.55298321310443
1665.43615878973264
1691.00420464253079
1703.08695729128385
1691.42646833242861
1513.78383063367733
1514.53269717740341
1515.5324490847895
1516.93343202253845
1519.39920673406914
1523.62837914322085
1530.38617702575789
1540.70987606239828
1555.75939093833949
1576.44347055240132
1602.95935488255236
1634.20693063602812
1666.82371355660325
1695.41573271913285
1710.26580931874446
1683.89048591339497
1509.13789392105673
1509.3422890888221
1509.92219764685228
1511.14693203942693
1513.47155502619353
1517.49979199515974
1524.02235137050661
1534.15629679422727
1549.24831291720807
1570.50442555737027
1598.47040050741771
1632.30257583596745
1668.49490632164748
1701.01646825687317
1719.60921233224849
1688.53720319140848
1503.29415740289346
1502.89210487689888
1503.04252876913984
1504.06857111282898
1506.21889322588117
1509.97374483568092
1516.14984797571356
1525.97570609884633
1541.03959710617573
1562.91134152879818
1592.60654926923667
1629.68307545862876
1670.41783693352681
1707.97365222069857
1731.13308591499435
1698.02698114213126
1495.84599508142446
1494.603425194191
1494.35562362725318
1495.21125021363719
1497.18092964830203
1500.59805828772505
1506.31828220889088
1515.70580013388735
1530.64414384893212
1553.14296420275491
1584.85577907316883
1625.99920382597452
1672.460722895667
1716.30883366262083
1744.91631589606413
1710.32827826284802
1485.26754841052912
1482.77155909206635
1482.29295198479849
1483.14644810651339
1485.00918198439217
1488.08595343237494
1493.32473193557803
1502.23866764650461
1517.04243949452712
1540.23847492466803
1574.1188552561166
1620.28439710689554
1674.06126605269628
1726.1288238902589
1761.05256986654058
1725.66404225394285
1466.50844912572643
1462.25614918496944
1462.00872426844285
1463.26815284944314
1465.25000483365261
1468.32629512254493
1473.65328661146805
1482.55970553968427
1497.58157879217606
1522.23889702211545
1558.37270412375619
1610.09309623514423
1673.53581657526615
1737.72805454652985
1779.73637070084055
1745.76968991005492
1426.47673777554178
1419.68476222203049
1420.31073949208985
1422.11834399641907
1424.06123234285656
1427.08157168161392
1432.83013080515502
1443.47061296439688
1462.43150616946832
1491.60171983788814
1531.66519699576679
1588.82079274628995
1667.35048314049027
1751.89098671973034
1801.1495767920278
1772.48932187718947
1030.67899649311312
989.616331701337344
989.018519894962992
985.104495132576972
973.489375381166951
962.537231408223192
964.339970621071416
985.535999442828825
1043.57828714996845
1159.78833064348123
1345.44404566453977
1514.49667260205661
1648.73660470939876
1768.17241163089898
1824.69769353403512
1798.06304138124642
288.076100663892475
263.340122059615396
260.387419578951153
254.273006117327782
243.416668104819422
232.161670031178744
224.585978713531659
217.979064401326667
234.080775222500307
289.338396489220031
499.947588005424677
1031.88809425484328
1574.95625801537699
1784.31427013316647
1850.81525070387625
1830.89872155537887
71.9339253220862389
69.032601979358347
65.3543429533932141
59.9016526595169196
54.5353068116297663
50.0815431861165692
45.5728367066380713
41.4280384977782887
32.2108732667072744
39.1902240371582309
48.6996049820843808
238.036067899705955
889.367635232403472
1719.06823619287479
1876.30847607548799
1898.50584249812505
30.7356097151822212
26.6861287003405856
26.0485475673689066
24.2619494649344638
22.8508907684411007
21.8760936390044769
21.2147875354095206
20.0680056092575114
20.8158555842164112
28.8606595925118903
41.67877930014361
71.7656666325348311
638.022295463476553
1530.77173902011714
1892.38419083148938
1942.66995219192177
13.5466501010169349
12.3623337626374603
12.2480842787257984
10.9590048849870207
10.196657696315226
10.3943275460241082
11.7127249731093244
12.751888847991518
15.596426685101072
26.7118005818391175
37.9901922563741081
27.7480441495949393
88.868348586909903
934.741319599574012
1801.22971489761494
2004.80916899816839
1522.90827942039755
1525.7785425237746
1528.02846746363502
1530.09292293026533
1533.53746884157817
1538.79747239573635
1546.72819300761239
1558.56418598289065
1575.09658205209007
1596.62258141792358
1622.86875507649256
1652.45842086987727
1682.80044276003287
1710.38529399684694
1730.38258066850381
1738.01936934314494
1522.1774640015858
1524.69181371153059
1526.84681928402961
1528.91372250340896
1532.21080295060233
1537.44009090575491
1545.43626046209715
1557.30967890259399
1573.91500250305808
1595.64195075246926
1622.21753865288565
1652.32929933549644
1683.24631064990558
1711.67970882622012
1731.70698752139674
1738.18758193442341
1520.56931643267376
1522.54463265788877
1524.49303254975575
1526.53103492328842
1529.76506274174903
1534.99532816478086
1543.02457567594638
1554.91941197736014
1571.64012449184861
1593.71055164468066
1620.92435109960365
1652.02017406774712
1684.12146632533108
1713.89207562382694
1734.69288024871366
1742.32217915480533
1517.99138605537496
1519.41138625810163
1521.08283856389767
1523.0645347044715
1526.23276719211162
1531.39439782248814
1539.37667903135275
1551.26555719538419
1568.13950007599647
1590.69339228996319
1618.85426589721942
1651.42451574447
1685.37347295553354
1717.10428515171043
1739.35593253386241
1747.29175943430869
1514.39792366891947
1515.29372883546102
1516.62470792909539
1518.49782323417207
1521.57597621517289
1526.61797608026563
1534.48510353730899
1546.322144059219
1563.36174983699834
1586.52516920262383
1615.94758494968096
1650.52576529467774
1687.03205251600116
1721.37708610072968
1745.67979364529265
1745.17335614095191
1509.75164400837389
1510.14368562859909
1511.09306463826078
1512.81670109661172
1515.77183469242323
1520.63000662798618
1528.28421862426944
1539.98314206513373
1557.16961767893349
1581.04916255005878
1612.04908840871485
1649.21640962547372
1689.07615943891619
1726.78606291790697
1753.83847324617477
1743.41248275597377
1503.95603025193145
1503.77807756101379
1504.32366544105639
1505.87223500106211
1508.67060432022322
1513.26878925535016
1520.58805379018986
1532.03465918562574
1549.33554237230578
1574.0335833706722
1606.93833649472072
1647.3558065952634
1691.49349607508066
1733.4712899155943
1764.01782871378032
1749.0675940874662
1496.60202635408291
1495.61706242594755
1495.78682816069681
1497.17547223389852
1499.81122980434407
1504.07588161851049
1510.92239785163088
1521.98518942595706
1539.37179643787022
1565.00111282284706
1600.18801406108332
1644.6641760677303
1694.18081980241618
1741.56229857831181
1776.36109109635481
1756.76699912870981
1486.17552369008467
1483.96095619749417
1483.92906156695881
1485.29339024831893
1487.83305722138198
1491.7461426852708
1498.05198733151065
1508.70809291066712
1526.29005578405008
1553.03916171196511
1590.85247020565157
1640.35245441126426
1696.77466232604093
1751.27070987929164
1791.03753676928955
1767.78976270592329
1467.66758905122197
1463.70917155816278
1463.93914417522456
1465.64821527718277
1468.35239947190757
1472.28009445437806
1478.70484655308928
1489.30488051225734
1507.70121016327585
1536.47607851516068
1577.14090374759098
1632.25399723820124
1698.10077593351662
1762.83845903695192
1808.32241821345042
1784.10194233753123
1427.82233364158265
1421.41417359106958
1422.55078580878603
1424.89695168309254
1428.00264515105846
1432.13043633281086
1439.11687278009867
1452.68530152703192
1476.42889691217943
1509.97216595240616
1554.08033049605979
1614.63355151558267
1694.98832859449249
1776.7333773978221
1828.42707533760199
1807.64232145763117
1027.213802924834
987.725907945507856
993.662034058672134
997.35746980481656
1002.39371993272175
1004.10570211563265
1008.38595702388193
1045.98096340353163
1126.93185356462914
1264.72316060357207
1432.09783263288
1562.74630972803243
1681.330633480389
1792.7365396569528
1851.26508513775389
1831.92665919687715
281.174814150700342
261.099804087840653
262.461285981426897
260.381384784258671
257.89634415764084
253.343661245575902
246.470810791654372
243.749637923591337
288.947487618934304
398.646483946808189
692.511118248150751
1218.92605793663597
1652.45228466247613
1808.95415779666291
1875.66720185364966
1861.83607305075498
70.831201540712442
67.4126753934212104
66.0464480673271765
62.2812940046237387
58.3042033193785656
51.4429085510514525
43.7617693123521363
39.9147215658615053
36.9519470403224162
47.1030841604567172
92.9984585429637889
373.743820027285778
1144.38928381115943
1803.64842070240184
1902.54799597306851
1904.5634923940554
29.3747394171307583
27.4309734019411344
27.4813071903564072
26.123142278180211
24.7107000829374641
23.2866466644270176
21.3616782612908871
19.5979692668948573
21.8547174187463256
29.3729987979556491
40.7245984293046419
128.496035879531206
798.148701182784635
1619.29553476643923
1921.5665569398725
1973.64708778406793
13.7330251670191732
13.0854974547231517
13.5661871041535917
12.7576638588789582
12.2518343805150618
11.6067973738730874
11.5404407968989133
12.5505062028982248
17.2303076028915143
21.9419261617507715
25.11901699870225
19.1267665664071949
294.383373559703728
1179.62259725725266
1884.70831324942651
2027.03368862232742
1523.51131829483984
1526.46826551321647
1528.92877508011429
1531.3437953044297
1535.26785160795725
1541.1872876827947
1550.02586946789165
1563.05434786719411
1581.08188664729209
1604.41858037993052
1632.70623141395868
1664.54386031837771
1697.3023375791463
1727.85523498473708
1751.78090916320502
1763.16675951901902
1522.77749915925301
1525.37707375105833
1527.74779760387401
1530.16984652577139
1533.95574252913207
1539.85031900478384
1548.75502233598286
1561.8297460408287
1579.95065428688895
1603.50122210688482
1632.13338962999705
1664.49642478020382
1697.85887789218737
1729.2811351933351
1752.89159251516708
1762.57399587724649
1521.15851034457182
1523.21888701738112
1525.39392138426911
1527.80252794619105
1531.54027367792332
1537.4437203646653
1546.38747026913802
1559.5022173483394
1577.77415799404548
1601.70641747993113
1631.00863675177629
1664.3546533653564
1698.85983334829893
1731.51425396937998
1755.66330738843635
1763.10817432154954
1518.557088172161
1520.06476012956637
1521.98000257562308
1524.35730774761146
1528.0490190763212
1533.8953400447715
1542.80467238479582
1555.94371424225824
1574.42366119055441
1598.90484099282344
1629.20729729888603
1664.0298174927284
1700.30870323550289
1734.71146621722232
1760.11581190796596
1761.66599022155242
1514.93002415185038
1515.91162724090645
1517.51342318286038
1519.817820471613
1523.44332779183628
1529.18296226290863
1537.99463581954797
1551.12583652409126
1569.84883735470999
1595.03249657513447
1626.66993777227958
1663.50238479795576
1702.22791579080558
1738.99351895982909
1766.20284807620669
1763.12792933265337
1510.24606862979635
1510.7073045324089
1511.96624105593582
1514.16834694632121
1517.69765676218844
1523.26885314422816
1531.89512044596813
1544.95397569502052
1563.92888356737035
1589.94899671929852
1623.2575590624142
1662.68111466364235
1704.61730952896073
1744.43530218046203
1774.0142254829434
1766.92104212083495
1504.40441555519828
1504.26674128496529
1505.17275418786858
1507.26414493937682
1510.67210463203241
1516.00910632689033
1524.34949518735993
1537.25575715403897
1556.48062389113807
1583.46031101628114
1618.77878156235283
1661.44672783680994
1707.47928544894785
1751.1630316931396
1783.75372477555175
1770.97775891427773
1497.00360230213141
1496.01426567133603
1496.60502845995961
1498.63423907466108
1501.94354661628631
1507.00318415751553
1514.96028364646941
1527.63014498648158
1547.10361993546917
1575.17042114973333
1612.88034732740152
1659.55988657639932
1710.7535346080806
1759.36153449452763
1795.61014143790885
1777.00692124944794
1486.52609540361414
1484.24835478411705
1484.73264650594297
1486.89540957667032
1490.23939881406068
1495.07498579404592
1502.65624866965709
1515.12634012346643
1534.95791384234531
1564.29498637568713
1604.74511401559607
1656.31019072704839
1714.18051102866571
1769.24262147987656
1809.8194494307038
1787.11088331503151
1467.85739849367019
1463.80117310006676
1464.86361111300289
1467.77539302677064
1471.52434449070392
1476.55131435606131
1484.43468755435879
1497.13678265446833
1517.90822566746215
1549.31778611538743
1592.67065807732592
1649.7746118558839
1716.7073051276102
1780.98499138773741
1826.68356415615517
1802.15080854490998
1427.69843680664349
1420.99078964484261
1423.94174820665626
1428.50562638497991
1433.15350165711561
1438.58306250560918
1447.24497512108587
1463.12210610572265
1489.23273523356988
1525.82383487711013
1572.0481382309415
1634.5927510846434
1715.87050693273522
1795.03038685716547
1846.42804454454085
1823.0439249147355
1022.97703668865938
979.814249267165451
1004.06732078224434
1029.80332843954193
1044.47601221246441
1048.70581214280378
1055.44398604082926
1101.51068606173703
1189.79769151390065
1330.24515321946888
1479.31864950647696
1593.53686288143081
1707.12651224856654
1811.21252445327559
1869.09767933538978
1848.43882214009295
279.581834982329326
256.86632073054659
266.542157235305751
276.422371689731108
278.57100780368188
274.936885800416803
269.486427780303018
274.350342467504106
333.521368988552013
476.834260733920758
826.253766784547906
1338.64316452570392
1695.63595045391912
1828.18495831920563
1893.68665164602157
1878.3429329746848
70.3928199647854598
66.2619377983688196
65.8534173747688101
62.5408149611151387
58.9485544512843305
52.2679998724088364
44.2178316696952081
40.7263548263414563
42.7992357981120222
58.8105669399224951
130.508951262628301
500.392445089371449
1332.41720304890578
1838.2544253113274
1920.63929589633972
1913.7900433994364
29.1667605110827779
26.9659749747456203
26.9752919544511762
25.7071430455991852
24.2128509242500201
22.5739912276751724
21.1297982782095595
20.2938862348748756
23.0289411811783538
30.7513754032887938
46.8728977479143012
194.991029711393509
920.47774025141382
1699.55692603810894
1943.62056265955448
1988.58650614801627
13.1789065479997767
12.5749499611625541
13.0009746898159015
12.202923293866391
11.6262831689926038
11.1186283014615626
11.2013946955434385
13.2984798888422002
16.8571816710715225
21.6008403495625707
29.2244517040987262
24.1511636971131409
462.40292270561207
1325.32368546628595
1915.40929312021058
2030.98620214841162
1523.92872738809137
1526.9677931368924
1529.61496648034745
1532.3231650085429
1536.63659125619279
1543.09037721859636
1552.66891892210742
1566.66725537719094
1585.88308553512024
1610.5818294320552
1640.28580711297172
1673.5163357555723
1707.53258953958903
1739.35248615371415
1764.41399933735875
1776.66512517610272
1523.15436886762859
1525.8570732199255
1528.42621671724669
1531.15145288270287
1535.33663209931979
1541.77053187517026
1551.41875905831648
1565.47559600504474
1584.80875789942365
1609.74793160883246
1639.8341934260618
1673.61038009824756
1708.252044503761
1740.80700396275347
1765.58759031361819
1776.21324491192036
1521.47034176915963
1523.6751114628662
1526.06776541719046
1528.79330430594018
1532.93623313659418
1539.37852625356777
1549.07101477389597
1563.18964563505779
1582.71049018414874
1608.07199577032907
1638.86567415574359
1673.63394684487594
1709.39819731986927
1743.14109247035367
1768.37137796895331
1775.81002725346184
1518.80771611588807
1520.49591566488766
1522.65396051684343
1525.36110874584301
1529.45973181969589
1535.84451027651517
1545.5151280801656
1559.6927123272983
1579.47501948708509
1605.44547650801906
1637.29033362611426
1673.54736659986497
1711.04449788597117
1746.44418044877852
1772.85308200637201
1775.16131914017092
1515.14714667390308
1516.3195616574842
1518.19086988976255
1520.83599373210382
1524.86589239102591
1531.14396460507328
1540.73726138906454
1554.95555922498329
1575.05153412278355
1601.80373739974266
1635.0506948665311
1673.33299294343578
1713.21167837105281
1750.81199303294215
1778.95945383586854
1776.03697885892075
1510.46456475628725
1511.09935547723262
1512.64550119116893
1515.19626698958223
1519.12716934943205
1525.24320615899296
1534.68534269057159
1548.89653935993624
1569.33070888678731
1597.01616732484536
1632.02056717865366
1672.91938053074841
1715.92236641741533
1756.38732895666499
1786.74282134644022
1779.64736355470518
1504.65656617152808
1504.67456130521145
1505.84737151293552
1508.29314552184496
1512.10972094132876
1518.01795638611407
1527.23463582690056
1541.37880062770751
1562.15977337605955
1590.91078190604071
1628.03082919200438
1672.20910876704556
1719.202719771901
1763.31121219429315
1796.39820257749534
1783.274366243641
1497.38864796482039
1496.50892833505259
1497.25771208174342
1499.65512869442523
1503.41062076900016
1509.11311624305858
1518.05402244423453
1532.07676724978319
1553.20369433242308
1583.14338020674586
1622.77833727211055
1670.99530853006991
1723.03335663636403
1771.77129270734304
1808.15921781453471
1789.01628080002547
1487.2240033059436
1484.85619793232036
1485.31984965740912
1487.88973229408793
1491.80413385027441
1497.44499403845998
1506.19577845902381
1520.16914674156124
1541.72353393342564
1573.00745756767628
1615.50393330306474
1668.66254188590733
1727.21724108430453
1781.98291249313615
1822.28085799096334
1798.45082639650605
1468.94900032418991
1464.36482242263924
1465.25138093499481
1468.76397668982008
1473.30140223033641
1479.44012787822339
1488.80617812371361
1503.19116840486367
1525.68943721161463
1559.04050804539088
1604.47222818551131
1663.3561957507477
1730.92915597494061
1794.18596027104172
1839.11716156340776
1812.53540522727599
1429.04261739449157
1420.9774642172506
1423.92831231533137
1429.46189149916495
1435.07491841177671
1442.06145187305765
1452.96296531990038
1470.90884116366328
1498.66188892299351
1537.09609277299387
1585.19242602807344
1650.07639570098809
1732.36533788195038
1808.61652903733307
1858.91709085550997
1831.41610891562982
1021.75868864626648
972.741643612865005
1001.02428417681779
1033.5749505689862
1046.56909533994622
1054.75717052978803
1076.89778577101856
1133.11415039215467
1233.34849695337402
1373.14263985908656
1509.62297635699065
1617.89473638923619
1728.571450020562
1825.14109225829338
1881.80353497136412
1861.9274928807522
279.313727715934021
253.238460097763749
264.152246112562636
279.330900695341541
280.680611697452093
277.194987728616525
275.479517270747692
299.32177248825343
366.008119824757273
542.349753814214296
937.25393335271383
1425.34541629678733
1722.51553598148257
1843.3737159857933
1907.44599992427698
1889.14784944743269
70.341000612433163
66.0203625022030565
65.0577358321801142
63.0696825994431549
58.570952164989933
51.9160353778606591
46.1602518520521841
43.6564549194956157
49.3360641864651512
66.0391622151537661
164.895368997757089
624.398854183965
1475.14344783836464
1858.34565596791163
1935.32255519517616
1924.76582001660017
28.7063657406059427
26.2425531017381495
26.1534103418704369
24.3153578500047054
22.8823195766356271
21.317448483902588
21.1957049185852355
21.8653345983361405
25.0676012374402042
32.3225372052657107
50.5610819030287928
244.354450952051423
1003.08860842606816
1753.77257823162608
1960.55819396231209
1998.63601447417182
12.0620649365393042
11.7704635466595118
11.9496726296447466
10.4376232584094328
9.59802572876729876
9.43742947840668478
11.0956091574900864
14.3624566440877217
16.7400779427131141
22.292015289470239
34.4216696002648703
55.8366552017971642
586.749831187738209
1420.0699649660578
1937.65824250971036
2039.04460025920457
1524.37803479850072
1527.49489881775821
1530.26637604514303
1533.13983940891694
1537.68980315139129
1544.52166080416191
1554.66017232233048
1569.39827745519983
1589.50464482309098
1615.1792337682391
1645.85301055738319
1679.94540825537524
1714.65952947203868
1746.77025097916408
1771.67999447678199
1782.58496996874646
1523.62596569699053
1526.3939765460359
1529.06901827690626
1531.9486758889343
1536.37701393886709
1543.20025965999594
1553.42106491080949
1568.23435894737213
1588.47746061259022
1614.414423827983
1645.48782810406715
1680.12405217028459
1715.40087347332428
1748.20088225061681
1773.02954217709566
1782.19509177901091
1521.96770108198803
1524.2042791876238
1526.67893629068749
1529.54899455417581
1533.94170033022897
1540.78642730174488
1551.07074904613637
1565.97347230119067
1586.43732638346341
1612.83075855779066
1644.63821148770921
1680.26971467185967
1716.63897900118809
1750.62049143992613
1775.80825453486136
1782.30882326526535
1519.29282013819261
1520.9805345713587
1523.19629100395855
1526.04538639666885
1530.40665071703984
1537.21493698977451
1547.50735091424303
1562.5093507215488
1583.28234404537397
1610.3335115196594
1643.23141866244669
1680.36051097577069
1718.42887123814921
1754.01833340632038
1780.24515320588011
1780.99312402665851
1515.54063274379496
1516.70765123492538
1518.62305515250296
1521.42325662232474
1525.7370935063559
1532.4639341376344
1542.71545896761609
1557.8085436956826
1578.9567659722436
1606.85600487036481
1641.21357353910253
1680.38649534629803
1720.79330401025618
1758.49963553399652
1786.38480552678448
1781.4137578371874
1510.663295417158
1511.31806312846584
1512.93243890559938
1515.67386469444023
1519.91375478644272
1526.50060167742708
1536.63868994929408
1551.78247594139316
1573.34420824524545
1602.26363430850779
1638.46193663284112
1680.28749381149487
1723.76558609429389
1764.20854465175648
1794.26644499287522
1784.38765402042895
1504.5370892707474
1504.61733450407564
1505.96399978165255
1508.66831173132528
1512.81182974361013
1519.19841713469532
1529.14266040825532
1544.28057821987431
1566.2781377275262
1596.37568344268402
1634.81021674564727
1679.97457132953764
1727.38531106263645
1771.33921904653016
1804.01668427367918
1788.45783291600856
1496.71552183003269
1496.02449035246445
1497.20200021126811
1499.96724271789913
1504.03771796182514
1510.19359819844885
1519.87956141220388
1534.95374025331716
1557.40315072399244
1588.83468461952248
1629.96408062635737
1679.25554960981594
1731.65531327277608
1780.06202653391483
1815.86871278701506
1794.6195074371476
1485.61917073102359
1483.85023971250257
1485.15794092130977
1488.24098033087239
1492.37949443407456
1498.38767977850694
1507.87284506607602
1522.93922677121668
1545.94578270056331
1578.87347716259296
1623.16615678399171
1677.58371225923361
1736.43360150943499
1790.59669569254993
1830.11389239527102
1804.08313514126007
1466.12396055422096
1462.9654961951835
1465.2733773913701
1469.19149145358097
1473.79439016547281
1480.22146302244164
1490.31340302779859
1505.7238258107318
1529.89363655289344
1564.98435074222039
1612.63403600209472
1673.21749283733266
1741.34842428462889
1803.22804862509133
1847.07737390679358
1818.13403643007473
1424.91890492325388
1419.68429790402843
1424.41446808831051
1429.82580837525597
1435.18841493197101
1442.56921090067431
1454.57583982716437
1473.98711019588222
1503.67775842173478
1542.97620823096099
1594.00831135326712
1662.33148277336159
1745.12170733073208
1818.04907848296648
1867.07623643799889
1837.50370178892695
1010.50611551220663
973.802516751260214
1007.12319426174236
1027.96830979170204
1035.6313054856721
1051.53026739920574