/*--------------------------------*- C++ -*----------------------------------*\
| =========                 |                                                 |
| \\      /  F ield         | OpenFOAM: The Open Source CFD Toolbox           |
|  \\    /   O peration     | Version:  2206                                  |
|   \\  /    A nd           | Website:  www.openfoam.com                      |
|    \\/     M anipulation  |                                                 |
\*---------------------------------------------------------------------------*/
FoamFile
{
    version     2.0;
    format      ascii;
    arch        "LSB;label=32;scalar=64";
    class       surfaceScalarField;
    location    "0.570000000000000284";
    object      phi;
}
// * * * * * * * * * * * * * * * * * * * * * * * * * * * * * * * * * * * * * //

dimensions      [0 3 -1 0 0 0 0];

oriented        oriented;

internalField   nonuniform List<scalar> 
84128
(
9.95334372755413824e-06
-1.04326737927158181e-05
-1.03508398803531711e-05
1.08301699455198248e-05
2.6580775647587076e-05
-1.72759948934459606e-05
-1.16805886460067467e-05
1.23291539139670106e-05
4.49345847259130071e-05
-1.89986283321578119e-05
-1.25241429698339874e-05
1.31689644885225867e-05
6.30308309986164745e-05
-1.86812240073200306e-05
-1.39224514084543578e-05
1.45074316627688434e-05
7.88355250277678841e-05
-1.63113873274112537e-05
-1.59517963616613042e-05
1.64584922396594816e-05
9.21840737417717597e-05
-1.38089571923444536e-05
-1.88109314040097974e-05
1.92713420982975276e-05
0.000103545144135600901
-1.17609930817108279e-05
-2.27067181283074733e-05
2.31066421198982708e-05
0.000112990028443188005
-9.97657884201995231e-06
-2.81205556113350826e-05
2.86522501163754118e-05
0.00012051256469221603
-8.07649343296559425e-06
-3.512342279662726e-05
3.56773786270572557e-05
0.000125733751242452764
-6.43725606854271059e-06
-4.47273905082156152e-05
4.59434578717364333e-05
0.000129225205642294463
-4.739550213563105e-06
-5.668799779367358e-05
5.79360914488084687e-05
0.000129981485020942776
-4.3270560551365112e-06
-7.34291765617662564e-05
7.69999516829731354e-05
0.000130794845017749968
-3.85471179198095036e-06
-9.36450661142483284e-05
9.66864169934354977e-05
0.000121601355564420561
-6.45180552820923698e-06
-0.000123750200355772662
0.000139395494600962186
0.000110620940566615337
-1.00400555080359123e-05
-0.000158100300147087544
0.000179120769685449659
9.33127722489125515e-07
-0.000233186079827900122
0.000342873891593333175
1.14418889738045926e-05
-2.24413459525998607e-05
-1.03718377615398391e-05
1.09386268816968406e-05
2.80685401098527127e-05
-3.46447374681844089e-05
-1.13490046887971437e-05
1.20911035232316249e-05
4.485143493723342e-05
-3.65220712454100574e-05
-1.22428892019994034e-05
1.29834450543004479e-05
6.03389405075747921e-05
-3.48224188925121619e-05
-1.35774872878702537e-05
1.42311843578094104e-05
7.48404159337925299e-05
-3.13564980339710474e-05
-1.55755656021072021e-05
1.61192074162043115e-05
8.80763328430069961e-05
-2.74910962518729252e-05
-1.84153102497320829e-05
1.88615361814938147e-05
9.97917839671430009e-05
-2.38783921121284561e-05
-2.23262790002476717e-05
2.27282268298562454e-05
0.000109806399635133198
-2.04294368824006722e-05
-2.76091888233256576e-05
2.80474273733015372e-05
0.000118010819791122075
-1.68939139514747184e-05
-3.46126830788273814e-05
3.52256773179631657e-05
0.000124118821684817484
-1.35219985187677966e-05
-4.38534217964399269e-05
4.48301560740169063e-05
0.000128290421484024826
-1.05143791937443275e-05
-5.5879624362579614e-05
5.74828487845177848e-05
0.000129962194732662274
-8.92156740143609075e-06
-7.18739696533535769e-05
7.47967046631673962e-05
0.000130315235716156163
-9.04065113054800837e-06
-9.23666603743936805e-05
9.71995560411048452e-05
0.000122589734546619047
-1.16510139266569476e-05
-0.000122089399616600664
0.000135014105990596866
0.000110049768647512707
-2.43557834411342897e-05
-0.000154539446250510698
0.000181395136054548453
2.346364883256495e-06
-0.000243187149663405869
0.000351823678901321251
1.30831868660196265e-05
-3.62605533635881891e-05
-1.02538834233218055e-05
1.09899083100424087e-05
2.92665473323598791e-05
-5.17484041436730018e-05
-1.137343811834708e-05
1.22937496403461453e-05
4.55955791234533345e-05
-5.37444633878299581e-05
-1.2303113068135269e-05
1.31964791096396879e-05
6.09643828795293385e-05
-5.09572059784089103e-05
-1.36346993315988899e-05
1.44006885095834589e-05
7.5335992056218515e-05
-4.63379982228888092e-05
-1.5619755036081011e-05
1.622965111027294e-05
8.85607990511889096e-05
-4.1184908597549233e-05
-1.84477138741727216e-05
1.89167222472608925e-05
0.000100372082056324565
-3.60731962757318312e-05
-2.23397394127465537e-05
2.27232606429358223e-05
0.000110513462997177914
-3.09638525964177843e-05
-2.75944031912399609e-05
2.7987435135676011e-05
0.000118771401165103895
-2.56925565555669229e-05
-3.45706358723317679e-05
3.51113356561158065e-05
0.00012485294545229488
-2.05106983445177708e-05
-4.37786260143891372e-05
4.4685776643052749e-05
0.000128777931615285543
-1.59714252216652419e-05
-5.57812870052200592e-05
5.73133428723043655e-05
0.000130141947393492283
-1.31825351119520892e-05
-7.16942852327800306e-05
7.4591234153222234e-05
0.000129744080359620674
-1.34498219343032553e-05
-9.21577459638870072e-05
9.69647808620552755e-05
0.000121890763803111525
-1.6441499023968724e-05
-0.000121454738178591691
0.000134098536824992312
0.00010584537970382238
-3.41046796752421445e-05
-0.000154436946617147851
0.000180231223438901648
8.09406944316428664e-08
-0.000239195220548481702
0.00034730602254866744
1.43404994026388004e-05
-5.15613962295719967e-05
-1.01348387846331216e-05
1.10951856274984032e-05
3.03222578905456617e-05
-6.88023362617051358e-05
-1.14168555308914397e-05
1.24890331654497297e-05
4.63019634790703529e-05
-7.07238572293979195e-05
-1.23610030967594998e-05
1.33606958215756146e-05
6.14868622511623706e-05
-6.69708010827861156e-05
-1.3665087292285234e-05
1.44937884053911804e-05
7.57686187576930831e-05
-6.12414142828821207e-05
-1.56228370353783302e-05
1.62445008870404107e-05
8.90239954625612093e-05
-5.48642086708635561e-05
-1.84363772528945907e-05
1.88603033652197846e-05
0.000100964015434525122
-4.82977312695680405e-05
-2.23196668507579435e-05
2.2604182237106108e-05
0.00011125479692799342
-4.15089717079778446e-05
-2.75615095808545731e-05
2.7815845111452543e-05
0.000119577174734787969
-3.43990661625478666e-05
-3.45244169627239206e-05
3.49085449891695549e-05
0.000125582523141550809
-2.7282013684669128e-05
-4.37106614543326586e-05
4.44766240227158509e-05
0.000129176795307554755
-2.10046759474366454e-05
-5.56887297509108965e-05
5.71277041179833644e-05
0.000130022308907748132
-1.68940744557979905e-05
-7.15252481868956401e-05
7.43912701610642687e-05
0.000128653463242199106
-1.69447058382589811e-05
-9.1897982217368208e-05
9.67617079614246906e-05
0.000120354711147673294
-2.06984602863446605e-05
-0.000120812522776414126
0.00013336823276623012
0.000102689801592441505
-4.16572957005799865e-05
-0.000153509945838683386
0.000178727468331589979
-2.87030713518432582e-06
-0.000234731207155590356
0.000340372255145226588
1.53051854542575755e-05
-6.79767315580126957e-05
-9.94266207179180201e-06
1.10528143420569342e-05
3.13210139875271201e-05
-8.58920898703267806e-05
-1.13888169672820259e-05
1.24627447314189864e-05
4.7102240153259113e-05
-8.74426190053327845e-05
-1.23518528006275728e-05
1.32893916864517624e-05
6.22000045316113676e-05
-8.27988890744521641e-05
-1.36447928197502667e-05
1.43751202085888483e-05
7.64999740351604308e-05
-7.60170981286092701e-05
-1.56038375155367023e-05
1.60795555138977364e-05
8.98655014488454538e-05
-6.84475280940540995e-05
-1.8433199825768533e-05
1.86509944824387638e-05
0.0001019885184063055
-6.0444068270281734e-05
-2.23301967181348047e-05
2.23535176152946112e-05
0.000112463201019380514
-5.19467733171294894e-05
-2.75714408854211558e-05
2.75345586611642427e-05
0.000120857777136598927
-4.2897622114989494e-05
-3.45194037624501227e-05
3.46233806868029127e-05
0.000126734437744832444
-3.37056373270021778e-05
-4.36715040957546229e-05
4.42184631365483339e-05
0.000129888880265443884
-2.54872550669871934e-05
-5.55940579814240003e-05
5.69221898900133626e-05
0.000129983179912521722
-1.98546787058918723e-05
-7.13265712290449966e-05
7.41928710454638901e-05
0.000127489162094937162
-1.94513728428998109e-05
-9.15200704145248829e-05
9.65207504188049536e-05
0.00011825592497860086
-2.39487672798486945e-05
-0.000120018624969144594
0.000132502165253755395
9.92204905281448521e-05
-4.74552629716918996e-05
-0.00015195241748714285
0.000176785816625076069
-5.34805554639953526e-06
-0.000231647522761625112
0.000333345760964771692
1.6234092210805029e-05
-8.52378571960080199e-05
-9.62513350625701919e-06
1.06521682552708498e-05
3.2464785521036529e-05
-0.000102956710966873422
-1.11021636591847334e-05
1.19360927691974826e-05
4.81601795182621192e-05
-0.000103782061207805429
-1.21210961974802774e-05
1.2765146449120782e-05
6.3227932855053874e-05
-9.82797138807924643e-05
-1.34962544892058038e-05
1.39093287307491276e-05
7.76016018031293884e-05
-9.05081107496070168e-05
-1.55571592927507601e-05
1.56745060503905899e-05
9.11317864017099921e-05
-8.17939698884914815e-05
-1.84769099825486411e-05
1.82931698776303165e-05
0.000103485670826264142
-7.24012101773447938e-05
-2.24232261805759184e-05
2.20264851882172927e-05
0.000114183231215594875
-6.2210342140245269e-05
-2.76643238978843314e-05
2.72303321126446721e-05
0.000122672505475300716
-5.11663943114918488e-05
-3.45696248844526885e-05
3.43491207986142816e-05
0.000128398703559926274
-3.97725269531900926e-05
-4.36415377442868953e-05
4.39822256279833243e-05
0.000131027729921107691
-2.93891650864221387e-05
-5.5454039025765368e-05
5.67269174686304585e-05
0.000130140473955026536
-2.19091732415961037e-05
-7.10448437107998531e-05
7.39865884096581756e-05
0.000126257398693299167
-2.07870120252726024e-05
-9.09995156167041461e-05
9.62182243140475267e-05
0.000115612495456106742
-2.57734604812643547e-05
-0.000118979387411669246
0.000131448979566754174
9.44939084780333931e-05
-5.08994272465814314e-05
-0.000150044932703885672
0.000174607681790299067
-7.66313491055698193e-06
-0.000227466079364652607
0.000324275067125227964
1.74231740507480665e-05
-0.000103297761700131107
-9.09751761975272874e-06
9.73424830349662505e-06
3.39609532509485408e-05
-0.000119854981155802297
-1.04517296351636572e-05
1.08122206345350975e-05
4.95875861454211518e-05
-0.000119596843008260608
-1.16085559870766258e-05
1.17967057645640039e-05
6.46177045456387573e-05
-0.000113267447931920463
-1.32180650546698872e-05
1.31756825515609e-05
7.90715764902660898e-05
-0.000104610401768926535
-1.55169504621362841e-05
1.51653721711816475e-05
9.28032623872701134e-05
-9.48974840974950239e-05
-1.8603099157798764e-05
1.7974930358254989e-05
0.00010545410261861426
-8.42917512746023666e-05
-2.26036423591396384e-05
2.1843345520834699e-05
0.000116464854189973394
-7.25467339792964963e-05
-2.77891149119685356e-05
2.71147560000307097e-05
0.000125147864781291728
-5.95255559074568167e-05
-3.45569612472979313e-05
3.4233111093441828e-05
0.000130784144261145754
-4.57656269356403851e-05
-4.34480913950438579e-05
4.380490860313084e-05
0.000132813295428391945
-3.27983533221984843e-05
-5.50828748482772688e-05
5.64629063935411847e-05
0.000130774367106992461
-2.29825387675746292e-05
-7.04805391104853282e-05
7.3592826430899432e-05
0.000125097848151588687
-2.05586597023870398e-05
-9.02484807500073563e-05
9.56966410091690978e-05
0.000112730382751046108
-2.58862651190356449e-05
-0.000117659896741305309
0.000130140162155181017
8.94576902559577459e-05
-5.19190206176244515e-05
-0.000147804591462055978
0.00017209687523227137
-9.36964240424370336e-06
-0.000222054583422896622
0.000313218781341031136
1.89969349110488453e-05
-0.000122239395233254171
-8.23073156817213402e-06
8.17542941431480644e-06
3.57495410192752166e-05
-0.000136470667359145674
-9.50756103131205882e-06
9.3706399920267272e-06
5.11945733584335779e-05
-0.00013485580563828961
-1.09185369646387463e-05
1.07324671059525247e-05
6.61201936524654255e-05
-0.000127800779905035155
-1.28789057718585512e-05
1.24866185348362431e-05
8.06506765813022635e-05
-0.000118489601600687368
-1.54987361435299155e-05
1.48474553888705984e-05
9.46560125067612344e-05
-0.000108124199615724405
-1.8768382947909681e-05
1.79897656956401967e-05
0.000107751778618140156
-9.6701737700336169e-05
-2.27594799442933466e-05
2.20737032973956428e-05
0.000119287253153575791
-8.37112951658854521e-05
-2.77497031112993783e-05
2.73787915652758449e-05
0.00012839944292988056
-6.87624629563848741e-05
-3.42060135720883155e-05
3.43307305220201731e-05
0.00013411197418712652
-5.22817774996851408e-05
-4.27796199216515539e-05
4.35832364077571596e-05
0.000135488758168976373
-3.58724328635668337e-05
-5.42071177903728175e-05
5.59044079168060856e-05
0.000132030379488791135
-2.2781863454182324e-05
-6.9482472524333094e-05
7.2740169102225615e-05
0.00012413446194827274
-1.82209338853822968e-05
-8.91981148112877374e-05
9.47562999413289071e-05
0.000109803637705932689
-2.39759621857200221e-05
-0.000116057429820865779
0.00012847794626587498
8.48225825261742113e-05
-5.07666703548732498e-05
-0.000145282362795846637
0.00016911106506446296
-1.02549592308091771e-05
-0.000215656472828042124
0.000301364371935397123
2.06837761801941243e-05
-0.000141995341697467506
-7.14941651529727678e-06
6.22158519705274586e-06
3.73278808211997612e-05
-0.000152831375343367662
-8.54819541898591486e-06
8.26479674647214876e-06
5.2403867949064352e-05
-0.000149773687034867925
-1.02545608453589042e-05
1.00964541820965658e-05
6.71720138248048127e-05
-0.000142220923962374822
-1.2512139431388786e-05
1.21641381593170294e-05
8.18458521363482459e-05
-0.000132691374424436951
-1.541404148622088e-05
1.49419781894850685e-05
9.63008720526230212e-05
-0.000122263627901073453
-1.88013642981260944e-05
1.84857760609848876e-05
0.000110114134272789024
-0.000110627966331977188
-2.26540869828088141e-05
2.27670570158266276e-05
0.000122515237631046339
-9.67960951363979047e-05
-2.72537646244979049e-05
2.79374638568591226e-05
0.000132400840761403145
-7.98693574340162267e-05
-3.32226820164606423e-05
3.44439738083829935e-05
0.000138437716217917049
-5.99794292559483215e-05
-4.13973729064554403e-05
4.30581470030414333e-05
0.000139142176904137501
-3.8688240843988219e-05
-5.26856807666506536e-05
5.47970232129957183e-05
0.000133809641768552667
-2.06642578204185287e-05
-6.80906252702723062e-05
7.13055482697833021e-05
0.000123262522707499829
-1.30820623895672566e-05
-8.79647266124119624e-05
9.33729677915764517e-05
0.000106896860631404319
-1.97664036286020314e-05
-0.000114306094754279157
0.000126462193284372323
8.05255656345801277e-05
-4.76263931573926767e-05
-0.000142729164708707199
0.000165960178677248768
-9.75503284268587742e-06
-0.000209138150839356565
0.000289163788697792618
2.18286902060764982e-05
-0.000162458995297796066
-6.4204248324974318e-06
5.05538604606862016e-06
3.78745687642231005e-05
-0.000169138373040584499
-8.04087185659644242e-06
8.30198842479676729e-06
5.24293738665712218e-05
-0.000164769290897347681
-9.71385651911977279e-06
1.01546538585927999e-05
6.70909115751471094e-05
-0.000157097066918764614
-1.19826436532261901e-05
1.2197249141116756e-05
8.20986012871503047e-05
-0.000147987277681977921
-1.5038927744945243e-05
1.53271433979597704e-05
9.72926633669233257e-05
-0.000138248707679282411
-1.84259127794324052e-05
1.92169339836426201e-05
0.000112184755282129924
-0.000127031416612750751
-2.19844651013218917e-05
2.34958274118924644e-05
0.00012583510872445002
-0.000112619030198648717
-2.603578019384632e-05
2.82083649698914754e-05
0.000136806084127549685
-9.33357492805791375e-05
-3.15188608015665476e-05
3.40142783404038022e-05
0.000143375897992196772
-6.89560718598534171e-05
-3.94385166876323807e-05
4.18453440389334266e-05
0.000143491772403511226
-4.10370725218575788e-05
-5.08439448171767535e-05
5.30768983926594373e-05
0.00013595552524354215
-1.59755168418995348e-05
-6.66252850066256607e-05
6.94727856346854828e-05
0.000122246864345205172
-4.28095712281061166e-06
-8.69198636012054392e-05
9.18274134981159426e-05
0.000104023450277768579
-1.32185658603882598e-05
-0.000112710303474871775
0.000124385874794847261
7.63669529037763056e-05
-4.25135105437678026e-05
-0.000140245611737432245
0.000162789221173838212
-7.83581970651083088e-06
-0.000202773400066901893
0.000277221136908821757
2.17556513913157556e-05
-0.000183648429512831349
-6.8388472272162119e-06
6.27262757092411267e-06
3.66162630420306177e-05
-0.000185590946575226205
-8.15884969099342668e-06
9.75080877241665291e-06
5.05773437011274415e-05
-0.0001802098608112108
-9.02762835844029909e-06
1.05071159802519047e-05
6.52666649798660207e-05
-0.000172917680098046427
-1.09438596086875777e-05
1.20751516067480148e-05
8.07833131230751731e-05
-0.000164921295504862064
-1.40339609564702566e-05
1.54513326407547864e-05
9.68969533856744184e-05
-0.00015655634885558252
-1.72692026002420302e-05
1.94632069603547646e-05
0.00011315202106158919
-0.00014617282349088591
-2.03511426917604042e-05
2.32374858855157256e-05
0.000128425216478055985
-0.000130985947910954503
-2.37841561052809451e-05
2.68778818162874981e-05
0.000140894349811137302
-0.000108438728104260132
-2.89508187083032009e-05
3.15846659129846743e-05
0.00014824929023196827
-7.79492426725829921e-05
-3.69533429514085337e-05
3.8591573024311944e-05
0.000147644127661639748
-4.13662487373571376e-05
-4.91245268885162823e-05
5.00588636231730439e-05
0.000137952840826340814
-8.08683135454727332e-06
-6.57716028572635444e-05
6.75742003077163913e-05
0.000120950812662758199
8.56682415719402406e-06
-8.6594795214641577e-05
9.07490375653652011e-05
0.000101478275225995145
-4.81968831515934115e-06
-0.00011145968222332951
0.000122533337275702539
7.23353997978728314e-05
-3.51153809173290564e-05
-0.000137980065174389598
0.00015972480409457958
-5.21697768133511336e-06
-0.00019653040532188439
0.000266246958594503727
1.97941108386088978e-05
-0.000204953131807892198
-8.70804210941757672e-06
1.02186309307741746e-05
3.29767128702071707e-05
-0.000202219497170579455
-8.49549608468514547e-06
1.19414414959179677e-05
4.6138438895809891e-05
-0.000195798800914923424
-7.64631330009516111e-06
1.00735254294487564e-05
6.0830384122319102e-05
-0.000189445711404608941
-9.00481892589791135e-06
1.08409049015029636e-05
7.64302086561405411e-05
-0.000182802348083279786
-1.20368258813171985e-05
1.43180558674897073e-05
9.28011195499884608e-05
-0.000176152237183208353
-1.47498070096160345e-05
1.79747880266450476e-05
0.000109996445992254706
-0.000167130513367756434
-1.67753678633742034e-05
2.0537735695039201e-05
0.000126846632242003663
-0.000150013495704448899
-1.944166136520965e-05
2.16190271170017432e-05
0.000141623937241796389
-0.000122277729683257022
-2.43691664214389024e-05
2.34308660235108122e-05
0.000151998509093109768
-8.50517422878002867e-05
-3.25987152712606322e-05
2.93266444951707803e-05
0.000150533228012511816
-3.58094178396295773e-05
-4.58344253459947489e-05
4.17428756363758885e-05
0.00013743361069320088
6.72028984955016714e-06
-6.52677074312631433e-05
6.35602017183294803e-05
0.000118276925285632989
2.4883461175560697e-05
-8.7410693125007427e-05
9.02507383605804793e-05
9.9350232950598809e-05
3.77116425130871769e-06
-0.000110813304374541194
0.000121149139472372103
6.82217368690675907e-05
-2.45692811095202217e-05
-0.000136283774594625376
0.000156866162806947799
-2.50951461612811198e-06
-0.000190994982199821714
0.000256509250272376208
1.50740409251996017e-05
-0.000225421502510604697
-1.3112185523445711e-05
1.85065117264383456e-05
2.56032015998316418e-05
-0.000218759957571773621
-8.82509811919024705e-06
1.48363921125271977e-05
3.72433027185421913e-05
-0.000210461255408407209
-5.3174105786988862e-06
8.33975991937241259e-06
5.12192509395903542e-05
-0.00020507861837446538
-6.07502474861585378e-06
7.73198245032998997e-06
6.5019762769514484e-05
-0.000198519269437360309
-8.74463774008282901e-06
1.0661049891853444e-05
7.90122964561691785e-05
-0.000192839439309526028
-9.86912228326143812e-06
1.25637968693939146e-05
9.48883469903594228e-05
-0.000181777309566078221
-9.16292177524574869e-06
7.93367628914197354e-06
0.000110277599662912291
-0.000157441257061055953
-1.1117971652695947e-05
3.15649061815225908e-06
0.000127558427339182108
-0.00012503883994333673
-1.6121979912442263e-05
1.60227277141826519e-06
0.000145995396930155737
-8.70365773412654781e-05
-2.64083302731483706e-05
9.95620449628144434e-06
0.000144821874054912596
-2.13310136471314693e-05
-4.00682874400309886e-05
2.67634122616616993e-05
0.000125417029813025484
3.52047479405910232e-05
-6.22513843697596644e-05
5.31717722279467591e-05
0.000108595833792646241
4.25414854481201768e-05
-8.83392535487449021e-05
8.75024237164770288e-05
9.55174918544208129e-05
7.14897159732007497e-06
-0.000111293638578035333
0.000120994168794188886
6.36364563445965091e-05
-1.30743555470531661e-05
-0.000135632614385002297
0.000156018715756027834
-1.03053693373270018e-06
-0.000185841935108367297
0.000247999407903937239
6.44136591601653863e-06
-0.000244400111616930194
-2.0436095400634914e-05
3.2973329695515061e-05
1.18394180629232839e-05
-0.000233600084658005039
-9.21716326656299567e-06
1.86592194404376621e-05
2.06098128548961302e-05
-0.000222495787441793699
-1.97755310602341142e-06
5.24167601507469821e-06
3.14736254077795888e-05
-0.000215562230796765252
-1.72928741760217954e-06
1.34908185856373724e-06
3.87530459575623134e-05
-0.000204367399944384255
-3.00444004280243218e-06
1.57315749129932248e-06
4.4976610507876679e-05
-0.000193854073169983992
2.27407856640939932e-09
-5.21118234321677794e-06
5.40479883144483799e-05
-0.000175601457655707657
6.1112330531212718e-06
-2.13584261389087546e-05
5.77946888079358898e-05
-0.000131137437693534331
3.89276694990609284e-06
-3.39432371153475425e-05
4.85352722662605779e-05
-7.66967630435262714e-05
-3.02120772921251756e-06
-3.60613894124885484e-05
4.69899603134053749e-05
-4.85962408199173729e-05
-2.3525664094628453e-05
-1.33692881155421564e-05
1.88623023083510106e-05
1.11699167113560992e-05
-4.12170640258840905e-05
3.68438688666206863e-05
-1.87067181470859135e-05
5.17863630397101191e-05
-7.18840796942735107e-05
9.28715235366090971e-05
3.73698382244307711e-05
-3.80465108308184223e-05
-9.83900584411945088e-05
0.000122901502239503913
7.36346735494044493e-05
-5.24463017566506378e-05
-0.000112737848353195759
0.000136068282580813877
5.41659955340719076e-05
-1.60636906131777852e-05
-0.000136774929598974121
0.000159232934290796946
-7.27074475459680252e-06
-0.000181990526483240885
0.000242396725125005425
-4.79366152091333076e-06
-0.00026017192934576236
-2.75805936894062168e-05
4.81460418479056029e-05
-6.10865234927716983e-06
-0.000244854745798633107
-8.52475623433611999e-06
2.10943533151554273e-05
-8.41947854379360318e-07
-0.000231148406691560017
2.78428885106354025e-06
6.01585152015751232e-07
5.94635173961050481e-06
-0.000219342009070401956
5.10109701994174187e-06
-8.10962946849662558e-06
5.53844716805934418e-06
-0.000198315692911530794
6.81162023201677363e-06
-1.24553905298077129e-05
3.36599119950168278e-06
-0.000177221677179252319
1.60472320333049275e-05
-3.05070922639190978e-05
4.83719797752625882e-06
-0.000145554755557917768
2.75496845642955528e-05
-5.90674702547725497e-05
-5.50794207301772826e-06
-7.19719995422409605e-05
2.07093143646785734e-05
-6.95294396595425149e-05
-5.90374826533550311e-05
3.13292302463181842e-05
2.76345479165623274e-06
-5.72596713760116581e-05
-0.000142152463400839935
6.49357029807426421e-05
-4.32132173451647755e-05
1.27964903170153869e-05
-0.000199397364227212899
6.25244095534815145e-05
-7.69859941081977472e-05
8.28765809710046866e-05
-0.00020639988880844179
3.47036089661575259e-05
-0.00011147329340976531
0.000135558610316157752
-0.00011021574769471494
-0.00016792320421208165
-0.00013299061022866427
0.000166683167222356015
5.33101496039947633e-06
-0.000205054859955340315
-0.000129570062747664562
0.000166631855117016053
3.09345786207534555e-05
-6.60082011700877179e-05
-0.000142574797639314618
0.000166915736765551437
-3.77422487517583533e-05
-0.000179538047567880869
0.000240944128142000418
-1.55686044311536103e-05
-3.09979016542024337e-05
5.78011168622574379e-05
-0.000271406612170713071
-2.11705744762136348e-05
-4.87162274322942829e-06
1.99913581707479795e-05
-0.000254372621130273622
-2.00671606207782503e-05
9.96779603284692674e-06
-6.56131255238686194e-06
-0.000235658379695698086
-1.90723614003868165e-05
1.56527776496989606e-05
-2.1401478222013788e-05
-0.000214588121112431376
-2.70621114818060925e-05
2.20707689078505817e-05
-3.13931026149907665e-05
-0.000181003535323944788
-3.84540148763401108e-05
3.8981702902974688e-05
-6.28554790886894901e-05
-0.000141955835704369942
-4.63365750953209995e-05
5.38627722188969141e-05
-9.54340071631498829e-05
-9.61007246754660158e-05
-6.3691902998473627e-05
4.07455934656921474e-05
-0.000100318438564938825
4.95650351477612246e-06
-0.000102731044571086001
7.76301794231531067e-06
-6.17153038122025832e-05
0.000124321076511460136
-0.000154254326669665918
-3.94063012618210606e-05
1.59450451216476536e-05
0.000139920514164997717
-0.000214366995060689486
-8.2620802155722805e-05
9.33244643668739224e-05
0.00011193352084621082
-0.000242593171533803857
-0.000115765103788505595
0.000121893961900795188
5.68009640112629314e-05
-0.000200353857765963629
-0.00013307604855231512
0.000144001884092411468
-0.000221088346677586792
-7.73038590894880532e-05
-0.000146073834235116299
0.000170651250421172422
-0.000352682277374735155
3.48449295799030097e-06
-0.000147736082942071867
0.000178876892641402052
-0.000177937376187989804
-0.000174636773602686481
0.000232884958104506907
-9.25059451834434987e-05
9.63710489711179723e-06
-1.05168280984674621e-05
-9.47111381094110925e-06
2.593892239563344e-05
-1.72739351775494389e-05
-1.07084659215087733e-05
4.3875979960902826e-05
-1.88924379100582261e-05
-1.15687573537813801e-05
6.13809498129057064e-05
-1.84626974632597952e-05
-1.29647183601409152e-05
7.6400664408345602e-05
-1.60319950876938543e-05
-1.49395110024124735e-05
8.87888152975670252e-05
-1.35396218764179507e-05
-1.76594571703926797e-05
9.89521871566794201e-05
-1.15275628050377337e-05
-2.13425264471111241e-05
0.000106895363343209956
-9.71827062545249881e-06
-2.63454630743642607e-05
0.000112474298341530985
-7.85220123983024721e-06
-3.28501602406843068e-05
0.000115357613368407999
-6.1392142537878164e-06
-4.14714953081507528e-05
0.000115574614252378387
-4.55613627407905651e-06
-5.23488655832157813e-05
0.000112575897258938168
-3.84548439229027564e-06
-6.65849772572077317e-05
0.000106623123851478917
-3.53393398094139641e-06
-8.41583603957207836e-05
9.49898257863782103e-05
-5.55342420783200011e-06
-0.000106563480194920004
8.30737254511332567e-05
-1.04651085974199654e-05
-0.000135719093668877362
6.50708342731844971e-06
-0.000156619440398217581
1.11251008353736196e-05
-2.26098547506238564e-05
-9.40390534007238338e-06
2.74045485720441511e-05
-3.45802077455259187e-05
-1.03221720532722239e-05
4.37463398798824146e-05
-3.62373369548746931e-05
-1.12397734472512667e-05
5.86894363289884973e-05
-3.43793931849929163e-05
-1.26038802894758171e-05
7.2515379988364863e-05
-3.0859384696822951e-05
-1.45741134756463342e-05
8.48944181831877485e-05
-2.70369659879370946e-05
-1.72970010507371719e-05
9.55168540895221001e-05
-2.34981444593909091e-05
-2.09781335000887486e-05
0.000104154543867805588
-2.0083989655428141e-05
-2.58811628007983228e-05
0.00011057946594597195
-1.65819244534099403e-05
-3.23078866287811029e-05
0.000114423352439913556
-1.31765736082693888e-05
-4.06599533902535695e-05
0.000115512451634398961
-1.01448842018554709e-05
-5.13799792259377871e-05
0.000113217517264354922
-8.33072344709217641e-06
-6.50937995701714606e-05
0.000107634978068055643
-8.04897470637159238e-06
-8.22690840829473727e-05
9.44573692237894486e-05
-1.01465703353738304e-05
-0.000104318649232947215
7.94643364252675915e-05
-2.08826278317656386e-05
-0.000129128899189801503
1.141625624691774e-05
-0.000168631989885564555
1.2764937874013076e-05
-3.64854548275557252e-05
-9.14321641942865831e-06
2.85856243890617028e-05
-5.15819627269156975e-05
-1.01923640810653398e-05
4.44718835610461677e-05
-5.32505940836308273e-05
-1.11761092131390437e-05
5.92916173950358715e-05
-5.02459508242432984e-05
-1.25878696465794853e-05
7.2984453380117633e-05
-4.55821647266384423e-05
-1.45898061397661404e-05
8.53580902841796329e-05
-4.05290774293739589e-05
-1.7329236606750312e-05
9.60856231262091051e-05
-3.55599041852278731e-05
-2.10055124551464493e-05
0.000104849862790746845
-3.05603940662830487e-05
-2.58822406867220995e-05
0.000111335643844291674
-2.53640256748445235e-05
-3.22743192357084955e-05
0.000115147338799216371
-2.01783519726491386e-05
-4.05885462678657791e-05
0.000116032686526015632
-1.55378691783755038e-05
-5.1273653190696283e-05
0.00011342649043301761
-1.24759233716256681e-05
-6.49428929813183821e-05
0.000107287053837134516
-1.19942200555271542e-05
-8.20730679967220209e-05
9.37769324228776693e-05
-1.40986315517215092e-05
-0.000103992559827002833
7.55651092748007821e-05
-2.77898807092416914e-05
-0.00012931787475969149
1.36399142317832134e-05
-0.000165853771567949355
1.40293069932645503e-05
-5.17939484678136644e-05
-8.85564868667335072e-06
2.96363918840459036e-05
-6.85398452805730099e-05
-1.00660539518022728e-05
4.51661503405440242e-05
-7.0014447497664559e-05
-1.11269037451465643e-05
5.97906167072811645e-05
-6.5947188306318398e-05
-1.25883115535431812e-05
7.33872273686509867e-05
-6.01830391935807976e-05
-1.46185691856853052e-05
8.57954334338155189e-05
-5.40043209371389183e-05
-1.73693372390004607e-05
9.66617570168100117e-05
-4.77098926853138596e-05
-2.10360013388410015e-05
0.00010558369732083551
-4.11652031631522795e-05
-2.58786420777892203e-05
0.000112149804981743481
-3.42310332353308605e-05
-3.2223519739975131e-05
0.000115900363432258461
-2.71514122849471707e-05
-4.04881630319662935e-05
0.000116502809581911889
-2.069678113713771e-05
-5.11322678341704688e-05
0.000113425458689381852
-1.61747258507511046e-05
-6.4749099501979179e-05
0.000106496079453388901
-1.51395039898518107e-05
-8.18233238840784306e-05
9.25995641026450061e-05
-1.74684105348168885e-05