/*--------------------------------*- C++ -*----------------------------------*\
| =========                 |                                                 |
| \\      /  F ield         | OpenFOAM: The Open Source CFD Toolbox           |
|  \\    /   O peration     | Version:  2206                                  |
|   \\  /    A nd           | Website:  www.openfoam.com                      |
|    \\/     M anipulation  |                                                 |
\*---------------------------------------------------------------------------*/
FoamFile
{
    version     2.0;
    format      ascii;
    arch        "LSB;label=32;scalar=64";
    class       surfaceScalarField;
    location    "0.300000000000000044";
    object      alphaPhi0.water;
}
// * * * * * * * * * * * * * * * * * * * * * * * * * * * * * * * * * * * * * //

dimensions      [0 3 -1 0 0 0 0];

oriented        oriented;

internalField   nonuniform List<scalar> 
20856
(
-7.89732559634710373e-11
-3.708348858879549e-12
-6.843707492865742e-12
-7.66727179228694635e-11
-4.96929758906586629e-12
7.90088550749757123e-13
-3.70127157490755988e-12
-7.49859930096230297e-11
-8.90298035075875676e-12
4.50224913702522381e-14
-1.52489750123299718e-12
-7.34968892544549078e-11
-7.47927820733777036e-12
-1.70865995781315597e-12
6.34152443324399496e-13
-6.91324495686406945e-11
-6.503253623291365e-12
-3.54526530000871126e-12
4.65870438252452279e-12
-6.47208398906024211e-11
-5.49728331911903511e-12
-5.24997547654025637e-12
8.17589622715565345e-12
-6.48546147860134639e-11
-4.50516498435691583e-12
-7.65799684371376468e-12
1.20048975219044168e-11
-6.45723602664755963e-11
-1.84271849616037864e-12
-1.0815409909159485e-11
1.72997227138678955e-11
-6.7371771898479281e-11
1.33420713641413354e-11
-1.56682628518863334e-11
2.41739359353298173e-11
-7.41932786409669118e-11
4.27136449975226759e-11
-2.9571184470719845e-11
3.99318264724819975e-11
-7.34540712998114515e-11
8.82610627648487987e-11
-6.10430183466424569e-11
7.3391040072879146e-11
3.31701079382208895e-11
2.63569308525956733e-10
-1.53310719442373342e-10
1.40883482644018542e-10
4.78432852971607214e-10
8.65281553258378596e-10
-4.70741337845513737e-10
2.77803326674777891e-10
3.59919689608062923e-09
1.63816732528261419e-08
1.45896379470008369e-09
-1.77204191226204827e-09
-5.83733662222916343e-08
4.29963083207572657e-07
1.09534112047021197e-07
-1.08959433662626277e-07
1.64368243583702351e-06
8.34414106144571515e-07
-9.54979787063354478e-07
-2.89500947832788968e-11
-2.91613558395985318e-12
3.93388859911990115e-13
-1.63432953414206646e-12
-2.88101184366877276e-11
-2.87382005151144275e-12
1.63394110558274771e-13
-8.36454823230091371e-13
-3.02703219019579213e-11
-2.64237618757846797e-12
-1.43312515730950467e-13
-2.04633673416040038e-13
-3.02172005193545751e-11
-2.09234236973140406e-12
-8.39378423935464095e-13
1.04690435935757357e-12
-2.88554572088842549e-11
-2.33287826443548011e-12
-1.52095488423084519e-12
2.52704911918149901e-12
-2.92303743921108248e-11
-2.0334502752390929e-12
-2.23684558904335341e-12
3.90647533161288194e-12
-2.87482814863178551e-11
-1.21142346986798416e-12
-3.27643684620142782e-12
5.7495603868660006e-12
-2.86152003778517856e-11
4.56429160182086752e-12
-4.55837792073707526e-12
7.75507315779323872e-12
-3.47227146783148502e-11
1.95609664139674587e-11
-8.18447640063981635e-12
1.18979646329982898e-11
-4.46462733412712457e-11
3.85421335840577876e-11
-1.71461434528998774e-11
2.25880599849933679e-11
-4.15367602697664519e-11
1.15222483451633489e-10
-4.44536631847679089e-11
4.66420187327754474e-11
-1.74397502799290518e-11
3.51619422916189498e-10
-1.56213150908246941e-10
1.17116698641852605e-10
1.48788850072722106e-10
1.25235927254914572e-09
-5.98827548715201084e-10
3.2980106044336261e-10
2.20363171449847797e-09
2.08112662701089062e-08
2.15548817259733005e-09
-2.19785428821829814e-09
-6.77381683728775698e-08
4.19093880968910158e-07
1.01921806768059422e-07
-1.03313609071097463e-07
1.23565696780418552e-06
6.41069609081027351e-07
-7.59400795088184292e-07
-1.06576677819138862e-11
-6.97705835452344568e-13
1.02616629811431809e-13
-4.44847645089261978e-13
-1.12849381644239873e-11
-5.77350492403903949e-13
4.1506768447775208e-14
-2.24939188753380661e-13
-1.22724274927080659e-11
-3.58847124737477781e-13
-7.22084775956387212e-14
-5.06325194766881366e-14
-1.23882619543250191e-11
-5.72143697739721039e-13
-3.32178033765265885e-13
4.84232845190789162e-13
-1.21054953238934074e-11
-6.33709646040450726e-13
-5.89923414764386051e-13
1.07369924483084569e-12
-1.20565550177280234e-11
-5.11978483072622744e-13
-8.75127734307698813e-13
1.65496081618240181e-12
-1.20457244592707546e-11
1.11267020070509237e-12
-1.29657646792636428e-12
2.45727063212956264e-12
-1.42890996561714334e-11
6.58315600930452669e-12
-2.05380775847230496e-12
3.44272104941073226e-12
-2.02350577945271529e-11
1.52865821822510605e-11
-4.40334896640127419e-12
6.27844869762945973e-12
-2.76042894082501845e-11
4.40762808762113969e-11
-1.07767594873385184e-11
1.31796171183428192e-11
-4.16946372712706459e-11
1.53450440413697962e-10
-3.75372897029447724e-11
3.4647794819019252e-11
-1.38606609038050361e-10
5.03727365798226525e-10
-1.70728442229486482e-10
1.20266301632127875e-10
-6.11287904468081238e-10
1.98718032456175088e-09
-7.20155311236535772e-10
4.17725806165266173e-10
-8.22298084424496527e-10
2.51312874269165605e-08
2.85400987009496012e-09
-2.87349000635076618e-09
-7.1919754146806565e-08
4.03693370902940489e-07
9.42542764385784268e-08
-9.72412131091154415e-08
8.73854622206572957e-07
4.70263393639295208e-07
-5.83053127627132696e-07
-4.12647012700877738e-12
6.34512792244265609e-14
3.15837321097577327e-14
-1.43658361780649307e-13
-4.57810686404989653e-12
1.62056546906853465e-13
1.48533923947207623e-14
-7.99508519187116078e-14
-4.93629685771962841e-12
9.47325971698538667e-14
-2.16787533315362885e-14
-2.54372030067882888e-14
-5.01571574563663956e-12
-2.0689524270465993e-14
-1.17340197233506353e-13
1.69296433275605509e-13
-4.99960317485054692e-12
-1.6106045550178826e-14
-2.15310373130674842e-13
4.07014030266051197e-13
-4.99455020859711113e-12
1.24157482148698321e-13
-3.32429644742239924e-13
6.61146332502850126e-13
-5.35088664045282931e-12
1.85033739379468863e-12
-5.09626473560346372e-13
9.67208118663270638e-13
-7.22168423575671323e-12
5.59587177183611603e-12
-1.02512257562580237e-12
1.57981192714109503e-12
-1.13250244657983321e-11
1.45078273416463511e-11
-2.45441278245685372e-12
3.36986892271986679e-12
-2.2853120947717215e-11
5.56591496644263435e-11
-8.2607773908226819e-12
8.28783426175787467e-12
-8.43797328263115793e-11
2.09078843672963387e-10
-3.78935070418125708e-11
2.93984900708361456e-11
-3.66998752936890898e-10
7.236088211682746e-10
-1.92226719937264488e-10
1.31362156742089296e-10
-1.91227561816734937e-09
2.96161659783827235e-09
-7.4581869431530548e-10
5.03772597684186704e-10
-1.3656385996981195e-08
2.84112309259560024e-08
3.69903156585981251e-09
-3.63312174234318043e-09
-6.91423245464863433e-08
3.6278831999909148e-07
8.28802872873274133e-08
-8.92724098556449512e-08
6.25839884992715785e-07
3.12475878827586691e-07
-4.20532735719734843e-07
-1.80697804050894836e-12
1.82720474450240512e-13
3.16974464896893756e-14
-1.39675970578148935e-13
-1.75042371575615513e-12
1.69509106753008198e-13
2.72541694675964538e-14
-1.22039159846535229e-13
-1.64663290790599931e-12
1.78500232057483757e-13
2.11159312829642582e-14
-8.45961077935900704e-14
-1.65400162177596536e-12
2.07640363399134339e-13
1.36343638490238283e-14
-5.16607841067848587e-14
-1.85494556060059152e-12
2.56723546333205704e-13
6.96924424393932252e-15
-3.49317234583254042e-14
-1.97515831930821956e-12
2.01213755117852229e-13
-3.0785876679721741e-15
-1.53425199472193883e-14
-2.01977728057798032e-12
1.75381361580291264e-13
-3.78831443724310095e-14
4.81200831701167611e-14
-2.03557690607601674e-12
1.92353238319329499e-13
-7.49435329783721306e-14
1.4147296465675081e-13
-2.03784684280828379e-12
3.11984093272492412e-13
-1.22331941383534824e-13
2.46555973941332873e-13
-2.60116506905675324e-12
1.64322637613006784e-12
-2.18166159251031832e-13
3.79269113670553464e-13
-4.36664004793631856e-12
4.14404253111850275e-12
-5.22834911334154573e-13
7.75335141711647368e-13
-8.41533569470223686e-12
1.56254309732717339e-11
-1.6291692627788259e-12
1.86536737893713723e-12
-2.61229761380469785e-11
6.51412789042011783e-11
-7.03833942608824753e-12
6.29001991174550934e-12
-1.28086532235174591e-10
2.62402078072471844e-10
-3.75730660718641899e-11
2.92615277005279067e-11
-6.2543878784542565e-10
9.54610975254458515e-10
-1.87357381673263465e-10
1.44846775066183059e-10
-3.14283923743196588e-09
4.00178481939320406e-09
-5.75263621485150505e-10
5.03731726593811303e-10
-2.4359344720078776e-08
3.00675636609219727e-08
4.28293872259936067e-09
-4.3338150296347487e-09
-5.6636664566311331e-08
2.93576787956659714e-07
6.79206699453868994e-08
-7.77506552250255373e-08
4.73171919117902136e-07
2.29202037995586266e-07
-2.94717757342855747e-07
-7.28535398756493906e-13
1.59649847442875741e-13
1.82479773033921895e-14
-5.92253006694978483e-14
-7.01494998399402012e-13
1.63078629413805721e-13
1.51793502994589408e-14
-5.02515019288832883e-14
-6.77936668712558296e-13
1.74891705063817903e-13
1.15729196686901402e-14
-3.55945564060291595e-14
-7.04812208798854936e-13
1.96044531448284347e-13
7.70385902096228319e-15
-2.46939044475854727e-14
-7.69212097560202421e-13
2.06843171718757142e-13
4.4654156409986552e-15
-1.99641314868071614e-14
-8.15316325653792876e-13
1.84890305130603506e-13
5.82748226968238504e-16
-1.02639125285630247e-14
-8.46970719604985661e-13
1.8576986579048272e-13
-1.13152871621501814e-14
9.01177345986490626e-15
-8.587187005243013e-13
2.06250931426241005e-13
-2.56413848781768084e-14
4.40112344118218745e-14
-8.79609195925780728e-13
3.43814993147938915e-13
-4.44840780907827263e-14
8.11693851539701364e-14
-1.32100104347750207e-12
1.21471463643148382e-12
-9.76724179754012048e-14
1.45358661784463889e-13
-2.44558120605447383e-12
3.88979499223392777e-12
-2.79480844441216201e-13
3.69112210690388873e-13
-6.99729268145417639e-12
1.62668131665907224e-11
-1.16703092527824112e-12
1.20441074624821645e-12
-3.08664412226134569e-11
7.16163658773302427e-11
-5.82143680841297739e-12
5.27271441114346679e-12
-1.56129163053384501e-10
2.96866012117910696e-10
-3.13581675816109972e-11
2.83366941114202078e-11
-7.69277820096050313e-10
1.11064465219438013e-09
-1.44262798909293799e-10
1.37412960840184018e-10
-3.67668036701335227e-09
4.76459878688324761e-09
-3.12864659063890785e-10
3.50569307072065582e-10
-2.53026862066194145e-08
2.87898931530141964e-08
4.3987441098429378e-09
-4.66986869064499272e-09
-4.0229574358748159e-08
2.11826264258915061e-07
5.33703563062647949e-08
-6.45692086908121073e-08
3.70372626656026221e-07
1.19880059394257799e-07
-1.80014532393105196e-07
-2.27711402618873859e-13
1.07670555951231493e-14
-7.91747509009826162e-15
1.0461548703134533e-13
-2.54561959008905883e-13
1.23977750199126835e-14
-2.30843054973154296e-14
1.18091936907407297e-13
-2.58053017107342817e-13
1.13154087427199916e-14
-2.74169297333334142e-14
1.25722866324711123e-13
-2.48854266319797619e-13
9.26214569325311094e-15
-2.40083424086458858e-14
1.3159283608147703e-13
-2.44605662663201589e-13
7.04244553273291621e-15
-1.8390029061402682e-14
1.38275926441955454e-13
-2.55797995466735595e-13
4.95638787347342758e-15
-1.44866375462697366e-14
1.49226299186808197e-13
-2.64668682418494769e-13
3.07624249876004044e-15
-1.09184136070666941e-14
1.51485157441022295e-13
-2.73179221477377711e-13
9.33095178504193305e-16
-5.65365512438925259e-15
1.48122415976316248e-13
-2.81769669517591883e-13
-2.34312155270902193e-15
-1.72779135933169131e-16
1.50252589017793015e-13
-2.86284667909595036e-13
-6.64561788565776059e-15
8.5441931708640661e-15
1.61336469321250435e-13
-3.22615472339425315e-13
-1.37134730902795804e-14
1.94908560397649081e-14
2.24011529956060812e-13
-7.12477518534509748e-13
-4.01355866751031357e-14
4.91865216596608857e-14
7.56607231889243765e-13
-2.02478104591487603e-12
-1.69847152919198661e-13
1.75063356482701226e-13
3.25790560510094868e-12
-6.65336716996954426e-12
-8.26500190059813368e-13
8.00332376367889799e-13
1.55728316241230396e-11
-3.22132457589598708e-11
-4.36681671278285203e-12
4.16945163553231575e-12
7.35304702078963925e-11
-1.65427143543620697e-10
-2.25663112075230615e-11
2.27282169656879086e-11
3.11390614195072765e-10
-8.2087103277528248e-10
-9.01685054317242962e-11
1.0073718721696502e-10
1.19864839336542739e-09
-3.49111704640664855e-09
-4.11227014058687088e-11
1.30041377451245388e-10
4.96492304887761723e-09
-2.30697233613026433e-08
3.98633533888111128e-09
-4.49247896167636351e-09
2.49429133411599986e-08
-4.53795401516972471e-08
3.90832639363872679e-08
-5.01569850073546636e-08
1.34915666025389172e-07
1.02141544934346641e-07
-1.34625762012233711e-07
2.61522345246609207e-07
-2.9774164445542798e-11
-2.0175783886792896e-12
3.31470470799996823e-14
-2.97469851448766374e-11
-3.31590514064347835e-12
-5.19470270575165096e-13
-2.99334849104923909e-11
-2.71165671766404242e-12
-1.2254009190888968e-12
-2.93897909835666002e-11
-2.32997471549459204e-12
-1.9721086779664169e-12
-3.05203698904691526e-11
-2.26485723677509103e-12
-2.86633952694165564e-12
-3.1526969682160608e-11
-1.52254318846066357e-12
-4.13594960390419004e-12
-3.19714782675593698e-11
6.0106768026204938e-12
-5.77749165147876588e-12
-3.93502555218740294e-11
2.1714781082130775e-11
-1.01764092548576188e-11
-5.24938359371700059e-11
4.13209176431039607e-11
-2.13597547726919586e-11
-5.86184335603107505e-11
1.24306103309201549e-10
-5.75998997302332094e-11
-5.15653338997612362e-11
3.74994676730556715e-10
-2.18527929419649489e-10
5.88568347458376991e-11
1.37130455273036378e-09
-8.95744400977963444e-10
1.71008478135762357e-09
1.98633751520336006e-08
1.1721559998398667e-09
-7.18526555256238808e-08
4.00202081123367148e-07
1.06440284647009522e-07
1.13229775710761211e-06
6.30124704389272888e-07
-1.02938275473777617e-11
-6.43621752543798325e-13
5.10540993159722919e-14
-1.05839075672694561e-11
-9.30956178781367027e-13
-8.75521901992532296e-15
-1.11909494860340742e-11
-7.30193282915473453e-13
-2.24794811402952794e-13
-1.15369356187140564e-11
-5.67571793764747281e-13
-4.84242829784337821e-13
-1.18324988350635456e-11
-6.11509103458687278e-13
-7.71012328772892339e-13
-1.2376780122556129e-11
-3.83461023968243092e-13
-1.12193814352578266e-12
-1.27167420611388632e-11
1.609216035083593e-12
-1.61473022818207905e-12
-1.54097517486045354e-11
7.35074064569200965e-12
-2.55324225837406413e-12
-2.25867313483087693e-11
1.59841200292047484e-11
-5.45842088555244746e-12
-3.14749486128990311e-11
4.72478604625120269e-11
-1.3812211930055022e-11
-5.23082733973624344e-11
1.6561650012386876e-10
-5.05052631704890079e-11
-1.65578790636937186e-10
5.43657246591371621e-10
-2.34583343600507641e-10
-7.84381338023580457e-10
2.12195608921806755e-09
-1.06883476040248998e-09
-1.23835236975318045e-09
2.33409119939997398e-08
2.05269199806972574e-09
-7.42585564796756125e-08
3.75854687302968891e-07
9.82880980209051151e-08
7.82239533304018808e-07
4.60476416040802239e-07
-3.59709466127657265e-12
-6.79486293223617525e-14
1.38045878401882878e-14
-3.9570079622861879e-12
-3.58483001796599756e-14
-6.73024829636097948e-15
-4.29223871342345341e-12
6.17508688997181874e-14
-8.35140297654570076e-14
-4.48829010932412174e-12
3.6094804773054121e-14
-1.7555554898401442e-13
-4.64964382433747211e-12
-2.83875506930903565e-15
-2.80382687840048527e-13
-4.91942192417217311e-12
3.77915981577310655e-13
-4.10402488686853294e-13
-5.48859151737349231e-12
2.23609562603871391e-12
-6.3370015108435866e-13
-7.7687369165338223e-12
5.7759998134025097e-12
-1.26155313401577693e-12
-1.25964387551690998e-11
1.51716605845183874e-11
-3.07156124912639206e-12
-2.78642006844803206e-11
5.75501635262366229e-11
-1.08741897247634308e-11
-9.52687133944786322e-11
2.17371275806758054e-10
-5.09902250391079269e-11
-3.99576390801166637e-10
7.53761193759267896e-10
-2.64016375208758225e-10
-2.00185551798862705e-09
3.03372012350166797e-09
-1.0685201122082966e-09
-5.67225964889426994e-09
2.59454787324148032e-08
2.87802050881282206e-09
-7.39830597208477463e-08
3.34894695104661814e-07
8.62723472088387207e-08
5.3252920443843753e-07
3.05812339429276957e-07
-1.3610827466672296e-12
1.7263491327337823e-13
4.97783452515122212e-15
-1.53626256410321641e-12
2.03581875697544537e-13
-1.05619348163213889e-15
-1.67991793463992084e-12
2.08106056012452352e-13
-2.81674989922171145e-14
-1.76611764573527427e-12
2.04223326186529008e-13
-6.07306047467221918e-14
-1.84767829697470675e-12
2.03160650465175687e-13
-9.92168217455821187e-14
-1.9688841131644049e-12
5.81484718368281451e-13
-1.51081033378811393e-13
-2.6753104067288296e-12
1.87072579651867109e-12
-2.74612887220759425e-13
-4.69520187608507588e-12
4.39121103820682626e-12
-6.52412679991565743e-13
-9.99605924942506675e-12
1.5770006938620583e-11
-2.13657175162049595e-12
-2.88767821079614729e-11
6.58680804372618156e-11
-9.28253798025795235e-12
-1.35495524915649284e-10
2.67695951815916441e-10
-4.90593018622175989e-11
-6.53446980950881484e-10
9.76295974613313731e-10
-2.47444499769160891e-10
-3.21893328941211089e-09
3.99126397786876427e-09
-8.28294459778678993e-10
-2.50281694947996183e-08
2.75755811355570025e-08
3.68361613699710268e-09
-6.12037209400461779e-08
2.6288032647014082e-07
6.84210696886063002e-08
4.41890668811795618e-07
2.27439997793937977e-07
-5.36979933523010394e-13
1.63421951206103033e-13
8.33402972864161101e-15
-5.34689261168166608e-13
1.72508680115989992e-13
7.03348932275823475e-15
-5.25720535565643603e-13
1.81123238571379047e-13
5.31768258725416174e-15
-5.47281277582883979e-13
1.92560965558766195e-13
3.09919973748154499e-15
-6.19542922128196506e-13
2.05477655031919002e-13
3.17517705416590689e-16
-6.76840410876742672e-13
2.15503140355081597e-13
-8.84887328215441617e-15
-7.13294434302439254e-13
2.24655836410435788e-13
-2.06516842361000219e-14
-7.45565831906112189e-13
2.40337388266501099e-13
-3.4863155044416153e-14
-8.84171174718953603e-13
4.99206147976707992e-13
-5.77291952731400563e-14
-1.43005778668154194e-12
1.31196380911200935e-12
-1.28360687864003508e-13
-2.83699546291926499e-12
3.91017673529237201e-12
-3.77116013925163819e-13
-7.79087538495939854e-12
1.64948912807749547e-11
-1.56594129573462988e-12
-3.32833813285014748e-11
7.29221578908737813e-11
-7.72691471556549513e-12
-1.65311467486756211e-10
3.03579043969656525e-10
-4.1330062490079967e-11
-8.05808106245904885e-10
1.14036655760350292e-09
-1.95830559769334402e-10
-3.79624845992550676e-09
4.75233349565440556e-09
-5.19676794521799547e-10
-2.53343724556204681e-08
2.69354169415846705e-08
3.96908831511577182e-09
-4.17464230320184488e-08
1.98117248108489673e-07
5.28919295574159468e-08
3.77342063269230675e-07
1.53485260825891949e-07
-2.38207771244042722e-13
1.21721797421523151e-13
5.97918974790068738e-15
-2.39190530433156133e-13
1.30634803271754347e-13
5.00456435009211314e-15
-2.38598237702069516e-13
1.40681999767728053e-13
3.7788603513219005e-15
-2.48404919858104956e-13
1.50974014263867519e-13
2.30324166010709184e-15
-2.7434884489629868e-13
1.59423514463077181e-13
5.9477894120010057e-16
-2.99616224514138959e-13
1.68179421176445736e-13
-2.61747973580173051e-15
-3.17329084870925724e-13
1.81227259480006963e-13
-7.15980646670969245e-15
-3.33812133345477791e-13
2.01285715124824921e-13
-1.28746233044043149e-14
-4.33812911572124548e-13
3.41937612696808593e-13
-2.44239932840526424e-14
-8.50007246234133597e-13
9.16449143721175005e-13
-6.33280255735131515e-14
-2.00822678075064199e-12
3.57358791874337825e-12
-2.47665060241409006e-13
-6.69145069281450308e-12
1.61817541982917175e-11
-1.16047900689003014e-12
-3.24282256009210153e-11
7.42826998487682574e-11
-6.04440077145163833e-12
-1.6483586079810874e-10
3.14527642773240547e-10
-3.11959448206621554e-11
-8.14471509024728194e-10
1.21155082567758011e-09
-1.306391843969778e-10
-3.4908785199852289e-09
4.91021901504926179e-09
-1.99606996290754445e-10
-2.33806184606612209e-08
2.36201236912831116e-08
3.73076028260192107e-09
-4.42306941960130946e-08
1.33809785763547838e-07
3.84400279753679786e-08
2.44201033211302869e-07
1.0175974800437771e-07
-9.89854992003851083e-14
4.76020961552725744e-15
6.20472256313760833e-14
-1.05143777559642831e-13
4.54781947286703283e-15
7.3553877623806909e-14
-1.06398933460312622e-13
4.00823820821951427e-15
8.15388577923897478e-14
-1.06480322950033023e-13
3.32788299573836651e-15
8.78426405312648633e-14
-1.07559530712034821e-13
2.5404931164155981e-15
9.45297730067177237e-14
-1.11315797865154362e-13
1.62967933908365109e-15
1.02020749787438344e-13
-1.17311496476097363e-13
6.42517902533925968e-16
1.09076982671546612e-13
-1.24667562776938412e-13
-5.84304880097387105e-16
1.15653425183808882e-13
-1.3230755781706552e-13
-2.24911456574396875e-15
1.25336561752161335e-13
-1.39674602929094213e-13
-4.50736149657077872e-15
1.43705962881507994e-13
-1.79213812880404486e-13
-9.65699108323070624e-15
2.07365265615275374e-13
-4.61912481868377806e-13
-3.191997335729279e-14
6.4205942430331507e-13
-1.40088535158655164e-12
-1.57073097803752249e-13
3.01402104045301894e-12
-5.53404703102298652e-12
-8.02325274663863338e-13
1.47198580831536275e-11
-2.6850951111942174e-11
-4.11898706487367789e-12
6.86226986706694179e-11
-1.34149463987852928e-10
-1.95070483236357308e-11
2.90366983870917708e-10
-6.3293174155966011e-10
-6.699306831818069e-11
1.10937365912960275e-09
-2.57106353404929707e-09
5.26317459907926945e-11
4.38856757299932506e-09
-1.93786082646056764e-08
3.1168071523529794e-09
1.87022260059017585e-08
-4.06942126628252065e-08
2.65300163150800123e-08
8.30261842816295322e-08
6.71677213486375998e-08
1.61460669459281179e-07
-9.68663013345282294e-12
-5.39185947815364841e-13
-1.79268462715657909e-13
-1.01171704792924846e-11
-6.44704457023664104e-13
-3.42707218936108793e-13
-1.05087828631930085e-11
-5.17318101815651927e-13
-5.43161834492982722e-13
-1.12153898952962575e-11
-3.07060001950143025e-13
-7.92643719810945033e-13
-1.23742207476548915e-11
5.6629164044227229e-13
-1.14994834866160543e-12
-1.31728730734052087e-11
2.92646347820807664e-12
-1.7549700018705556e-12
-1.62653380219243732e-11
8.31474284240574305e-12
-2.99930651477231934e-12
-2.46810169358793803e-11
1.77896462891685838e-11
-6.48042514728220087e-12
-4.27514971126484406e-11
5.38509884097738066e-11
-1.89528585637867231e-11
-8.34897179038699219e-11
1.91151936595620305e-10
-7.37606341988948319e-11
-2.64055490160127263e-10
6.35464107416713399e-10
-3.50468558168514928e-10
-1.25446345875468697e-09
2.54296468537548309e-09
-1.5487795037526359e-09
-3.30304972848132981e-09
2.36047587508430992e-08
6.6853916046216838e-10
-7.8146784133423388e-08
3.50281107088427251e-07
9.353350300467355e-08
6.84956006230692789e-07
3.87670105912732992e-07
-3.16375231602561325e-12
3.60394642205143268e-14
-2.03149673168962608e-14
-3.40540283177267013e-12
-2.55158452539241128e-14
-6.33666978041113856e-14
-3.6697691194591011e-12
4.60540702423771244e-15
-1.21683009825698488e-13
-3.97056965309462597e-12
8.5539415605614997e-14
-1.97056330858555176e-13
-4.40256589226658056e-12
3.11047891810495692e-13
-2.95779124278465132e-13
-4.91178764104259067e-12
1.04780490280070152e-12
-4.42757646028477001e-13
-5.72283645867813987e-12
2.69908056757983869e-12
-7.28265710514083171e-13
-8.31005194994164906e-12
6.0572204721098804e-12
-1.46822156780855969e-12
-1.50823546681234094e-11
1.65858222589688397e-11
-3.91820544635235395e-12
-3.55456115428764863e-11
6.3064394643249717e-11
-1.4886693173142005e-11
-1.18837373851538034e-10
2.40682181564513366e-10
-7.02752074565880278e-11
-4.99344060240191584e-10
8.42006313578269358e-10
-3.54175924793463191e-10
-2.48049449209182761e-09
3.44576146569575579e-09
-1.42745900312514651e-09
-6.50767293043888937e-09
2.45605111186214225e-08
1.89756095910713623e-09
-7.70380458223661393e-08
3.05294969754098215e-07
8.2369782567200359e-08
4.60869298427378697e-07
2.65128385783027972e-07
-1.10155211216851938e-12
1.27688286555551067e-13
-6.13309135303896928e-15
-1.2258494660689101e-12
1.45305521292591798e-13
-2.07223799587206503e-14
-1.36370971469810514e-12
1.68120941588680113e-13
-4.14678547306742476e-14
-1.52255114041913296e-12
1.93612496622884142e-13
-6.90103241486964366e-14
-1.72773118283094251e-12
3.33975009290401904e-13
-1.07027602325354398e-13
-1.99460083133663856e-12
8.53645864792977815e-13
-1.70802222096304271e-13
-2.79778262096246168e-12
1.99922144854658274e-12
-3.33660213280729741e-13
-5.1197625450135366e-12
4.69596396108714157e-12
-8.03048833922195688e-13
-1.22251775702983087e-11
1.66469792204035954e-11
-2.84421842440881837e-12
-3.51318287591798403e-11
6.99330750389091113e-11
-1.22865293996548591e-11
-1.53051080368778114e-10
2.83612458476420904e-10
-6.30375853774934285e-11
-7.26859536213982062e-10
1.03610140451485291e-09
-3.13364811511846344e-10
-3.44298764678683552e-09
4.24855868953274947e-09
-1.11205147669277152e-09
-2.29051688182295286e-08
2.55765948971538001e-08
2.89450755064241226e-09
-6.46880851351786173e-08
2.33404175695940417e-07
6.46289856827335043e-08
3.88346811577941624e-07
1.85659701961222422e-07
-4.23430845794439616e-13
1.6111937656407572e-13
-1.55837667097537178e-15
-4.78833718941517572e-13
1.75269646414248451e-13
-6.78051592085653011e-15
-5.33706996355830305e-13
1.91233788571178344e-13
-1.40840665460689293e-14
-6.01693597739707966e-13
2.0193356064448037e-13
-2.40150180788461701e-14
-6.89552366582337237e-13
2.5869964757404698e-13
-3.94439757013048146e-14
-9.29917476458287407e-13
6.24483828806398177e-13
-7.06406291614729323e-14
-1.55732715415302118e-12
1.32335504948336603e-12
-1.5766447948837335e-13
-3.45425048830525349e-12
3.99175867902639411e-12
-5.04421938577715862e-13
-9.16297832042841837e-12
1.69113049842189999e-11
-2.07530193902161869e-12
-3.5753305820417352e-11
7.48829939693846889e-11
-1.00547171615516364e-11
-1.71072566374300189e-10
3.10560610526958965e-10
-5.28206962409160814e-11
-8.33763471668411894e-10
1.17381081480551279e-09
-2.50360613432841914e-10
-3.85885777564826203e-09
4.87568549366461537e-09
-7.31871483051407916e-10
-2.57004003155549283e-08
2.46865942415899407e-08
3.30648067452608481e-09
-5.56060509771642711e-08
1.69172833881549889e-07
4.84135582976308711e-08
3.15305684679157949e-07
1.43961228138035647e-07
-1.67416023515535165e-13
9.84642543671613694e-14
2.4865761407485842e-15
-1.73424018390588564e-13
1.08437616257454011e-13
1.82180187440669594e-15
-1.79337769718720909e-13
1.19866897782300203e-13
9.77417567985941334e-16
-1.90647905208528216e-13
1.3195651205613857e-13
-2.00337724375276528e-16
-2.12125113298570111e-13
1.41468908181420713e-13
-2.35823331762212539e-15
-2.35265203894530025e-13
1.55369814230723255e-13
-5.25416310440562052e-15
-2.58646235797515344e-13
1.70246893125807592e-13
-9.12233463086829843e-15
-3.03713920061792196e-13
1.89297153107781662e-13
-1.55089233316286142e-14
-4.64701377263771612e-13
4.25909377068012613e-13
-3.14115597600669258e-14
-9.01201935486008518e-13
9.63148569575790372e-13
-8.27674231885909197e-14
-2.28001491289779643e-12
3.60552380767053018e-12
-3.288552300386519e-13
-7.40489605480122994e-12
1.64582589802972723e-11
-1.53167169891997904e-12
-3.38479136945597226e-11
7.52141825636876197e-11
-7.84390425693451736e-12
-1.70255511940171173e-10
3.18831164987079587e-10
-3.99917608688498008e-11
-8.17011295138733113e-10
1.21766246989004593e-09
-1.71294255988157111e-10
-3.45248712031684071e-09
4.92403631444540157e-09
-3.60452702324822455e-10
-2.31331427560501622e-08
2.18160787419103285e-08
3.17016061562012416e-09
-4.60092677243422243e-08
1.16726925864664086e-07
3.46563890241677006e-08
2.32095889745013318e-07
9.43069452347722785e-08
-8.63284085575854979e-14
6.36900079363310139e-14
1.76755663594690198e-15
-8.91641799817204903e-14
7.05370676921816716e-14
1.35279650809194983e-15
-9.30755586049979363e-14
7.8116191918453369e-14
8.27476353432681543e-16
-9.85520308452263747e-14
8.68723240150647422e-14
1.64572408063481018e-16
-1.07159014510456716e-13
9.58538193790386942e-14
-7.99823510346772414e-16
-1.18180380556844836e-13
1.05793198005410754e-13
-2.05061650114614944e-15
-1.27698060860969983e-13
1.18967660583459008e-13
-3.76759946145324984e-15
-1.53766565079804417e-13
1.39131533820326438e-13
-6.6038488123372667e-15
-2.65078040880829987e-13
2.65869074609148202e-13
-1.46313545535719817e-14
-5.5673382179292401e-13
7.2651170912015171e-13
-4.83012066723481601e-14
-1.47647657376688497e-12
3.1621630273147923e-12
-2.15781147460624205e-13
-5.7606531386072708e-12
1.49684894878563794e-11
-1.08433928000384028e-12
-2.70903722549087518e-11
6.85412944080320796e-11
-5.51535599568478307e-12
-1.31629640376162957e-10
2.89169486947518301e-10
-2.62905506376233328e-11
-6.31283954348300745e-10
1.11005271676443095e-09
-9.73984866317048827e-11
-2.56601731954163591e-09
4.38727332032630847e-09
-5.92531260509964187e-11
-1.92679000750599491e-08
1.75016260899312483e-08
2.70078806281753079e-09
-3.86436206930765595e-08
7.70278920861887509e-08
2.3387527030352905e-08
1.47665300188373161e-07
6.24616955350521831e-08
-4.1334002215226547e-14
1.33135902045515221e-15
2.87795078933241053e-14
-4.33707905737494594e-14
1.25704003005776395e-15
3.39821051439632565e-14
-4.46933788303907472e-14
1.11352258408801874e-15
3.88360023860826275e-14
-4.59311324176827883e-14
8.93452727010304787e-16
4.34669229087658588e-14
-4.77960323360057638e-14
6.00637061897406874e-16
4.81616393053227647e-14
-5.07844093289085941e-14
2.43779421287469113e-16
5.36099748341115474e-14
-5.44362491138885616e-14
-1.98983932193904922e-16
6.01861286166397554e-14
-5.90616471025083376e-14
-7.62454414314560128e-16
6.73529588464339137e-14
-6.53669228708454288e-14
-1.53187949432763023e-15
7.74578165349781721e-14
-7.637299576580951e-14
-2.89565862418133164e-15
9.88331271673209247e-14
-1.18747094965861708e-13
-7.12283683908979273e-15
1.67967481274129678e-13
-2.99123264524301302e-13
-2.69952175214259274e-14
5.40887949168639216e-13
-9.55854733452869936e-13
-1.36878678831036708e-13
2.55359433488554493e-12
-4.05897431920947974e-12
-7.03576777974887494e-13
1.24892815941788222e-11
-1.92229700376804498e-11
-3.39982063061017954e-12
5.69639223314616034e-11
-9.28414587750313091e-11
-1.44956160438038527e-11