/*--------------------------------*- C++ -*----------------------------------*\
| =========                 |                                                 |
| \\      /  F ield         | OpenFOAM: The Open Source CFD Toolbox           |
|  \\    /   O peration     | Version:  2206                                  |
|   \\  /    A nd           | Website:  www.openfoam.com                      |
|    \\/     M anipulation  |                                                 |
\*---------------------------------------------------------------------------*/
FoamFile
{
    version     2.0;
    format      ascii;
    arch        "LSB;label=32;scalar=64";
    class       volScalarField;
    location    "0.300000000000000044";
    object      rAU;
}
// * * * * * * * * * * * * * * * * * * * * * * * * * * * * * * * * * * * * * //

dimensions      [-1 3 1 0 0 0 0];

internalField   nonuniform List<scalar> 
7340
(
0.0185065707655001528
0.0185771276820795236
0.0186752639133533939
0.0187127210408617566
0.018667591255911848
0.018625166608398018
0.0186539882505614291
0.0187617088238346934
0.0189040570355218998
0.0191001178655585135
0.0194870853922336079
0.0201713305251166146
0.0210292178297667443
0.0154558315380219531
0.00449327082850084058
0.0015197368803147736
0.0185653311898597087
0.0186219734523047457
0.0186782645603636478
0.0186453811804687918
0.0185834815824871061
0.0185358085766315038
0.0185412638846734999
0.018601159901009464
0.0186933482155120893
0.0188547930803455027
0.0192081589139295079
0.0198357812006757367
0.0204571597877061355
0.014691694112413162
0.00447854814711389545
0.00177026387891759149
0.0186290128306772391
0.0186650732962135232
0.0186895871635055118
0.0186245195018373139
0.018545329312535646
0.0184824695083508801
0.0184571059612092074
0.0184692143044350131
0.0185119333938856857
0.0186254839046657086
0.0189167393337996599
0.0194240898231046628
0.0196345553621907719
0.0137524045890048269
0.00450236604784687647
0.00209453659775121022
0.0186841502959541918
0.0186979989115435355
0.0187003781284439709
0.0186183090471306149
0.0185210864455530692
0.0184377073150461812
0.0183799949340330421
0.0183476591928298516
0.0183404432838997801
0.0183944894329122546
0.0185966836727818607
0.0189213707000569602
0.0186661309034593347
0.0126123284102274292
0.00459456697122125838
0.00252791199806562871
0.0187638713728196099
0.0187492442433690315
0.0187390458806779708
0.018730502055918849
0.0187224266389931226
0.0187086764713474026
0.0186163405398946102
0.0185004385650340449
0.0183946184508778192
0.0183051842697421266
0.0182311342003103095
0.0181732995488567695
0.0181610924528549898
0.0182538098806976634
0.0183534269026784554
0.0176733723863491607
0.0117023305775371192
0.00483401429907755458
0.00301396204145578739
0.0188560532046808914
0.0188255780404508362
0.0187980876785742296
0.018770539819186513
0.0187413116584115129
0.0187088937603209528
0.0186158347971320422
0.0184811309863543403
0.018352654942961788
0.0182329131713046232
0.0181195885551247264
0.0180121316411927003
0.0179304915297040339
0.0179030144545542017
0.0177755561663892545
0.0167667479853601357
0.0111667050864532481
0.00524542216165580638
0.00356431505166574913
0.0190754873956360815
0.0190129301089308929
0.0189616559056726836
0.0189157458748564003
0.0188713578285432705
0.0188252559105322979
0.0187756067977293863
0.0187205333897618349
0.0186314830215969021
0.0184794435716066699
0.0183284716594598121
0.0181797207852513742
0.0180291018774959705
0.0178733692665172424
0.0177214341510635934
0.0175748980090505991
0.0172544243048617998
0.0160451943909156146
0.0108898287144738575
0.00573735132126732515
0.00410201061699042718
0.0185671282031749062
0.0185928788454206746
0.0185331296964870301
0.0184555440756999853
0.0184051435205394368
0.018407236463840522
0.0184328468462256027
0.0184622503772305241
0.0185626400004465682
0.018874281153772033
0.0194487493709093427
0.0199390136067156415
0.0154732255391539716
0.00457971934298585012
0.00180883744398952525
0.018570671861739961
0.0186092345514277495
0.0185805567566737252
0.0184964444603234919
0.0184085924039643356
0.0183414529365542069
0.0183084420208274555
0.0182925953499890638
0.0182876609132562908
0.0183490317584422344
0.0185876813767017549
0.0190239177269941225
0.0191078364450902524
0.014341577248913686
0.00463928904564082749
0.00215811138051509631
0.0186254599601217152
0.0186369376257129009
0.0185811482154132346
0.0184794766179962391
0.0183781098132900049
0.0182910645863049934
0.0182251750552280718
0.0181706526676036241
0.0181271857044868825
0.0181368387483510016
0.0182840625702439218
0.0185435620986894728
0.0182535702254786603
0.013318914908945054
0.00475205608779786896
0.00261124701174417261
0.0186693361125921872
0.0186620838814050317
0.0185896283429870766
0.0184714664978967574
0.0183545039052236403
0.0182463215076073305
0.018150025652776472
0.0180593394272029195
0.0179744897424745399
0.0179261931573751233
0.0179699501201686061
0.0180260421572406536
0.0173974226481242791
0.0121305677810885654
0.00500114442184084081
0.00316740272248146023
0.0188035321502923805
0.0187670088791878978
0.0187353715034457718
0.0187070429517111822
0.0186810851851218901
0.0186030976144018721
0.0184690004241948001
0.0183355432474619946
0.0182062778659382966
0.0180818460544781533
0.0179569444805507232
0.0178302554725756762
0.0177211978072770518
0.0176559365955407735
0.0175085857428631357
0.0166110286415922272
0.0115397084321181391
0.0054635148347799466
0.00360391087257795487
0.018886523016755228
0.0188352693709293931
0.0187878209540218305
0.0187417928842933054
0.0186955604682979525
0.0186143728011347737
0.0184711053230096484
0.018321059275265273
0.0181713944153324147
0.0180207757917046525
0.0178636286532252095
0.01769621804481495
0.0175265278553547732
0.0173547233417288595
0.0170295650664954792
0.0159626408355336286
0.0111868587979598293
0.00591648162973823673
0.00418997963421627231
0.0191415258355548609
0.0190585782285032403
0.0189865673072124388
0.0189205833825903738
0.018857302469153122
0.0187938234412718189
0.0187280500052185821
0.0186402750920344855
0.0184936816068432958
0.0183270239276955259
0.0181575107604917615
0.0179821909524557136
0.0177945694479745876
0.0175878728429627006
0.0173600941915289242
0.017092469975611025
0.0166330514675088574
0.0154488052611128773
0.0110619309403530153
0.00651028167952963539
0.00493463511097646992
0.0185718045788407851
0.0184946547771057748
0.018396699563163945
0.0183017197838846353
0.0182207598471762766
0.0181502569796229071
0.0180749595455285787
0.0180075506273708434
0.018009818762468429
0.0181611977017296505
0.0184447229480409966
0.0182697117953043338
0.0146721548483327822
0.00478121934105008983
0.00229336841563047063
0.018609109632383429
0.0185650021202065224
0.0184602656824867511
0.0183505125432004527
0.0182413294641022537
0.0181403141680954935
0.0180455410921829297
0.0179469214800563222
0.0178518699493017234
0.0178039056580210284
0.0178671846553183772
0.0179955641384296171
0.0175017182085392548
0.013603308088621183
0.00492796749741381251
0.0027999642717213731
0.0186299141769083361
0.0185643484903032195
0.0184454680125406764
0.0183231110427704257
0.0181998856551334048
0.0180801039528745919
0.0179617572693677001
0.0178377933152040272
0.0177115008249224756
0.0176121462567140341
0.0175820405619070627
0.0175411050081624963
0.0168058652065405101
0.012474310530159901
0.00520816274952779802
0.00339209666450862287
0.0186563507329160667
0.0185774834386834946
0.0184450732512856201
0.0183097390933805691
0.0181722231510368822
0.0180343025029542151
0.0178936037107952015
0.0177437660014229601
0.0175848055756945079
0.0174335738073288331
0.0173105078320711786
0.0171104481664521579
0.0161986849433793205
0.0118263832338617141
0.00567147632441038392
0.00383595739730475038
0.0188475317981045311
0.0187925141649345727
0.0187416343271026853
0.0186887619616678095
0.0185962949971313976
0.0184560731163744447
0.0183076103232923115
0.0181557271801029256
0.0180002742558766568
0.01783805249832663
0.0176629692899430216
0.0174714527723584742
0.0172698388837445212
0.0170593666402204629
0.0167182232113434991
0.0156837976225066324
0.01146636994451284
0.00621185169566839182
0.00441269324282379631
0.0189177162198668758
0.0188481042532307359
0.018782012602377246
0.0187172890135161966
0.018618609039227501
0.01847600341723259
0.0183145339112782343
0.0181484699391296564
0.0179762389360561721
0.0177939157115329823
0.0175947557692309534
0.0173719322934832443
0.0171235051535196942
0.016834267138402137
0.0163756815589534213
0.0152916031705476671
0.0113035690650328674
0.00680602457878405967
0.00514761512001557769
0.0191985616540339028
0.0190993118059795651
0.0190096194615766018
0.0189255323817141101
0.018844276878735973
0.0187630870685511902
0.0186633923599144012
0.0185194065591926249
0.0183448644004387575
0.0181646247605490689
0.0179760548340120868
0.017774460108556718
0.0175522631627962923
0.0173003212647474085
0.0170095010837533755
0.0166515891865774424
0.016103184535619406
0.014878289331310756
0.0113283546592624681
0.00745176682108911973
0.00608220717519108826
0.0185464084054352413
0.0184389451823681778
0.0183265563051427209
0.0182077714158648159
0.0180833848300220867
0.0179543721127244787
0.0178140570059972525
0.0176590762022209927
0.0175027672081807112
0.0173714845015092954
0.0173079930057703259
0.017235586130505777
0.016518117811165911
0.0138324951764159741
0.00526731485075564946
0.0030923075280128989
0.0185180925500579678
0.0183986069029841992
0.0182749514338777161
0.0181457519658671032
0.0180104593352930185
0.0178688572332679138
0.0177172892892949775
0.0175512956239471003
0.01737148053062023
0.0172018267530486962
0.0170634514527399084
0.0168626983817603861
0.0160134321586533068
0.0126637624899891745
0.00559896794870509262
0.00381518448920655255
0.0185200964446852884
0.0183896787208493867
0.0182563913332883937
0.0181159045068744508
0.0179696873706899109
0.0178166201205691606
0.0176498118090493809
0.0174668786158743462
0.0172650713871133933
0.0170557735319440823
0.0168449150380080674
0.0165330324314808957
0.0156085189943544096
0.0120635249510939891
0.00609923525589257335
0.00430351758071051242
0.0185448917142338777
0.0184035277625395344
0.0182590737293947328
0.018108414689459177
0.017950806217900829
0.0177842081588987094
0.0176034082341154641
0.0174028715285987172
0.0171776278227259022
0.0169300988755562362
0.0166548212675511967
0.0162535364547978407
0.0152715127465421225
0.0117253452783488525
0.00663984833083094712
0.0048752358353226664
0.0188734110456767086
0.0188007300092987821
0.0186967552553147405
0.0185860773232184896
0.0184339863923714334
0.018278755298555785
0.0181173727320287567
0.017948153297147721
0.0177683162855712742
0.0175727638699948174
0.0173545441817437203
0.017106345679812951
0.0168238945566789207
0.0164929644772085909
0.0160171469090826211
0.0150005164539343035
0.0115665236022280491
0.00723827412542944054
0.00563798450033087001
0.0189313472154269448
0.0188443418755256109
0.0187483729915142172
0.0186295223292219855
0.0184760309974704474
0.0183100514361903208
0.0181378564920535584
0.0179571255286224037
0.0177644302909494463
0.0175543321049038172
0.0173191686480780108
0.0170498269568958756
0.0167368963455076757
0.0163579108944920427
0.0158198954560956062
0.0147767795440336726
0.0115604118869982054
0.00788743410821200926
0.00656358454831188973
0.0192361262786893174
0.0191221985949804434
0.0190163514195620074
0.0189153327559543304
0.0188167051487887378
0.0186932950509198365
0.0185430691249046375
0.01836596840998014
0.0181826751593337048
0.0179902471037172648
0.0177847662422528294
0.017560461987156769
0.0173092016583589643
0.0170207388780461606
0.0166819939969662309
0.016265289318730284
0.0156853283110429745
0.0144452749707473238
0.0116722774432389403
0.00860749047746062722
0.00768575319741695261
0.0182379415189555805
0.0181095078373501167
0.0179738328778006849
0.0178289938680106404
0.0176745205081896041
0.0175080422617274398
0.017323059858646718
0.0171146186572798363
0.0168845789304085461
0.0166339727050133536
0.0163613545913572495
0.0159890158770017998
0.0151837658518715769
0.0128495892520415558
0.00630136055948089888
0.00445670767638687779
0.0182318480705839989
0.0180974257087416351
0.0179569569951603669
0.0178076896031112188
0.0176487212643465681
0.0174772356914943139
0.0172861514934287801
0.0170714009104621887
0.0168271618234444101
0.0165510027729528601
0.0162336023289044416
0.0157988239337476001
0.0149602682241792295
0.0123093438109952089
0.00680076368873107004
0.00499487514541446971
0.0182607671548715572
0.0181194334787306843
0.0179730433100925083
0.017817273766195775
0.017651734155643823
0.0174734753648045603
0.0172734208334137142
0.0170482260227208283
0.0167876927566503187
0.0164876101684389813
0.0161313567222979362
0.0156501388289692102
0.0147775942033575441
0.0119852456614207535
0.0073038177542851879
0.00568103424572002306
0.0183149478814285324
0.0181644691034687569
0.0180089007328723301
0.017846273265023558
0.0176729782049597529
0.0174850321748259464
0.0172769301618427296
0.017038505769568113
0.0167628923079116803
0.0164401031283102593
0.016050583668080147
0.0155295271645154182
0.0146324876898349335
0.0118435015808647879
0.0078849359446519704
0.0065106502468611771
0.0188076015477068002
0.0186890878378323279
0.0185375460652737363
0.0183823386339324567
0.0182242636237746648
0.0180615552716904063
0.0178902809755296897
0.0177074034048363034
0.0175090322013669621
0.0172894636965652652
0.0170392188409347785
0.0167491400934069966
0.0164066907298761125
0.0159889581160570018
0.0154335588491087434
0.0145377771889633467
0.0118482986615517528
0.00853149445001197271
0.00747071781899926683
0.0188929673592051102
0.0187632639724717373
0.0186228397081094621
0.018458688460772258
0.0182918702564407974
0.0181199767135223136
0.0179397795026137903
0.0177477894851153818
0.0175397419954669877
0.017309411436060608
0.0170479043579482049
0.0167451419647280941
0.0163867244503500785
0.0159471091015542348
0.0153685291622605476
0.0143876937403965913
0.011969966547687387
0.00923120602050466962
0.0085211961670136737
0.0192404462868986069
0.0191121668797325922
0.0189906393175740713
0.0188627959650090431
0.0187225399882882705
0.0185571040911099439
0.0183808186376165882
0.0181993672839259081
0.0180096990026214661
0.0178081118261191607
0.0175900324095057334
0.0173491260846816257
0.017076888557099941
0.0167630287059402777
0.0163928481529807199
0.0159413743153665396
0.0153618252798764544
0.0142264369054748326
0.0121789542257545996
0.00998294422748088189
0.00964322428183166623
0.0176943253620462683
0.0175571286595745495
0.0174149596168179308
0.0172647440857133828
0.0171008844557159791
0.0169164683377038688
0.0167053607247590087
0.0164611530236601598
0.0161787224429680125
0.0158501004086028588
0.0154539705502820257
0.0149453353279386351
0.0142033335926054199
0.0125836007149172785
0.00777304299004050441
0.00610114947548927311
0.0177938542731487619
0.0176534476334184662
0.0175082223513007354
0.0173545291359068904
0.0171873965490148932
0.0170008841461207899
0.0167882976815671853
0.016542402358626463
0.0162560537384711344
0.0159115674024024774
0.0154905021571862325
0.0149460185020113163
0.0141786544443065349
0.0122567990875941044
0.00824839796561661377
0.00692572295103373314
0.0179077859531271942
0.0177620919364363979
0.0176115512339668073
0.0174521384124195142
0.0172792944023241017
0.0170874236259389266
0.0168694999437208996
0.0166182674565395413
0.0163192942128383284
0.0159633583270928532
0.0155227121955289413
0.0149580234992255819
0.0141605322512414998
0.0121186799842967936
0.00880247026565528223
0.00784267613541661524
0.018027649868200487
0.0178750416792652425
0.017717649574973994
0.0175511840971887025
0.0173710716497411828
0.0171717180454960226
0.0169470187222543547
0.0166850040762264416
0.0163783202554752885
0.016009736905258462
0.0155546151217718694
0.0149750074944445689
0.0141732443116455113
0.0121332683305856396
0.00942989545198405325
0.00882176445419063406
0.0186174104435985963
0.0184607410189115799
0.0183046149419416014
0.0181465842238066853
0.0179871221629444508
0.0178224982787265167
0.0176482235725148977
0.0174600203884077085
0.0172524024375004768
0.0170176798420537678
0.0167482516585446065
0.0164325390523143225
0.0160542510688158752
0.0155894557393442233
0.0150042579700924803
0.0142277892061266654
0.0122718626456994606
0.0100867644313192995
0.00978415607289115016
0.0187578162983567318
0.0185934860948346915
0.0184296040296246105
0.0182644685906029093
0.0180970510288789646
0.0179232665454530336
0.0177402780235511315
0.017543389337009007
0.0173273631242452757
0.0170847140299248169
0.0168071853496359093
0.0164839105854947196
0.0160997789096173211
0.0156330449704781133
0.0150585464683504738
0.0141731658777550108
0.0124829107902658318
0.0107366439255592132
0.0106815611219065777
0.0192017046991545606
0.0190528240402476103
0.0189007283838950879
0.018740909189476837
0.0185683583737088903
0.0183946967019027602
0.0182182828464839928
0.0180355041126539564
0.0178435746404194857
0.0176378731074520248
0.0174130176716765783
0.0171620692032226803
0.0168770454267260506
0.0165479699160313992
0.0161616452773848049
0.0157011248796184166
0.0151521106360903695
0.0141802524459005725
0.0127562006761460789
0.0113728591551875927
0.0115114253217819991
0.0170134495267868051
0.0168797732326795673
0.0167431565321510406
0.0166009947849273115
0.0164483565514928765
0.0162799518659350224
0.0160877016660964031
0.0158588417042962934
0.0155807400247724107
0.015234886035308419
0.014795118042297814
0.0142328228008303213
0.0134931986290579981
0.0122980650911575732
0.00942195129927339906
0.00846216261769823161
0.0172949332310263527
0.0171578291536913508
0.0170172957983701564
0.01686979097905544
0.0167107143072138219
0.0165342713982931759
0.0163315257315920712
0.0160908005568026653
0.0158001038993564255
0.0154376838617160186
0.014976525463289413
0.0143865848609011047
0.0136277949110271013
0.0122838624219139183
0.00992809026051037595
0.00932622970203797128
0.0175380351383184266
0.0173955246478144435
0.0172488918754428455
0.0170942691326810975
0.0169269331049297159
0.0167407068853461828
0.0165266593311210047
0.0162740523209100492
0.0159690792615476418
0.0155931471350824868
0.0151181875774625794
0.0145198877296496016
0.013771465848060653
0.0123826464285365107
0.0104685845694553088
0.0101723713367408534
0.0177492773566108632
0.017600046110407129
0.0174460442091573589
0.0172831806399508826
0.0171065475889528099
0.0169100488180079743
0.0166848009630552394
0.0164204730653462125
0.0161040304355629313
0.0157173121033605534
0.0152363087350161977
0.0146428037515354981
0.0139296836729718605
0.0125494677047945039
0.0110125583636908001
0.010965047933078502
0.0184029599499765453
0.0182449708566692452
0.0180899305067737624
0.0179344245777138984
0.0177777675010972816
0.0176156494934993149
0.0174439454988979357
0.0172575465603924047
0.0170511485392365325
0.0168153017115115454
0.0165401228430033832
0.0162147933256013461
0.0158219308705341601
0.0153423203706601705
0.0147651379719892818
0.0140725289713042583
0.0127636083687105457
0.0115395053570181566
0.0116738969041142414
0.0185873666874309465
0.0184228376484473454
0.0182606827972651223
0.018098702971663095
0.0179339519536737303
0.0177633048770214803
0.0175826423613309087
0.0173868012406598396
0.017169534509702232
0.0169243849077338714
0.0166412643757268934
0.0163094681683370844
0.0159149700232619207
0.0154434743502906303
0.0148925684818153117
0.0141359364326744674
0.013014476245769133
0.0120361005421933936
0.0122984576509096218
0.0191187290087763175
0.018949147435962415
0.0187750880230016653
0.0186030571807075593
0.0184326624103904081
0.0182618526723935283
0.0180878893969866582
0.0179077225260143164
0.0177176518733539075
0.0175127765925041645
0.0172868767518321378
0.0170330520150790456
0.0167427657958671705
0.0164066779015278573
0.0160139165617972958
0.0155560115628636669
0.0150372289528512611
0.0142498871527619638
0.0132968514558966262
0.0125167591956581378
0.0128640328694229165
0.0164511613388944912
0.0163441048729525452
0.0162415283922043609
0.016139556553712648
0.0160320159062590402
0.0159102673559733329
0.0157602957907554096
0.0155676132260859114
0.0153219856511677341
0.0150065698121323778
0.0145837461606247772
0.0140098089648591807
0.0132274697604744199
0.0122414337171216896
0.0108949272920914504
0.0106475809813629599
0.0169318004143698929
0.0168130980841504976
0.0166954138721065737
0.0165746484392316033
0.0164448169006774364
0.016297366547304213
0.0161203083650173218
0.0159008730077925889
0.0156271650063309585
0.0152784684175327149
0.0148215334211878533
0.0142219471227694409
0.0134468150943089556
0.0124425414352648742
0.0113220412967442036
0.0112285819382887606
0.0172968379444003069
0.0171677734113379436
0.0170372230946277785
0.0169009048023599853
0.0167528556556459582
0.0165849799129992037
0.0163866596081938092
0.0161459922378473231
0.0158498303858256341
0.01547772942153911
0.0150017843051295681
0.0143974030647858898
0.0136497005172151777
0.0126722395797104048
0.0117497637458852059
0.0117941265828097504
0.0175828868255291614
0.0174439936884384431
0.0173017459252882387
0.0171518106891440647
0.0169882818677776423
0.0168035573040528803
0.0165880066545577229
0.0163301356830803102
0.0160167933026532754
0.0156295115967865599
0.0151457912411124031
0.0145505228708084199
0.0138454476734153637
0.0129185735602383566
0.0121630176353193179
0.0123226243138971816
0.0182665967802899745
0.0181118628597256928
0.0179620452213605682
0.0178144810769593799
0.0176659877308332214
0.0175127354662387158
0.0173504832787801065
0.0171734462861226969
0.0169743332454290394
0.0167445743958584622
0.0164725649250749839
0.0161471551329172257
0.0157514905159645453
0.0152686947273958946
0.0146928689873283783
0.0140207927269767035
0.0131733796510844579
0.0125568901861209704
0.0128083027532400525
0.0184793875568493894
0.0183195519779167024
0.0181632616840790156
0.0180075627737857936
0.0178494657259812908
0.0176857885339752087
0.0175122239279972176
0.0173233121631549795
0.0171116871920302012
0.0168694250868468912
0.0165873041927372886
0.0162535388706748253
0.0158549263788054957
0.0153801164303822967
0.0148305842670153395
0.0141726763719478791
0.0134330033885711828
0.0129333031174770526
0.0132559050134788536
0.0190316060352690442
0.0188567010634283494
0.0186855875951802176
0.0185181092964866179
0.0183529314895330906
0.0181881598194964522
0.0180208723804836067
0.017847040427091336
0.0176625554751950395
0.0174621877421864587
0.017239848622657393
0.0169875936833858189
0.0166968050462589952
0.0163576795227164846
0.0159601991600427998
0.0154981772944917471
0.0149789308556157984
0.0143466386962345406
0.013706364659307262
0.0133065704729680469
0.0136777633692284316
0.00255069291657465799
0.0036305543336150564
0.00575980436866758202
0.0103097511240561705
0.0166670293089347284
0.0211603511394792033
0.023055904498369896
0.0233800771253027256
0.0229608459970637689
0.0230700005881509379
0.0226911872521513708
0.0189013376506417703
0.00972481218570521444
0.00314358359963725145
0.00134111305734507693
0.00265928463756509277
0.0038099562500275826
0.00622089787878502866
0.0117238272918052267
0.0190823323241231073
0.0223112458236317049
0.0222585000718003301
0.0214110627626848717
0.0212470019932172356
0.0215103913536476878
0.0221252846226602205
0.0224822516461370171
0.0193796454842716931
0.01057487895673794
0.00323185979948441022
0.00140699988987725189
0.00388407764179305934
0.00650662484948037224
0.0125612867583855571
0.020400100376897299
0.0217104281994161576
0.0208272187103633495
0.0203947253050835199
0.0203901113201640574
0.0206049455335208208
0.0210450141944449158
0.0218019942034663392
0.0225426633078181018
0.019827570254197964
0.0109479546354734527
0.00322001836313314492
0.00150413770581344091
0.0066946348595268183
0.013170745112688835
0.0206191102949816463
0.0211174301737811453
0.0200352366046655621
0.0198941369217017598
0.0199445918220995388
0.0200447225056304482
0.020264654170317864
0.0206863761090040864
0.0215153536084603664
0.0225010730889796777
0.0200585600821034139
0.0113128002072008151
0.00320282151154472304
0.00160385420425951841
0.00247206525425682682
0.00380508954710819403
0.00685760383392522779
0.013942239343956199
0.0204988631776843663
0.0202479436114806621
0.0194921870192081743
0.0195603732361002945
0.0196444575370489753
0.01966681412156095
0.0197504859875215662
0.0199466528669486227
0.0203428837759672583
0.0211929347800846463
0.0222878618080779127
0.0199521266786729518
0.0110209916103997437
0.00329426515969731114
0.00174045162597323924
0.00372823562103833913
0.00709671204861701561
0.0150011122185594991
0.0208075016816373151
0.0197154487913815228
0.0191128368266907135
0.0192782323097845897
0.0193933271478818996
0.019421456326292337
0.0194251873389644225
0.0194866823484698033
0.0196468647411497215
0.0199979084933098253
0.0208066414042486839
0.0218560389643884488
0.0194433101455995551
0.0105993357736396086
0.00336524611530328007
0.00186887206017080079
0.00215664392364634926
0.00360689607808389401
0.00735655699318123191
0.0162374385887170611
0.0214518431698246421
0.0197566978974262619
0.0190859762419306571
0.0191333905121466065
0.0192247677330678914
0.0192544076985944959
0.0192474114537625127
0.0192342672832066519
0.0192621887624623185
0.0193742033908408835
0.0196572050639763872
0.0203739521898996627
0.0212616308746153178
0.0186368909109779594
0.0102519144107929665
0.00355326078970773923
0.00200998321774586552
0.00440276595747646909
0.0057918409116550669
0.00791041727143511342
0.0114211230399418901
0.0155570498417291116
0.01962541288838663
0.0215236454310938664
0.0229818436718718724
0.0236335974417504202
0.0234941909804334478
0.0227142374806280911
0.0194854984186240872
0.0101637672873388166
0.00283209453550383773
0.00134157685180678389
0.00493455192607659965
0.00656176454491848218
0.00922532829945545835
0.0136877706033355657
0.018535201345334637
0.0216065782804103733
0.0224519708679577212
0.0219243341983095981
0.0214329728310518088
0.0214373314485139313
0.0218097939002307485
0.0217450010188946427
0.0200374105565594429
0.0111462000800845919
0.00306389435722678998
0.00145731381648405768
0.00717266101200458341
0.0103659559099355779
0.0154028655569729903
0.0205190165574329723
0.0218481061727236921
0.0212922902539411756
0.0205413814810422486
0.0202366965991822682
0.0202382117676301702
0.0205910370873358811
0.0211820459932095702
0.021471105535898441
0.0202737790509503017
0.011534770834547823
0.0032251881390052378
0.00158356316475649888
0.0113536022300453777
0.0167361962530226498
0.0211510062005641521
0.0212409441855956303
0.0201442164594981474
0.0197533627206697183
0.0196198718338536117
0.0195888061871138386
0.0197742556478430788
0.0202097535649100567
0.0208749762756681827
0.0213403794926019658
0.0203845319246461765
0.0114460739432866339
0.00332652617543559596
0.00171671278347743203
0.00544090768710670317
0.0079016742593793262
0.0122116576358695904
0.0181135274293778258
0.0209750025554530199
0.020085289532718785
0.0194065146957083552
0.0192653750183050115
0.0192493096576764784
0.0192506123024437127
0.019315089441828668
0.0195221811844970977
0.0199411891981650241
0.0206035455577449067
0.0211408369997847095
0.0201306287554575865
0.0111639428772913173
0.00333558560066450974
0.00186889392935637804
0.00801506993053212845
0.0128582895319754344
0.0195389095267307182
0.021125170393048235
0.0194935184746312974
0.0189527581991079282
0.0189548455638547768
0.0190104630501871721
0.0190536485281868166
0.0190769802699567066
0.0191388184822676548
0.0193114786557855612
0.0196758940191718752
0.0202806996126251339
0.0207631608977047882
0.0194271729290587322
0.0104375701740845699
0.00331729634875480928
0.00205496480582911941
0.00505999943740404259
0.00789702470994417191
0.0131785649385004321
0.0206225949752602764
0.0215752836307514309
0.019382869156235067
0.0188493967093458711
0.0188259084442013273
0.0188853077233963051
0.0189266287927489125
0.0189514922785777792
0.0189627216969131332
0.0189890668453598158
0.0191063222552017575
0.0193912616438575887
0.0198887237626619862
0.0202029134934957125
0.0183905162180087872
0.00991978629377119996
0.00353010946554381056
0.00223873212851470648
0.00705811500705056608
0.00871031682485663358
0.0106197363817113234
0.0131757242331745645
0.015815877514175819
0.0189780340865596947
0.0208517559317928335
0.0223213227582144125
0.0230628554559535112
0.0231244865743110983
0.0228740495455478851
0.0222991730832915354
0.0202919366392533933
0.0110146266983026549
0.00310649633795220164
0.00127990233310846602
0.0103282890263636327
0.0127666494879046816
0.0157859554321298917
0.0188274315196975024
0.0211818211726648234
0.0224309234420951575
0.0222049164580390979
0.0214067258308371158
0.0211391889617108877
0.0211982416441832931
0.021519408275232535
0.021618826723250828
0.0207052648522328721
0.0119375303759190199
0.00344068497623973343
0.0013824504648111322
0.0148875765708917258
0.0180487355379928271
0.0210850576122791449
0.0221370549835283939
0.0217134663756072335
0.0207376537060793772
0.0202630102161375607
0.0200963981474881724
0.0201357578698557194
0.02045994179943195
0.0210000213593102038
0.0214491799132099543
0.0211654329180430457
0.0123556855204796194
0.00363385701259028417
0.00151916047760000433
0.0200412515161873042
0.0221125750690711817
0.0217336710022009577
0.0204830155158015476
0.019877721191123212
0.0196169362905451207
0.0195476350499383389
0.0195397711577670122
0.0197133239584271307
0.0201064451621190687
0.0207364288215858457
0.0213537350847841471
0.0213969739859056624
0.012505083083426221
0.00371559605255087581
0.00166358368916219969
0.0136692160065087272
0.0181630685011316267
0.0217140167929051643
0.0219663073948184601
0.0206718591649324573
0.0197304781539380837
0.0193648815279402822
0.0192314214173203331
0.0192074040768370272
0.0192286450401045923
0.0192843630271578408
0.0194699932783131725
0.0198498757519011172
0.020490896291732591
0.0211654710704464628
0.0212330006229850543
0.0122442433286383476
0.00372765198136359305
0.00187190957862825962
0.018720129735228852
0.0228679913527654079
0.0220455744037938821
0.0201514284807626405
0.0193326780383957474
0.0190674960620212768
0.0190080388442746065
0.0190081415453225155
0.0190335011834637489
0.0190656399080869725
0.019112692107190913
0.0192639105233793524