/*--------------------------------*- C++ -*----------------------------------*\
| =========                 |                                                 |
| \\      /  F ield         | OpenFOAM: The Open Source CFD Toolbox           |
|  \\    /   O peration     | Version:  2206                                  |
|   \\  /    A nd           | Website:  www.openfoam.com                      |
|    \\/     M anipulation  |                                                 |
\*---------------------------------------------------------------------------*/
FoamFile
{
    version     2.0;
    format      ascii;
    arch        "LSB;label=32;scalar=64";
    class       surfaceVectorField;
    location    "0.300000000000000044";
    object      Uf;
}
// * * * * * * * * * * * * * * * * * * * * * * * * * * * * * * * * * * * * * //

dimensions      [0 1 -1 0 0 0 0];

internalField   nonuniform List<vector> 
20856
(
(-0.193868951874736156 0.152216637857800902 0.00974587564364496131)
(-0.196262111593225569 0.150479432426739695 0.0113865910289064377)
(-0.188269403266681679 0.148758394459505672 0.0161959471700832899)
(-0.189310613087596058 0.15401272180989134 0.0044004608733645232)
(-0.19133575172159567 0.153176166337686326 0.00601696886105373367)
(-0.194688929347138939 0.153178683982822278 0.00544300457733650628)
(-0.183984888616840953 0.151519732686096142 0.00971658315218693579)
(-0.185734361510049795 0.154343182299931769 -0.000715170284838084324)
(-0.187527528942060429 0.154365184791436322 0.00104733252635470959)
(-0.190707478460702601 0.154291524848449102 0.000364115259356339877)
(-0.180312819590069201 0.152724936525324206 0.00430325670679009963)
(-0.183882021273879509 0.153933367255391973 -0.00593866257224363522)
(-0.185306362380850936 0.154478892895991843 -0.00392393848532374741)
(-0.188404481672019147 0.154510816218513258 -0.00494088322507132277)
(-0.17795985925287322 0.152546597364205699 -0.000782652807419763319)
(-0.183173597237898583 0.153122813939978925 -0.0112744273142730885)
(-0.184524256268721654 0.154260573516087407 -0.00899660982436194072)
(-0.18737206207433349 0.15451548859337752 -0.0103813224196066846)
(-0.17716156455085233 0.151902254925885133 -0.00607813823333971503)
(-0.182475031442966729 0.150560159599895105 -0.0169251673650878953)
(-0.184084891647370685 0.153282908508902832 -0.014119307450879387)
(-0.186571760341960963 0.153548863038238836 -0.0159506035159924647)
(-0.176728148672644331 0.150711028855559176 -0.0116144136896038051)
(-0.182321371045656683 0.144565508946001592 -0.023497356961183373)
(-0.183709804246385777 0.149532559347798716 -0.0197797727872371237)
(-0.186051816100327949 0.149656761960779011 -0.0223033826886020782)
(-0.175984032286175457 0.146598021640612475 -0.0175451551890312765)
(-0.183904946326907681 0.135415147047980772 -0.0313090874013802686)
(-0.185169741807731963 0.142289474297228824 -0.0265831000222983387)
(-0.187635582037447513 0.142590378687079938 -0.030079606817143216)
(-0.176545092029315176 0.138370180999773829 -0.0242345622133929919)
(-0.186437353038789166 0.12378956952798284 -0.0403604529341109325)
(-0.188517323790190233 0.13252401728575719 -0.0345849459615348923)
(-0.190975755070847686 0.133459374670348296 -0.0391620502085082492)
(-0.178684030583578513 0.127502628739377816 -0.031827086465474233)
(-0.18695961424029589 0.108158123767887193 -0.0512040961812744305)
(-0.191203949332539536 0.119676179634069027 -0.0440755925312944288)
(-0.193328147184453875 0.121263190381398794 -0.0497352400321259616)
(-0.17963598048806112 0.114375960393325024 -0.0406768815477248913)
(-0.180913705325662116 0.0872354763643004849 -0.0639224338276269816)
(-0.191257914941863671 0.100596052300803568 -0.0562623235952528639)
(-0.19319506003458331 0.102143057491653574 -0.0634755504513109942)
(-0.176658250272580308 0.0970256132381522862 -0.0512832419487535759)
(-0.162378065539130284 0.0681159513897152541 -0.0687873620153575532)
(-0.18817210058099143 0.0757568521902276942 -0.0699258100442968628)
(-0.18993889653003479 0.0762930518407383129 -0.0800634503867533598)
(-0.168356559882474249 0.0767321007222685481 -0.061394182196247607)
(-0.129592756766446188 0.157543827717799539 -0.00298877408312876736)
(-0.155069125102041461 0.0601050724459801927 -0.0666065510972734393)
(-0.156540637164322705 0.0603148106967133155 -0.080127723931820688)
(-0.131271334640485793 0.0667424073757961478 -0.0543628144914070563)
(-0.107733439123696734 0.620739546134140285 0.270880038972402981)
(-0.0601504852850907948 0.256653318167786026 0.0625409455119999153)
(-0.0706063333788453096 0.242891837737907179 0.0489119356744957962)
(0.0105593186097422392 0.275823517309066513 0.0754775293044533391)
(-0.13840692012251124 1.62583896518993498 0.782751863952727001)
(-0.496407677496706057 0.991757018416565161 0.475782787035196886)
(-0.505959192767389654 0.961867069290357257 0.481134135962284493)
(-0.470039499077423817 1.01970922609348502 0.48049228914790959)
(0.388161802531670486 2.2156758902541589 1.04226753113481618)
(0.397352245518391267 2.14052072391330439 1.08826379549590646)
(0.45779930078408082 2.37475525361745898 1.06085104559557442)
(-0.193781574959325437 0.151612217427364748 0.00765768424631523004)
(-0.195219094358416473 0.149670725668306664 0.00984762642912477906)
(-0.198694613470479786 0.149887252358360507 0.00870569858300126488)
(-0.191966464627106176 0.149200531647919327 0.0123204634895960289)
(-0.18976629979404247 0.153749505552620708 0.00266384051404389317)
(-0.190750181380763051 0.152626061709687538 0.00485055849649311879)
(-0.193940693287206672 0.152848894325076951 0.00380066816985436245)
(-0.187636316473547005 0.151835180500194122 0.00671704760558963516)
(-0.187047156156267408 0.154757990462092043 -0.00216143567413101942)
(-0.187644086187144482 0.154395649474273394 0.000120745836140096556)
(-0.19062707832690165 0.154605617992351757 -0.00103403511175532157)
(-0.184458008129673418 0.153275351723137443 0.00174872694989493911)
(-0.185799918484088583 0.155073985284497229 -0.00698188573744201041)
(-0.18605367091290409 0.155321369488324867 -0.00453622706278332833)
(-0.188882088921860203 0.155586153236572572 -0.00593612685860017697)
(-0.182680462197651938 0.153727523694400403 -0.00300036330705559821)
(-0.1855476454139392 0.154671697242797168 -0.0118414899609681299)
(-0.185700652027891711 0.155696691344551025 -0.00918327915941279799)
(-0.18831117237646483 0.156103709558228776 -0.0109031074404062379)
(-0.182143274712134123 0.153619128036113745 -0.00777636868376459407)
(-0.185694259651382837 0.15252838837666699 -0.0169739128730285425)
(-0.185907586974615707 0.155033520516957402 -0.0138708976656160485)
(-0.188241074874355901 0.155477200290179557 -0.0160002829808509536)
(-0.182010868248026147 0.152533387736271259 -0.01264625816018548)
(-0.186876747785506475 0.147581428348552396 -0.0228655158483520582)
(-0.186807233323670496 0.152053401666638222 -0.0190032977867670774)
(-0.188989328503297943 0.152480611073543271 -0.0217312434515560329)
(-0.182151947719671747 0.148904695590508868 -0.017873592456931181)
(-0.189987166543078068 0.139760379751849101 -0.0298589585824528582)
(-0.189649529554102358 0.1462248215177748 -0.0250436778299756441)
(-0.191831100601885129 0.146846611115754255 -0.0285915299200679637)
(-0.183930624645456869 0.14196980712520918 -0.0238307135220819921)
(-0.194445629738520587 0.12879677183989921 -0.0383000855587182568)
(-0.194554212727360287 0.137710257675428049 -0.0322308541819074229)
(-0.196650259010821615 0.138835323029339902 -0.0367116631650984127)
(-0.187488977259431033 0.132231820266875882 -0.0307947211583120342)
(-0.198176165689466277 0.112556583239129496 -0.0491338199452727997)
(-0.199794123959145448 0.125204356547457762 -0.041223135943511624)
(-0.201642164019054326 0.126920769237961029 -0.0467260669252682684)
(-0.190528937350031624 0.119020833403028367 -0.0393967249239953535)
(-0.197451898915295021 0.0897180733112730722 -0.0622656998119227867)
(-0.204353157398223295 0.105154621273152435 -0.0533776263760055436)
(-0.206109414454616474 0.107194124773300759 -0.0603816609807497073)
(-0.19103516665236589 0.0998618754606033082 -0.0505365065854282078)
(-0.187640220791193885 0.0686723629131128499 -0.0677449991262127488)
(-0.208162106360704258 0.0781412470038702484 -0.0666860551559196046)
(-0.209849872487082506 0.0801429817236544301 -0.0764193366611899266)
(-0.188438723459961321 0.0761415555669568284 -0.0618338128752998553)
(-0.172723925365909275 0.160661514683794193 -0.0010768315021430358)
(-0.188822968010646602 0.063085616937744296 -0.0637723982409153789)
(-0.190580962266338361 0.0653005971350900938 -0.0768913653999806768)
(-0.157913991898698508 0.0626565902123739221 -0.0560078070178468765)
(-0.173559974674741047 0.630198135434944406 0.267443693574802244)
(-0.1466997020872291 0.26634613748558511 0.0679205381387501389)
(-0.154655331845550359 0.254940301962390592 0.0561024784452692979)
(-0.0640218270997451461 0.277091824358928374 0.0746564706497385433)
(-0.18893243963039108 1.58471725875726688 0.735298454217283126)
(-0.505035235514102565 0.999303546512436469 0.462980471565785812)
(-0.512321737775882302 0.967755244958681815 0.469601006173101521)
(-0.483822971309314342 1.03333287273331376 0.469322657958905376)
(0.289118648188693317 2.11062074403360755 0.956206958032395304)
(0.298508981196671352 2.04114322321268871 1.00117135752492703)
(0.366540170874787186 2.28517572558486215 0.979993311598703398)
(-0.192156621318318954 0.150853452529384119 0.00704050067930271119)
(-0.193171393623229881 0.148802991959396502 0.00940862586978297166)
(-0.196551330568838278 0.149153861764851625 0.00797166319331382017)
(-0.191449320386641447 0.148638818963117231 0.0110494036336500658)
(-0.18868876414768318 0.153498735924337104 0.00230746381858927931)
(-0.189211136210412634 0.152177111435001067 0.00467924909297623079)
(-0.192331216199870675 0.152542689858741781 0.00331188324024211294)
(-0.187467958433701704 0.151576330339800142 0.00588493426446114447)
(-0.186598090092807006 0.155205364816759589 -0.00225404555251231768)
(-0.186663766943976211 0.154571456690071163 0.00018663473463884222)
(-0.189556265482471703 0.154958624628525138 -0.00126627011889135282)
(-0.184840662742968176 0.15353995540097426 0.00118049786884580799)
(-0.185843470025505914 0.156181790865337872 -0.00673762048475411331)
(-0.185546498771176183 0.156199950162215856 -0.00417502100966201609)
(-0.188242762155225257 0.156634846471724876 -0.0058218969399236294)
(-0.183581640688600473 0.154658609253910229 -0.00330694599029200155)
(-0.186105784882247771 0.156294304570079479 -0.0112126868640606298)
(-0.185613412761475166 0.157162442292517107 -0.00845938907896892807)
(-0.188090633429131487 0.157688953369251289 -0.0103790442908595505)
(-0.183440264331830083 0.155083006692789127 -0.0077115863206572155)
(-0.187205678712609097 0.154814029270077258 -0.0159002825793544862)
(-0.186545609706835702 0.157037132069323238 -0.0127602864168621169)
(-0.188778307296997322 0.15761878145862393 -0.0150420826280386784)
(-0.183954033974028319 0.154383487239310835 -0.0121400657844874822)
(-0.18971942680454626 0.150993303194734196 -0.0211814597683905592)
(-0.188648773843761164 0.154977986497286974 -0.0173902853705589291)
(-0.190708766483750902 0.155611113297256604 -0.0201891906354404772)
(-0.185291726254810357 0.151509149828645218 -0.0168572074815247532)
(-0.194307586640234453 0.144510782998805598 -0.0274155734294301116)
(-0.192796851955737703 0.150519834507133549 -0.0227123220002031292)
(-0.194763403532698165 0.151355087175783914 -0.0262028582405753087)
(-0.188425333740910222 0.145866205068993587 -0.0222003250893131505)
(-0.200784518332335932 0.134505540618841263 -0.035153904566700582)
(-0.199272811757095297 0.143360401569208984 -0.0290750220002757645)
(-0.201083936752404185 0.144618686433113902 -0.0333760485989963857)
(-0.193530312159699514 0.137317567663499757 -0.0285504864105047447)
(-0.208047392353692878 0.118353061482898508 -0.0454669423742443957)
(-0.207227546235290688 0.131742298012233805 -0.037293943955384809)
(-0.208795059814548656 0.133558463031368591 -0.042551903247489635)
(-0.199075749064674928 0.124502974199997868 -0.0367368728110102349)
(-0.21385560625066849 0.0946784536161366652 -0.0577979817200024587)
(-0.216646949268316735 0.111822586500098076 -0.0486078998940510792)
(-0.218132972378297513 0.114166378555135228 -0.0553662589781754727)
(-0.204010918716939021 0.104431682038484797 -0.0478347483795625097)
(-0.216364699059385046 0.0745832684802802959 -0.0627134542706222764)
(-0.22853653303860344 0.0846745315638741392 -0.0602291154395324171)
(-0.229883312685352503 0.0873327111628875163 -0.0696810203057776217)
(-0.208600976712922936 0.0787099368755340562 -0.059116131752107344)
(-0.224351722221780209 0.171032028484035953 0.00522497139998068238)
(-0.229008628196802455 0.0740103780849327847 -0.0558510552211860384)
(-0.229718570217165297 0.0769931863412308681 -0.0678324043986153757)
(-0.191810192263332069 0.0655581643713664675 -0.0539610863677627631)
(-0.247882551693572123 0.637862684360569143 0.26345731612973905)
(-0.235150618495856945 0.283981254099396119 0.0777549997942184046)
(-0.237732533914101291 0.271404628211119436 0.0663287349929285591)
(-0.150582634825892403 0.285752232727290778 0.0780726478032997273)
(-0.236503445052213046 1.52769047008570391 0.683888975380902431)
(-0.512053912910981679 0.994482793104443985 0.444576816327468038)
(-0.516261235746729219 0.962862361483435514 0.451873102174956742)
(-0.495424741930857948 1.03834510463937235 0.453610655583034095)
(0.187852476138507307 1.98529451444655414 0.867716306411239868)
(0.196488764223144652 1.92217367941318407 0.910911122151437991)
(0.267724818962378597 2.17319851228913219 0.896761044346375491)
(-0.190145756019853951 0.150280902923358051 0.00704737428345649387)
(-0.190859901813918126 0.14812088767167414 0.00943827190121106392)
(-0.194207409110473794 0.148561929022713535 0.00780335877050486806)
(-0.189619614179963841 0.147978479308407795 0.0107964977178667213)
(-0.187156660133498798 0.153445391094690742 0.00255842000902579319)
(-0.187368542777851033 0.15195100820341273 0.00494793487957175503)
(-0.190461432120882707 0.152409156155196263 0.00338288783498814525)
(-0.186081351715441351 0.151355528040987813 0.00592205258399004959)
(-0.185532927602481024 0.155787917412423343 -0.00173434072251091309)
(-0.185267773465073671 0.154940262374754306 0.000701619206297403536)
(-0.188121485814848804 0.15542052861172248 -0.000920946976554374219)
(-0.18392907520069568 0.153875208156216692 0.00144397153519423903)
(-0.185210197558554474 0.157401267685932267 -0.00589678960387685341)
(-0.184540401304375601 0.157216590970113451 -0.00336443669045157455)
(-0.187175432538978198 0.157742154031333709 -0.005141530183542041)
(-0.183104276974109359 0.155621589586833697 -0.00278332397875941931)
(-0.186026054300916927 0.158128567623338212 -0.0100069886317704377)
(-0.185039645722834101 0.15879443029718357 -0.00730363731897991971)
(-0.18744747334403275 0.159387990427925896 -0.00931096931410229679)
(-0.183417459967519375 0.156611620060941897 -0.00686598676838146363)
(-0.188022276579773412 0.157447695680537292 -0.0142502892080664766)
(-0.186678343440340427 0.159347431447207727 -0.0112140052894315317)
(-0.188849106483317014 0.160000659144778762 -0.0135377297027474298)
(-0.184676431012237185 0.156484443042125471 -0.0109195619662707331)
(-0.191708202992840221 0.15479064235175416 -0.0189211476023714228)
(-0.189805165312408652 0.158287979410964924 -0.0153259802411135192)
(-0.191777568778015967 0.159019383223074295 -0.0180967387649869568)
(-0.187156859459796848 0.154501122671579838 -0.0151662113463263571)
(-0.197687169550533753 0.149704006012809254 -0.0243717705710487544)
(-0.195124866644541484 0.155200133794243716 -0.0199245179072917722)
(-0.196934058117794047 0.156125003472245838 -0.0232841828205784668)
(-0.19159026390873235 0.150140646262885785 -0.0199024824212126576)
(-0.206197949362464938 0.141010839432187896 -0.0312150613889599915)
(-0.20312668028274164 0.149557673889878145 -0.0253870096380776622)
(-0.204714832708589395 0.150847239754288071 -0.0294520214782277127)
(-0.198315154543673877 0.142921715252906034 -0.0255676822027451761)
(-0.217112030470207024 0.125849426474720832 -0.0404349014751915828)
(-0.213754246657272329 0.139405285095863085 -0.0325084241308780664)
(-0.215056262994567537 0.141214744611311893 -0.0374525987978202024)
(-0.206621698987217606 0.131058734213564787 -0.0330400411445357992)
(-0.230085393287988493 0.103107636268823757 -0.0510390336135811973)
(-0.227976549995337285 0.120953368620061688 -0.0422504848884999312)
(-0.229142181647215532 0.123338105163038489 -0.0485863762989497058)
(-0.216411915289037027 0.111117636803090974 -0.0432943410884685659)
(-0.246539549534956381 0.0863692288816521186 -0.0533667163900962485)
(-0.248624111922237961 0.096278565619293377 -0.0512980745967214907)
(-0.249516441244512388 0.0988328332246350832 -0.0598854516670819514)
(-0.229105601543244441 0.085071854727412341 -0.0531232436164060101)
(-0.277944283820108107 0.189659624915296615 0.0166789731730534324)
(-0.270917003745059892 0.0927116585683804978 -0.0430956124403725216)
(-0.270778381107807165 0.0949689419069286167 -0.0531158915279939942)
(-0.232141294087072125 0.0762749026533492136 -0.0471090509788638437)
(-0.320796889547329878 0.643647395182405102 0.258874499991945506)
(-0.313981815894140592 0.307234202500179021 0.090081941275954841)
(-0.3149059771391296 0.297733203153105253 0.0815529031076524941)
(-0.239037485181841175 0.302532853320244766 0.0852096941753954923)
(-0.27816632220037496 1.45435624765644511 0.628404147357816467)
(-0.516535841061222412 0.974482377870518612 0.420699119441103442)
(-0.518085217541096377 0.946175023792890091 0.429039625941596503)
(-0.504721601836603861 1.03098852255541074 0.431668473349525073)
(0.088820812991922321 1.84358332398399338 0.777463408853388493)
(0.0968393966497324288 1.78606000749506277 0.817046268308948664)
(0.167969664873779262 2.04125029703794336 0.811788616843396982)
(-0.20411977825799682 0.133943909828512731 0.0211142907219783182)
(-0.206132315873379157 0.129891217003482301 0.0233361770544227923)
(-0.209895787023368668 0.130460407654113097 0.0206775777725480107)
(-0.205765404788410183 0.130769003641985182 0.0263089963416827527)
(-0.197256944772457893 0.140132381419025509 0.0164852900101384106)
(-0.198730794844939385 0.136662630066264279 0.0188122626655004566)
(-0.202442030189050409 0.137155607690175568 0.0165661838500524641)
(-0.197990074070727301 0.137263654664896456 0.0211579693169374819)
(-0.191901782169093565 0.145459916744571094 0.0118310842403211366)
(-0.192858008630553912 0.142572083448448711 0.0141922755217066751)
(-0.196414491340304698 0.14304848779588486 0.0122497426229559152)
(-0.191902022297724573 0.142807076081532064 0.0159494585242017754)
(-0.187968587826353423 0.14994658808041797 0.0073388324973263034)
(-0.188414196780958498 0.14765851495324267 0.00968450613328594202)
(-0.191744979934390214 0.148153857696143726 0.0079345988465301942)
(-0.187365592631897226 0.147474184626132571 0.0109418204013262254)
(-0.185395658771372263 0.153621105392900553 0.00309113407684338554)
(-0.185338096806240998 0.151945308756614134 0.0054238364827932711)
(-0.188415213442123336 0.152456905769161738 0.00375113910410008978)
(-0.184263180569458618 0.151313433821565924 0.00631154192580692455)
(-0.18416529283039948 0.156559819129692579 -0.000928476761643344116)
(-0.183618086699027377 0.155493109381947103 0.00142872265902932623)
(-0.186449856912517975 0.156025506822338483 -0.000276065485143382749)
(-0.182522980224956527 0.154378676707569301 0.00206170550664678794)
(-0.184243918864181067 0.158805636555121088 -0.00477128440555460529)
(-0.183242947014915614 0.15838685337719996 -0.00234162095256021732)
(-0.185843128693709114 0.158958416245275874 -0.00416644602941288866)
(-0.182089808609440379 0.156726082452299326 -0.00190200942971240875)
(-0.185594898173724737 0.160217315255129 -0.00851065397664102843)
(-0.184162174632939157 0.16061183121537162 -0.00593652016855800591)
(-0.186528504657686167 0.161238455360536159 -0.00795471093791536715)
(-0.182869353935071144 0.158325601939930644 -0.00567226763382303132)
(-0.188369964172448917 0.160416137156354638 -0.0122896963224785535)
(-0.186425073837918009 0.161926402759175553 -0.00943887059405265454)
(-0.188552893618282535 0.16261101459671734 -0.0117323390012476717)
(-0.184839217731268129 0.158888552599525668 -0.00935371388361454052)
(-0.193058141632331093 0.158964602913435893 -0.0163293505460338703)
(-0.190394842695496669 0.161918187880339071 -0.0130101371995979542)
(-0.192300481348500779 0.162686086709267125 -0.0156890751962246722)
(-0.188314644581594359 0.157881721006297576 -0.0131197557958851845)
(-0.200303184837173603 0.155375761334771906 -0.0209397569743205968)
(-0.196730434775157309 0.160235441444057047 -0.0168638868914636718)
(-0.19842028256226879 0.161175026721745274 -0.020046925941263824)
(-0.193939085294213664 0.154844976453483801 -0.0172225234924356443)
(-0.210722409001836836 0.148373356478520624 -0.0266803723799957822)
(-0.206115480481497804 0.156287747215279993 -0.0213350995256836422)
(-0.207528738568324655 0.15753930787708742 -0.025131275654502197)
(-0.202255635768938347 0.149143861608289158 -0.0220916209381394647)
(-0.225106220094251325 0.135154769040820188 -0.0343240075441865952)
(-0.219140486787960748 0.148161837229623783 -0.0270804701116335172)
(-0.220206932708284286 0.149889794572924229 -0.0316536986561294573)
(-0.213289649583592561 0.13881345831005118 -0.0285248457651301919)
(-0.245124801369451639 0.115224263394814994 -0.0425095258716402385)
(-0.237723109591430365 0.132541975359745795 -0.0346793870631711548)
(-0.238546420608198806 0.134826418366146089 -0.0404049647813496879)
(-0.227890637704193433 0.120325776853715871 -0.0372429651808594692)
(-0.275226398170281272 0.104537456701383924 -0.0410269706469978263)
(-0.26680234196898589 0.112862671800395456 -0.0404130089894610134)
(-0.26727880337576071 0.115098172900865353 -0.0477790361340968903)
(-0.249388852339636813 0.0964479848129031758 -0.0447048258719874927)
(-0.327354639396880476 0.214884272487033651 0.0303073556625300528)
(-0.308401542504972703 0.119110144041755142 -0.0278859611356513902)
(-0.307808332718929545 0.120061969338671595 -0.0361927885650700984)
(-0.274623873419555575 0.0953311157274917137 -0.0355162898112659151)
(-0.381238952546647913 0.645245231352573834 0.251906560725111972)
(-0.373769193075096817 0.334476848377495806 0.100817083163006194)
(-0.373760359760707483 0.324377848442355288 0.0947168915598698424)
(-0.319337919037867846 0.328592088434042806 0.0953204754896657819)
(-0.314976068121620045 1.3670502371411386 0.569758380936681852)
(-0.516090195043382827 0.943803884653751757 0.391547154822885546)
(-0.516382948374919049 0.915701493892569607 0.400460088671757697)
(-0.511532372978034222 1.01159600780962022 0.405364869490239865)
(-0.00231634822700898255 1.68817309354777056 0.688351774369817315)
(0.0047450842810919866 1.63989537306850397 0.722496725737419188)
(0.0712823903342754139 1.8922663330192846 0.726650712698594159)
(-0.200539155446484568 0.132746371068900415 0.0210341489979449896)
(-0.202253028630204446 0.128674979246093446 0.0232433171989678833)
(-0.206107438203326415 0.12922410810794438 0.0205597195753176518)
(-0.201892290959648946 0.129368971854280701 0.0261181799352290418)
(-0.194125876363479666 0.139234975777489889 0.0165192481770687002)
(-0.195304709686851929 0.135722443907026397 0.0187887758753099432)
(-0.199066674548807582 0.136208786467166498 0.0165175532224702409)
(-0.194636929888113597 0.13618494523503305 0.0210498184315938662)
(-0.189190670245828085 0.144898851544115359 0.0120456974146714996)
(-0.189855410730317281 0.141940396299913035 0.0143174100981375511)
(-0.193435806413799399 0.142412101318396905 0.0123500461512293536)
(-0.18902951335769283 0.142077125435276258 0.0160211969518448995)
(-0.185645377864659233 0.149788186058270406 0.00776951011875289151)
(-0.185808244902638114 0.147390141793581647 0.0100085508865674633)
(-0.189150922969039431 0.147871761914246447 0.00823605151267967246)
(-0.184929098807791903 0.147128718557542226 0.0112405674147480795)
(-0.183439156391425717 0.153955109488138786 0.00376142506497917318)
(-0.183102882386911331 0.152121044369015218 0.00597166876013859212)
(-0.186187587229294405 0.152617173948482759 0.00428708321070850763)
(-0.182226134679780355 0.151420817739438829 0.00684020542666259352)
(-0.182558041690371625 0.157464208321548088 1.55784681123368052e-05)
(-0.18172086746279778 0.156198656900058297 0.00222800695621910849)
(-0.184553660480333559 0.156714486746165865 0.000532991738623280072)
(-0.180853254418972542 0.155013284106212096 0.00282544784705936625)
(-0.183005281839747624 0.160341175267046138 -0.00350685671556361447)
(-0.181669442587767294 0.159690760929030395 -0.00124857038819505472)
(-0.184260379838120547 0.160237525208170917 -0.00303445698774702528)
(-0.180782680770723486 0.157948600704176767 -0.000870448273613844701)
(-0.184830967444347211 0.162477224536737824 -0.0068647367859696138)
(-0.182969747959348145 0.162584615018923212 -0.00449701843368405935)
(-0.185318647927074448 0.163172548989321708 -0.00644445125324292004)
(-0.182000461028386767 0.160189730035491751 -0.00432325526581665929)
(-0.188254443422486428 0.163603482032872949 -0.0101593114711720518)
(-0.185754588678158528 0.164711577740320553 -0.00757644729081391119)
(-0.187855753826507987 0.165346552108350558 -0.00976235035904350797)
(-0.184590890997474083 0.161515317974835232 -0.00761707754937750257)
(-0.193772559872216699 0.163393843318199228 -0.0135446735450277626)
(-0.19040380659673703 0.165792890221430511 -0.010589311679385283)
(-0.19225765692109989 0.166497045358188683 -0.0131087738875464328)
(-0.188900946651599094 0.161541387124805758 -0.0108797872725779014)
(-0.202097456430617495 0.161398158176344536 -0.0172592294428266062)
(-0.197577583095472742 0.165558540286372402 -0.0136768037815688526)
(-0.199170432489286481 0.166396213470224263 -0.0166287967338301645)
(-0.195566158211425811 0.159883510665420586 -0.0143099473585595258)
(-0.214156616041117548 0.156409598410477774 -0.0217351972573213807)
(-0.208125887368063589 0.163467281961725691 -0.0170834593604853036)
(-0.209381987617568294 0.164547236154860499 -0.0205668435045543892)
(-0.205314733170040453 0.155877168314273062 -0.0182696704432180057)
(-0.231557361003445816 0.146018610885778444 -0.0274358496306182156)
(-0.223160605104613774 0.157869383015319109 -0.0212617968582916698)
(-0.223968425769982077 0.159321993547392626 -0.0254084973606552196)
(-0.218784322579043317 0.147579787186548572 -0.023395465263160057)
(-0.257677318268051347 0.130842937273958598 -0.032582870180991888)
(-0.245341138361494099 0.146263452167648994 -0.0263810904936859839)
(-0.245773372674471635 0.148162235599882286 -0.031399797957784234)
(-0.237796942442561915 0.131807348019311876 -0.0300744346789333164)
(-0.298881931511036536 0.128913502889973774 -0.0272719994781147473)
(-0.280869551944986529 0.133459101989391538 -0.0285340930559102798)
(-0.281120929345334891 0.135317493912071485 -0.0345261576785009239)
(-0.267725574962025703 0.112865578698035526 -0.0345320412590805828)
(-0.365046066606697472 0.242384711484301463 0.0426237663648263432)
(-0.33523004232986614 0.150834068802051441 -0.0124169813942844806)
(-0.334907263585569881 0.150559635163596633 -0.0190424687762438538)
(-0.311728963838506012 0.123320044679436663 -0.0217527599531055701)
(-0.420372815294522084 0.637506595779410601 0.240457677260783237)
(-0.410127301346391637 0.361292497711838023 0.107436978629443264)
(-0.409925084615934965 0.34911420780502378 0.104535725466987126)
(-0.377955442644617556 0.352579094087003608 0.102842390954929044)
(-0.343195160233918717 1.2655144126626594 0.510140548256019399)
(-0.506840443815402053 0.907175497266379138 0.359592505920450445)
(-0.50543508502952772 0.878232348294851861 0.369913015909425935)
(-0.514563141584912009 0.972405136573786355 0.373833113149636409)
(-0.0735027004455872102 1.52285322025263481 0.603994652363201601)
(-0.0679699621787527714 1.48052520748466887 0.631853971204782705)
(-0.0168418779813238467 1.73009581245444632 0.644408317968011124)
(-0.213537381357510769 0.115640160270627498 0.0292145084191321007)
(-0.219896746970468349 0.111248288045517493 0.0273251479140229313)
(-0.216859525074898862 0.111096163471931242 0.0351909836707325688)
(-0.21624046695914359 0.110383586520875016 0.0311172669790691463)
(-0.204351226494007415 0.124173830774493343 0.0253051392821926728)
(-0.210272831105230429 0.120130851385556375 0.0241984195034210363)
(-0.206416210089210489 0.120199413234578736 0.0308424712251150722)
(-0.206474794324676636 0.119465609936412268 0.0274308722230660884)
(-0.196816703269921761 0.131804747421332386 0.0209979440763328751)
(-0.202165164072306558 0.128198051084469578 0.0205039011551968499)
(-0.197892968014857257 0.12828822776168905 0.0259784899047051689)
(-0.198375244794667532 0.127644887325613132 0.0232332001761976353)
(-0.190834067250573308 0.13858220992308351 0.0165869377963788131)
(-0.195529182699672677 0.135455944468704292 0.0165318134211808569)
(-0.191142420578243682 0.135394862686604056 0.0209774249564755079)
(-0.191854520130715578 0.134953377399155999 0.018852177499005647)
(-0.186293908982415435 0.144581838711587862 0.012280263570033572)
(-0.190279541145562087 0.141964525155295895 0.0125058523365748735)
(-0.185991132420734534 0.141613684142253199 0.0161035117543037835)
(-0.186794306283028649 0.141469900633752144 0.0145252246770140002)
(-0.183110539982401094 0.14987431348407404 0.0082107095279530945)
(-0.186352782287618784 0.147782206205033073 0.00858470610935641205)
(-0.182298493888580437 0.147043797619826527 0.0115293128764684481)
(-0.183101644028023119 0.147273564084819036 0.0104093442259073198)
(-0.181237046900765947 0.154526159146292003 0.00443825065137852786)
(-0.183720743175460749 0.152964437186574764 0.00486475239835443881)
(-0.17996196645915552 0.151782137225705077 0.00735092585188011453)
(-0.180717570452328308 0.152429877937439784 0.00659422140043248398)
(-0.180669925031993861 0.158600712031849056 0.000963858099911670246)
(-0.182385389801634878 0.157580291146225238 0.00137776403640726052)