/*--------------------------------*- C++ -*----------------------------------*\
| =========                 |                                                 |
| \\      /  F ield         | OpenFOAM: The Open Source CFD Toolbox           |
|  \\    /   O peration     | Version:  2206                                  |
|   \\  /    A nd           | Website:  www.openfoam.com                      |
|    \\/     M anipulation  |                                                 |
\*---------------------------------------------------------------------------*/
FoamFile
{
    version     2.0;
    format      ascii;
    arch        "LSB;label=32;scalar=64";
    class       volScalarField;
    location    "0.540000000000000258";
    object      alpha.water;
}
// * * * * * * * * * * * * * * * * * * * * * * * * * * * * * * * * * * * * * //

dimensions      [0 0 0 0 0 0 0];

internalField   nonuniform List<scalar> 
7248
(
0.246886811992892474
0.841595926626778179
0.000542142806573144877
0.128149039264854242
0.000424991654545888028
0.000135878781464476167
0.000259713516990898454
0.000139997648085466066
4.88973351289821311e-05
0.000373179333098144078
0.000307736259367632212
0.00107023746396841071
6.89502912874600225e-05
1.25654229225122363e-05
2.8301612825382568e-05
0.000112795851759240999
2.18848962890655314e-05
6.26760078222049497e-06
2.53192009986831721e-06
1.64540819865759746e-06
1.44337688169995321e-06
-5.4619656666640401e-07
4.65096195170669797e-07
-1.06956973574999281e-08
-8.15474406436332748e-08
-1.7202099918955872e-07
-9.63324599612766378e-08
2.50122958243369879e-08
2.3050854234315488e-07
1.22509542242488975e-08
4.61639609930018731e-09
1.04417247894931735e-08
8.28360564113480176e-08
2.53956246600349656e-07
-5.1950207871228056e-10
8.29062266605845001e-10
5.65555566072497414e-09
6.86688853196408106e-08
2.10205587342027173e-07
4.5196855125365849e-12
7.22732044067406133e-10
2.30497459412579075e-08
2.88453744054234475e-08
2.64092409309916228e-08
7.82155806779553917e-11
1.1565896389464433e-09
7.31068503087008425e-11
2.55581980653931036e-10
2.18526212551996802e-08
3.96422139072937426e-11
7.84728608700180715e-11
4.63590593048476065e-11
7.31973738734118328e-11
3.01337657106351281e-07
-1.12456905703713765e-17
1.92122049209727037e-13
1.03173988051751737e-12
7.58826466622864857e-14
5.59831390577440887e-11
2.18774202143165695e-09
4.06162380920626159e-15
-6.57032581551048775e-19
2.20247250359608204e-17
8.63018679633913448e-15
6.99514114568225466e-14
2.83536208778984718e-13
9.23642286961496483e-14
-6.71623834242176177e-30
-1.26135391991144472e-19
-1.42604995504560913e-20
-1.20291313341181784e-21
-8.88776011386897626e-23
2.82118644197348926e-39
-2.95123636024114576e-19
-1.45693071403373873e-15
-2.57880620887576512e-20
-1.26252122173545408e-21
-4.09767741255857866e-23
-1.14133562700036518e-24
-3.00243026414410076e-26
-5.69150956049016989e-23
-9.88492046221268897e-20
0.300759820040777393
0.882108180719408219
0.002574191115147595
0.167984285635804087
0.000183426085873752
3.94785376406974216e-05
0.000139519745513744925
0.000745485339405511558
3.52394419535632635e-05
0.000122540086397365718
8.58850750998944379e-05
0.000636879967246805029
3.72938243000794779e-05
2.92480126665425256e-06
2.14187107147450401e-06
2.57125015396785857e-06
1.73250265075183154e-06
9.94141013653234723e-07
3.76651920997877714e-07
3.36108625982934512e-07
2.7067288879271804e-07
-3.79725643215740559e-07
1.22638268045302507e-07
-1.38135904219284602e-09
4.09518081967751835e-08
3.58367300978758732e-09
1.59853833321173042e-08
2.409485420766883e-07
1.37025674802752481e-06
1.63081463555663323e-08
8.05694735718258417e-09
1.63652196294974312e-08
3.50935489724987132e-07
7.81742143488956071e-07
5.5866969516787581e-09
3.00838924614143856e-09
1.38076336593713957e-08
1.24190975570562259e-07
4.47884515506149637e-08
-4.58866252246054886e-11
1.70952028019961968e-09
3.08092450421862081e-08
5.19740093362818216e-09
1.26415977280150084e-08
3.58802921298661577e-11
4.16942265916618191e-10
6.8017617705726647e-10
2.55812624885573726e-09
1.6053758638593358e-07
4.49333895969437086e-11
2.1396512509172882e-11
2.18248047828327647e-11
1.50437503559257941e-08
3.30042736934171867e-07
2.30336574247651332e-12
1.60367963851166984e-12
3.62006970777398577e-10
4.26617436938782699e-10
2.53109880501637268e-15
7.15355200697338297e-15
9.09981560897266497e-14
-3.18793496654839433e-29
-4.63677664996352178e-33
-4.9188282707376097e-29
-4.6791661160968322e-22
-3.84392265089089271e-23
-1.22547875189684578e-24
-4.42898007500584972e-20
-2.14719870069747127e-16
-1.99213118938730361e-24
-6.41486263574661264e-26
-1.95019318133793452e-27
-2.3098893074014162e-24
-4.09337365443501966e-21
0.307174764119705124
0.904660016566213643
0.000132888699300845507
0.234790489948680126
6.59061266420430595e-05
1.32888725261555614e-05
0.000134652572034691477
0.00699803832691011339
0.00484878757015088074
3.41559486733327553e-05
3.04962694399736563e-06
2.39584504298003503e-06
5.41206573244060505e-05
3.90844898341665778e-07
4.78929028340459423e-07
4.3457323324985289e-07
7.45042916984287539e-07
3.89411804877980325e-07
-4.39050166947011545e-11
2.04627172248327917e-07
1.61502315625336252e-08
6.78900634874681606e-08
1.36470712216232893e-07
4.75073485473643984e-08
9.99690600420115828e-08
3.15010526966946927e-08
2.87007231629842081e-08
5.64090110846186807e-07
2.65697726862988742e-06
2.43362244324163139e-08
9.95826740377016658e-09
1.30313758606892126e-08
6.7611981164699865e-07
1.28001526057487566e-06
3.47252245836355976e-09
4.82743312229117655e-09
5.35328676407824505e-08
6.38846211860380393e-09
2.20057337614490886e-08
-2.58426628989890824e-11
1.72910448698436015e-09
6.04031103511250148e-09
3.46262375104560565e-09
6.24719615272917749e-09
3.02528397838068183e-11
8.69975697197938603e-10
3.01124178349209299e-10
6.80686007172255845e-10
1.08600200130807792e-07
6.72562840369201559e-11
2.08197587376244606e-11
7.58243413008430634e-11
1.25581421898592311e-10
3.23434883716935896e-07
3.49365611885415434e-12
4.01850992488185733e-12
4.21833929857269687e-10
2.87984012683331295e-09
1.1030545350703231e-14
-1.28395329625815781e-33
1.24334194667077368e-13
-7.77672801547763947e-29
2.48630168798680477e-15
7.00083387893530471e-16
-3.93895800159031902e-18
-3.53822065786566239e-19
-2.84119727530088558e-20
-4.97008749673553289e-21
-1.92492315817870865e-17
-8.36628740162747821e-23
-2.61495335894995032e-24
-7.70774997214643359e-26
-6.30832465037627549e-26
-1.1920705857020647e-22
0.291176804253776955
0.901037049491090092
1.14431474967304483e-05
0.237678365761093413
2.36670445482994185e-05
5.34875184876292106e-06
1.14514387046867658e-05
1.62837959029986413e-05
0.018454332347946148
2.72605426261441476e-06
5.5350287015013501e-07
1.05929784009428362e-06
7.77963929959719723e-05
6.15526552737974748e-07
5.71878987244706006e-07
2.6043976169600888e-07
6.16427024255296074e-07
1.77868592919645659e-07
2.2840231942923768e-07
1.93017954062885215e-07
8.19400586724949956e-08
6.09256469716353571e-08
1.27024116475097482e-07
7.09660335392147946e-07
9.31886472386053347e-07
1.62435669427063215e-08
1.29542901457253031e-08
6.93046108523950751e-08
2.57406431370306793e-06
3.64668771135383497e-08
3.96914528619950875e-09
7.09672505570736242e-09
5.45906466795359902e-07
1.63880508770527882e-06
8.14585148790488837e-10
1.26741027776242875e-09
4.95383078086813454e-09
3.33993940782850866e-07
2.58890334436848922e-08
4.10363383885871571e-11
8.95755264577570149e-09
4.57884115118605821e-08
1.59432797932185574e-09
7.47346365637222212e-09
5.48449889860937101e-11
6.59734525764497022e-10
2.26709606619574738e-09
5.65694374814934764e-10
4.54427911372758553e-09
7.57812232821868989e-11
4.09641287371327729e-12
6.58364216188494844e-12
4.57817971106581938e-10
3.38577531023792992e-07
2.11363562200597915e-12
5.40965722837948416e-13
3.3517670997469303e-10
1.36987516192845846e-09
6.59103292690688467e-14
7.59450656250255576e-14
5.14416644130814208e-13
-2.87090149237082652e-28
-1.20131839508286949e-27
-4.61766136915766386e-25
-4.1393073876984253e-19
-4.27735078488244229e-20
-4.03887368377092971e-21
-4.76728354798986608e-22
-1.2036229585405897e-18
-3.83995628394448027e-24
-1.35885179927182248e-25
-4.57175664762713173e-27
-1.28572623028871234e-27
-2.56852044869495338e-24
0.33521837291196821
0.916834662725532601
-8.25544143531801834e-09
0.30161323308370902
0.000111947503970307602
5.20890623632365507e-06
-8.30340871316236904e-11
-3.29814549434852972e-05
0.00954027657777640689
5.0545587446758638e-06
6.56034761074150791e-07
1.50909295191049201e-05
0.00209953792139949431
0.000682180733134261853
1.14782034747374048e-07
1.11669981494947229e-07
2.36348572293550976e-05
2.88770096246535207e-06
-4.30416046392494257e-11
8.49878786542342862e-08
7.5444925623877026e-08
2.88819665178377837e-08
5.19842401443649748e-08
-5.50377173458086273e-13
1.13206237204969851e-07
7.56971765234161178e-08
7.09694113579712282e-09
1.93375998513500426e-07
8.31195743694289926e-07
6.31812500217535022e-09
1.23502223797171694e-09
3.97860485063558592e-09
7.09034839724571327e-07
1.70602081495361697e-06
2.49069427985240932e-10
4.93557508430960875e-10
1.29113951334578928e-09
2.50118689975670598e-07
4.59599687443887658e-08
1.76346211841597887e-10
1.01417132397708285e-09
4.43997566867754275e-08
7.19159538861251929e-10
5.36983507084764123e-09
4.70195995284489679e-10
1.77974173284551036e-09
4.90719798656495809e-11
2.55575713233346525e-10
3.31431866432276888e-08
5.54937972037651404e-11
2.58790824125202484e-12
1.1195487110874727e-11
5.06399601350824151e-11
3.14826448174589849e-07
1.09551341882234619e-12
9.09251705160207177e-13
2.6603799285366546e-10
8.09059937394633937e-09
2.16061819483645696e-13
2.1315415608308123e-13
1.84755569694761932e-12
7.21759097391941202e-12
1.91509634348600811e-12
-1.17336418356567114e-23
-8.82820801079784736e-20
-1.51954500283459333e-20
-1.87787419249309614e-21
-2.09873238939595565e-22
-5.32255679029224109e-20
-3.52760502835329918e-20
-2.78818179961480036e-21
-1.45118933741859242e-22
-6.53208764723819244e-24
-3.29238850277462652e-25
0.404248319717749438
0.932155733704413958
0.00215304241695448697
0.366485250687380915
6.58401772773381981e-06
3.26075765876558661e-06
2.15496647549141836e-05
-2.07363569141342543e-08
0.0111399875418484867
1.65141132524404383e-07
6.6998863749900152e-07
0.000568446378454713543
0.00179485600842780213
9.07258217941807565e-05
1.17786361765265911e-07
2.34908457001423907e-07
3.6194168379036455e-05
1.98523500078744034e-06
2.62742858724412471e-06
6.21957085902121832e-08
2.15031005773561925e-06
5.5478185049162087e-07
6.8944247871452359e-07
8.37972608935796828e-07
1.33330037118183085e-07
7.28455018315322103e-08
5.97871205774901656e-08
1.64932728022298597e-07
6.62233246671720305e-07
3.93306129165615923e-10
4.93555308057229013e-10
1.23500971924314861e-09
3.00363451741591211e-07
3.94949958432823016e-07
1.28631211150681063e-10
2.49079111156416382e-10
4.45740339610938414e-08
8.87814589758085572e-08
2.60218815945123412e-07
4.47815599781753259e-11
1.28633342764086458e-10
6.33987458256643695e-08
6.6975586077219531e-08
2.39393111269658958e-07
6.76177589571625859e-10
7.64766850836390799e-09
1.2626762243724891e-11
8.62469817536418575e-10
3.54240602072983099e-08
3.58238167288384065e-11
3.3276863789208711e-12
7.95713242242880502e-12
7.6685771106692236e-09
3.24219904702911335e-09
1.44720793522344454e-12
3.73533123620825721e-12
4.34151027518211858e-12
7.04400229676193117e-09
9.75794392200610324e-10
3.68813380729633878e-13
6.54294984902452224e-12
1.57387890223974734e-11
7.17185428565162059e-29
3.81458073280192983e-30
-3.52557887039868445e-21
-7.66960772620557894e-22
-1.86483793734798181e-22
-3.14202816320412468e-20
-1.77899926137305327e-17
-8.76283910295290124e-22
-7.98377062934496624e-23
-4.09375327665264661e-23
-1.61622066590277039e-20
-1.08263461995251911e-17
0.411300594240317174
0.931676006795338463
0.00384668003918977111
0.374345435344233812
8.82432872302946283e-06
5.77078717225104313e-06
2.73961939572860637e-05
9.30904100880636096e-05
0.0193642277518686172
1.91934111108973863e-06
2.12067102917812481e-06
0.000143125394148025981
0.000100256758992734707
1.61505173425261042e-05
2.25156755216030638e-07
7.06119368080028159e-07
0.00011620987522536504
8.87223822026796973e-05
2.69167552574199244e-06
8.84524412327336517e-07
9.81361139499568552e-06
4.34618743029368531e-06
1.22205467715855735e-07
1.35083138915002403e-06
2.41823006237128339e-08
2.67420988834963554e-07
1.04025267342691461e-07
5.15494842610815503e-08
7.24393990149651146e-07
1.78289951215293261e-10
8.7311127445702902e-10
6.35454930576080004e-09
1.61451713358054558e-08
3.15218680711582389e-08
1.50565682258737422e-10
4.93545483459730933e-10
4.63505514570525744e-08
8.05379513447641914e-08
2.87242431300798341e-07
8.92845661598957443e-11
4.46366252836427523e-10
7.65668401531959028e-08
5.15640248450834567e-09
5.04279830272849937e-07
1.31022456633446444e-09
7.72627114285540323e-09
4.32464779961653269e-10
4.14218201977345732e-09
1.10651882345982399e-07
5.24417472516127962e-11
9.11627260756503152e-11
1.26267622437254129e-11
1.26006830751151726e-08
1.83170390326942165e-09
6.61628822473666016e-13
7.50796901930688441e-13
3.12434737838245977e-10
3.96224222268408872e-09
4.05612346069625711e-10
2.43816514844933466e-13
4.81405751067604975e-12
1.91433445053532056e-11
0
9.75720500066317315e-10
-6.01696585228982895e-23
-1.6825853611923285e-23
-2.16075599537501245e-23
-4.63855821915885546e-21
-6.56248877747114352e-18
-8.17046286763492611e-24
-1.27539084158761023e-24
-8.74416608384285221e-24
-2.19156981310272702e-21
-3.75275136808165464e-18
0.386400243361917084
0.919153372165526061
0.00100473225937208646
0.313125392046248341
3.66330344564792142e-05
1.77879921495198529e-05
7.84144536683291523e-05
0.000107069874836417637
0.0410270462360927748
9.22749423688091173e-06
5.78251262963496393e-06
0.000101284911560076894
0.000207282156978772658
0.000110923496092908745
1.92018671742278405e-06
2.13018971289972804e-06
0.000151770081204967357
0.000331494294326777192
0.000100966691881914766
9.971108242575241e-07
8.9531936951535389e-07
2.69600728069156031e-07
8.37618312584863303e-07
2.93986505055107727e-07
2.22347905941596314e-07
7.82664923390625562e-08
3.67065842190899344e-08
6.20159405816571923e-08
1.78878054575033151e-07
-2.64801366171409989e-08
2.58515409445608827e-09
1.15727266181031448e-08
4.51332106157196102e-08
8.38000779325528188e-08
-6.03610087665491724e-10
3.944333277457311e-10
1.05272467462808047e-08
1.52738711047630899e-08
3.72134346927012419e-07
6.23559834887361296e-11
1.17203525222086161e-10
5.15037263574274702e-08
8.2637472495598672e-09
5.02517888838300187e-07
1.68873056151678055e-10
6.42354729316747302e-09
4.18407426041718499e-10
1.07508627180774457e-08
6.43172645303988605e-08
8.79155876176773061e-11
7.78051170675262684e-12
6.12956566361845781e-10
3.3791161750349559e-08
2.42279696222289327e-09
4.33010703329272143e-12
6.08894270649610022e-12
4.72636071543221059e-11
1.88068988346479027e-09
8.12822401361898886e-11
1.42879278918553914e-13
1.20786682810823411e-12
9.70799147269119932e-12
0
2.89390881029082953e-11
-4.43698443334596642e-25
-1.54707821700124086e-25
-1.52392782576777006e-24
-1.19897215438471198e-22
-4.68837626051071825e-19
-3.0987951303285683e-26
-1.11097887126116744e-26
-6.55828637007905687e-25
-3.68047576616251547e-23
-2.39853757622309484e-19
0.102023233571864352
0.154442543175925928
0.00160783347011760622
0.00676948006841604499
0.00011306716120377939
0.000260075219120954962
0.00120932117617519527
0.00144307235855552413
0.00142299106408958214
4.12304100418960638e-05
9.41163067133359271e-05
0.000295657275841839772
0.000711341191832233575
0.00129776055337702087
3.2430515805963208e-05
0.000136759863425233244
0.000131146224255077
0.000361244409950232817
0.000550642485173973646
5.59969072678258006e-06
0.000108816296268532517
0.000119342910443322062
0.000105764534661904972
0.000159883395661481863
8.19042560753165315e-07
4.66187284925537697e-08
1.64300765151589517e-05
2.39957446638673732e-05
0.0001073703400593467
4.59704984194776485e-10
1.48206438415635442e-08
4.82171566638823923e-08
3.84188487618767984e-05
6.71362725248068686e-05
2.08283600840687995e-11
1.08903323170632629e-07
1.2366409490291384e-07
3.69627737227998225e-06
8.7511111086102288e-06
3.39965037290750525e-09
2.3304406271879327e-09
7.02425196043915761e-08
8.04842464944656873e-08
7.72195517138028502e-07
1.35369806706723091e-14
-9.97006643459050168e-16
1.46703521714042168e-14
8.1023621654952973e-09
1.36518645006999977e-09
-5.86972472641659997e-13
-2.26778973998843608e-13
3.12282128181756459e-13
1.69400698338751974e-10
1.05535728420654371e-10
-6.77266709459049224e-15
-8.73759339738381056e-14
-1.4993976125684608e-12
-4.08599972628576613e-13
-1.71251687631370135e-14
5.18048523926177227e-12
3.78097988787680121e-11
-1.45599644497818412e-17
-4.18044155538280201e-16
-1.05308162895348514e-14
-5.95097154384765433e-14
-8.97575826493632872e-15
2.30850387308663219e-14
1.4828559458376635e-13
-4.00454227844041473e-21
-1.95032909546597449e-19
-9.19763522364964183e-18
-2.28780994097023275e-16
-1.94748515730077295e-17
-5.23111485026154301e-19
-1.09713326599967983e-20
-1.0133358865262874e-27
-2.50257113872322346e-25
-3.97319438601339826e-23
-3.88019636940877948e-21
-8.69108693397252314e-20
-1.81933735398236232e-21
-1.74057914788363971e-23
0.00440197667081828649
0.0147738531602834185
0.00121528837709021509
0.00153807714275006144
0.000640143336004709868
0.0006683591903457899
0.00157170851087911744
0.00234628770258270107
0.00205523128544091594
0.000952067136028292814
0.00174552837266582408
0.00278017783217189215
0.0029984827427444777
0.00291560162491757025
4.00618839130202039e-06
1.29836815919539782e-05
0.000621708266590384213
0.00148683063055738036
0.000277665315999925464
2.01328246754770367e-06
1.21746841651079113e-06
1.04350896750527254e-05
3.31339337801088147e-05
6.59430635371482146e-05
3.37903839597210775e-07
1.22504941228710585e-06
2.40444998893174331e-06
9.42493910856794507e-06
9.64301657236162231e-05
2.66457671505363375e-08
7.93983936070769044e-09
2.62229525206253804e-08
2.00158209229259139e-05
0.000145254095527224059
4.35505895961829541e-09
9.56859955824803304e-09
7.68603956697030073e-07
5.71336060869554327e-06
5.91180734127037306e-07
3.96187997461558993e-11
1.32489881076865721e-08
1.80540709337310806e-08
4.57451394771423648e-10
2.75808256459821615e-10
1.40058859212990193e-13
5.80938351483765627e-14
4.80788269243912974e-10
3.65041711824700902e-12
5.8393144919457079e-11
-2.72755879343252383e-14
-8.11191206711348629e-15
6.69154804604729259e-13
6.7670191877570473e-13
5.40902873628453623e-11
-1.26595095547945962e-15
-1.89268885746169517e-14
-7.52704343736107487e-14
-1.61979428648331087e-14
1.20935456280242216e-13
8.07394789239921299e-13
2.68829561542582488e-11
-4.8847489011965674e-18
-1.22214616373892849e-16
-1.71975978825084255e-15
-2.89961704365324928e-15
1.21290198103993037e-16
2.9726215392447051e-14
1.5039812590018503e-13
-1.25434458542730532e-21
-3.60892790652304551e-20
-9.3050676308151626e-19
-6.58529576619376678e-18
-6.38336968232320925e-19
-2.21181840271424996e-20
1.70831255700395792e-30
-1.33783314499208325e-25
-1.94086884132295887e-26
-1.41684944663132804e-24
-4.41933245398194322e-23
-9.41611353629562476e-22
-1.41451363174417504e-23
7.67305955361541269e-22
0.00946225764135824599
0.007397499443915918
0.000893481697402737128
0.000835338182655613322
0.000654659328432789355
0.000647722774986732763
0.000773613185372596648
0.000902084792361465548
0.000903852477842425912
0.00136830799449560135
0.00204197511709880951
0.00265030758489505445
0.00278017783217189215
0.0018104061172718529
1.2988051442217358e-05
0.00106285036684257211
0.00131596637148414901
0.00131949280654284663
0.000670839229574316377
3.15034639655698451e-07
1.27538110037460937e-06
2.87753657092463331e-06
1.16722999204327878e-05
2.45747698584367e-05
3.6537226590467291e-07
7.5918924409801825e-07
6.34693946721182057e-07
2.88305805322021688e-06
6.78704070866725556e-06
9.4477457921510089e-07
1.28555593584648254e-06
3.90443135941203355e-07
5.73353154911078367e-06
1.22417954683572001e-05
1.4516685983217205e-11
7.53250470543031829e-11
2.08605408508393627e-07
2.76350112990447285e-06
2.22339486595520803e-06
9.45291144594505319e-12
6.07871978591163684e-10
2.95113053219572571e-09
1.0907059377009634e-07
2.57213439748263128e-07
9.40475229800032116e-12
1.70181285546902417e-10
7.06257386443232921e-10
2.55751013389269806e-09
2.57124048093939615e-08
-2.35759290710956945e-14
1.73424567229965398e-13
4.4471634567914838e-12
8.27395293200615077e-11
1.36653226847642825e-09
-1.94091940019252826e-16
-2.58675920461051688e-15
-6.40159607597120418e-15
-1.34896119598924845e-15
7.39559030653440313e-14
6.14672767075401151e-13
5.31566308399530214e-12
-3.72132366999267991e-19
-6.21349221067723025e-18
-9.74437399607562568e-17
-1.35729314248651367e-16
1.28371720769788259e-16
1.00650769383548176e-14
1.41764671406006682e-14
-5.28597995666905096e-23
-2.11061935063060372e-21
-4.43341994771157728e-20
-9.87437851495369172e-20
1.81566999458681684e-20
1.8161217629096813e-19
1.53564319423786495e-21
-6.56573664394813684e-24
-3.29048698937781186e-22
-9.6640662720025461e-21
-9.34253932571007323e-20
-3.15065095178370928e-21
-6.13802437945431724e-23
2.3523229169170522e-23
0.00189420389905460844
0.00112163356059546407
0.000807210900645035593
0.000660884819918872201
0.000561582726559941366
0.000631206808101944994
0.000647016194567692077
0.000631133514381775431
0.000524392778240463544
0.00112899505272052048
0.000988669794014862503
0.00106810131318586105
0.00126602471965664887
0.00116630455905756712
0.000757352829766590814
0.00187717375985599648
0.00180148903457137861
0.00170215704633940208
0.00137862434296693974
8.64962261995511281e-06
7.09955795294999712e-05
0.000287095965295442064
0.000250528405382558763
0.000124233523595968843
4.87855704870764649e-07
7.04991966598424182e-06
4.70476921421337762e-07
1.17423602862395174e-06
2.27055067347504066e-06
4.36235553601065187e-06
2.71987862080875844e-06
1.472480332353527e-08
2.09430772223334753e-07
3.60890630960906634e-07
8.46652058657567826e-12
1.96934560128694635e-11
-6.89876582487572052e-10
1.98102767204157015e-08
7.13236252849550391e-08
2.62113232966260504e-11
1.06209748329391253e-10
1.31326772037528666e-10
4.06232175995476529e-10
8.35926181397862577e-09
4.90616578692314019e-11
5.27284057018337066e-10
3.28165160363597726e-09
1.46943783849060728e-09
2.22128497019459757e-09
2.7322260373876247e-12
5.17665032467288354e-12
5.05599505891960018e-11
1.03734650364631746e-09
3.12575870954795449e-09
-6.81912642561578416e-18
1.46130300771463145e-15
2.80945805413927708e-14
5.88903725433533921e-14
1.32029059268395237e-13
6.6204121659150306e-13
-7.40238850425659764e-16
-2.02460687816102995e-20
1.06441539760035562e-18
3.49050814332282243e-17
5.43198031495144631e-16
2.18170749384096154e-15
6.42613028359559813e-15
-5.06899740763228221e-18
-1.70514113880261351e-21
-1.33409894742444716e-21
-4.3170178644652149e-20
-8.5523157451799745e-19
3.9352848533548742e-20
6.56194036990808221e-18
1.49106949517154294e-19
-1.3147590523313752e-23
-8.49523797708276552e-22
-3.47216090653454962e-20
-6.99612446938033572e-19
-2.71262031110985355e-20
-6.28366302986534819e-22
-4.88476145531472909e-22
0.00272681135848233669
0.000771868090452394479
0.000674313864044210915
0.000536313536135095588
0.000425815177779895909
0.000582646724253351768
0.000660117292558948417
0.000536572478267980258
0.000401385120179992565
0.000411632526511478559
0.000505086789045683143
0.000758182699405633926
0.000978385861336745219
0.000560118113677787743
0.00156876358455379766
0.00187717375985599648
0.00187717375985599648
0.00180148935573718827
0.00125850250888210453
3.9997366573354811e-05
0.000716673613067306042
0.00137021502923883351
0.000765081083021728193
0.000362828584479970542
9.58397641024472204e-06
6.85343033212423684e-05
3.0022633068096606e-07
2.17699965138338376e-07
4.07643070432542333e-07
8.29881267288383767e-06
9.55060647803110459e-09
1.32870236615582801e-09
2.56664370009907705e-08
1.26227604973941356e-07
6.26215465844858547e-12
1.58845987992702067e-11
6.85935149132210238e-11
1.36983097788942161e-09
1.24019369771614678e-07
1.02840125398268845e-10
3.41386322031179261e-10
4.77642274721532457e-10
1.36565675748588675e-09
3.8280866933358017e-07
1.33455876344626806e-10
5.55403102498715473e-10
7.42348767279276372e-09
1.03861021019689568e-08
2.24229128987824178e-10
6.83723565450414017e-12
4.47730868064712561e-11
8.78484222563537675e-15
4.77313579466292405e-12
2.69784439858846316e-11
7.76393871953735244e-17
1.959783394326188e-15
8.28037088832872268e-14
5.208575172646681e-16
2.45066213351678637e-15
1.02957863865130867e-11
2.23943480427179433e-10
2.05195154544350374e-20
2.61986479705356167e-18
2.19073463796592191e-16
3.94197634934719697e-16
3.16657403383495082e-15
1.94993837322173313e-14
5.91201067272879454e-17
-1.17242683446843764e-22
-1.4079178530942218e-22
-3.5365951208586322e-21
-5.66999407504552569e-20
2.29478402937352356e-19
4.97498823600609371e-18
-2.44856166237842306e-23
-1.19950392290249552e-24
-7.39058791640914746e-23
-1.94769145220144988e-21
-3.07100860702525348e-20
-1.53002487185890536e-21
-4.62715507278060456e-23
-2.19184570863901711e-23
0.0104865758962837362
0.279132007470557941
0.00217108302295819988
0.000482260909987623863
0.000294349517796126407
0.00180247956230872655
0.00327519808650531203
0.00125604778703571713
0.000282014817598555184
0.000148771108598028318
0.000555777806992835432
0.000481338561419767112
0.000468340967015166434
0.000139327593469409672
0.000639997765321290938
0.00150120303055368393
0.0013504954683682892
0.00110929536976599619
0.00040190197462123742
0.000192634464730768854
0.00124705608028768283
0.00117631737163943718
0.000831154973020123856
0.000326765821576357584
3.86186767456491659e-05
0.000302045800284612693
0.000119786689915602602
-3.82772770908649798e-07
1.94482165443592687e-08
6.47938802819307475e-06
1.63802241258770052e-10
3.62668068462317237e-10
6.45714629150457039e-09
6.72768968829035426e-08
1.36370762295832419e-11
5.33268623570772133e-11
1.67675751239086364e-10
6.08501158050290955e-10
2.69459934021667332e-08
2.92866611648956414e-10
6.66487405652043689e-10
1.70386745491095831e-09
6.1440252642552825e-09
2.12459680985780453e-08
3.40396593168869982e-10
4.22071988450878219e-10
5.0729204188721319e-10
9.19747776032320097e-08
5.81248796811179373e-08
1.12256589937113573e-11
9.40039849351534036e-12
6.73178305966583648e-10
4.90526355937316083e-13
6.17628690280660641e-12
1.44031088748323845e-15
2.62181097266357532e-14
1.16207848917678913e-13
4.77936305884650085e-13
2.15552980713157137e-15
2.793694496695414e-14
1.13900140943876269e-14
1.04173652744985031e-18
4.14639094554619496e-17
8.35181128274733283e-16
4.61898314830636316e-15
4.80630435598489974e-17
3.21443874537868035e-14
5.29827190309429789e-15
-5.91457348114057426e-23
-5.6399001414911135e-22
-2.23452966744723716e-22
-8.81562795945684016e-38
4.34974204804085549e-20
1.12076548345061384e-17
5.13164981904017551e-19
-3.27176807073162569e-23
-3.96998527138000828e-22
-7.18374945190349481e-23
-8.37591097074239663e-22
-5.21870375163774836e-23
-2.00233467297267502e-24
-7.24589170216534855e-25
0.0280518591468525945
0.634956467135684766
0.00242112683634539919
0.000313019762065886462
0.000405506617734286172
0.00214882018148475438
0.00358880760600306312
0.00177189089476087512
0.000139160843671094672
0.000178922226345749197
0.00156811301031820581
0.000334286003938822891
0.00013893161600574266
7.36096457101430757e-05
3.7622498945807142e-05
0.000249837107353766542
0.000272071649553883152
0.000147881573741584504
3.52000535738840935e-05
6.59227653238964164e-05
0.000991957806758654147
0.000948743067749326379
0.00039566651846019424
5.0381119384483142e-06
8.04343143782485816e-05
0.000208430909836015944
4.36024278705036695e-05
8.12181074180261359e-08
5.40130953498136975e-09
3.16471608442635421e-07
1.55192522253061851e-11
2.88064045550718347e-09
1.79736560624274454e-08
8.89823212048453581e-08
3.10992860592973625e-11
5.31333825837788939e-11
3.81530529021947959e-10
2.92079214657362027e-09
5.95677969038644597e-07
3.70971689921040123e-10
6.39108944285577788e-10
2.61413534723951342e-09
4.52510395956338086e-09
1.57995988713697876e-06
4.73779585528532536e-10
7.85923371444766924e-10
1.3479308258133615e-09
1.07979251196046968e-07
2.65104142488569712e-11
9.01226651069273712e-12
9.2817922017061075e-13
4.60499542254553996e-10
8.94078294246401453e-11
4.05593038096482472e-13
8.59470118699942357e-16
7.71397766316542326e-14
5.0977356406825608e-13
8.69950090894219719e-13
3.98529756870995172e-13
2.9539408704925965e-14
6.47772529615680838e-14
-1.72094145597848813e-20
4.76050476796581066e-17
2.97122553058402329e-15
2.08477834822413328e-14
1.1666142725748301e-14
2.37888396681870977e-14
6.51485308893275843e-14
-3.83341250934147943e-24
-4.38899269249823017e-23
-1.16949712570503628e-23
3.55911019585912901e-42
1.72292425507776409e-19
1.59441493372128278e-18
-1.22238984874916582e-17
-1.01435415670644094e-24
-1.46085409088439181e-23
-1.8624682427623824e-24
-1.76351574437938438e-23
-1.33906401932337662e-24
-6.62058564345722138e-21
-1.00811505112101975e-17
0.122279073616462508
0.770578788543156312
0.000541815641592587288
0.057754419550202156
0.000806516052053568014
0.000395182049749937892
0.000631284698344147018
0.000470888504454339339
7.89372737929621316e-05
0.000391504192507828618
0.00152020667801555306
0.00123761508691366557
7.77186919520821297e-05
3.58306373266544716e-05
4.70064468812940987e-05
0.000141036291973404556
5.64435937208863806e-05
2.77305323129945194e-05
1.21927390999354232e-05
5.47805631557459342e-06
0.000247111084614237979
0.000192771413750654399
8.63983210715431708e-06
2.45965800263692457e-06
2.71396056026234882e-05
1.1210976477546404e-05
-3.79984456907419815e-08
5.19750277069716811e-08
9.91899515137202842e-07
-6.80601757898444349e-10
5.60974267225736494e-10
8.79896979990351786e-09
3.09485373671942579e-08
6.55725091173855249e-08
4.94645512339546397e-11
3.40397494455962371e-10
7.47644946464340178e-09
5.23053826703107065e-08
4.83378204300772322e-07
2.37968177501946257e-10
1.76869466732051626e-09
1.33870113725493874e-08