/*--------------------------------*- C++ -*----------------------------------*\
| =========                 |                                                 |
| \\      /  F ield         | OpenFOAM: The Open Source CFD Toolbox           |
|  \\    /   O peration     | Version:  2206                                  |
|   \\  /    A nd           | Website:  www.openfoam.com                      |
|    \\/     M anipulation  |                                                 |
\*---------------------------------------------------------------------------*/
FoamFile
{
    version     2.0;
    format      ascii;
    arch        "LSB;label=32;scalar=64";
    class       volVectorField;
    location    "0.540000000000000258";
    object      faceForces;
}
// * * * * * * * * * * * * * * * * * * * * * * * * * * * * * * * * * * * * * //

dimensions      [1 1 -2 0 0 0 0];

internalField   uniform (0 0 0);

boundaryField
{
    inlet
    {
        type            calculated;
        value           nonuniform List<vector> 0();
    }
    outlet
    {
        type            calculated;
        value           nonuniform List<vector> 0();
    }
    top
    {
        type            calculated;
        value           uniform (0 0 0);
    }
    bottom
    {
        type            calculated;
        value           nonuniform List<vector> 0();
    }
    left
    {
        type            calculated;
        value           uniform (0 0 0);
    }
    symmetry
    {
        type            symmetryPlane;
    }
    interface
    {
        type            calculated;
        value           nonuniform List<vector> 
67
(
(2.16857356499293999e-06 -2.00516128485906594e-06 -0.0224682501704642178)
(-1.63976702228992542e-07 -2.68583658337855312e-07 -0.00680980742744432058)
(1.21754129013559579e-07 -6.65399182961930015e-07 -0.00961693477702378445)
(-2.07937061668013474e-08 -1.03300588530926294e-07 0.000115712423488075099)
(-8.07436287229870389e-09 -2.05177140126423892e-07 -0.00117670526836766739)
(1.54155254150604623e-08 -3.75425387860155886e-07 -0.00392539005511306511)
(6.90102301731433227e-08 -5.48520319184668042e-07 -0.00649370814905410494)
(-2.75646822303997613e-08 -3.83703591646688008e-08 0.000536329106856000604)
(-3.76537062821444114e-08 -1.18405739892670038e-07 -8.25027237718372399e-05)
(-9.89837998023099288e-09 -2.39657462147082211e-07 -0.00145936514921089972)
(6.04784707835083663e-08 -3.65676760549746011e-07 -0.00254466645143389862)
(-0.00062713390614199953 9.01425680416790468e-09 -4.08729405211077788e-09)
(-0.000415993372620805007 -5.99953801714203748e-08 -2.89877346539565176e-08)
(0.000177662407061861683 -2.38910659462146703e-07 -9.46439445293312232e-08)
(-0.00059437831149746921 1.00007377699641907e-08 -3.96851200896299224e-09)
(-0.000377090766403324928 -2.96858417255275508e-08 -1.96877437513895121e-08)
(0.000301081377303779392 -2.31532932490228952e-07 -7.65119508572125705e-08)
(-0.00052481129719083924 9.76185316833620396e-09 -3.26005845288865649e-09)
(-0.00031208818759419476 -6.38888732515311054e-09 -1.50576426137005761e-08)
(0.000282776470122255406 -2.00885936807181843e-07 -6.41528873639434479e-08)
(-0.000464973614664894268 1.08694098374626157e-08 -5.79159354868359598e-10)
(-0.000239214714952208266 6.08047274716019119e-09 -8.41931387902953213e-09)
(0.00032899247896368513 -1.68598334287871882e-07 -4.15449565802193407e-08)
(-0.000463188683605984656 1.75188913300779643e-08 4.94588213371727074e-10)
(-0.000252711296360669702 8.48968325602543276e-09 -7.18502720114556562e-09)
(0.000350528034317316094 -1.68087741602414361e-07 -4.09359244959597132e-08)
(-0.000516239074062169634 1.42439183089050431e-08 3.43253629741592311e-10)
(-0.000339211173205297722 1.03320515429220506e-08 -4.81161647682364797e-09)
(0.000258854275977900728 -1.53250183789971251e-07 -3.02975044292071438e-08)
(-0.000577109152703986629 1.18808578069785671e-08 1.63544000502615774e-09)
(-0.000390877661788286909 -1.82157611397951554e-09 3.49759488483314605e-10)
(0.000228737415547319362 -1.98702472285579984e-07 -1.9681757436306432e-08)
(-0.00058943034334365109 1.19179904043294019e-08 1.99736693552068972e-09)
(-0.000327982848624554571 -5.11035839791162028e-08 -2.28763236256798186e-09)
(0.000407860082244451607 -3.10513069801878529e-07 -1.57036570109781486e-08)
(5.49159506866416401e-06 -0.089543429633957991 -1.02104642288721663e-05)
(6.53562892992035801e-06 -0.100582412984040082 -9.04675972118904615e-06)
(6.5253883052395558e-06 -0.106776228327282882 -7.42684218097511015e-06)
(6.7375495168174621e-06 -0.11644872344017225 -5.88115392997084859e-06)
(6.35535517014856447e-06 -0.12246801176181428 -5.16879492703168103e-06)
(6.17043153408713224e-06 -0.11870038640703183 -2.94730000867167654e-06)
(7.50481782626303909e-06 -0.11653758217019447 -1.77059587643408862e-06)
(5.89473428462605638e-06 -0.134542119257285292 -8.53047891630446733e-07)
(-6.81983575323834163e-07 -0.0324497676254921347 -2.96994328653679806e-06)
(-8.15558398287476356e-07 -0.0462016398297059802 -2.77549836066446847e-06)
(-8.7541422939164227e-07 -0.0549310539776798265 -2.29984323231859631e-06)
(-7.89753826611768431e-07 -0.0614168417353452359 -1.93684776259772581e-06)
(-5.74647409021914541e-07 -0.0626165269217114212 -1.79825092233200712e-06)
(-7.31244683633988778e-07 -0.0578652300300126349 -1.05417959692078209e-06)
(-1.23587400520458973e-06 -0.0602310462676765579 -6.67398951180368321e-07)
(-1.25147890085815461e-06 -0.0833185124456592013 -3.19720146844940306e-07)
(3.55797813630399034e-07 -0.0148563671785851212 -7.65271751791403445e-07)
(5.64959903895261326e-07 -0.022405770788526503 -5.56314032845468423e-07)
(6.25550267765109299e-07 -0.0260352887579558059 -4.35965321239046647e-07)
(6.45974501186787469e-07 -0.0267131044878251601 -3.02768090284416522e-07)
(6.31380931216561518e-07 -0.0268676766584923579 -2.41487817716244915e-07)
(6.1356839546528066e-07 -0.0275970434828728024 -2.14837306544486945e-07)
(7.1123965436922412e-07 -0.0301735305178237635 -1.76935677004326892e-07)
(9.54899381892774141e-07 -0.0343166866567796366 -7.6674687397324924e-08)
(3.13546020091282213e-07 -0.0099134579101088291 -3.38085466741414446e-07)
(4.4649935112600786e-07 -0.0136603584290635374 -2.75646133731706511e-07)
(4.98439992866178518e-07 -0.0154841274521012005 -2.10268147093501047e-07)
(5.1966081184586956e-07 -0.0157182276511987143 -1.56261733693792151e-07)
(5.29647818264093657e-07 -0.0158203349972346925 -1.57315719164444423e-07)
(5.58590232181426486e-07 -0.0165253216808862562 -1.60860786660138242e-07)
(5.79461151182656747e-07 -0.0183304217311834952 -1.34102906902663526e-07)
(6.24440608263086032e-07 -0.0196526930064947827 -5.07575476802677852e-08)
)
;
    }
    procBoundary1to0
    {
        type            processor;
        value           uniform (0 0 0);
    }
    procBoundary1to2
    {
        type            processor;
        value           uniform (0 0 0);
    }
    procBoundary1to3
    {
        type            processor;
        value           uniform (0 0 0);
    }
}


// ************************************************************************* //
