/*--------------------------------*- C++ -*----------------------------------*\
| =========                 |                                                 |
| \\      /  F ield         | OpenFOAM: The Open Source CFD Toolbox           |
|  \\    /   O peration     | Version:  2206                                  |
|   \\  /    A nd           | Website:  www.openfoam.com                      |
|    \\/     M anipulation  |                                                 |
\*---------------------------------------------------------------------------*/
FoamFile
{
    version     2.0;
    format      ascii;
    arch        "LSB;label=32;scalar=64";
    class       volVectorField;
    location    "0.540000000000000258";
    object      U;
}
// * * * * * * * * * * * * * * * * * * * * * * * * * * * * * * * * * * * * * //

dimensions      [0 1 -1 0 0 0 0];

internalField   nonuniform List<vector> 
7248
(
(-0.142767992916870534 -0.636896854748819852 -0.464053119500758948)
(0.155762141369130608 -0.0554535970939591671 -0.491860011513709117)
(-0.0843697329220310654 -0.863772387931498908 -0.239550989040218099)
(0.206655810484399738 -0.762159214425700671 -0.323350965686372616)
(0.103681820808867814 -0.485400502588886951 0.0629389336295449742)
(0.382518322376236286 -0.673376998739880439 -0.283077420298050109)
(0.22343112833234699 -0.400985825205271929 -0.243884453912374372)
(0.238890530200917883 -0.471006994858300387 -0.20109517825944781)
(0.113382120574990627 -0.99162823018025037 -0.285775466676924383)
(0.331758262040731167 -0.0963868150515407585 0.304362459029033805)
(0.307559110122785806 -0.23391774701433754 0.115602589580570736)
(0.120694610695267796 -0.202647478973470185 0.0175624197586143095)
(0.352414330802060194 -0.539831491739783953 0.0161424602717433058)
(0.51402575944473039 -0.554372439983869425 -0.0945934257285410279)
(0.592959456424075437 0.075863749829380725 0.396769274851105358)
(0.594728602237318604 -0.133909155657969486 0.344630409787931524)
(0.644163793211363522 -0.414183722004418109 0.2758458879419593)
(0.707282483266008954 -0.615829469243143635 0.14395667854390784)
(0.735002503941208585 -0.591455097175623834 0.0139617838150870414)
(0.486877706830356971 -0.00936490612226723723 0.367836111651554054)
(0.592796874008792885 -0.102808580427717455 0.362561442306931103)
(0.672639041318644271 -0.24499623604557072 0.246061408263270609)
(0.717227168020147521 -0.386509001589611656 0.0988319504453332859)
(0.696738393359938923 -0.519218585763274176 -0.00605107733490647948)
(0.388784944339324756 -0.194581244736988818 0.248609454941821933)
(0.529195028695999881 -0.236113186223241039 0.214899729582559457)
(0.621211601414923931 -0.35750081517531207 0.13568097739553045)
(0.659352138943163135 -0.491503675893778302 0.0792153940728614059)
(0.678135041205825018 -0.584400861893199952 0.0581898905746297823)
(0.365936875673873674 -0.30953896169976497 0.126750457809788525)
(0.45114370733430903 -0.365875946829574805 0.119860137574572742)
(0.51257153464653471 -0.450730175232885444 0.0980706328995322174)
(0.546651053160373546 -0.538367142855222136 0.0790511494212822186)
(0.562511811616484336 -0.619521699551453642 0.0625518369285098519)
(0.317986101692269318 -0.372292107444359532 0.0738135947414396559)
(0.370861029344420445 -0.417121776948879364 0.0763358858041785909)
(0.41281219582973977 -0.481767449302030748 0.0734830322018016346)
(0.444624916242777446 -0.556819112231452973 0.0702905957112051893)
(0.457001578447154277 -0.636424527848961752 0.0672976730128325706)
(0.266546848665696723 -0.423861829477565288 0.0554082303838256476)
(0.303615674774030675 -0.465247361583612684 0.060120545010773116)
(0.334191991167657743 -0.51768934398746802 0.0631580245452267042)
(0.359265897320696415 -0.577144636157494562 0.0656408457185535671)
(0.363864620186243826 -0.644934348329075369 0.0676469835498526711)
(0.220243084150437196 -0.460958129728186061 0.0437599046725627855)
(0.246818314538910177 -0.496616014161817276 0.0482224623638948385)
(0.269517851461094193 -0.538913857350896253 0.0528338204876954709)
(0.286993603687261234 -0.585926552826665836 0.0577103100922159509)
(0.291931704146296156 -0.639031820375396964 0.0639538468551540951)
(0.176710463996109346 -0.488697099228606935 0.0350619660741626829)
(0.196435739771567835 -0.520972342040847636 0.0395545979708796513)
(0.214557134551812911 -0.557182968215903074 0.0446109370075353576)
(0.229678079915801026 -0.596213201108862889 0.0504357495445827975)
(0.239750286013875713 -0.637239864018795732 0.0571399360081242813)
(0.105884171358252302 -0.457823444052239459 0.0212744479401043608)
(0.12047618393557219 -0.481543939988426983 0.024048449784856242)
(0.135394638076318297 -0.508819969621059798 0.0275378651450807546)
(0.150329801862813361 -0.539591945285405994 0.0318461007274564584)
(0.164978043536257973 -0.573414762961108382 0.0371525285388824081)
(0.179307157912353327 -0.609536291198147562 0.0437116635382938171)
(0.193954518043891438 -0.647115107593184802 0.0517013578326643089)
(0.0752831913603985159 -0.472505424256023709 0.0151634820311539863)
(0.0853594124858083059 -0.496433061730124081 0.0172799120436940359)
(0.0957160234692189943 -0.523515534404197291 0.0200455976541942041)
(0.106304019256217519 -0.553796832920268933 0.0236962154917114975)
(0.117126903063040355 -0.587164429639881802 0.0285485315465168477)
(0.128470731447125314 -0.623389705316644505 0.0350536083902043064)
(0.141372573784683542 -0.662203005326521432 0.0440285047792396203)
(0.0450755253803995504 -0.482340139286157599 0.00899692609817588813)
(0.0509879630676787279 -0.506289873028441639 0.0103446007553417724)
(0.0570825877428623035 -0.533324566086166629 0.0121614692437438734)
(0.0633773403832636889 -0.563493107825766004 0.0146109251596230321)
(0.0699135950157259434 -0.596842950955963847 0.0179406617836858351)
(0.0768919416811257722 -0.633451687449028356 0.0225172662170672333)
(0.0847678640200332928 -0.673425729677955442 0.0288581285023543806)
(0.0150489292220149611 -0.487317579889825325 0.00299770768580791833)
(0.0170197622645546325 -0.511273524545432623 0.00345717752253704323)
(0.0190431006207837927 -0.538253157016556072 0.00408337618842194959)
(0.0211215407893169116 -0.568319924053253045 0.0049347161821408931)
(0.0232709368910763333 -0.601561398231420852 0.00609435504364050709)
(0.025544315263158264 -0.63810987203265479 0.00768805514502281413)
(0.0280262088934483469 -0.678270211250876498 0.00992883741455672167)
(-0.0380848806025406716 -0.340071201246895494 -0.385425015733313503)
(0.141712937682795109 0.0413923358356501903 -0.401825201361860562)
(0.037303221634880035 -0.850432281181452865 -0.204163145903994592)
(0.205889723026489085 -0.560280067080419331 -0.267551306227575725)
(0.452825672196243367 -0.640007702352267671 -0.0524242645968447385)
(0.492463046351955147 -0.889917694524614 -0.192178416816308872)
(0.0793786479668159989 -0.359249565668797066 -0.345840687030474547)
(0.230569740741334989 -0.282669044304310835 -0.228867623167209239)
(0.0643435513704667394 -0.949184917227702707 -0.151285814987673572)
(0.44156978194350921 -0.370843098794946646 0.176633345185556984)
(0.350877153089724336 -0.481022199920168703 0.0384903628756134084)
(0.280373867474996041 -0.258335696552059346 -0.0027776591121656119)
(0.600537264489201306 -0.609522784027129783 -0.0179983644300820873)
(0.646648792456094301 -0.77465556024409099 -0.0584995717140214394)
(0.577006817285660722 -0.182797646396404612 0.311951610994101181)
(0.612495501156678057 -0.282760395031926237 0.26142615826333826)
(0.666790685136095851 -0.437209475024699201 0.160319072254491879)
(0.764447493338834883 -0.554895463858054327 0.0551982965398173375)
(0.807425791873521703 -0.575496764061883659 -0.00465086150093162523)
(0.449350892149456504 -0.276102032545955556 0.31213829720623637)
(0.581083855078363465 -0.313137633498565049 0.282146046891980751)
(0.671267554172135794 -0.365136786597333174 0.187230120642574133)
(0.723804314260999226 -0.459481036791587083 0.07927618053172103)
(0.692494457454956858 -0.572369104785214189 -0.00574098150633089999)
(0.392972701253368029 -0.301188552453932112 0.203754809025055217)
(0.504568384143951776 -0.348847425796718569 0.183181070459610712)
(0.588979152816023643 -0.420425795193281882 0.13069998275029221)
(0.636836411932730551 -0.50472726185547967 0.0862186967438083596)
(0.671856403941294533 -0.5697832998033876 0.0624830474554402063)
(0.366139669517039079 -0.33158906085561568 0.0996451262868713605)
(0.438521728891516915 -0.388499059362798771 0.099320017314516007)
(0.494375278670529439 -0.45755439277538984 0.0852439004959787971)
(0.531696441352194293 -0.536038092480787709 0.0703083540730242013)
(0.55447407497813217 -0.618261206696992138 0.0564344172951894082)
(0.324293949359373612 -0.389418228921260101 0.0634554997147025596)
(0.371699294610437547 -0.435673587490535585 0.0674104326783625529)
(0.41130334024506815 -0.49331070221377521 0.0661022383251954476)
(0.443546556194473529 -0.561356983127308085 0.0641226814765636782)
(0.458637288878132376 -0.634423882979974207 0.0604179586905937566)
(0.272983842631739526 -0.433830632664048199 0.0499710702268558321)
(0.307129701939728328 -0.473573772321341679 0.0545083375739326206)
(0.336430916423811066 -0.523101773945500503 0.0574198890362134021)
(0.361794069838426269 -0.58011954833264523 0.0599528911578846857)
(0.369352991922886009 -0.645190966661176479 0.0611910444085787542)
(0.223805664227720719 -0.467237180035504962 0.0405549343742160895)
(0.250283607834480393 -0.502878639201922883 0.044463860978114382)
(0.273295872986648647 -0.544419897337011793 0.0484855081853489134)
(0.291999983793094275 -0.590458150215253053 0.0530273850676936387)
(0.299405999359896868 -0.642700356148572904 0.0586352200046675598)
(0.180088953868097784 -0.493645875038368265 0.0325678296070700743)
(0.200294599238788257 -0.526085716974708739 0.0365120149389211376)
(0.218957041319390228 -0.56199966415790914 0.0410079793039071702)
(0.234996621007753842 -0.600510385094540911 0.0462301708557240482)
(0.246073751684611763 -0.641554936483733962 0.0525239211944730222)
(0.138645886319116507 -0.513548175134583618 0.0255926691320196992)
(0.154286373618551298 -0.544456145591079688 0.0293966938024674343)
(0.169897259378585241 -0.578270884491393966 0.0340903147638907666)
(0.185388452092177997 -0.614078844817461778 0.0399231495885946641)
(0.200649529768979262 -0.651132901152442378 0.0472727828745134956)
(0.098395575853086531 -0.528278092934621912 0.0186169692592895834)
(0.10987549972670832 -0.559134035227071946 0.0218719223774819088)
(0.121949087241486509 -0.593094898597466891 0.0261893816962267822)
(0.135037452730755597 -0.629880372664777366 0.0320548594180395802)
(0.150421853928713489 -0.66903260340837678 0.0401256399158888624)
(0.0589048683111205104 -0.538410312494617127 0.0112759323318548897)
(0.0658422604086473656 -0.569456818204018611 0.0134564739438038754)
(0.073303256700282482 -0.603958602769889774 0.0164222856197632841)
(0.0816194308184017142 -0.642096859279139287 0.0205487055654378047)
(0.0916232866768807303 -0.684071718848813015 0.0263310672695748205)
(0.0196680865685829251 -0.543489828838035094 0.00377880972127011584)
(0.0219707032118161699 -0.574598673014334538 0.00453134856044044507)
(0.0244400276042772494 -0.609242519182329412 0.00556057711486322888)
(0.0271690381511652951 -0.647718408832542392 0.00698616375589805258)
(0.0303341736409081762 -0.690546344457723116 0.00900699740170933516)
(-0.0258588929408821167 -0.121152017737067408 -0.356282585978714317)
(0.130754627128354617 0.0976099616707807871 -0.331390150133077765)
(-0.198367477791128649 -0.9081356209118151 -0.159424045363248557)
(0.194089663814668578 -0.477149777076662951 -0.196546440508553466)
(0.66844398994708909 -0.77888335758949967 0.0360257615310023635)
(0.702194691585091069 -0.964532457678217048 -0.0890210052643786581)
(0.241365543883411471 -0.46668004555149134 -0.225885174863461269)
(0.0215469225093647687 -0.30663065350950186 -0.214310146908643112)
(0.176657526158427891 -0.724457555922649377 -0.151445101279523292)
(0.496563883323267063 -0.631995057293529783 0.067942620278124477)
(0.511441480089088407 -0.644753919018678401 -0.109129237540554785)
(0.661115830075232225 -0.334903781508350817 -0.225254490372368249)
(0.73432750454142548 -0.522095758252515529 -0.230385795178258745)
(0.63294852745446184 -1.10511239520336679 -0.0537695812745097451)
(0.51269726396555293 -0.347702215962294447 0.227820159200752353)
(0.565054065716688037 -0.423274879416633665 0.15787511172502855)
(0.657291993118102491 -0.475595268812228689 0.049605064968853585)
(0.789854585914329221 -0.552359742232019002 -0.00480864617147948488)
(0.923080028002659869 -0.572656366304569286 -0.0364973216708265116)
(0.4178694092152202 -0.373321675580239931 0.195537350917410757)
(0.532430006628550445 -0.423491451536912311 0.173827237316693306)
(0.625413448673056593 -0.446705162292036329 0.123385835374740099)
(0.680249614418406812 -0.49395957843262861 0.0662834286455861038)
(0.687125862866662995 -0.590905773668575218 0.00224944597195715287)
(0.403031232596180344 -0.300962940508370635 0.0983763867024307764)
(0.488848742940477754 -0.36915582361948146 0.104764810142805129)
(0.558065995786791391 -0.433709156823911479 0.0847934461112131999)
(0.614623930551564723 -0.504631967777720347 0.0628312675600873477)
(0.648861901883407421 -0.564834560985334577 0.0453011885526647812)
(0.376101220136419279 -0.342461508951970361 0.0559852433512085593)
(0.436748871568025443 -0.403132284486328929 0.0671553080011763059)
(0.487614661009601713 -0.46617262649111213 0.0644654195328858703)
(0.524677856470116999 -0.537207850703495082 0.0580238774180944217)
(0.551396800686730137 -0.614143783800710441 0.0504540280615564524)
(0.329857461738358504 -0.40066208335182707 0.056465141391170641)
(0.373037460821647404 -0.446492641142981039 0.0584518855270388313)
(0.410507107379772918 -0.499717336153155889 0.0574570844197686073)
(0.442547452876847325 -0.562383289288210575 0.0570504855676936956)
(0.459887983587344396 -0.632328864024849668 0.0549044377386357224)
(0.276424147066345882 -0.44166259554444981 0.0450746032956873058)
(0.309504588762259003 -0.480743814403104874 0.0478761067175836261)
(0.338741870025129399 -0.52764785852441487 0.0502760824904506867)
(0.364230016971228532 -0.582274360974150418 0.0535116924720340087)
(0.374842878135862256 -0.645231939142970057 0.055636274466069148)
(0.227069451535122396 -0.472867531088108861 0.035858756913690136)
(0.25348119471025865 -0.508361927020439697 0.0394301704015717416)
(0.276862756128218201 -0.549024593420500473 0.043161179920709114)
(0.296571416830655521 -0.594127519213290434 0.0475821154890095979)
(0.306399775754748027 -0.644959647840636752 0.0527086078034992023)
(0.183088237616665844 -0.498137234277763963 0.029260191199300397)
(0.203712817496390863 -0.530565249597983568 0.0326435315435824672)
(0.222918796171707956 -0.566260041619802701 0.0366279259542765107)
(0.240041479110173372 -0.604142240892910687 0.0413408105112217927)
(0.252091912208200319 -0.644506845276926033 0.0473796125327362663)
(0.141456705038428665 -0.51773139075621033 0.0230051366467678466)
(0.157801588245994023 -0.548772827482845615 0.026274699834910497)
(0.174325010736910868 -0.58256413684819075 0.030392050960322374)
(0.191031847903165714 -0.618153707035363098 0.0356189554913111731)
(0.207265991123581128 -0.654796095419731938 0.0424930031418203069)
(0.100784798595882352 -0.532617218939543946 0.0166730940340540298)
(0.113066231534559525 -0.563923461705047702 0.0195118627991403386)
(0.12627239765269696 -0.598365824371773103 0.0232989971010622854)
(0.14097187536309766 -0.635621152448024973 0.0284893373252181926)
(0.158750548944885272 -0.675206209266255075 0.0357328845336772477)
(0.0605002081806081254 -0.543027773167089389 0.0100982724289804052)
(0.0680221805935686819 -0.574834821756718517 0.0119825673699583465)
(0.0763274147347532128 -0.610339887761002675 0.0145708817263985116)
(0.0859001183931720896 -0.649813653298546345 0.0182101481437187511)
(0.0979228420381865333 -0.693511642131735773 0.0234021919096829671)
(0.0202177588213535361 -0.54826162093860753 0.00337363528420494933)
(0.0227244286170739801 -0.580270944468541994 0.00402118417058839467)
(0.0254832434414813923 -0.616146630419496244 0.00491470412301311943)
(0.0286333409873403659 -0.656327885846036296 0.00616539648822826778)
(0.0324548120330253945 -0.701554318778389474 0.007963878985510979)
(0.0131076234459270718 0.00343936855128956775 -0.270830224728714375)
(0.132271203813330296 0.140141982894396833 -0.25650014214589445)
(-0.252470366065303042 -0.94146878813443946 -0.0699578076569518092)
(0.189504730090920281 -0.40245255476083075 -0.162128605203794157)
(0.936683850305156884 -0.488128153046506363 0.07841398029191958)
(1.07381315160888224 -0.680065992442068779 -0.0401007187331732587)
(1.06259924995722743 -0.61023048118442702 -0.0218331739890743823)
(0.325840257807531897 -0.0305528216563227539 -0.0268063066850101374)
(0.199450968420958885 -0.545901266250655159 -0.0565996585635184513)
(0.528566549768058391 -0.475261088075299265 -0.106133266664787701)
(0.588020065607358089 -0.364785259968586462 -0.308988409277810072)
(0.54508671131079145 -0.0445733514835711039 -0.282354136932943867)
(0.493991656243607358 0.267091282013286246 -0.173705325897035967)
(0.562556887897577074 -0.761243623622133159 0.0354797890372843538)
(0.432310432205799622 -0.28831799957437465 0.0113534359472896775)
(0.496101156499614948 -0.390818894429615371 -0.0554977584504476387)
(0.602104775941574966 -0.395657464597367503 -0.0926383405847578667)
(0.680461640208915752 -0.414144109982053421 -0.0644533372731941057)
(0.929425665006007762 -0.54738506403069187 -0.0127398644570603167)
(0.419216176946684949 -0.272199198976031842 0.0578107410945391392)
(0.511035444090756186 -0.351579451563716505 0.060729818931868379)
(0.602188530949569922 -0.387090213299971952 0.0515884662091052326)
(0.637713136752424137 -0.44206486984951654 0.0200726202259828915)
(0.695993297929355825 -0.528022916254599517 0.0133489277100437564)
(0.425560313854562444 -0.258773341944321111 0.0299066707709028587)
(0.49493351395373919 -0.349436409177511398 0.0434168853206937447)
(0.55724431365930116 -0.416096533640149202 0.042911612426705173)
(0.607429156672047443 -0.491489831603273974 0.0486633114271644296)
(0.655438173388505629 -0.547723665994910291 0.046441495653177102)
(0.390561479583916848 -0.361175603743363882 0.0486834918092338836)
(0.440756639830071406 -0.413218310112251241 0.0512278163243025594)
(0.485752786819716176 -0.46874898164726353 0.0496489288863200678)
(0.52279945618395085 -0.535762999456639299 0.0468854111373912114)
(0.546494563075458739 -0.607738221541874069 0.0421414115833062264)
(0.332261175017256549 -0.407835859144276613 0.0480044377361657226)
(0.372440832794488086 -0.451807708034358546 0.0486312358675204601)
(0.410046364259619378 -0.501872715887801024 0.047900003969541867)
(0.441426412964196491 -0.562574282415129856 0.0495736643576199648)
(0.463584953596047955 -0.626792002195658893 0.0504120571346779248)
(0.278238122224142792 -0.446058389027868429 0.0381754298399629918)
(0.311402566014223836 -0.485593843957841664 0.0403254271365022024)
(0.3414335516474582 -0.531272768654039385 0.0425152288110579868)
(0.367244604221925952 -0.584613183345448317 0.0466094275857848947)
(0.382360525954611452 -0.643576775342512897 0.049974375675964515)
(0.229853434295911346 -0.477469502130227264 0.0306976257806738581)
(0.256502229504159573 -0.512810810623246516 0.033638057517785612)
(0.280350598647850668 -0.552856150902091614 0.0369689327481060523)
(0.300962276791924277 -0.597605792889137843 0.0411215475421635238)
(0.314062635751437003 -0.646533315532357156 0.0460050273121941702)
(0.185651692095522208 -0.502091318751218596 0.0251972950868679137)
(0.206676232874468568 -0.534342644979299619 0.0279832581089738963)
(0.226475463948752453 -0.569827201091902436 0.0313731348253632331)
(0.244736679863316237 -0.607513041020876998 0.0354696956028460533)
(0.258248556183866829 -0.647395715722036025 0.0409567466786815368)
(0.143755821093856984 -0.521286903362760068 0.0198129396705271806)
(0.160800898011498883 -0.552470017528205126 0.0225195502096825553)
(0.17821587562408947 -0.586253039200800852 0.0259901934376892997)
(0.196189380982377148 -0.621645572391945067 0.0305013043445587946)
(0.213643293083867092 -0.658032350450923564 0.0365386289164572331)
(0.102837346969648441 -0.536435637340654359 0.0143232529749636375)
(0.115817544726875485 -0.568079701611418852 0.0166848345164666151)
(0.130038086514687012 -0.602903693729362367 0.0198852254477803504)
(0.146253968125240275 -0.640537033166472924 0.0243287507165141914)
(0.166064859038255325 -0.680456049168659094 0.0306530468327017233)
(0.0618464782229089793 -0.547061371334929936 0.00865727959519300462)
(0.0698903163397339572 -0.579508111703890938 0.010224375663108522)
(0.078955167744624466 -0.615866419946786481 0.0124025249471989962)
(0.0896697529446002367 -0.656466345304473231 0.0155174358753742796)
(0.10357829155358983 -0.701665788299972393 0.0200404844864141771)
(0.0206842974656926901 -0.552436723843131028 0.00288348566111706331)
(0.0233689452057023253 -0.585208593456735593 0.00342015877809909597)
(0.0263840145777477601 -0.6221411558771901 0.00416534617470461048)
(0.0299190982065057481 -0.663798548998831506 0.00521978210050533242)
(0.0343720011140005929 -0.711052978632904842 0.00675800445772436163)
(0.028641552986415228 0.00122786091583862444 -0.188013408757200712)
(0.128738816040409848 0.157272912909761586 -0.198807339705805025)
(-0.070347897522052949 -0.646593466812714457 0.031115939546699941)
(0.17257732354454261 -0.31791469696810537 -0.111564142934950178)
(0.68557958663590246 -0.294707388730859221 -0.00600449769152072276)
(0.776234989336421211 -0.507575651233443947 -0.198815112513695047)
(0.813778238364402662 -0.454468421841927206 -0.128981244348542856)
(0.414014953232804794 0.0415033951275844415 0.100783521869019149)
(0.21571523257834016 -0.553299832318037588 -0.0604932050059800996)
(0.652633800833254951 -0.0826226219840028586 -0.105896923546121138)
(0.636770991580421164 -0.180485701804826482 -0.255615663175938479)
(0.340671704506070094 -0.00603519004284552851 -0.259916144571050112)
(0.248871860037561621 0.185151426373149519 -0.134698462377941336)
(0.350189549809006073 -0.384190904104702358 0.0122788190481908609)
(0.482097851229997432 -0.0987681544976747039 -0.0751028731782153181)
(0.587176738782729357 -0.222054751160129155 -0.0584079708678454934)
(0.582193411891151591 -0.199656308259182291 -0.0641174442447249304)
(0.725948166838823683 -0.44978798372346801 -0.0364548218090562648)
(0.935219221315621851 -0.721104185402144493 0.00619589362477474676)
(0.464188341246652925 -0.179426792497147075 0.010420627322414262)
(0.527976010567921761 -0.271658175020072279 0.0181887938844089783)
(0.62247722009017048 -0.364252787359165442 0.0410757224881294555)
(0.618799477921729402 -0.489401945111043957 0.0432299608756224821)
(0.655382132255367567 -0.624354340595272284 0.0509478882893247831)
(0.446275866333674442 -0.294905638312149054 0.0433750599799822417)
(0.503276209830175292 -0.35605905640604929 0.0412912251049001797)
(0.564218067434891224 -0.402932626857116671 0.0418659091881975476)
(0.618024761381576582 -0.467988396793302841 0.0472484515695096585)
(0.6943525670299181 -0.531820083348825356 0.0498470419398676784)
(0.389555296504180526 -0.371815357260775747 0.0501268410438229089)
(0.435606599313125509 -0.417687486137848285 0.0454592833715747532)
(0.480019113206933801 -0.469238114450085508 0.0415973768105406677)
(0.517193471151362827 -0.540654666739377676 0.0424284443435713893)
(0.542542336497900957 -0.609774710434577316 0.0408770349644364747)
(0.332142792799175968 -0.412761114449262112 0.0385639484646194131)
(0.371646791350490557 -0.455606664623849855 0.0384332929736077578)
(0.411133759049610525 -0.503749253443060874 0.0386524689479053676)
(0.442038412186909591 -0.564011725593283053 0.0413691816690135994)
(0.469058587904464752 -0.621235646367772953 0.0446982682615924901)
(0.279751172152805039 -0.450334225294545865 0.03064699126947764)
(0.313247727515742036 -0.489524354959347485 0.0324649683653862389)
(0.344433412220889856 -0.534161594941551132 0.0347612431162996616)
(0.369900348301387183 -0.587600363961875649 0.0391067784029365678)
(0.389894259994150394 -0.642589159500892015 0.0451919549598081699)
(0.232037389688896672 -0.481221880942736435 0.0251410800522624475)
(0.258994792012606112 -0.516326619814468035 0.0272898718949102816)
(0.283352539127881831 -0.556064658106139698 0.0301374275496473464)
(0.304533926733428328 -0.60087007802331871 0.0339846267355902731)
(0.32014496071000792 -0.649302940959502473 0.0399443648465946446)
(0.187611481740855207 -0.505189455061788695 0.0204494794199164692)
(0.209117405742243689 -0.537343234382814283 0.0226299263460969409)
(0.229445871139523527 -0.57272982236051917 0.0253619066656151915)
(0.24840840233819439 -0.610389964131574203 0.0287840300914731055)
(0.262663905568623679 -0.650881470590852218 0.0335512361151854357)
(0.145630553755965092 -0.524265781162200684 0.0160416522855374132)
(0.163269307912775941 -0.555510178432983226 0.018162144957238259)
(0.18146436967296295 -0.589248309251720337 0.0209018451482048777)
(0.20046235270606319 -0.624479025638319363 0.0244632772872719687)
(0.218735306108019112 -0.66042486904861919 0.0290562278034816115)
(0.104487907660015589 -0.539568392668452246 0.0115995231333548814)
(0.118075595736415073 -0.571494364413166256 0.0134516187737000817)
(0.133200010598862661 -0.606629018519279972 0.015985753325119513)
(0.150739296379920062 -0.644494763735053544 0.0195121313085870676)
(0.172195076673771486 -0.684470457827704881 0.0245226291299126889)
(0.0629362096212083832 -0.550421148896228729 0.00698423214908806215)
(0.0714213759466714032 -0.583381145064630902 0.00821768029511028147)
(0.0811493993235456457 -0.620417419833840911 0.00994627690157639383)
(0.0928451651587166443 -0.661931489138912199 0.0124560747512051893)
(0.10848008892321305 -0.708360968414537662 0.0161126823851986851)
(0.021059925816644072 -0.555904115750315175 0.00232211493538630022)
(0.0238915519013471744 -0.589300034785259275 0.00274107900877266619)
(0.0271221080362784167 -0.627104782438074104 0.00332510457536925805)
(0.0309834117393973721 -0.669982657747645649 0.0041514151121547745)
(0.0359855039583156094 -0.718847145523691999 0.00536073886751041451)
(0.0488310927925569432 0.00662441872548436006 -0.135431675798881934)
(0.132748940544111071 0.16430206864484892 -0.138505463614989638)
(-0.250248187410181455 -0.576401241725046365 0.0667357969741834978)
(0.15929358907492211 -0.27292007880669511 -0.0633578687975486915)
(0.51216934903274125 -0.546619983072612281 -0.247301723616140834)
(0.509220333053785335 -0.531697918435856676 -0.254242721120582493)
(-0.255928677504565494 -0.0464356504060781453 0.0780197822758437465)
(-0.243951458938029747 -0.23310502539150954 0.110830202973975112)
(0.123567841625260355 -0.825220871678001067 -0.0141673050548913968)
(0.585708128636621028 -0.0891589066699112198 -0.10607931297789111)
(0.504570790171917527 -0.114460558258433209 -0.189731986100126204)
(0.167078084229057983 0.025563436378330924 -0.0305450775749919468)
(-0.388039112869769554 -0.208204304359535741 0.111215843439862114)
(0.278799274965849886 -1.32601598985236957 0.11569035516332539)
(0.514608713885021718 -0.167276311587730653 -0.00114876844618517354)
(0.58440742377993149 -0.185210038254127102 -0.027602434755619621)
(0.651861250481447274 -0.151115231847958414 -0.0609147878492135447)
(0.952916403514733279 -0.327738880867219029 -0.0252124717801132173)
(0.954626307124209705 -0.789088344035175804 0.0406190531384696824)
(0.477887461559347304 -0.262190750753281132 0.0435325379553721942)
(0.537547464775082307 -0.303825597060206565 0.0267164614910529175)
(0.607324781882062958 -0.385067727236531543 0.0453673271123831226)
(0.696619709980280666 -0.527625853411342938 0.0622881318752376845)
(0.683425749327117305 -0.645090624425749493 0.0492452186907496245)
(0.439031214979625828 -0.329947620474155212 0.0480635536390310036)
(0.497539640596205313 -0.369355247494874361 0.0368839588113359582)
(0.559255940382443084 -0.419892688810222015 0.0319501810894357516)
(0.623734341125429914 -0.486329943201138259 0.0198003762390838445)
(0.670965655238204173 -0.531498112222471675 0.0101337432218242887)
(0.38451642197933128 -0.375051298922080112 0.0382189636516258174)
(0.430491365190923958 -0.419487872143824325 0.0339094394802935267)
(0.480238684593718546 -0.471312017522591997 0.0309758463388511776)
(0.516222494667011533 -0.542377236864107548 0.0343852034123439954)
(0.557901573651610416 -0.615239764740151518 0.0345903642411231615)
(0.331339809673170782 -0.416726703745261717 0.0282669607046833367)
(0.372151140643620482 -0.458727627167631158 0.0279010720302137367)
(0.412141830426443534 -0.506693321421669229 0.0291519078412577626)
(0.446795311937895345 -0.565932734650986036 0.0314573942985758789)
(0.473298743898670105 -0.622025868874772514 0.0354083281328060259)
(0.280968544855794367 -0.454506309426955524 0.022961392217799817)
(0.315059572623282547 -0.492731186638637408 0.0240475654784656385)
(0.347532913006240507 -0.536879297821425627 0.0263251340485798555)
(0.375033037900648014 -0.589075107476166315 0.0295191971834873335)
(0.398612681992099815 -0.645128656951465373 0.0379585587070147279)
(0.233427455788526861 -0.484152086028341422 0.0187922678252630225)
(0.260938703341448308 -0.519086807664130179 0.0202830122166087444)
(0.286009909011664565 -0.558882952093177177 0.0225851868848994143)
(0.30918796375908919 -0.603817747075476641 0.0255896440242165679)
(0.32616017406138309 -0.655099725421903645 0.0326593580457417501)
(0.189002707702430384 -0.507637165487824227 0.0151645994032534835)
(0.210979145955958514 -0.539743436158581558 0.0167288956614956991)
(0.231793225052619845 -0.575208262070972531 0.0186714438102408634)
(0.251558925032129066 -0.613196706049299767 0.0213696542683921784)
(0.266216147002891368 -0.655390542421494415 0.0246055742219234604)
(0.147039321007472912 -0.526580783117519879 0.011840465055045029)
(0.165126929410330747 -0.557834804401065476 0.0133543731879836799)