/*--------------------------------*- C++ -*----------------------------------*\
| =========                 |                                                 |
| \\      /  F ield         | OpenFOAM: The Open Source CFD Toolbox           |
|  \\    /   O peration     | Version:  2206                                  |
|   \\  /    A nd           | Website:  www.openfoam.com                      |
|    \\/     M anipulation  |                                                 |
\*---------------------------------------------------------------------------*/
FoamFile
{
    version     2.0;
    format      ascii;
    arch        "LSB;label=32;scalar=64";
    class       volScalarField;
    location    "0.690000000000000391";
    object      alpha.water;
}
// * * * * * * * * * * * * * * * * * * * * * * * * * * * * * * * * * * * * * //

dimensions      [0 0 0 0 0 0 0];

internalField   nonuniform List<scalar> 
7236
(
0.975319414213647873
0.993479869959593698
0.993221070030649633
0.992437703141858973
0.992481662887978122
0.993316409497198238
0.99417996346858073
0.995051474895282007
0.995793656749935474
0.99629162786987524
0.996514087465296794
0.996503833004438566
0.996387865676787943
0.996136220189201671
0.99569636861051658
0.995099632291711167
0.994403918837780232
0.993617680247151247
0.992777309064568514
0.991954888382432953
0.991063030744016804
0.990095431500589429
0.989144726165152477
0.98812678414900601
0.986895824097625329
0.985495138697782602
0.984071386660791969
0.982497604047997131
0.98057499620837274
0.978170624261718302
0.975673532017353295
0.973680067748663558
0.971627668753121121
0.971388669201523225
0.971616390202586722
0.971526613814245654
0.970867821736331571
0.969145221955967306
0.448851410843539467
0.717757377656784934
0.961869642244084888
0.961631509417188335
0.898041338627964425
0.878746503639915355
0.898129835320178982
0.945313018109534386
0.988329217947448546
0.990845473340289162
0.992633913025346759
0.993749797015323955
0.994239911948670896
0.99442656447354083
0.994184154363233819
0.993662305771763066
0.992987336805913889
0.992163106945055606
0.991229792227227846
0.99019675872409596
0.982945964087146851
0.975091851318727221
0.972161694129928144
0.967407503120994772
0.937035800722143652
0.942622418193519218
0.954399021777604828
0.968163170257339001
0.900061549778444325
0.909481548858305677
0.912743025765942795
0.95563011770256967
0.914967122991313442
0.838189980333986062
0.858064174707132143
0.978720721828672424
0.973190591821179396
0.967090388208482254
0.235991735669386971
0.302671699157014695
0.587902955012504558
0.684011903221191098
0.655311785837265681
0.553916550791608175
0.558854928561881348
0.536656499753058402
0.612586025943512191
0.654016105879803744
0.763840483560896621
0.814015224645974422
0.852828580826452409
0.864714708133619503
0.887030522516478293
0.838790659221148815
0.835807204778820201
0.710079688036349133
0.686600438513983558
0.700216198237873955
0.645066098630079687
0.399764977991035275
0.42045602626736911
0.459270945253512197
0.556980154600276278
0.192819211123242573
0.169372453803167677
0.1855036264687287
0.403511483515114122
0.0481951020943377217
0.0894699554824397725
0.0992551348457176574
0.216603411901306719
0.0109500280290820914
-0.000882981493141577617
0.108211613875454721
0.836676581573274736
0.954451233881668637
0.260330793066402721
0.25716253231091718
0.0699682480196939516
0.036863477835390214
0.0255408995644288012
0.0218944882082847334
0.0185228294718333755
0.0143334879491498948
0.00984237013384085639
0.00662827517468308515
1.96840652298621577e-05
-0.000902509747606890581
-0.000749370115194616937
-0.00148747422072699302
-0.00154347575388863456
-0.0012064143381818309
0.000153444977840716361
-0.00101681687980596791
0.000961257144050832978
0.00322182328087359388
0.00493560528073864416
0.00345712743769995782
0.00395994516244071136
0.00513720872218701666
0.00408555263451159788
0.00292777979061722244
0.00262329998573567922
0.00217514036807702751
0.00192347276116688068
0.00136890370650932422
0.00106647241363849645
0.00078541127561336326
0.000583002018450486147
0.000579161131384220906
0.00120422203279562583
0.00795423548911063441
0.760210155011733835
0.897548190581092031
0.0986965212865489466
0.0205083006269566534
0.0363314488467594288
0.0213225718073774689
0.0202290752227527459
0.0181866857959225615
0.0180803563836854815
0.0167494699134192182
0.0155478361138234461
0.0137001153562522418
0.014736957010764164
0.0129361288326770678
0.0117540784411281872
0.0116443655955010793
0.0152405277208418934
0.0148074968718552719
0.0112897329510879933
0.0094212468871721234
0.00918182537287798653
0.00825119683435141318
0.00744761593202048107
0.00674172435650014813
0.00561715837936573731
0.00455250676637077457
0.00371280009900042812
0.00292943761813226891
0.00214835556045424141
0.00158848210288834802
0.00116027028873876437
0.000922520062557939105
0.000695078428252197825
0.00054210343292995886
0.000429031197416564506
0.000396881379894560603
0.000538214073338595146
0.0018502915229557694
0.493935837347155515
0.822495453382623198
-0.0030052010649526009
0.0116415663126225311
0.0166525619124699778
0.0119469021677249491
0.0146297226356491717
0.0213767779146670084
0.0285973801872475633
0.0291655577783302769
0.0253300157941788451
0.0233612670890794606
0.0190519620377314208
0.0145611032259957574
0.0128097198783531964
0.0136916181812827692
0.0118997209785403936
0.0092326583465667314
0.00754073574262113366
0.00756932826022134291
0.00895904513409380432
0.00815572597223859601
0.00843344126313832002
0.00591780228614100651
0.00473053000080362815
0.00363900349149317822
0.00300423192466060893
0.00229231485024523158
0.00167733614522790888
0.00119387209857440852
0.000905742750488625417
0.000680752935936244702
0.000516627341105253823
0.000387942232663997775
0.000299650935526496486
0.000298061646928279573
0.000427153802721362411
0.00194191457791421614
0.470872628854021036
0.774146047107685309
-0.00308027732445072559
0.00446663597067781942
0.00642537561809088283
0.010798381171907151
0.023359666017689594
0.0392367984975476869
0.0378486566515448958
0.0353108596434306907
0.0332132005552337461
0.0310925570048123726
0.0285200792383604115
0.0263643440415695304
0.0193118823351932645
0.0113612479250212051
0.0114777426214023297
0.0123518208955029213
0.0161306839231679135
0.0155876625787708702
0.0141390526657211545
0.0129575095424569048
0.0119592149612128291
0.00986108074795132884
0.00449988044404474492
0.00318090472167906202
0.00255554550397315422
0.0019144139432331782
0.0013702931798185128
0.000952623564149833284
0.000642696232489779165
0.000455816453054259853
0.000349759447322150021
0.000278141541112778316
0.000227036284783773508
0.000268731822813074971
0.000181342638640102959
0.00410322195624326404
0.0590810849664798188
0.730232339834169353
-0.000802250423250987655
-5.99337840436667659e-05
0.00395655027371153312
0.01462101261715942
0.0490248420914548705
0.0449040810200405441
0.0412255893466764861
0.0383370083803572098
0.0341467350783699122
0.0303953754068116248
0.027845001964872499
0.0242684602614693171
0.0101738990219191992
0.00776549723689273601
0.0080067372025084925
0.0125096730047354263
0.01573046956204514
0.0147538946808966828
0.0133686831406394473
0.0123850432941240048
0.0132995431889017975
0.0116016328778209762
0.00757959926562697464
0.0031624968664720819
0.00236983748273098503
0.00167555352237638453
0.00105588675858751119
0.000638851218613319029
0.000406424593128972434
0.000283386047883904904
0.000258394731560087851
0.000229096814033947105
0.00019212384563105703
3.29187554541242777e-05
0.000665874115617238549
0.0067323002461813497
0.0376611715171846495
0.703882148090670956
-8.00840348141713086e-05
0.0008515728877513338
0.00432893601706939475
0.0589022064785271887
0.0537477380116525572
0.0494638268128302083
0.0452100592369504353
0.0334863018538410911
0.0214598615560711997
0.0145438543401470756
0.00922141012873369317
0.00585409126551405048
0.00559071345260770888
0.00503209109609027011
0.00544079210330552458
0.0137978805904555718
0.0148848080580285466
0.0136795619085033314
0.0127405870707074965
0.0131358829893564524
0.0113548650086658688
0.00861389354477237225
0.00700567254130165726
0.00246302497497570549
0.00167808776437556955
0.00106879507302935425
0.000638030797597572774
0.000398988598488924078
0.00026513058588566071
0.000216297353329284999
0.000219005712471757001
0.000188246770081075012
0.000181050898568178723
-0.000128127440692145633
0.00318493952026175677
0.00782865420511606735
0.0416827231517211683
0.634690753945829411
0.000799578317072314158
0.00222408413003724126
0.019227296906228257
0.0676381104482599999
0.0609768531111919351
0.054198909322786086
0.0242299150240394209
0.00636273634757103523
0.00458564035232478066
0.00418354248442966495
0.00396479953894347033
0.00386935400851003966
0.00355991198603719354
0.00476317440981517595
0.0121411477401520244
0.0140904222695382997
0.0130842611384356031
0.0123990052203575007
0.0121418384536931719
0.0109314143528711008
0.00871077586225677339
0.00569498443274453741
0.000862343485254094292
0.00239184208342247632
0.0734574789472837442
0.0770476046470129072
0.0669111449001311281
0.0256968092383285142
0.00574388503566832312
0.0041073769972416246
0.00299759925053214114
0.00258639807437796576
0.00254770378467559112
0.00244482137921313855
0.0024971316861237729
0.00819145443677328673
0.011784250674690841
0.0117933237899707048
0.011368903828162762
0.0111810192945000705
0.0104419908631942903
0.00887353673225748166
0.00583145940296469784
0.00564795946166742578
0.000890281298309774814
0.00807518078928469961
0.111320621405691197
0.0894146077288330426
0.0426181602957115754
0.00550252358882048938
0.00396028410971141498
0.00250266728761841398
0.00172631618865908562
0.00154834370106482358
0.00202268093949017382
0.00179868069557484554
0.00154448479011036477
0.00321475337643622279
0.00681442529762958833
0.00971075693565633807
0.00971302743310855157
0.00900645168497609706
0.00698030239288434211
0.00543848163763871635
0.00300288071156763628
0.000947324785378461523
0.000874772056314895245
0.0523496181657228804
0.122651568946122572
0.0914841984823710486
0.00520834274421304137
0.00367752168389669362
0.00247932696437214162
0.00142818878511157162
0.000899680593566655603
0.000832703472867858435
0.0016916314849821988
0.00153248765983724769
0.00154439080796342173
0.00169428982346826219
0.00272587604917098186
0.00356836973799398369
0.00306388422009881613
0.00246985446766855628
0.00308567908178589666
0.00106817157396806505
0.000697830170535378006
0.000659390915031975037
0.000378696586346954965
0.000744219993186145045
0.000943615435467178021
0.00226579564860959542
0.00193147309893978037
0.00136343019797219517
0.00116697255219196799
0.00105962438218954445
0.00110878163161633745
0.000457363337407092193
0.000613265286260097648
0.000975352325675987015
0.00093350044469809614
0.000739845619577201002
0.000643465008677750758
0.000526872117150185447
0.000252731787388994951
0.000299562935638222026
0.000239791841293015607
0.000253331725376163138
0.000147719273155191025
0.000113965856317155419
0.602492232507556791
0.715013560485263322
0.949688468396744812
0.961137134856750452
0.968645772240732228
0.974479348389246658
0.979658200208537777
0.9839642062399101
0.987497274824515658
0.990392634774029057
0.992529945962402627
0.993513116176395261
0.993950464387748811
0.994139984055659065
0.993895034738513483
0.993395321858029701
0.992782109558348669
0.99201161598914589
0.991141436794253705
0.990172627883131984
0.989041305049661812
0.987949864297509084
0.986840738866572642
0.985617196168084186
0.983913905521950349
0.982405777869707286
0.980922974108355272
0.979225732031637541
0.976946636850084982
0.974626231546345201
0.972625190924463645
0.970685409725706827
0.968028778272505441
0.967241112075467813
0.969063858127140909
0.969378192746728873
0.969016062488397445
0.96689989371520535
0.000858766114489019133
0.218387241069943977
0.344503128464526964
0.598484616820536663
0.744312641956525356
0.797464971221850671
0.807709561396027897
0.818354756575653264
0.808809644009149675
0.801465741534531206
0.865553197708547772
0.916367868730458057
0.949660871062542267
0.969350794133580829
0.981598363860130108
0.986607553436784412
0.98370344843412505
0.982876098329765524
0.977601048691539187
0.962624825086186964
0.956569051554588157
0.94369900783305205
0.956570926718602443
0.916132073715739792
0.953324574252419454
0.922394124022156925
0.952082905889313658
0.911166564107912857
0.859151441988455167
0.865083176153162214
0.945853529842839658
0.874201711680536842
0.759483522864726979
0.832279028195685777
0.761007153416251247
0.979932435301918536
0.971481732814824528
0.964071950952947843
0.000449781042005040676
0.032384765283475038
0.0625049207942416085
0.0662311034354359784
0.0345741161949017911
0.0277359149437107835
0.0240900623435388039
0.0243807223716239786
0.0444363327068104733
0.179801021175557463
0.124150475702066623
0.303472479008186913
0.424785015424635148
0.532868996659681349
0.587355476172773283
0.630231445790969347
0.615303845724482379
0.583140256722842532
0.5877855843553208
0.551050396034367673
0.369781892453818872
0.356783027436532729
0.350841451046129293
0.480955877538706333
0.146633042342517061
0.121173094508241527
0.139286675673334165
0.31162942703738844
0.0537046335683755566
0.0523782689668965823
0.118687098123186868
0.0727070723844956412
0.0443810860991177419
-0.00514631964371210261
0.00472613347406900929
0.0754977313966652824
0.807304333446172584
0.947854935141182908
0.000417979932158617186
-0.00454095248438439458
0.0229929865412585172
0.022617367357103034
0.015923435375393008
0.016112377643178577
0.0155531039179164169
0.0152828334848943703
0.01257088178842437
0.0114662599132209185
0.012446958087068468
0.011129344748283046
0.0101262510482874567
0.00933258691753297183
0.00924025007493877067
0.00873181624413358649
0.00785823661183325528
0.00797807426826824609
0.00797075328431461755
0.00739463864130398586
0.006201051549628518
0.00563845630975517813
0.00610413504835762444
0.0051890430287339414
0.00430713148081444258
0.00385795154853831035
0.00312042222202680566
0.00245231203717412739
0.00151626193743874455
0.00132520137648113124
0.00111909622804541196
0.000900347477721046225
0.000770596621307839181
0.000964944318503694687
0.00137340789532684423
0.00838351435918707928
0.748079192205076904
0.890078257162930875
0.000345526567791264009
-0.00509390577429231096
0.0110773463932768764
0.0112395540163982045
0.0130299529492272619
0.0144371044378047691
0.0150002160156464098
0.0154777258518372894
0.0147289657545382272
0.0149896523073622494
0.0126667398995901001
0.0102072439928481452
0.0106971428816639066
0.0107133794367173067
0.0102313249810320629
0.00971052042848716268
0.009469143249745713
0.0117417684562804749
0.0112451163697434645
0.0103409835834502497
0.00709069965450075806
0.00634958556462993789
0.00567322083013634473
0.00473298059449474631
0.00388820623886320434
0.00324104545069699417
0.00242269342119991356
0.00172084268419580937
0.00131484323477200652
0.00107094275595435279
0.000847426440450254692
0.000673567004498090943
0.00055909460309482191
0.00058597881752669534
0.000836585217223944494
0.00338569321652356075
0.512051497848496462
0.819125128892117527
0.000574874600214203058
-0.00252866353627131946
0.00469951776907341894
0.0074554410087534842
0.00912576865944472737
0.0145893854467689793
0.0202189470722007984
0.0256378546530931783
0.0314639531159417382
0.0296724899414623419
0.0272413964546306883
0.021573554795732898
0.0152716695418442447
0.0117282902982735887
0.013171648056850848
0.0109043925837589463
0.00960649013453077766
0.0120265261567227798
0.0109421875572810155
0.00648449088548269659
0.00587718268800615888
0.00537140851611750229
0.00451899696357033372
0.0037888076636630923
0.00309934613370696759
0.00233066638008368361
0.00170828698844487049
0.0013103719199511971
0.00103926731238853189
0.000807194300451662475
0.000626512842923082972
0.000510456900349867638
0.000422585829738330514
0.000466787788359381657
0.000644376828116843543
0.00509711689125579188
0.484742991089822661
0.758202517592844627
0.000670574354761368347
0.000256658816623082518
0.00234196783526241297
0.00564617480782256351
0.0129625120516171418
0.0391477096053308854
0.0403880302215632939
0.0367199643127939096
0.0342893459210043203
0.0317836154020779277
0.0298628188312390873
0.0276395830070484821
0.0297950490340608901
0.0297868094878139256
0.0214773810074790836
0.00815163558808544055
0.010161853790339799
0.0144077191295908218
0.0131747776046828146
0.0122520133252688197
0.0117558007454468053
0.0111996155612775865
0.00927899299556544932
0.00397335506632697129
0.00280534960237994752
0.00213992655994422153
0.00151175665276683619
0.00111370339557270302
0.000768960547493995408
0.000569929242046067486
0.000424071187228497882
0.000378973871618974592
0.00032565216809816945
0.000230831882946928542
0.000597990343681104475
0.00919068736810386804
0.0642874738957541353
0.726377845988062321
0.00080331004854453038
0.000804565721673697505
0.000881975149319348456
0.00532662852646860214
0.0512861715692447678
0.0470177871314962151
0.0434810035078361523
0.0402001705441014448
0.0357125598864610413
0.0310905323948623552
0.0250014709229240996
0.0252499414344898102
0.0234458573554145455
0.0105433977513612123
0.00457802124744563152
0.00461851209892741397
0.00527829715041262977
0.0130135899638932143
0.0122129118502079751
0.011701447233769962
0.0113312409307510242
0.0105311851775885083
0.0094033590234120449
0.00751334193254800213
0.00264943375993083839
0.00184460425184264864
0.00120582659718797736
0.000774032429282744462
0.000515736111635175859
0.0003517226465991199
0.000305252524277708375
0.000306273961360660593
0.000282702444139730871
-0.000520665858982317584
0.00475694114812328685
0.0168476329736340046
0.0398447761870666176
0.68940248428043871
0.000814554846925743506
0.000813019957164974019
0.00082623538099409503
0.0476250652999553811
0.0569089990458590197
0.0522935560424506451
0.0471828375082667742
0.0388251715587650745
0.0229530954121795229
0.00779689779568496812
0.00505602175020801979
0.00388590044607699464
0.00362604798470720279
0.00330518452493748158
0.00294123709973687954
0.00261076039568284256
0.00301823340355344581
0.00793484060272008421
0.0118114772344480382
0.0109993650969182188
0.0101827442429370148
0.009337489197062631
0.00590237112757681717
0.0048607611019980141
0.00196883929028247731
0.00119314613019176358
0.000753991459433493933
0.000482019535653177773
0.000321579621466982699
0.000252923587678428711
0.000262909861842091806
0.000249570543887581522
0.000271972305211522171
-0.000723010086409282891
0.00810278698637783082
0.0073999883959201488
0.0518522280430023727
0.716897165820641113
0.000809304427379283929
0.00080335061710459961
0.00772483632883029687
0.0711091674642466975
0.0642960304150142214
0.0569238805261948755
0.0372748469410139477
0.00761276858559396287
0.00486607076365410621
0.00339151578602138589
0.00270995970861843266
0.00241789373631483978
0.00234443254684946895
0.00204597269633188458
0.00164643064349075346
0.00194077058231992153
0.00380235338170500101
0.0102706954540199204
0.0104535164087249666
0.009651924328647251
0.00902329145649532691
0.00794950296471106169
0.00519734464876146773
0.000830153658985783617
0.00123805000886488092
0.0755983451581339061
0.0816599486892847504
0.070982728988626731
0.0445381169802971238
0.007243777115708094
0.00450458807159756676
0.0026990313935896992
0.00183419935715495221
0.00152809270209812941
0.00156828773123276772
0.00133444021924442437
0.00121658608265616205
0.00175611714541863456
0.00461711373679491929
0.00988576927306534375
0.00945222643905448308
0.00885767436355138285
0.00839560769347781621
0.00773618740829066544
0.0053267167640350813
0.000862344527445549932
0.00802265115762113012
0.103627046101359283
0.095356801586916784
0.0717138488926952616
0.00686340790539312871
0.00442883159026051087
0.0025316111474938249
0.00137215017331955959
0.000885808091450306827
0.000861021447623215521
0.000823506497324975363
0.000861269666227728703
0.000937677052844483605
0.00308525710359528089
0.00757032729446778258
0.0079721575823091511
0.00781963657851717474
0.00759452782847593912
0.00695304234304157213
0.0051257914579998301
0.00251278704489904092
0.000907378593443655354
0.0434880962251139452
0.127060667094271856
0.103931612521042438
0.00832823119469181666
0.00425822197467805828
0.00252510617041587287
0.00130009549746322927
0.000574065048699162663
0.000399964646537111983
0.000431575775520521188
0.000494191527391367501
0.000569146065900326186
0.000737018743368435692
0.00233719302324264435
0.00469807520782443942
0.00541651390998756921
0.00463078026141261652
0.00402719245385816348
0.00264808273737562752
0.000789631492264587223
0.00059016317901116255
0.000268198757488677668
0.000241956168260161215
0.000269482962456897362
0.000419197145104928891
0.000731031711384646436
0.00118279720965516711
0.00144456856088327583
0.00145135659806342994
0.00129774669443407623
0.000726522543295664703
0.000199041226538253062
0.000350323876402226005
0.000462354174094163726
0.000465287633876430395
0.000560268624638877999
0.000442428233983190597
0.000238593945321501332
0.00029408275633523509
0.000154088266922221121
0.0001808222541753132
8.1868502766331371e-05
0.000103409646357220891
0.317213188269688362
0.591732641198877807
0.745587400783479071
0.795385420655616127
0.869076500954655939
0.918412359140517776
0.948877463638052143
0.960249329749834457
0.969519290263368028
0.976480554577648929
0.981629372868218608
0.985382588560218764
0.988150122371085571
0.989620182754344713
0.990119111657977946
0.990188835640714693
0.989910097853926918
0.989294571781862087
0.988415695127498495
0.987291285326786339
0.986041676081484741
0.984775355879293768
0.983473595747594853
0.98179075373160396
0.98003781577107274
0.978552099995517732
0.976853921882012477
0.974578779990432187
0.972215273882928388
0.970336442830691981
0.968428104694046166
0.965545311496100012
0.96298391940373973
0.962096294563775212
0.965497954080178022
0.966303741845016106
0.966345775995758771
0.963902520176220468
0.00110681124388434943
0.00550509500829207514
0.0531454911111255493
0.287472175912373729
0.429227340368963595
0.534935114112419008
0.654101147626108492
0.697418860580780953
0.751631917866348198
0.817040495612616047
0.856769853010197036
0.86887297152357823
0.880193069023128993
0.878679131125216673
0.902601007289235535
0.901858426674367109
0.920003943761970588
0.931922873590190104
0.925868017654923214
0.925684872035923201
0.927291803221173216
0.962675507206874448
0.922827917224565586
0.920843405259140546
0.879035196402308983
0.897954547744401976
0.901751545668571408
0.807044614623967815
0.803566705773116619
0.877480307618536348
0.837875836975939814
0.680084855676522215
0.694782359047832254
0.723690579074052653
0.803608103335087143
0.970463779723238051
0.968062008160858856
0.96009995040130236
0.000857327591269793068
-0.00230696616851297758
0.0217374291938939937
0.031500581567371802
0.0246114861986771183
0.0182517094126135281
0.0143029486412119336
0.0130430181598828829
0.0112062557781308861
0.00969813141707120269
0.00941088170569092525
0.0103621035664011735
0.016806730790937835
0.0961129376134296914
0.0654046281446012956
0.210715562173702797
0.276738430710001038
0.317234295859827153
0.271842685076145341
0.22207439966689313
0.230405328334990139
0.282676109273298393
0.207772661498507982
0.0563071109789160112
0.0639841034644142853
0.138114214277484992
0.0911914662265874143
0.00312612667283624582
-0.00127200010123244139
-0.000506061713118813056
-0.000860267963609761708
0.000755307081013684135
0.000300193089363296633
0.00110031753671473902
0.00961302915243508055
0.0999958044006671598
0.752481236348635951
0.941133135907959772
0.000621624621652925517
-0.00101415482691875848
0.0114103734175063278
0.0128857834991601486
0.0119211535964199363
0.013938245838134718
0.0146858941379639403
0.0152965375030171651
0.0136186152048292583
0.0138363966049667476
0.0125981051562079269
0.0103247942923844968
0.0104347113362858977
0.0104921164756308395
0.0102480560210756223
0.00970277878337086688
0.00944037710977734673
0.00954178997903597573
0.00965490329704221488
0.00916151651767073937
0.00824662819764793859
0.0074694879610098918
0.00668230135451404125
0.0057896078444318877
0.00509506315018668724
0.00430932317758188875
0.00326296959422000014
0.0021440900227276947
0.0016844423326985642
0.00142283590447942615
0.00126155148982693213
0.00108050168234748341
0.000975392594622917367
0.00152164856653385261
0.00206436351073932762
0.0103307974751833571
0.741060070784715919
0.884485877465767567
0.000574682784636063558
-0.000344634437030201545
0.00556890611509467271
0.00717339806539086904
0.00910170680080808758
0.0125187486057430457
0.0144366121325135398
0.0146116972466923834
0.0141887892470834096
0.0127243345827012626
0.0103479277923857523
0.0094533405590951896
0.00981112327621599251
0.0102376926851113215
0.00971755223704887962
0.00945615433248478583
0.00943945579516639044
0.0105542822359629435
0.0128963557421945263
0.0135160107653999849
0.0102685930605728448
0.0064539134625646458
0.00634591978143586415
0.00536853467937387085
0.00434250759259889769
0.0035431827061771972
0.00246736506969468233
0.00179827217679197479
0.00151525276156050598
0.00126128214033186296
0.00101490904388464986
0.000819027363344974283
0.00072534041201333479
0.000852577191873738773
0.00122219308090624318
0.00731657607824231192
0.544423354255403669
0.81935600423902466
0.000656878269009078639
0.000680902105749226264
0.0026038245465399546
0.00564446831042672657
0.00755377844904222759
0.00912747975261002549
0.0153025363322083913
0.0215631878915367101
0.0256795929674335684
0.0286343836164456578
0.0250629498955725304
0.0236738508635047917
0.0261329985282213288
0.024372098881257874
0.014736961423818612
0.0136494747584646643
0.0100662974815387343
0.00879689022726525861
0.0120014914911576349
0.0112998675183828452
0.00895201527858075288
0.00571047328228335878
0.00491400097326086943
0.00602838366097222488
0.00514373383834175642
0.00253676743918211352
0.00185370376825161765
0.00143971742119112936
0.00118602389102853071
0.000945496959599542936
0.0007569731813399361
0.000629615896424148055
0.000531846305977472841
0.000555569286493583312
-0.00116992048713912469
0.0114327342038467276
0.543297635362822939
0.729638122970127756
0.000815304214179025195
0.00112619086941133806
0.00183339171441023949
0.00300753159309093306
0.00562433717818312459
0.0282142247358000038
0.0400472407549664067
0.0372105242720108809
0.0340658624576454377
0.0324719108417307473
0.0304841485446420563
0.0292493927632102718
0.0266414184570701769
0.0286246131864327652
0.0266168446529494521
0.0168383924133354256
0.00476644530884569664
0.00522136594216576246
0.00950678452588127679
0.0113544998827290518
0.0108390264285207448
0.0103852068283551979
0.0095639152397267637
0.00884761890829938343
0.00733855211003265999
0.00351682416660143706
0.00172021243742125855
0.00122370943372246107
0.000911394952154517173
0.000692471123668313713
0.000534536168861876257
0.000489157824921530437
0.000420201766868855023
0.000386117343580964464
0.00146434165017231147
0.0162618077744394081
0.0999838232659569642
0.762946553524327387
0.000804095693629919457
0.000880317943673350435
0.00156165699245918322
0.00300213744622364158
0.0372475013872907851
0.0474378307079173847
0.0438676474868525262
0.0398761231745645012
0.0372766363776118326
0.0333968669156644027
0.0265883023158162354
0.022870170799206526
0.0180848519220389858
0.0178466931573441068
0.00426197563630616172
0.00260034288505178648
0.00259576931991389523
0.00295243808334473296
0.00370320740155217955
0.00938861619868298566
0.010010464413864488
0.00949370194679744275
0.00871527204836047148
0.00640636853269660987
0.00581469523690708503
0.00475585665500073262
0.0019818558855045831
0.000817001289412966933
0.000605665829404129492
0.000444907710757762244
0.000387595973935194989
0.000395810091633118431
0.000391176077545360998
-0.000278896857385570684
-0.0135501469899453678
0.0149239688138174172
0.0711930373104499442
0.758845415982018157
0.000813758832737796508
0.000947913834245261728
0.00142095647998425343
0.0250129963815643418
0.0571721182568371081
0.0526152368669464479
0.0474198681011278184
0.0436470609320794498
0.0332143834500670185
0.0158303660881627915
0.00502463680712913249
0.00319330130061297847
0.0024464551920278443
0.00206344500895078858
0.00184860469716132498
0.0017886266776180027
0.00165337844197532922
0.00173486284226227489
0.00207397043937981992
0.00556714209485302015
0.00896132579750431521
0.00830328032353081641
0.0055707170802434796
0.00467588998665205598
0.00163948975935983288
0.00188197067853773507
0.00100594935952326089
0.000503781283529734759
0.000379396175474582616
0.000316738158861075989
0.000320561343867313011
0.000319046829266997215
0.00038754063812333425
-0.00176958336449964219
0.00207613042089649282
0.00723333515148420238
0.0973213332553538313
0.721369411369259694
0.000830153658985783617
0.00107098375121222065
0.00419244981933082541
0.074042155128902748
0.0645585129693131421
0.0580318656121729393
0.0524865306988535618
0.0202430707043604607
0.00576822882766740187
0.00352547404425228349
0.0023042564550754558
0.00172524544843354511
0.00139018772740314399
0.00137617302304155181
0.00123689792834975713
0.00117529124879168709
0.00124207614160892462
0.00134247601426094529
0.0021440195749961883
0.00553115015389803351
0.00770568530332450645
0.00607454623983995183
0.00497250753491872925
0.000955959877476623846
0.00116732544395667858
0.0500860547469580558
0.0820542768151745483
0.0736370882116033493
0.0650918923602114979
0.0122337128006935296
0.00548262592296088272
0.00304327817655044696
0.00175332619803154725
0.00111777711829565292
0.00106928605800334802
0.000929010108757336115
0.000865236414393525809
0.000853465895523524993
0.000882401926171426983
0.00115236853697576655
0.00214166028811590319
0.00411813319986656292
0.00669482761819855353
0.00628173844835289326
0.00476991888851070051
0.00102556103525636654
0.00774322206455711412
0.105504712407048229
0.0952465006557401961
0.082260366580784991
0.0119418567567524444
0.00534720890461154105
0.00296051276728170193
0.00149979757159990064
0.000763863979750763742