/*--------------------------------*- C++ -*----------------------------------*\
| =========                 |                                                 |
| \\      /  F ield         | OpenFOAM: The Open Source CFD Toolbox           |
|  \\    /   O peration     | Version:  2206                                  |
|   \\  /    A nd           | Website:  www.openfoam.com                      |
|    \\/     M anipulation  |                                                 |
\*---------------------------------------------------------------------------*/
FoamFile
{
    version     2.0;
    format      ascii;
    arch        "LSB;label=32;scalar=64";
    class       volScalarField;
    location    "0.690000000000000391";
    object      p_rgh;
}
// * * * * * * * * * * * * * * * * * * * * * * * * * * * * * * * * * * * * * //

dimensions      [1 -1 -2 0 0 0 0];

internalField   nonuniform List<scalar> 
7236
(
199.115867086541982
413.017091024906108
573.701184620616573
562.197403885506674
504.497188305816564
466.177488861579491
442.530141097932983
421.999578552027344
405.116193987174597
392.45141612022752
385.210438841889356
382.007137656652503
379.651680486030898
377.72140418462385
375.28510615076317
371.260074465592709
365.841379939790329
358.415536504240038
351.893796432795114
346.224077567658128
337.867043372319472
323.443150044114191
315.1355960999133
312.295110979966637
307.423764427527203
289.632654423911561
279.698581866132088
278.717617311667993
277.079744363464442
265.096000471573234
260.994844934479772
265.320513057394464
279.911881019794009
316.771777113539997
479.227572230468184
972.629354802053513
1816.96696603361534
2447.96263018760146
144.130407454655909
336.236920119534489
521.236557555094123
518.367369990689895
464.641715918775901
432.950042115909241
418.283128000915667
406.600145306387333
397.777990095522114
385.638020921526845
379.877355435492348
377.324842307028518
375.004711038062567
373.086676905923525
370.940109262406281
366.413350617063031
361.427652255668932
352.704607029378678
347.25156500617544
343.066505940675768
333.01584778829249
313.256141234353436
308.045196657139172
307.770768690057196
300.716108853521177
274.691327667792848
269.378835279544603
274.03238514883941
268.676372320729456
246.037463461274371
246.022598642940409
257.177855716654392
257.731706421325612
229.645739819753175
284.899416037158232
646.766693395984589
1565.91349977355344
2466.31307041187983
148.426293062235942
210.662335474712819
368.082492999237104
391.407386507259389
364.011931629576338
323.593101468918519
315.045475863808576
288.824485973764979
291.762173632725023
288.015469015076292
310.983525617183545
319.501305950190556
326.748786726972867
327.070769464944306
331.744377527941879
314.470214399847066
312.393506213865351
270.134240655225256
261.526284163360231
265.730997684806994
245.478140788752455
158.663023718212912
163.414751762321004
177.418135957860244
210.216303431106695
80.3906507404550013
69.4393575771226921
75.8084987251683486
152.902004714740144
26.5215862249966996
39.7356641490785449
43.9441598897390335
87.1169513311262875
13.4457746169848296
17.8064377370160862
160.671610189197906
1024.54465520287658
2203.9342972935051
188.712849685530699
198.971349037552301
144.224771585623529
124.13481288903013
118.425586863615308
119.639292357328003
111.316877811634868
92.6066529884564602
69.6339429953209219
49.9713198729791088
32.4664718343909513
21.9644209871244307
14.8222764273774743
10.0644832578525261
7.42182316487441351
6.88479030550655935
7.8051325172188335
8.8535532295661632
10.1832196972456188
11.1524999773483842
11.9086441411430339
11.4665965826951233
10.6351424009383617
10.4659489534751753
9.26865751170530849
9.07961661372794993
8.23119161255242382
7.78599843926025414
7.25837755160638576
7.66829835023394235
7.4417236070019861
7.76375462636449321
8.24187507314163526
9.12704160627576933
11.1328652682112228
38.4949004288813441
648.267686407024598
1747.56169265291737
131.033784198677267
88.9119195300767302
111.225747577387764
104.173532418812158
110.247660653696187
112.223521981007892
103.331124211101027
84.7109202389700187
64.0796391506118113
46.2046067884512084
34.7355585725899019
25.486021596748234
18.7628065284762009
15.2763690816295803
15.9996732137014082
15.6712572615509629
14.4752938973625618
14.0899429090649502
14.1012281598432541
13.5077776962217637
13.0165403235058559
12.4960384006237248
11.2903030754953715
10.1161704604941978
9.22954609312896679
8.65436380799811289
7.9152285221168075
7.38337548279499511
7.04061431163716112
7.09488134678912541
7.19699163233885564
7.53681414343521805
8.07457239346006617
8.79703632793582102
9.37861418670217084
15.7469975017967609
395.376701714881506
1349.04993544147555
75.1904320511356161
84.8134180301988465
90.419475642302416
93.2842782394672838
101.977269709887324
107.132802073069229
101.020059941360898
83.4936278291228575
62.9714712408936279
47.4040265131144025
34.6612284915949331
24.7571582546678037
18.7642299883631232
16.845236606022155
14.8619969487339834
13.1772366660405247
12.8657681177322125
13.1930391403778593
14.1288338917328069
13.6147550257946843
13.8714691809281163
12.0867397549924256
10.840967468786884
9.65167268595035388
8.91671347226628974
8.24733153814362652
7.61560219511386904
7.10169181141581429
6.84942122711099088
6.80469226053136289
6.94121647960624166
7.2728539682411828
7.83360526491622
8.61877897599974041
8.4163725764789028
9.97619892728672397
360.017595813019966
1040.66240367472938
75.7035376343314255
80.2574515138554432
81.113178545360725
90.7577526599801416
104.376609914981003
111.977055973495439
96.13528755296268
76.2685243199016014
58.9646358971334124
45.9281491784192895
36.643335531706839
30.4184421430818226
21.5405644069715692
13.6911606975412834
13.5742057165959142
14.8633670986668545
18.7985596343298411
18.8954001932819331
17.9629041386086996
17.2437433725766454
16.7145947102241585
15.1649237129743213
10.6589709573436142
9.28489584530985645
8.60360002719054151
7.95532973454199066
7.33938863044639778
6.85286150997302634
6.56215825516536455
6.49219974356187635
6.61332909655218781
6.95452575552444507
7.55088198219480411
8.44228893179039552
7.34766332025561741
8.04793468108315757
57.2447238875250619
835.251914075761306
77.7276248893899577
77.469815522686261
81.0976019618756823
93.426208924720811
121.684262528640673
105.877962677516038
85.6902550827363143
66.8269404984468451
50.7200136801714692
39.3794719976490413
32.6584201336954223
26.8779266278696412
12.40269466843686
9.60666252367919071
9.88638167527722267
14.90636565270818
18.6487475716452202
18.4741350279625074
17.6764827402185851
17.1509460736971562
18.404675900530755
17.1749063101678274
13.5520864089744499
9.30459292751069533
8.50617756064478137
7.78031831389277073
7.05525223614275632
6.54142928663414658
6.2846522268247158
6.2290140512681953
6.3508038016434103
6.66441053805271721
7.25344404094582806
7.93781707267315007
6.41495550546415672
8.95761548123141971
35.5276714565695144
773.596172366982159
78.4568255228041096
78.4627794155636025
82.7919028220768638
136.712677290767374
119.110700487502385
98.4765066986605007
77.2651341915065899
52.2811807834511129
32.0509527330952793
20.6390758363848725
12.9972312988471206
8.27900314448646313
7.48397187308028577
6.67198531457288624
7.46280250810379986
16.8446305759554313
18.5781971118455438
18.0201559759981826
17.6181852289102103
18.476026898052293
17.0240234226052145
14.6228293160207325
13.3458966062459403
8.71088434862950933
7.94153097306586542
7.24520589796835157
6.65190802406139259
6.27472143749886246
6.08769441046267445
6.06593291389486922
6.14891734195769146
6.3940952726597553
7.00515734061386386
7.39514128676554972
7.000134082380713
9.66563536372110477
40.0583028965814307
748.827227596617263
79.5333021333335921
80.353289690603944
99.4733987979639949
144.540149271873759
118.324231143346552
93.2598265940358004
44.8431226078238154
16.1839274490816223
10.1158360105032283
7.7150195910991588
6.5575628228149947
5.95878110327263233
5.23938819569514447
6.62830982896405541
15.610019628695861
18.2737809442765311
17.5971000651879379
17.3688814989351457
17.628164673155279
16.6342084102503804
14.5230776460130606
11.6730240652027142
79.5966319380895015
81.4087886895688229
167.911349518509809
151.65580928100772
118.005336597576232
50.4010694623967339
16.3762930282840813
9.98732574044465871
6.4097666757812144
4.91047826949201749
4.45173374433474045
4.12082335765242291
4.02253263991213839
11.3625716494282916
16.152888846395026
16.5236813183029341
16.4543426300849625
16.6760168543040947
16.1715502098924127
14.6290845097765523
11.2981452444753092
11.8716210531817694
79.5506496410504838
89.634520945524244
222.311739665092489
164.915490978949435
79.8289146279862223
17.8451811601638965
10.603633343147898
5.9933036046309569
3.75859670801212253
3.03809577258172014
3.5408769189232161
3.15908163648998341
2.8137905434823236
5.11881741525928291
10.2551504359967254
14.6531014294409569
15.0354681165280297
14.4254724642019756
12.0117300855810853
10.3542242019606245
7.64878090900062535
5.64513220191089005
79.5050507257268748
156.371284607923144
238.833732657462178
165.748230411147233
20.6747712992892616
11.8122745755491181
6.51473851047936225
3.39357401540170844
2.03601593638340139
1.74169843441884442
2.99828533900513161
2.76567830512618329
2.87173134227998794
3.10566057577066523
4.69618933663290328
6.16225638482346394
5.69441776319442639
5.15279994590021673
6.57383957656091944
4.06790408189835873
4.31105806943949599
5.24785119400640898
0.917693431248270963
1.50137450419821894
1.85903132799776927
4.12218942236615504
3.61916446216710153
2.74157190192331646
2.57036618568437802
2.67611532903109683
3.13062587739732878
2.51123801478974551
1.33660769035880755
2.01023030182724538
2.00892789086328394
1.78216578821805971
1.78905177093697998
1.85989126626872414
1.74544702572508004
2.30677834243828972
0.804914917591489476
0.958755526083937881
0.945525042942095939
1.1585763091184107
156.984743281168335
256.501142565703276
393.267485736114736
417.742573044262201
393.989125257004503
375.999660396234333
362.156454459225472
344.98330264404666
327.42012397894888
316.925922146539676
310.164369522128652
312.308804217348779
318.152720557170028
324.445178143836984
329.262534109076682
333.022519906601758
333.852696223735563
331.317015180347198
327.959876708609613
322.723703711717349
312.898426350922477
304.453904708087236
299.48355364324749
295.734556947722865
283.560579730155609
272.180764952892332
269.44958130171733
269.345991328036121
257.31741172336433
250.439280941766611
255.760104525922856
253.239727093563346
256.853260875527383
302.984094061449582
469.158430683278937
970.904945588272881
1822.7061818844229
2443.82756562160057
78.3376261465862314
150.382728200185824
254.061941302750483
315.068841136164735
324.640700467672445
324.847281246524062
317.913401187798058
305.567796770001792
287.915465227120023
280.165587536855185
281.666619575455798
295.874020182968763
308.668033490211599
319.283775655547686
325.617118704396887
329.962093456236232
329.104625920738215
325.976870771770962
322.932287591356157
315.227784488322243
300.912530903030699
292.671257719491052
292.458955406076882
286.928773080293922
271.610289772662327
256.613192059153505
262.556969284669435
262.943890342854104
233.097836144547472
229.149948179564745
253.100224852609244
233.724375905729772
205.472042511746395
220.12047119624134
253.637727848373714
635.21924492632229
1565.10251948684618
2455.18875285635977
78.5409016888672795
88.0477337926671453
138.968460721482074
139.952438139686848
118.78394201359113
114.003244345810728
108.744125799111643
97.6912171823184252
88.381962229808849
117.96297137272289
85.1102949608675772
134.721214389465899
169.932316459768003
204.71792461372246
222.476357354078715
237.136965765846583
232.097400023092661
221.607247751480656
223.682954702042196
210.91026249597374
146.774099373433302
140.804919324168026
138.425428054880712
182.919439112698484
64.7405274942970976
52.8897896505601466
58.9266551097619313
120.011714371091784
28.5597790519337806
26.7190533382785453
51.1529305987561997
35.4742815179816873
26.1271571887754348
9.08877343253958614
22.9333753507681735
154.208744443863793
1019.3680313642235
2190.81402655759712
78.7493665370956109
74.6701672551702131
102.910927432378017
102.697074430884413
98.5820799378937664
101.279222051135619
99.4118284165085555
89.4046402994111702
72.3727380288442106
54.9085527358705647
41.9297852689365413
29.9364056006477348
21.3676192975946222
16.2133971602926223
13.4811498315447533
11.4988931289723979
10.7076416364771845
11.4720302431677368
12.1148100983563669
12.5280215829791537
12.5452115990632702
12.0603088467354844
11.9402744261724205
10.6695468176440738
10.5576455208398965
9.56862555508763002
8.78757150745492588
8.04020235086299984
8.17948841491404188
8.08276949424540803
8.31122311593373375
8.99626905127357546
9.95052289861457062
10.98141525399644
13.5322650222539576
44.3502931868292052
661.039248876936199
1751.17581272526081
78.8465403152240043
73.4577910059858681
89.1753308506325624
89.9241917455373425
93.3750242247254221
96.981771558175879
94.8108476624781673
83.8539817087171429
67.1459225009061527
51.2741256392541516
37.4360999966623282
26.7665340786541996
20.2222328950222838
15.9456253655310185
13.189439729212852
11.5724238793685323
11.5201260665153971
13.712247137194014
14.1741732483760696
14.1277384549117198
12.6979509073745653
12.3527859989821529
11.737258100863901
10.6657046720128523
9.89484866822183839
9.18565965219321789
8.43631016129693734
7.85590936269613493
7.77604401689994429
7.84844804496088422
8.08162731226960496
8.67121676939114749
9.62791998561466933
10.5838690557646373
10.9911233010973994
19.5823851269861358
421.161151259247049
1373.23740719166994
79.154251664513481
75.7451253260032473
82.3339836846449913
85.6320550056740473
89.6249043969447285
94.3174643241812873
92.6386758978954816
83.0822678878783734
70.6957807037337602
54.9786770020629518
42.6602430708863665
31.5361770499452945
22.0257587259283412
16.222914232527657
14.9774038787224644
12.4621000067700187
11.9500556292142956
14.6644407672156838
14.6953668104930149
12.1172073762685581
12.0761191979818161
11.9222723876106453
11.1743049310277893
10.2246925059927865
9.39356955736045052
8.61136619290944694
7.97304256356253394
7.59381914176487616
7.48077932163461412
7.53203503395763008
7.76534275244674799
8.33682300273503785
9.31320669900714293
10.4128275337985787
9.3184163574780019
12.4417202166287097
375.869656131757267
1067.07894758765519
79.4622025193856842
78.6028269423346302
80.0430698178632412
83.9727721882148614
91.2207735890116425
108.592342663286956
99.1177685805370601
80.6388575709697051
62.930969763549335
48.5771413978259332
38.9188908250263736
32.2937932866535107
30.7898000501131257
28.4709575165947371
20.3829177954776526
9.46276822080747948
11.5751347388807915
16.2780690549221916
16.3345702923346892
16.3746431277318294
16.4955625419670326
16.4088359249332285
14.8632169817469233
10.3424764810619259
9.06087658538380758
8.36860997346119007
7.73847894577856099
7.36425830124010439
7.14690910215453545
7.15881156082111136
7.35399791598822006
7.90932600673354624
8.89553515359175861
10.0442745449516551
7.901885672421054
11.8638853789564589
62.8462789713603556
874.805043492940172
79.8399589718688674
79.285902359416454
78.7160935346273618
82.8751451524789218
122.355320304975038
108.397105775436472
90.35736347442338
71.487497017787021
54.0448804355702563
40.5923343784052975
29.920575725894615
27.6347858294360869
24.503043152086974
11.4941231784448945
5.56735641046228036
5.86097626783266978
7.05302791993487421
15.3612306435655217
15.8025132667855903
16.2298627555629515
16.5074092382598323
16.2634217595616484
15.4238582193906648
13.6387291853412442
8.93259191788325779
8.11379636397854043
7.45962190247728074
7.02765774817935629
6.83794880290372031
6.82330185781997134
7.01128490754692635
7.50966500794509351
8.47014753236530815
8.99559780243393803
9.56301288166353558
17.7159379084303978
34.9761088444956201
812.309203321140103
79.8503948993693342
79.3739031395470533
79.0758830209893375
124.853178123910865
123.949458557606519
104.065290697376057
82.3278895929974652
59.5515672759216343
34.0584425158626232
13.3714290257039039
8.26581339158064665
5.96818003103468619
5.08780282252868954
4.45574084692910422
4.03095692623585045
3.94257700727219085
5.07183069169819678
11.1025703912272906
16.0995821699506898
16.085556340479517
15.8862094759846215
15.5372228719195515
12.2631413688977222
11.2443949057738966
8.29232077479496432
7.50006107943049383
7.00480933991363663
6.69220554199064743
6.5644498935974287
6.60872077440462125
6.77641233074077309
7.17608650746815879
8.19107931015722635
8.13681651707614861
10.5407405899949591
8.52356075726939189
44.5397785695121087
887.670868104512124
79.7704249920022903
79.4748012434183266
86.8224850228409366
150.784147794702818
125.746289976361368
99.5170127540743863
61.7394161147633724
18.0468588744996161
10.219779632702215
6.55822742375073897
4.91864092290365029
4.1392631963559916
3.72747736090463722
3.19125106450358986
2.76740195317710613
3.46748514528312413
6.41558619710015687
14.5164347000657674
15.3906885293517561
15.1781188480581761
15.1013290236277467
14.4258066058469065
11.7063538236068236
79.7164870083107502
80.6757348820333533
171.512662405310238
161.067015888627367
127.129459083888392
76.3823708692905541
18.6625845510117792
10.3914675947704325
5.77759446237590257
3.81898145220732044
3.10510775169421871
2.94857100471197864
2.4677910756538517
2.20975395493142113
3.00696309744266665
7.09812331113153316
14.4735264293336314
14.3279479361755246
14.1199254240930436
14.1661137073115082
13.9775294054143817
11.538716682910124
79.6727908689932462
90.0777177626942205
213.880506586545579
177.27270911124242
122.799077558916196
20.0244143207875958
11.14612364362306
5.81955523433227206
3.11983920918521385
2.12141466387089839
1.97388161215226687
1.81513802334045904
1.77193032527848482
1.83204790487010838
4.99304382567843064
11.6701808729200369
12.5999371539247331
12.7834949911080322
12.9688356850102444
12.6671384663480833
10.7578886906585893
7.90762672017597179
79.7451271727890116
142.662568146648738
250.551776728442434
187.968294571536603
25.3647166321192969
12.5169134598385234
6.31211909949086181
3.03649811304863126
1.5181091501466295
1.18199289763192694
1.1961477803114684
1.24275165110469721
1.31630980341012283
1.57311851568349859
4.12292409513414615
7.94154000470430965
9.33926033521800036
8.50542485990492025
8.05282575472241113
6.54956477753813093
4.4926058366717756
5.13844049093327282
0.856378834479646023
0.808153186369332199
0.832076960912169539
1.06746089291822166
1.60633935720509813
2.42186081967846034
2.99670735623808415
3.26615982637972113
3.39549309974454827
2.93537629791299715
0.682928056153740415
0.949250063215245077
1.18013910615680007
1.26486027783294697
1.58875454226893043
1.64960305579167987
1.66981807639862079
2.26809755223370857
0.641370332265169596
0.788525966984654603
0.770754895677719487
1.09168715430448371
120.040073225734091
176.502364743552391
248.998604337311804
283.872581975372157
295.97687152538316
303.457373213761798
308.181186842309046
301.759130129995924
290.111594279055396
280.108379276769426
271.088815613114264
265.361455982510392
263.224380756095627
265.466505319045382
268.594226672729633
276.781486338692048
284.864456398699815
289.885687619006319
289.847224356373772
287.515212860110069
284.994253308286773
285.608382620316775
278.560914876520656
268.323146354600169
259.535667963809942
259.531856168231172
254.744949522885207
243.408378698298378
237.698450246253117
240.139748992689277
238.228632434467187
230.26725328164153
243.028601997695603
298.130944262120408
483.58825631616196
1004.97914667904058
1866.54730942751144
2458.57336788986004
79.3018543617880312
87.1378849474969428
131.427054550840722
186.066371750358428
210.766314934319155
231.237257196785578
253.082505846324125
253.485398438658223
250.480764843777337
250.463495987105262
247.008808704930573
241.786569034677996
239.966871136206152
242.719804548837317
247.418901301039483
259.037055844194583
271.102558555552832
278.311399520456405
275.074676127982798
271.58981932984716
270.873917153317507
280.648950447519837
264.863047622067029
251.089362821393252
237.643805009736695
246.454550116267654
241.570544548943701
211.275567466072658
207.1567136470278
224.513053085925719
215.913793490637062
178.950739573067352
183.621357673125971
195.633926262819472
266.59565391465469
658.937956679853073
1606.85708618857575
2466.79505265650187
78.8916557996682855
78.7476186789546517
102.259134221011095
105.738293191467221
99.1649982466752249
95.6111585376631155
91.5667361154005874
81.954540879557328
66.9439061668187207
51.4799814996264828
38.5650545213203273
29.1442990372323898
23.6712685678717243
44.6548301338846798
30.8043321755845909
81.1836237904052354
106.372477706185165
122.509899209390326
107.794050831633669
91.072018458171712
94.3653849802346087
112.916803121459978
85.9307293841161339
32.0160781894894129
32.9109308689227404
58.7017338584996295
41.5273960275507008
10.2227301961815495
7.79456929595205406
8.33636026483833525
9.05832937002682925
10.6402465179910912
11.8840711581431471
14.084518711814491
30.2529994833585079
179.980857211443549
1043.4337734915357
2215.0207196336919
78.6588221508079215
77.5548335454729454
88.8379865029943545
91.0819489468065768
90.3461950780684759
92.5159052264023813
92.8070253289903064
84.8762387092998836
69.3855713632984106
53.6698887881655509
39.9744147961961858
28.9035462397608676
21.1485243541649339
14.8139443235236534
11.3877657215871118
9.17465319720015948
9.1145942621934104
10.1614094196138964
11.6735592363302825
12.7156182125935313
12.9247402174643149
12.5640264661923862
12.4132691907808432
12.1251010310750953
11.1010391910721058
10.0065409830479339
9.30590615781989072
8.92629873727781131
8.73815000949687359
8.95991340288526139
9.59569870224269472
10.5759905368168461
12.0450772440209519
13.6909598046456509
18.0793968359574642
58.1170358219605134
702.574995148450625
1805.75070625994954
78.61633642909527
77.5940731039264335
82.723681429628499
85.8942462857704925
88.493838973936036
91.3014589507776009
90.7817360827221904
82.2385656664268936
67.4770863899401832
51.4105207741929675
37.6194936324945317
28.0446006639479322
21.3997445175403698
16.3926181058121081
12.6944393039746277
10.6363517248723962
9.94735345874404686
11.173708043355191
13.6821383876994638
15.2011620925221287
14.1236265837247821
12.2263649364999551
12.342865416440068
11.7324836092851434
10.7662923211383497
9.75774690059722083
8.8938198658650407
8.53493168206903086
8.56815878910954787
8.7541158136022581
9.24262476709263048
10.1633690668968395
11.6911369611323845
13.1176586660596186
14.0767560808544001
30.905090892846669
473.863317428047765
1456.93560471523915
78.9713150271037421
78.6463815462466727
80.5098099808940333
84.2199982719571238
87.2769225280640484
88.4104966283929201
89.4784685399153688
83.4311134663354181
70.8689958262793454
57.8076000692248613
43.7408884427885027
34.7968349169967013
30.5118977715725919
25.0665309560108192
15.8437919780664327
13.4755980123393666
10.5106961046234773
10.3129386283806586
13.5930205885863433
14.3086064860406772
13.6109292821595957
11.9096237784788546
11.5338702319329052
12.1936461289432412
11.2970462575798933
9.12285262871872149
8.45567419634286566
8.18416828060018275
8.19925239201307399
8.36253264420068199
8.80903603731980134
9.6868670029389019
11.1497843454631269
12.7094120724615642
10.7726130173720751
24.4779298776188838
438.790465994325643
1146.66056733767755
79.5264186134728135
79.5043934695903403
79.9936678838704722
81.8077594410628421
85.3409977274878457
101.541446965192989
102.676423154515135
86.082686419960794
67.3943410541752144
52.3233799080124342
41.1452830839638679
34.3092583382563774
28.36065522706512
27.5615733562629046
24.3571643860476463
15.6688110360939881
5.99631092438692637
7.07690250256854281
11.424227910384376
14.2907254941018174
14.9935290184137973
15.3264130111737238
14.9701409305987436
14.4143225094297769
13.0279706221497449
9.76920389885126816
8.21275935872721696
7.87981535708674397
7.80541800744841741
7.93258416408810074
8.30309552170268539
9.10696761425431234
10.4711917203818512
12.0702720606957641
11.2212594507681889
25.0012884343190436
106.743083929150828
1004.01760876330775
79.7597751172268516
79.4571868711771572
79.7656088617221286
81.7855613603197042
111.771256249626404
113.034043482089331
95.8581277985071551
76.3521092583237078
59.5380757928678435
45.0868342906675181
32.2267363319599554
25.6117003959510576
19.5651061823453247
18.3638954515606798
5.10377286877048775
3.43621383838224981
3.77867872933455251
4.7607984137617736
6.32527482373199845
12.8266127751685062
14.6246211916967859
14.9212431862876116
14.5365173983038733
12.4998852071170852
11.890900984733781
10.9403184649972207
8.38874483617915701
7.40500966469939303
7.38559290387962619
7.51249018980111494
7.86234678088792638
8.5737576693026778
9.82381537170165586
10.6672013020200556
-3.72315545087368438
24.4717028802524901
69.7803635652491181
966.394984537086202
79.8054571001621298
79.5709950831388682
79.8454622577494604
103.476646219343991
128.70077470793774
109.67137662303783
87.9295766899504372
68.8467172630580109
47.0077044493556855
22.6058874311397737
8.38865197857606937
5.23888959877368787
3.87666338827272083
3.08918326613460792
2.7854898060364901
2.78835059592168832
2.98114687388034261
3.68874779703600986
4.96548839652699314
9.59895363951900471
14.1620976736649737
14.1813603242038493
11.6973836817299706
10.9002590397999519
7.8421292908763478
8.19893769711465303
7.39135476438716044
6.98053973101556657
7.01937314816217661
7.21843717769985194
7.56591848869467754
8.1563149332285505
9.35572629095807962
8.10040143032459703
8.3908654713048012
17.6280363991061186
92.749410057291044
974.426891032356707
79.7669725133328456
79.785347612069458
83.1320988734992312
158.151286393946094
131.639025614843462
106.079278428768973
83.3158619178770437
34.8359266364031086
11.9789995525457442
6.80143539551485699
4.41988380362334166
3.28902395312764684
2.60310703954382827
2.37578814945869476
2.17093978709568214
2.24430883189256747
2.70238494865197065
3.43461777586701666
5.24415005883131702
10.0444647528673752
13.3425841433578007
12.0813501914648214
11.2478882947756951
79.8195566962932617
80.2480245561935561
139.945719011056013
166.374461784047782
136.036362494041612
106.498259461833968
26.6248866841291374
12.2064077773228412
6.42090175175164113
3.73859748706628103
2.57298115417100837
2.30358751957611396
1.93934164678031951
1.72586119668891635
1.71216992068191409
1.95234888077983681
2.71458072922431848
4.59496004084144438
7.88560417558429183
11.9251457029758594
12.0366758013544413
10.7514992741402757
79.798207175796307
89.7446886108811981
219.180322251403567
181.886896058467727
141.67872775907108
28.6129334366330035
12.8827617108371815
6.55852570133561663
3.36612730635226276
2.00222340197767323
1.58709637135231563
1.46253216906846695
1.3585399753681251
1.31452935719898156
1.442906225766728
2.22457429600298795
4.41416214004471197
9.04991932305483182
10.9904730076704649
10.6852544713712412
8.85796788007818137
7.44810355565635263
79.8620026201978703
99.936435976279526
249.392233496523346
197.289472438703314
56.5342037313877839
14.6030585770352523
7.02788347342838815
3.34263185133714202
1.65193543473599691
1.15556425117403028
1.11341594500856278
0.965216513237736051
0.98975856408159768
1.06780116378197887
1.57822516990791484
4.84959957647286544
7.05526742005551721
7.70041802713144019
7.48077872456878801
6.55668649150664606
4.34791157194668365
5.01278871204561494
0.800818847839065651
0.709957485045684122
0.698968871815375703
0.754270647816774331
0.949217432887401569
2.01701846218292813
3.97039161525891959
3.80720733783340837
3.7525887593767453
2.56120534562171009
0.519244687528590987
0.588830670575142712
0.905211050930849637
1.46683201711111111
1.43278888363565415
1.37970826395125656
1.61069961892798519
2.22421137930757729
0.57516140327610954
0.529506274111593567
0.727506379490329147
1.0320234640722612
101.468750830632374
131.069190961307839
171.539228847719272
205.905755610564654
220.575195750417038
228.017443044525947
234.659270676868715
238.099976877208974
236.97569731288732
232.377543644238443
231.694533459032186
234.886829949223426
238.627162818969936
241.782228413582317
243.41543085445872
245.477938182009126
246.879938104763141
248.33293793599799
251.329180742693609
254.653519766901354
255.53681603473612
253.557010600026899
250.527670518164513
246.336336734892313
243.919294117809898
244.294498183474246
234.935443680202241
229.92055008243247
231.767129832733104
234.520745375523347
226.573257299336774
225.115033335386357
250.577686291259084
317.358295357013219
529.624310041026206
1108.61356440294321
1965.9557656749007
2494.84196965164256
81.783316959614595
83.2181172568500216
97.5772840839238711
106.034506501231817
109.554443966696923
121.124525173101631
135.074518876269025
144.625037652994138
152.854015458631267
153.971917356841601
166.402340301018256
186.056873301992169
204.871157401304799
217.796478814116398
225.387178701529166
231.518169849797147
228.593909396432906
223.257402126624413
228.981096314282524
238.276604513181155
235.885620234451665
224.666001528576913
222.36251859072749
217.355385847926925
216.736015038026267
225.466392087684369
193.877058904055247
189.514770626515656
200.513594207498329
212.525542126955401
179.426605369266809
162.782944076564092
190.193925914896909
198.971038621314165
263.474470948052613
749.95143616271298
1726.85695743851329
2507.15991250154912
79.6198075013364814
80.0643783198637777
84.6578601454137214
91.8596310527793065
93.4146588377360558
91.5594556419431882
85.6492461207482449
80.062332642412386
69.2500102068472501
56.3345216686158281
44.8033761590319415
36.3238193971917198
29.2676386041255974
22.1022007105086047
15.1112186785445264
9.54426843864606766
7.78958566177164702
8.94118981826821013
10.2745629817338031
14.1234534736498833
17.5607706815723397
12.4192670738037947
10.8607125539397398
10.5070346577732341
10.3070931421774805
10.0659378514016957