/*--------------------------------*- C++ -*----------------------------------*\
| =========                 |                                                 |
| \\      /  F ield         | OpenFOAM: The Open Source CFD Toolbox           |
|  \\    /   O peration     | Version:  2206                                  |
|   \\  /    A nd           | Website:  www.openfoam.com                      |
|    \\/     M anipulation  |                                                 |
\*---------------------------------------------------------------------------*/
FoamFile
{
    version     2.0;
    format      ascii;
    arch        "LSB;label=32;scalar=64";
    class       volScalarField;
    location    "0.720000000000000417";
    object      p;
}
// * * * * * * * * * * * * * * * * * * * * * * * * * * * * * * * * * * * * * //

dimensions      [1 -1 -2 0 0 0 0];

internalField   nonuniform List<scalar> 
7248
(
-1.86598791032475697
4.59891976175245532
-2.57705105230195741
-2.69547429551939954
-2.83605814422936087
-2.87889239158950039
-2.91410718057422713
-2.92521115531500886
-2.99250708436472168
-3.26169372515805955
-3.30450611255906734
-3.34421905681892451
-3.36141004780394326
-3.35240607550292102
-3.58377681463193465
-3.61092876747331282
-3.64586983608871984
-3.67744431938367455
-3.67465659259862498
-3.93470256717364197
-3.94890517905435479
-3.96652722511328726
-3.98580708179724974
-3.99519463856931001
-4.29176285189409956
-4.30247045797579819
-4.31498274657035186
-4.33014010789177828
-4.34516965973849612
-4.65849118748115476
-4.66936063423115311
-4.68156845159085844
-4.69655008478294356
-4.71428041839126966
-5.03240685315495728
-5.0428649302480526
-5.05477421730864407
-5.069258870846717
-5.08717199104385021
-5.41213990164705017
-5.42188517123087799
-5.43289693541306384
-5.44605023539330624
-5.46236295408894446
-5.79659783360756542
-5.80549199567131424
-5.81529962724622962
-5.8265587948542894
-5.8400412535984918
-6.18501629500219074
-6.19318107844710575
-6.20185359231914646
-6.21125989198038919
-6.22177245908485599
-6.56198981465038855
-6.56932070602644025
-6.57696687605802488
-6.58486827199381963
-6.59295744257574334
-6.60116491519032156
-6.6094443577077211
-6.95636937803467248
-6.96402540961897287
-6.97209082629020482
-6.98042462197252167
-6.988817545596266
-6.99696816719800641
-7.00447543214380186
-7.35213386644330402
-7.36064774580501346
-7.36980019513230467
-7.37943006221896614
-7.3892689037119279
-7.39889687412480512
-7.40769204040438911
-7.74882182583913082
-7.75873381259463191
-7.76966924392612857
-7.78150866922443551
-7.79402063492839048
-7.80680838206837002
-7.81923665119900857
-2.49813483873129538
9.39633739231939558
-2.64811843384125112
-2.59803518998720806
-2.81052827375462133
-2.84660122568622942
-2.89271671468464486
-2.94371549540137467
-3.05409686117280899
-3.23871411343024951
-3.26068629355810069
-3.29198055059677275
-3.32240346821073862
-3.33066681534415832
-3.56745199392360846
-3.58773675852437757
-3.61329230917904898
-3.63963405650448824
-3.65204170997733302
-3.92372845818395266
-3.93784689084012607
-3.95413236585136252
-3.97266987713799891
-3.98702712239234902
-4.28528524128054578
-4.29747944624652778
-4.31131564869139705
-4.327784919526656
-4.34495174124404659
-4.65401572809745634
-4.66612318533276316
-4.67976437186221084
-4.69586337494059425
-4.71460616360605211
-5.03024776829365639
-5.04149893369517788
-5.05438164914241916
-5.06977487996889753
-5.08849158530053636
-5.41162975448575345
-5.42194619185619331
-5.43373240169995597
-5.44774092095467122
-5.46492382234761109
-5.79704949118647495
-5.80642915178312879
-5.81694917567584113
-5.82913285448288754
-5.84376105888370567
-6.1860278245219531
-6.19467352228497159
-6.20407126853565494
-6.21449267202483657
-6.2263840574361522
-6.57831756117492983
-6.58669993709912216
-6.59551190910644269
-6.6047601135046925
-6.61450419201722184
-6.97365928870445195
-6.98248184912287861
-6.99159429307476721
-7.00076814587936624
-7.0096975244991544
-7.37151575899677969
-7.38165275992848535
-7.3922251826012495
-7.40288027911602065
-7.41307323445953692
-7.77146581324788777
-7.78383225169807957
-7.79710397530403565
-7.81095848280734106
-7.82484636875760753
-2.39219747167757335
12.7502487368933828
-2.64267414230583064
-2.53295210056389131
-2.80385231374143373
-2.83328243871007501
-2.88765695008707857
-2.9553196414422489
-3.06626023710143825
-3.21775485950463702
-3.2362287346589893
-3.26697796649914096
-3.29778932591758434
-3.31486687293178184
-3.55424108641168424
-3.57372110807276089
-3.59643340162194658
-3.62145113414970155
-3.64311390458449669
-3.91496828495093663
-3.93123776807932535
-3.94906196794863495
-3.96873549317486018
-3.98640314692502074
-4.28031424932523574
-4.29424448343692156
-4.30960484247442999
-4.32725588198342415
-4.3460432667994251
-4.650308559868364
-4.66346306743492445
-4.67840375668276298
-4.69568500849450121
-4.71556918668329317
-5.02886812046650178
-5.04074212274410538
-5.05445317398927685
-5.07068461060432885
-5.09015334874491554
-5.41132020096534117
-5.42215738785419887
-5.43464488446427829
-5.44942963448102891
-5.46737976154245153
-5.79755842072351957
-5.80738933170191185
-5.81855383167550944
-5.83155428959973143
-5.84715761426904468
-6.1870348489182927
-6.19611433891381136
-6.20615737251803434
-6.217467797131909
-6.23054705298440048
-6.57962397539087807
-6.58843822837381499
-6.59789634634193956
-6.60806701098266647
-6.6190976895960425
-6.97515292746521443
-6.98441815216785322
-6.99417845172431907
-7.00426664271902588
-7.01445574728927124
-7.37313378637029526
-7.38373323570563844
-7.39496886284801569
-7.40654330156177476
-7.41797194775412194
-7.77315120066374998
-7.78599792265833557
-7.79995786124470403
-7.81477169854487741
-7.82995768267363434
-2.60341062720220062
14.530504322160624
-2.60681995804366462
-2.44454376836979659
-2.78981774693142537
-2.81145706598055778
-2.87205789981928294
-2.95280989631765589
-3.10618695273711554
-3.20084541600710093
-3.22054995441477843
-3.25465930917670399
-3.28820636769971175
-3.31393931255313046
-3.5526642495898324
-3.57151984070038298
-3.59491860639717631
-3.6210425384791125
-3.64634617580682496
-3.91428646478840125
-3.93124185295625272
-3.94953505067269806
-3.96966069895563622
-3.98937067152689195
-4.27726015375805968
-4.29159008054356139
-4.30807167462720741
-4.32690484418341459
-4.34732694934873276
-4.64724403979111589
-4.66136535693285214
-4.67756353627886767
-4.69604767526600586
-4.71705663479351056
-5.0279379052472466
-5.04048437506906222
-5.05490178860446537
-5.07182372551495142
-5.09193889575537995
-5.41127906107236889
-5.42255318559949639
-5.43561888890553568
-5.4510543916936296
-5.46965784591399995
-5.79817327160762463
-5.80837944749150914
-5.82007692633971274
-5.83374548621414757
-5.85013229039679583
-6.18802568775033102
-6.19746750286341985
-6.20804828808132747
-6.22009121403223109
-6.23413782582750908
-6.58084326302010414
-6.59002444660958275
-6.60002917436405045
-6.6109740532173058
-6.62307784448402881
-6.97651648936176816
-6.98616237727929335
-6.99647633389274581
-7.00734039898739614
-7.01858830981035631
-7.37459558855751229
-7.38559511427046456
-7.39740095900706152
-7.40975851430324362
-7.42222350566508826
-7.77466649123263043
-7.78792984473866667
-7.80248463683753624
-7.81812176278411108
-7.83440617165959363
-2.65192746224828912
14.5460361465719359
-2.56162516356900571
-2.35966920584180606
-2.7926251199256158
-2.81083278085984301
-2.87408154213680644
-2.97966809536782717
-3.14977405714051972
-3.19717568533105867
-3.21693331733719345
-3.25446164877637711
-3.29764520799678529
-3.32951170005941544
-3.5509797610705971
-3.57055559967633585
-3.59534034586127538
-3.62312226024736583
-3.65139311828991353
-3.91147843196610889
-3.92768859455504238
-3.94630647928320766
-3.96771653680933722
-3.99069790166768446
-4.27343684500372234
-4.28813127299976315
-4.30612359070531348
-4.32661598252208535
-4.3489970262909301
-4.64735325185061754
-4.66165964085916862
-4.67826265574004196
-4.69723502553684469
-4.71885153351164277
-5.02795473507083734
-5.04077922465205663
-5.05563655955179581
-5.07305397147454773
-5.0936698405802785
-5.41178449629512848
-5.42331773918290594
-5.43675598293127127
-5.45263609915243297
-5.47169058753164439
-5.79892625075413459
-5.80939495614834378
-5.8214833884624726
-5.83565326019701658
-5.8526274076454099
-6.18898423970259959
-6.19870023203559306
-6.20969676861748798
-6.22230564431295274
-6.23710057336893353
-6.58193265796767335
-6.5914044436496928
-6.60184408932927358
-6.61340119986601227
-6.62635508436215392
-6.97769928085036462
-6.98765343620991253
-6.99841421858107537
-7.00990066041964965
-7.02199304954804759
-7.37584673951241321
-7.38717353744826877
-7.39944366804740117
-7.4124343084446469
-7.42572647170591438
-7.77595738450630325
-7.78956271082102791
-7.80460472941205108
-7.8209125451692838
-7.83808113441081833
-2.52218487109079259
15.5516933129654262
-2.52760730209484441
-2.35678992826579137
-2.80444383625518512
-2.82154367185866395
-2.87727605489599236
-2.98498688534378065
-3.15548942366872787
-3.19612405877523065
-3.22058502492416077
-3.25912281451767649
-3.30160330993330486
-3.3404205122701951
-3.54616965053181454
-3.56906278490555495
-3.59550116658871399
-3.62602276714615313
-3.65979914834481113
-3.91078143278808676
-3.9265118240620307
-3.94615713115723965
-3.96938396203399613
-3.99441328011641161
-4.27469179148932366
-4.2894805367747928
-4.30788289718025919
-4.32904172038871149
-4.35235026906943201
-4.64870227341026165
-4.66305263158360805
-4.67976618330265648
-4.69893242763802821
-4.72087064567797654
-5.02877449714672142
-5.04167820480612683
-5.05675795475386902
-5.07444342415530159
-5.09533368968251832
-5.41267739905431799
-5.42429785100017092
-5.43792893959339096
-5.45406501273263267
-5.47340407224213976
-5.79977074072377796
-5.81037761122741969
-5.82271139581125396
-5.83721387085274657
-5.85460612543860215
-6.18985747624921245
-6.19975205070607949
-6.21103582422496814
-6.22404256144104906
-6.23937782463536195
-6.58284257794391703
-6.59252219932882078
-6.60327733614902712
-6.61527782591698177
-6.6288436659586516
-6.97865164661591386
-6.98883579581256864
-6.99993027336567852
-7.01187939220965717
-7.02459179106459342
-7.37683840152426384
-7.38841349364695787
-7.40103563900973338
-7.4145053821811624
-7.42842027787053372
-7.77697533125524387
-7.79084111356910025
-7.80625442125450597
-7.82307276796467654
-7.84091144553425856
-2.4472560737490241
16.2008127255175509
-2.48188632025579325
-2.2401245153936542
-2.8098678667438306
-2.82630701244690963
-2.88101421565071991
-2.98262327745081679
-3.14916845133435208
-3.19804443202708155
-3.22242606594435532
-3.26306725788903362
-3.30968185086344491
-3.34119883347223512
-3.55610287099679612
-3.57673172915386672
-3.60090210377411868
-3.62917485406707518
-3.6608114588209979
-3.91718995288165317
-3.93202543694008977
-3.95047237925049277
-3.97335077140354942
-3.99817833467197836
-4.280715028914436
-4.29357252907408071
-4.31097920062618911
-4.33187673588395938
-4.35522540887413001
-4.65131954748209786
-4.66511188718937042
-4.68157996124605269
-4.70067404386694498
-4.7226366189490685
-5.03022514394420028
-5.04302240307417105
-5.05801839674365539
-5.07569790296446843
-5.09662184485235237
-5.41373291280923219
-5.42527927992345749
-5.43893782680776106
-5.45516193366289048
-5.47460666657742756
-5.80054813189392338
-5.81119305722850399
-5.82364647236834809
-5.83832824180259102
-5.85595268221429599
-6.19054932618701415
-6.20053943175328115
-6.21199233338275025
-6.22524429747344765
-6.24091432853126182
-6.58350917754206133
-6.5933178668145942
-6.60427441637606627
-6.61656088383841379
-6.63051907637924565
-6.97932467499810638
-6.98965974349699781
-7.00097556223128503
-7.0132335618240278
-7.02636534604011675
-7.37752824851854783
-7.38926947489398067
-7.402129099658314
-7.41592633875378482
-7.43028080204028551
-7.77767962039206662
-7.79172052094595191
-7.80738491119759548
-7.82455151403959182
-7.84285940519085667
-2.02709123085770671
18.2037651439435422
-2.42958531724572779
-2.0780677031153032
-2.80746156306442618
-2.81657439492555373
-2.86565436166653198
-2.96628835803764312
-3.1502975802618769
-3.18740262979822919
-3.21554281602713266
-3.25471573658562363
-3.31070654706757006
-3.34318236892912646
-3.55473520029081547
-3.57924682314038645
-3.60737837061194888
-3.63447480763139241
-3.66501747030938807
-3.91925551485988732
-3.93737854027878509
-3.95523185121793119
-3.97678207255283844
-4.00080493640676238
-4.28572557531632548
-4.29816744846346754
-4.3142491707983126
-4.33414546041818571
-4.35718225014904714
-4.65454599200963148
-4.66747252070756868
-4.68314418609483951
-4.70186558080823147
-4.72367896760536965
-5.03163031610609934
-5.04408133395528147
-5.05890224916343012
-5.07647949820790423
-5.09732949497738907
-5.4145009105091555
-5.42595812961737778
-5.43957185289646006
-5.45577949975270293
-5.47521447091158109
-5.80105930664970604
-5.81168033675784734
-5.82416319032037411
-5.83890889196647045
-5.85661480739798801
-6.19093925883925689
-6.20096585259795408
-6.2124929770518218
-6.22585322905439931
-6.24166284704864704
-6.58386637727354085
-6.59373422291196309
-6.60478612428261602
-6.61720604750668251
-6.63134366730618741
-6.97967503549811585
-6.99008390960937032
-7.00150971995024474
-7.01392258652920297
-7.02727093274052539
-7.37788299856325125
-7.38970707496478418
-7.40268699868065028
-7.41665405700013647
-7.43124884993917156
-7.77803989326698986
-7.79216882591613036
-7.80796051509993561
-7.8253055545661665
-7.84386197180412204
4.71515499510928748
9.71143552107483288
-2.28757041239839154
-2.18998849430954445
-2.98258543054920233
-2.97442681864168446
-2.92097435799336091
-2.80902035489005542
-2.65503247492834582
-3.37800563474645532
-3.35966647406217023
-3.2971829291368282
-3.23658355515297647
-3.16345365336570827
-3.62525986220432817
-3.62486901466164824
-3.61464260141347671
-3.6109359735284543
-3.61633256111060319
-3.96169071639519776
-3.96463763839835792
-3.96769162630424832
-3.98150312466864209
-4.02180486227078759
-4.31081683647582814
-4.32020222747543237
-4.33160542192586462
-4.34837117222107228
-4.38306071753020365
-4.67214543261784776
-4.68300006986660566
-4.69578252292514442
-4.71237706650344013
-4.74186054695831238
-5.04074546246442345
-5.05155024357681182
-5.06370149615747511
-5.07842224477611559
-5.09964750206961082
-5.41519827709322854
-5.42463650934097696
-5.43507386550073068
-5.44765235468423104
-5.46408168141632444
-5.79496577871828045
-5.80228229356800007
-5.80927991494154838
-5.81649568397993733
-5.82642595960940657
-6.17968114378228783
-6.18539513138877695
-6.19021596818655961
-6.19475307022966426
-6.19960769990841509
-6.55668394359410911
-6.56319926234845319
-6.56920702585501637
-6.57448262982329101
-6.57885333098765823
-6.58192370609346078
-6.58325516779494624
-6.95017373296189778
-6.95680440588673665
-6.96310199399325036
-6.96871393796519367
-6.97317570595898673
-6.97589445986142387
-6.97617684902529334
-7.34515458911245656
-7.35242364762643597
-7.35960940892593651
-7.36631340259907486
-7.37198458726575456
-7.37588366845842458
-7.37702706373825912
-7.74097170230346698
-7.74945143599350406
-7.75821408773892252
-7.76686905001764938
-7.77483963598008376
-7.78129860754889702
-7.78515045448049925
-1.07862694310804952
1.32653012657971914
-2.21471301922557151
-2.24624885042506328
-2.94251419860137275
-2.91194803462710894
-2.85880886673172441
-2.80565425850981676
-2.71700349044468759
-3.35336470897486816
-3.33066660830065953
-3.27748165042590944
-3.22672488622509102
-3.18169169973030375
-3.63767790775205535
-3.62704617393042561
-3.6155660404692318
-3.60904192995342932
-3.62281644316490548
-3.96509411389584576
-3.9677933220424908
-3.97309540130520666
-3.98560881387636323
-4.01964766249464223
-4.31388462768987857
-4.32357917264311631
-4.33549488266489025
-4.35240898910940466
-4.38196599385990382
-4.67340456542140092
-4.6844559881122656
-4.69709868678781373
-4.71345216196148531
-4.74054337159271366
-5.04073548747592337
-5.05130318629143726
-5.06307244466985029
-5.07734796671223076
-5.09711641089530598
-5.41493855523456435
-5.42414770543821856
-5.43405926275894569
-5.4456303251791196
-5.46034673595081443
-5.79491765490587429
-5.80232993893949445
-5.80959597324949772
-5.81712395535085935
-5.82600101426940142
-6.1800621816121355
-6.18608832637980832
-6.19136039343563294
-6.19588427015395382
-6.19986215875281665
-6.55702478472630368
-6.56366522633590588
-6.56984951718214383
-6.57532257850195467
-6.57977637662530679
-6.58279495237171819
-6.58391651818283385
-6.95052260661875199
-6.95721410397077822
-6.96359939717935017
-6.96932339052829786
-6.97391031662355854
-6.97673922698775684
-6.97703440787084173
-7.34556910236425153
-7.35289015130068524
-7.36014867441560749
-7.36694635457385871
-7.37272572989881336
-7.37673271152842247
-7.37794408992194661
-7.74173243987282156
-7.75026862492328661
-7.75910186723878592
-7.76784062963936606
-7.77590251250613029
-7.78244759713202328
-7.78636812778431153
-1.45395283938920672
-1.28725990892935993
-2.12803766232436908
-2.05024189702793835
-2.94092259451399807
-2.87298921543790442
-2.77737975372348345
-2.69520993653811258
-2.59451462712733161
-3.34297088847978108
-3.32696846698316318
-3.26573350363507808
-3.19741909806649005
-3.13253032401716203
-3.63875024074399489
-3.63408004082199199
-3.61700139866830961
-3.60245418274793838
-3.59730263888277069
-3.96223685770714606
-3.96877836252354443
-3.97360534043998559
-3.97831849912355962
-3.99239387790806743
-4.31405632190239707
-4.32474246027423792
-4.33508412861625381
-4.34638072137169651
-4.36384625202689591
-4.67282768602363685
-4.68357109454296872
-4.69514288292684512
-4.70883401427632275
-4.72781451440719636
-5.04023703695605541
-5.05040741834194407
-5.06133385292944293
-5.0742493927756378
-5.09119267014767818
-5.41451286259936282
-5.42334814014358457
-5.43259231215200789
-5.44311638146022769
-5.4563285733083573
-5.79479165233726601
-5.8020664536857165
-5.80912883450655215
-5.81634787891241967
-5.82444343098272999
-6.18029058022289401
-6.18639061339017449
-6.19177701315804985
-6.19632531000407649
-6.19996751748418173
-6.55738091793838418
-6.5640682636858152
-6.57035101837636137
-6.57596902194404898
-6.5805883552918667
-6.58374522551111507
-6.58487786568434519
-6.95093616855601137
-6.95769406951502489
-6.9641942214491257
-6.97008553417951759
-6.97488811108632589
-6.97795680019055098
-6.97847538956679436
-7.34608273971280568
-7.35348842279067139
-7.36087869142118567
-7.36786464721937495
-7.37389374014221666
-7.37820494740299448
-7.37976957026390412
-7.74240535775060934
-7.7510456936633183
-7.76003250813869005
-7.76898898469175769
-7.77734964594298894
-7.78429744698562143
-7.78869629934968266
-1.19884835830803604
-0.767232790240374385
-2.11008699544016221
-2.02957456608912867
-2.97974005231729944
-2.89162240148750405
-2.75322491911981038
-2.67782240572526975
-2.62013989929917557
-3.35391180942093969
-3.34625147311428606
-3.27832970749459607
-3.20032350848481784
-3.14129355435365021
-3.6448369354498471
-3.64822164536780003
-3.63033424960578888
-3.60217099368206295
-3.58440233723118862
-3.96160243300180515
-3.97060018229463063
-3.97530584591005498
-3.97370575442951424
-3.97623016400041074
-4.31310569067001293
-4.32407799865443465
-4.33270987610657166
-4.34095031230940176
-4.35307152971816702
-4.67173469826136234
-4.68186605166377134
-4.69232892718725569
-4.70445213146337782
-4.72058682382939221
-5.03947550793179921
-5.04926671621520562
-5.05953849051575943
-5.07161138315755267
-5.08728993125237938
-5.41410326584138257
-5.42271723395689609
-5.43165183262488771
-5.44175819226999202
-5.45434931944888213
-5.79486916286802423
-5.80213292514156276
-5.80919826580656373
-5.81640720322427995
-5.82437171255372288
-6.18075596346012457
-6.18698434738865544
-6.19256020171547394
-6.19733449303350348
-6.2011792464899953
-6.55793492388424504
-6.56467467682823358
-6.57107795979174991
-6.57688921120051084
-6.58177516985128719
-6.58526979550655689
-6.58678152709525122
-6.95157646844659549
-6.95842333457694906
-6.9650796625333804
-6.97120686670760303
-6.97633642543246157
-6.97982352115346139
-6.98083285189438296
-7.34681722874181276
-7.35434315181629561
-7.36192269683052647
-7.36918532942737858
-7.37559787129469324
-7.38041545061717486
-7.38263132903147579
-7.74322415769136452
-7.75201265023970709
-7.76122306453478039
-7.77050445255863309
-7.77932316364939958
-7.78689878788174461
-7.79212894250336063
-0.900132652811220346
-0.909227202485006103
-2.08327465869980566
-1.99810644429497963
-3.02196826777505123
-2.9835155357940879
-2.82182930700841661
-2.71543210110769584
-2.6783033021321665
-3.35892703312049967
-3.38920886650883135
-3.32644992754416657
-3.23527217522293542
-3.18147982794506756
-3.65407904213921064
-3.67107634560806817
-3.65582674167605592
-3.62140518200290229
-3.59322657517204602
-3.96303917949870055
-3.97611408606665684
-3.98262741358482231
-3.97712328233970425
-3.97246270834691417
-4.31077159405295252
-4.32159110771712296
-4.33015634089827284
-4.33756567995810016
-4.34721251542277543
-4.67013226471479204
-4.67989309609909832
-4.68988620216777807
-4.70167291774512108
-4.71688851995073577
-5.03843278662242255
-5.04795454158218782
-5.05803356135107762
-5.07006975088331568
-5.08563465958007832
-5.41368484184645737
-5.42222197960332331
-5.43117822702517916
-5.44146688112719978
-5.45435153167566966
-5.79504682766987234
-5.80242519309517224
-5.809742264544413
-5.81737943127000268
-5.82596857942338442
-6.18136683470223147
-6.18782159769710116
-6.19377350972844631
-6.19911958365303128
-6.20378779676453807
-6.55859823083655247
-6.56540994837759229
-6.57198012690099187
-6.57807418422945034
-6.58338705352937126
-6.58749526767807314
-6.58985738026731838
-6.95235752269319729
-6.95932110327229392
-6.96618475739140575
-6.97263402517723829
-6.9782302910836993
-6.98236222070545942
-6.98422471046288518
-7.34770103574452094
-7.35538119907541521
-7.36320638706583708
-7.37083482805694334
-7.37776834678238735
-7.38330057084766533
-7.38646940812529085
-7.74417223183757564
-7.75314646433081389
-7.76264056134303093
-7.77233939259208562
-7.78175541043172547
-7.79016430189092812
-7.79652759061613665
-0.677985160646222162
-0.731975983836298028
-2.03127706325555923
-2.03557596519482109
-3.00796288071141404
-3.03156670588907495
-2.91062502760072306
-2.7889315635846974
-2.71964006326736341
-3.33687592496003216
-3.3953776059747578
-3.37386273500725586
-3.30262735970502952
-3.2273384785385848
-3.6431682722765335
-3.67316688527376378
-3.68535487223548319
-3.65660132076215527
-3.61809038091034285
-3.96236727171625702
-3.97955581033948258
-3.99401334872427061
-3.99214175366194457
-3.98172408295480906
-4.30719662713733342
-4.31757810244257811
-4.32854692824201592
-4.33864219587873112
-4.34753435400066657
-4.6679108702501857
-4.67749459638385279
-4.68794676300472712
-4.70066250713050593
-4.71583248180533765
-5.03711876984616325
-5.04658279280633071
-5.05693717475680593
-5.06950503667536978
-5.08539150779108073
-5.41328522940927037
-5.42191140165724583
-5.43117011959074603
-5.44203345288618845
-5.4556398587235222
-5.79533897538668885
-5.80296419960429244
-5.81074613364595116
-5.81912847160475621
-5.82878865572001192
-6.18213570922591593
-6.18891850288699619
-6.19541655390847978
-6.20161046458735132
-6.20754280090548338
-6.5593645334898838
-6.56627495112584114
-6.57306274383101652
-6.5795286689648993
-6.58541772199572684
-6.59038294645518974
-6.59398782806650541
-6.9532600695992608
-6.96036875635638896
-6.96748867945269357
-6.97434076371046796
-6.98053341984952347
-6.98551741437809603
-6.98856181068430793
-7.34870656148535506
-7.3565706609437358
-7.36468988315613782
-7.37276067181894046
-7.38033352753707206
-7.38675959673806926
-7.39114239184837984
-7.74523466529781501
-7.75442403457365703
-7.7642484621128931
-7.77443671606988751
-7.78455899347181024
-7.79396459514975515
-7.80171174495735897
-0.524478868468276627
-0.560487339152121233
-2.11382148395000247
-2.28949980300955191
-2.9579960541038659
-3.01064814451793161
-2.95251148485956261
-2.84320382947028172
-2.79012034704659895
-3.31145002619531725
-3.37625684026951323
-3.39562946212972205
-3.36338226830927711
-3.27860524870825287
-3.62772670972089406
-3.65963679449858903
-3.68581444740925157
-3.69882007698990511
-3.6629727953469402
-3.95709209251052751
-3.97503706024308645
-3.99672703263548712
-4.00914250477030532
-3.99986124679251587
-4.30331566725871273
-4.31328353137296183
-4.32724957671511223
-4.34059972106731529
-4.35098694843320288
-4.66536019803695723
-4.67473301009236319
-4.68588692416232
-4.70010121865915487
-4.71598631667951818
-5.0356723664255636
-5.04531595229813057
-5.05610315552059308
-5.0693445577260583
-5.0858255335985012
-5.41290158601958193
-5.42177126990044389
-5.43149996219601938
-5.44309411062686799
-5.45758046538912112
-5.79571485883328652
-5.80370226939939737
-5.8120980972171381
-5.8213973613741743
-5.83230768917215059
-6.18303004161114877
-6.19022862348098535
-6.19740069830947249
-6.20461661179755453
-6.2120431789554571
-6.56020344169021996
-6.56723957082992715
-6.57429031897670946
-6.58120129995965719
-6.58777940343416724
-6.59376967364019162
-6.59886643916017235
-6.95425198396991995
-6.96153053674198841
-6.96894674352772014
-6.97626514142905574
-6.98315281649805542
-6.98914053998942286
-6.99360016648020366
-7.3498033028698817
-7.35787404824986524
-7.36632331757591707
-7.37489259785722151
-7.38319078502702197
-7.39064195282293923
-7.39643767848419564
-7.74638576992984085
-7.75581008472928701
-7.76599607921651369
-7.77672165916880775
-7.78762206020054126
-7.79812984908186824
-7.80740360902238439
-0.818567790408661677
-0.74737668826635506
-2.37387563561852977
-2.54904355807586835
-2.88711162304730085
-2.94324806681210216
-2.94569562303438781
-2.8918673288204273
-2.90108686306163444
-3.29047996248943386
-3.35576259005790511
-3.39038427747020643
-3.38835198932378123
-3.34326417516361385
-3.60668527987741561
-3.63847481641003467
-3.67263128283019791
-3.70770320329818137
-3.68942444405245107
-3.94680736682293309
-3.963178143791112
-3.98356689228753513
-4.00249588180374793
-4.0045965899910092
-4.2976376621011072
-4.3075969742662652
-4.32020805152046528
-4.33533441944376285
-4.34837119933451621
-4.66201903708278387
-4.67194182961132665
-4.68332604987048562
-4.69784021062583879
-4.71476697335941086
-5.03398216485777272
-5.04398519690337643
-5.05526541133801732
-5.06911873091883081
-5.08633738862305496
-5.41250286370512246
-5.42176544156961526
-5.43209040359338147
-5.44444593253952469
-5.45983155674711629
-5.79614296562631637
-5.80456598132934332
-5.81365491563421966
-5.82393898470626503
-5.8361508347093487
-6.18400688599133286
-6.19167776456004582
-6.19959324803438783
-6.20790752707961424
-6.21690172406398389
-6.56108661425605888
-6.56826688627981792
-6.57561051499036786
-6.58301061618240801
-6.59033928190062479
-6.59743725723621921
-6.60413440085994452
-6.95529868826509468
-6.96276339234303254
-6.97050068629267727
-6.9783225299305931
-6.98595946074911112
-6.99302814084675539
-6.999014137164
-7.35095736625608165
-7.35924791700067082
-7.36804715850713166
-7.37714522443566523
-7.38621388579357863
-7.39475577882322366
-7.40205543260346133
-7.74759345708757685
-7.75726195928845019
-7.76782391911571235
-7.77910869822923079
-7.79081921383613629
-7.80247472217988136
-7.81334024689790407
150.316784608270837
121.695313846745989
83.9111006349580748
74.3368742215411658
46.8317238408762933
49.6394817112788473
43.4469411828680876
18.9122741113552877
23.6060841894796738
25.2833198396970715
24.0590750419428829
91.2990210973763396
83.8944272296228633
51.9283286098664689
48.7937014808827598
23.7920647589234591
27.3318278651615287
22.1527077345170369
7.02882130045799158
9.52341546101433778
9.70794959388078382
11.8223288749874129
63.1474244902851751
79.0456287065372152
39.3142093707168385
52.9792066734998457
18.1985509800916816
18.6755135818035285
17.9679697136189702
4.78708295974797693
5.62038778508639325
6.56129109649522491
6.87780877284579617
42.0694468039917098
65.2285455639092646
22.8965239523903108
36.0097379771492854
8.05581938415506471
11.1613703057690046
14.6090157739041757
2.29156891433897414
3.6927904965356646
6.02281323798121981
7.22465519771493803
41.347204115999773
55.5816960233860442
18.6310787512021676
23.1897585320418926
4.65241800522522908
7.32614208827721569
9.59117008747263
-0.222076828918056357
1.19980824879947168
2.84470331273791555
4.66325551781460845
47.8529181470631073
58.2940930632480558
22.4822629364923117
29.4093663691920426
6.02185545264040911
8.82605920377283937
12.355136412725912
-0.449705261930597011
0.175985001555869047
1.96387437571112144
4.64284493078070071
6.38430281866283167
39.2690673866615612
7.27964220129231876
16.2244410878771532
-6.41639127915769336
-8.22549551471831819
-10.1395600087245725
-9.4908015316284029
-19.9015212075917134
-21.5906885100031687
-20.6787480236546877
9.06752924500727886
6.88864065293762451
-28.344927452185857
-48.6110176738829978
-97.0725566872987429
-100.806349954975872
-130.477757993923603
-76.411369018423656
-121.439083486666277
-138.866130845160569
-161.263357753024138
5.98790809184831119
4.11632206567455583
5.35943467756104397
6.76681787244121935
-1.8926904591621132
-1.35487543454973314
-0.824573037936275011
-0.171821777383389218
-2.47916073051445984
-2.34991838943198594
-2.21664732103956696
-2.01546425395128104
-3.09462506053250985
-3.02366405874037625
-2.96642312169806166
-2.92043766749023526
-3.61145107357326633
-3.59234938513107327
-3.57586214132921976
-3.56243334629455699
-4.05034894298672032
-4.07233361556285267
-4.08618748068180526
-4.07693732078969084
-4.42591420681717107
-4.45811958212211934
-4.4857336674059729
-4.50849340638027662
-4.78335498719047525
-4.82085294805749864
-4.86090764461267799
-4.91158318363503188
-5.1310585182239743
-5.16982115388688435
-5.21778730399627566
-5.27906836484994724
-5.48673645055582249
-5.51594756140965092
-5.55903379737140746
-5.62464647927088457
-5.84072074180356005
-5.85923919634068913
-5.89030247774093851
-5.94225138195907565
-6.20471999225354587
-6.21126097629916973
-6.22542194863421106
-6.25101142084835892
-6.5826210924653159
-6.58129636373130378