/*--------------------------------*- C++ -*----------------------------------*\
| =========                 |                                                 |
| \\      /  F ield         | OpenFOAM: The Open Source CFD Toolbox           |
|  \\    /   O peration     | Version:  2206                                  |
|   \\  /    A nd           | Website:  www.openfoam.com                      |
|    \\/     M anipulation  |                                                 |
\*---------------------------------------------------------------------------*/
FoamFile
{
    version     2.0;
    format      ascii;
    arch        "LSB;label=32;scalar=64";
    class       volScalarField;
    location    "0.720000000000000417";
    object      p_rgh;
}
// * * * * * * * * * * * * * * * * * * * * * * * * * * * * * * * * * * * * * //

dimensions      [1 -1 -2 0 0 0 0];

internalField   nonuniform List<scalar> 
7248
(
0.106465413435608142
135.247202850430938
0.109493155328713718
-0.0257989073013180151
0.201673662337814669
0.764567808461183218
1.45527717760930408
0.917333174365822179
0.0338105247762841218
-0.0118613320732361277
-0.0209192994023594675
0.603583523048105475
1.56318754946732619
0.528532749991352357
0.0337791879254702165
0.00680687393285849332
-0.027263981142939181
-0.0588638380418184184
-0.0581382399293983859
0.0507547018552374843
0.0369144775731981498
0.0193380734810040915
-0.000493740418880535292
-0.00986810092047204178
0.0618058671853292108
0.0512099995154983306
0.0382688152271999787
0.023051081389993934
0.00802698493275022344
0.0625712717882725006
0.0517007042149479276
0.0394935064344165351
0.0245125942365905028
0.00678760561180812103
0.0565304819964843677
0.0460726573678448964
0.034163683761242826
0.0196828424894531541
0.00177122390239683905
0.0446726100100771281
0.0349275212017198244
0.0239169837335723758
0.0107651235811089124
-0.00552487718206612181
0.0280896863784021872
0.0191957312531376503
0.00938794679018420224
-0.0018712442963453597
-0.015314829761740761
0.00754621371061867628
-0.0006185691965887324
-0.00929107483188196248
-0.0186973424694898901
-0.0291923643851509373
-0.00155231465039740082
-0.00888320600820723116
-0.0165293759354202263
-0.0244307719348963309
-0.0325199334548124247
-0.0407268703893592168
-0.0490068577018600154
-0.0280568780346734312
-0.0357129096189725895
-0.0437783262893414252
-0.0521121219631551502
-0.0605050455755626534
-0.0686556671341826269
-0.0761629321437997386
-0.0559463664433037869
-0.0644602458050137078
-0.0736126951323054501
-0.0832425622189659209
-0.0930814037119284537
-0.102709374124805033
-0.111504540405111777
-0.0847593258391309418
-0.094671312594629603
-0.105606743926124985
-0.11744616922443267
-0.129958134928390923
-0.142745882068370411
-0.155174151199007099
-1.04881044584332495
178.438971376651665
-0.0290544243224457391
-0.00680978466779010375
0.898959856939206103
0.554108754138231352
0.270662477890927344
0.224361283318282839
-0.132043288371811979
0.030133948838274513
0.00330030048078580216
0.197948227416307937
0.631155846055574288
0.386437512773119385
0.050319819012126038
0.030370383169316964
0.00445895805907440407
-0.0220776490214790802
-0.0345051835325036887
0.0621247985247176601
0.0477771885450227196
0.0312807184128010701
0.0126829702267607126
-0.0016709642097407849
0.0681499021648316189
0.0557732799616387151
0.0418929654040965244
0.0254152644950713866
0.00827342564237341059
0.067127835597251731
0.0549540580009109728
0.0413030206444423356
0.0252085880663095799
0.00648009810680702514
0.0587658197219444942
0.0474383435963678587
0.034558261702211851
0.0191668549937270387
0.000451371431460276305
0.0451827508308667858
0.034866336069637148
0.0230816351538124624
0.00907279717370294662
-0.00807516082016507958
0.0276380178334545076
0.0182583864411579345
0.00773838337653264246
-0.00444528130180772175
-0.019023846369112446
0.00653469289930607659
-0.0021110112690889745
-0.0115086617703805353
-0.0219301182655240907
-0.0337912594075138878
-0.017880060892452334
-0.026262436874137169
-0.0350743121483931344
-0.0443224741403778766
-0.0540666920171619589
-0.0453467887037527287
-0.0541693491142827763
-0.0632817930747673202
-0.0724556458793666203
-0.0813850244991535382
-0.0753282589967799454
-0.0854652599284817516
-0.0960376826012472873
-0.106692779116020042
-0.11688573445967744
-0.107403313247884505
-0.119769751698077478
-0.133041475304035373
-0.146895982807342257
-0.160783868757608556
-0.900011987131428715
214.63396433494637
-0.0663865841611348262
0.0160808757088526863
0.981056977467383629
0.58623036359239511
0.0161955458571391916
-0.0505905631924252475
-0.169000948305472326
0.102551947533818077
0.0331551798778146264
-0.0173346724540110533
-0.04789219615552405
-0.0619868061108806573
0.0641955494109753694
0.0443277134485336247
0.021269669911054407
-0.0038487970280749878
-0.0254826949001444036
0.0711885059822488647
0.0544473227853286071
0.0364165577892999956
0.016668472387474504
-0.000911726006558691271
0.0733815809993446228
0.0591564543018771385
0.0436423237063825187
0.0259481888942975358
0.00737186855115865448
0.0707565805104177076
0.0576004291552161193
0.0426606684461888555
0.0253854186313902351
0.00552335465357929427
0.0600693801346681988
0.048195480753507991
0.0344862965523279469
0.0182541150535200647
-0.00121462941240283091
0.0454923105545836579
0.0346552722349468198
0.0221684242666581877
0.00738299946330116686
-0.0105500338236539475
0.0271290981247772241
0.0172982750976692252
0.00613378021801746273
-0.00686671172195303919
-0.0224258846683147127
0.00552767851481938272
-0.00355182672646460907
-0.0135947559275846688
-0.0249050694186197484
-0.03797037858457427
-0.0191864750019406054
-0.0280007280995016594
-0.0374587095546569937
-0.047628771859361603
-0.0586601895959514563
-0.0468404274652292965
-0.0561056521569738426
-0.0658659517243194992
-0.0759541427171309957
-0.0861432472892719875
-0.0769462863703103545
-0.0875457357056404484
-0.0987813628480151001
-0.110355801561776309
-0.121784447754136368
-0.109088700663748511
-0.121935422658335776
-0.135895361244702195
-0.150709198544879519
-0.165895182673634956
-1.30341635734575134
244.976204809162425
-0.0556178428084754123
0.0983341363767763765
0.462958720828777537
0.368669224253718009
0.0405748764930842498
-0.0536167787752022118
-0.201242893598817807
0.254400745199235057
0.0638491166535436888
-0.00412968413087571283
-0.0231970362137185852
-0.0380100245337969961
0.0670332055901398521
0.0469930674135632456
0.0230846101712272357
-0.00331200032790705985
-0.028726008680267142
0.0730127011445858148
0.0560391095179388482
0.0363665101231969087
0.0157591851582744198
-0.00398336546337382021
0.0834726251548018744
0.0690843460859220798
0.0479486554937310211
0.0262980856699375244
0.00601840273318714637
0.0740552521733359448
0.0597001545344459719
0.0435019813398429475
0.0250252322975012924
0.004042964501029013
0.0609996027922116713
0.0484533567499340692
0.034038580157602312
0.0171258480375326844
-0.00299634621070991869
0.0455334430421815983
0.0342595833775741626
0.0212026425618320226
0.00576223254564842136
-0.012841197022710327
0.0265142620263597306
0.0163081194370133381
0.00461062852771043294
-0.00905791004136144266
-0.025428069045489686
0.00453684706837064518
-0.00490498967365588564
-0.0154857532627165964
-0.0275286754842043006
-0.0415542895303025878
-0.0204057622089627543
-0.0295869461980017567
-0.0395916171898743341
-0.050536072437301148
-0.062640344484000049
-0.048203989354622348
-0.0578498771945893039
-0.0681638338884756334
-0.0790278989873955534
-0.0902758098103569884
-0.0784080885575145631
-0.0894076142704650217
-0.101213459007060913
-0.113571014303243456
-0.126036005665090933
-0.110603991232631288
-0.123867344738666896
-0.138422136837534349
-0.15405926278411089
-0.170343671659593243
-1.60023931735757574
269.870186271126499
-0.020742071227158404
0.19565386652008307
0.160874959289973224
0.0857735515011347482
0.0162802686513014092
-0.0679586465092405778
-0.229600774345419284
0.196513239619225649
0.0343567194668231712
-0.00303647003939573872
0.0902123027040409725
0.170912281514685266
0.0678806189047184705
0.047548791766116455
0.0233110244889906254
-0.00555142471370482886
-0.0338680186466277233
0.0751213596476859174
0.0579287786518749015
0.0391320962019210059
0.0176442566353799957
-0.00538540166885144965
0.0802725590521049942
0.0657586715365897911
0.0474097093317804655
0.0265993478978899175
0.00428543934578752648
0.0737098592849876749
0.0594031575327902753
0.0428017260071373098
0.0238398752758710204
0.00226450270539752582
0.0609828070745551051
0.0481584127488517144
0.0333054804170680036
0.0159040258161751123
-0.004722848682253423
0.0450280703709608765
0.0334948926067187083
0.0200658599234397432
0.00418113040602231464
-0.0148725596958512226
0.0257613432935445037
0.0152930885568710508
0.00320416227135950906
-0.0109656811264962368
-0.0279227447409482674
0.00357827382388873662
-0.00613772861401709266
-0.0171342298089148456
-0.0297427106444893181
-0.0445162411778270289
-0.0214951577756143479
-0.0309669430624308802
-0.0414065038312098274
-0.0529617089498371774
-0.0659175583064550846
-0.0493867808286282961
-0.0593409355298975955
-0.0701017179920143257
-0.0815881591144049928
-0.0936805495480444311
-0.0796592395124144648
-0.0909860374482680812
-0.103256168047398691
-0.116246808444644564
-0.129538971705914274
-0.111894884506303124
-0.125500210821026359
-0.140542229412049163
-0.156850045169285107
-0.174018634410818329
-1.29446876146673606
298.290850640382814
0.00975763298874783233
0.187839373038121593
0.0870760054768399405
0.0663159698043522261
0.0172836859674079732
-0.0560154568963359134
-0.221675400076954965
0.0575335483026468905
0.0306693084535673115
0.0233198586969696059
0.199922295742116229
0.152264782911018109
0.0728356241874590499
0.0490160023341757456
0.0221631843789942863
-0.00832745268614402089
-0.0423134153829756582
0.0747496632666247302
0.0588783555202597869
0.0391844378138489075
0.0159481127496598346
-0.00908561177424041695
0.0784794572527730966
0.0637027523029098375
0.0453063551915841925
0.0241540814115773946
0.000907346288449339239
0.072360235059737224
0.0580100112123232148
0.0412982150162137795
0.0221409709778758908
0.000224640050636784307
0.0601630572729628943
0.0472594008958044515
0.0321897751965948484
0.0145164053589643162
-0.00637919740445754783
0.0441351775651559267
0.0325153722704110137
0.0188918707297082607
0.00276394334889944714
-0.0165852496057700451
0.0249168511533515748
0.0143119729811781293
0.00197666397497368081
-0.0125234899367242022
-0.0299159024297886954
0.00270503233663425303
-0.00718954734054417371
-0.0184733170476607533
-0.0314765569140638413
-0.0468125046175926138
-0.0224050776443139518
-0.0320846960026462333
-0.0428398258863754364
-0.0548395462329660313
-0.0684058581232711432
-0.0503391465778821462
-0.060523294396925463
-0.0716177676145256931
-0.0835668922096566569
-0.0962792910645912242
-0.0806509015242648231
-0.0922259936469576186
-0.104848139009732833
-0.118317882181161696
-0.1322327778705496
-0.112912831255243734
-0.126778613569098059
-0.142191921254506831
-0.159010267964677765
-0.176848945534264335
-0.936363685213661423
320.548192160591896
0.0626804508336248623
0.313528329638337933
0.105640222882916274
0.0674508230406729165
0.0155594405926146699
-0.0655544434516171087
-0.222292690685554795
0.0846825779621033226
0.034032119984200089
-0.00780275786266285826
0.0131714845441704004
0.0620921931038820388
0.067472945194273326
0.0421996215899891336
0.0177787858763674422
-0.00562273771976033038
-0.0411173540168905671
0.0696737451502225102
0.053679903562074173
0.0349529296197179859
0.0119998597888017391
-0.0128380369031903755
0.0724437079071953566
0.0596136817502375752
0.0422121085464348678
0.021317720589792883
-0.00202217226836924006
0.0697425343348688914
0.0559506144351383378
0.0394843940627955733
0.0203960276861097738
-0.00155817566926568212
0.0587124422830046788
0.0459152374736973429
0.0309269538576294259
0.013257848689762276
-0.00766616311214037179
0.0430798804743739647
0.0315344654043258205
0.0178833896893238094
0.00166872965206372342
-0.0177866238156196704
0.0241397890637719617
0.0134966843771864194
0.00104168027019880378
-0.0136361968180265195
-0.0312635326171112407
0.00201318148353536557
-0.00797689748591424476
-0.0194298044851164524
-0.0326789775969710886
-0.0483506783696256298
-0.0230716773459051783
-0.0328803652536926797
-0.0438368661762566225
-0.0561231618244798156
-0.0700813981957283394
-0.0510121749718552564
-0.0613472418434709912
-0.0726630603880484421
-0.0849210618240275883
-0.0980527725102275927
-0.0813407485185478896
-0.0930819748939805819
-0.105941599658313387
-0.119738838753783106
-0.134093302040290407
-0.113617120392064869
-0.127658020945952272
-0.143322411197595811
-0.160489014039592176
-0.178796905190859418
4.57358990239206964
340.633029271154726
0.124040101746481432
0.495405204292820922
0.665711882417735823
0.360706987891773023
0.0455280952517584381
-0.0405172955646792288
-0.220843359405704348
0.704557145200659485
0.652771317638943249
0.217844529020512184
-0.0256298201062045601
-0.0492571613394564775
0.804142043709285992
0.368560577370564191
0.0210906425405212837
0.009698318997735959
-0.0205077868300278104
0.345883693962425354
0.0520531266106941184
0.031179609940494124
0.00883877904200683351
-0.0153890405464221086
0.0678002581731944887
0.0550846872519841282
0.0389628634938514948
0.0190539801746154452
-0.00397671371180138497
0.066510706332113631
0.0535866115319374448
0.0379193347490043645
0.0192021145861149094
-0.00260006236133710454
0.0573071841190242529
0.0448563881117378521
0.0300372104853701555
0.0124637914902691483
-0.00837510097651829669
0.0423115992037968944
0.0308549145227740296
0.017247333544060682
0.00105130849381520372
-0.0183925527661855277
0.0236282420675573181
0.0130087705505967152
0.000524766469086137416
-0.0142071584877709722
-0.0319241092454852909
0.0016232644461540342
-0.00840334864355314626
-0.0199304671610035372
-0.0332869723263854098
-0.0491000675343030712
-0.0234288767951418148
-0.0332967219223730751
-0.0443486178666471706
-0.0567685474573822804
-0.0709061615994409089
-0.0513625354836826989
-0.0617714094859258614
-0.0731972189170414372
-0.0856100865292006297
-0.0989584207721534437
-0.0816954985632512287
-0.0935195749647841634
-0.106499498680650839
-0.120466557000137281
-0.135061349939170655
-0.113977393266987068
-0.128106325916128611
-0.143898015099935245
-0.161243054566166361
-0.179799471804121896
97.3402383524839792
160.48286797856241
0.316137650443773954
0.48699342040717053
-0.0761786910472108253
-0.0842427449668733674
0.0114207328585112355
0.116707783730974624
0.296423759606105675
-0.109614792600518984
-0.106955415417551492
-0.0110720641695815671
0.0359081845991226986
0.123877290978041885
-0.00682435503320183694
-0.00595595221497150201
0.0285986414006055532
0.0272704175423013652
0.0195789189732498148
0.0236663524473701599
0.0207677179176104197
0.045643630723116238
0.0199109532686274175
-0.0299968494001013608
0.0425175241826683883
0.0330183187855833393
0.0215846018961970317
0.00497676835095389476
-0.025479801343321614
0.0489183464544519428
0.0380638716397147178
0.0252814119806288005
0.00891536203564037739
-0.0200239486334899859
0.0481921981360801943
0.0373892496374601049
0.0252439761678853215
0.0105698079899201203
-0.010653982338357194
0.0416150987475727221
0.0321762759379527405
0.021746766439574329
0.0091653682993795161
-0.00726506431679722377
0.0297217207745913738
0.0224052054450108833
0.0154075844598936616
0.00819184591483300244
-0.0017384161570301621
0.0128813548224631889
0.00716736731142492926
0.00234653125783556215
-0.00219056910408166718
-0.00704518993643910192
0.00375355640132071441
-0.00276176240254430959
-0.0087695266874483549
-0.0140451304688659177
-0.0184158312254077208
-0.0214862050587172199
-0.0228176645462186932
-0.0218612329619090294
-0.0284919058870385204
-0.0347894940002049097
-0.0404014380032756693
-0.0448632059755812163
-0.0475819598609107247
-0.0478643490096163152
-0.0489670891124562579
-0.0562361476264373814
-0.0634219089259417529
-0.0701259025992377466
-0.075797087265797633
-0.079696168458429209
-0.0808395637382591792
-0.0769092023034668171
-0.0853889359935049025
-0.0941515877389204059
-0.102806550017649642
-0.110777135980084776
-0.117236107548896989
-0.12108795448049707
0.858618502651277371
52.5401474063148868
0.388806288731159522
0.341358738860842781
0.416622233054770474
0.291527340497837295
0.182378575158020001
0.163072524031304927
0.236014555910408791
0.145629440766397916
0.163548475683377409
0.0562691997139900951
0.0575361691357560157
0.135504534844070601
-0.0202024576047929207
-0.00953476745266013982
0.00969716803509347927
0.0136293846439324677
0.0278509923041820179
0.0202282348503841428
0.0175501875801486115
0.0140827694684548047
-0.000219586575099898606
-0.0197691025506809767
0.0393610725317694657
0.0296452160863041811
0.017698193391300656
0.000820261542971816244
-0.0237158085021170785
0.0476579739929850407
0.036606930203250454
0.023964866350745323
0.00809108795344537848
-0.0194648829473795353
0.0482020131502844743
0.0376350503721456162
0.0258652466360000839
0.0117173214928873674
-0.00816886529602032715
0.0418739464897901897
0.0326663732731467468
0.0227573689832404613
0.0111821751663261065
-0.00353412824052642526
0.0297698450796783191
0.0223575609829226828
0.0150915267193913408
0.00756354464914044729
-0.00131350152297110751
0.0125003182576189469
0.00647417349819355125
0.00120210654065719944
-0.00332176994990594603
-0.00729964055793037685
0.00341271527278868333
-0.00322772634836974081
-0.00941201725212667366
-0.0148850785571407358
-0.0193388766253060375
-0.0223574521522788977
-0.0234790148443494232
-0.0222101066187528097
-0.028901603970867034
-0.0352868971806040016
-0.0410108905314296793
-0.0455978166247269015
-0.0484267269850502183
-0.0487219078562909913
-0.0493816023642509247
-0.0567026513006846852
-0.0639611744156080436
-0.070758854573864452
-0.0765382298988137727
-0.0805452115284242959
-0.0817565899219469122
-0.0776699398728216001
-0.0862061249232866783
-0.0950393672387840477
-0.103778129639363212
-0.111840012506130959
-0.11838509713202422
-0.122305627784312476
0.809518505333265193
7.18301612208748619
0.498488276884780368
0.52582637091680251
1.9018137580275245
1.63496955426918711
0.369473116769329257
0.277625617236263111
0.334682565726880987
0.115958935007327388
0.218648167187744324
0.153894558876713938
0.109555395956921653
0.154978781525803078
-0.0213004112184686928
-0.016602754592270362
0.000521477432547248028
0.0166954001262775535
0.0310110770438990699
0.0230810112890287231
0.0165566458397290069
0.0117508054477633694
0.00711712441132423407
-0.000613961329872434163
0.0391606971398522422
0.0287630280230306082
0.018186414685305869
0.00690156629216734287
-0.00723862875940301832
0.0482753574949743511
0.0378726014751022688
0.0262282402339892064
0.0127125468563735067
-0.00653359338404270289
0.048700360626618075
0.0385300816580570957
0.0276036549745171736
0.014749515864208208
-0.00223144923507899006
0.0422996333833719762
0.0334644685072181952
0.024220328342910883
0.0136961281071903539
0.000484576852969064917
0.0298958483040129876
0.0226210588161517012
0.0155587502316203996
0.00833963098269973994
0.000244332033634913693
0.0122719197318233043
0.00617188659698593781
0.000785487038877598809
-0.0037628019628446435
-0.00740482158573247534
0.00305658206146357117
-0.0036307636877704573
-0.00991351838307043612
-0.0155315219491447311
-0.0201508552876228479
-0.0233077254787031965
-0.0244403650798393421
-0.0226236685560106121
-0.0293815695150336231
-0.0358817214492313727
-0.0417730341797355603
-0.0465756110863803433
-0.049644300189227053
-0.0501628895646167444
-0.0498952397128049896
-0.0573009227906717614
-0.0646911914211852901
-0.0716771472193732939
-0.0777062401422146526
-0.0820174474029950612
-0.0835820702639035601
-0.0783428577506092017
-0.0869831936633161662
-0.0959700081386880149
-0.104926484691758123
-0.113287145942987
-0.120234946985622537
-0.124633799349682994
2.13688571352891499
14.6237002191793195
0.721444267327556621
0.669752554507992537
1.92895992747597145
2.22058295765220626
1.01546831376173197
0.417494835329323688
0.42173393197891057
-0.00674363996919978038
0.529167410612545241
0.551721101450477369
0.176185994992181211
0.162981900517909173
-0.0273686550220380471
-0.0307055984811567574
-0.0127802195655594281
0.0154708434878288587
0.0335801219323657862
0.0237112293797790592
0.0149754544168948615
0.0105062848976932976
0.0121018088687407342
0.00939830797285698231
0.0403102191444580787
0.0306021478861699704
0.0239204030118779047
0.0136156214919076861
0.000215076807683670432
0.0502476118769038388
0.0410037206777709301
0.0303708358696631112
0.0172267446879900456
0.000480841173635273449
0.0494616913958309048
0.0396707547963961876
0.0293990094831510576
0.0173261900937551581
0.00164814067446606674
0.0427092235644616902
0.0340953118179102427
0.025161225683088706
0.0150544903489016786
0.00246399068281606421
0.029818349425914565
0.0225546539121991817
0.0154900567237127654
0.00828118882325117739
0.000316737541049824992
0.011806536797932669
0.00557815312651515401
2.29828703542155153e-06
-0.00477193555365400778
-0.00861649985380370104
0.00250257611574358297
-0.00423717682812670311
-0.0106404597892151703
-0.0164517111936438032
-0.0213376698486294758
-0.0248322955064697731
-0.0263440270952225719
-0.0232639684465921516
-0.0301108345769488979
-0.0367671625333795063
-0.0428943667075520479
-0.048023925432171842
-0.0515110211534102469
-0.0525203518943825123
-0.0506297287418134012
-0.0581556518162968314
-0.0657351968305283085
-0.0729978294273802425
-0.0794103712946899049
-0.0842279506171745018
-0.0864438290314757801
-0.0791616576913631576
-0.0879501502397080637
-0.0971605645347801139
-0.106441952558630731
-0.115260663649397868
-0.122836287881743042
-0.128066442503360883
4.56312876617694041
7.06189685365974107
2.04423317689603445
1.97143381035165066
1.14635912438780085
2.26191225757441039
2.42359848636008168
0.669659870551166159
0.761968260427086541
0.226064417936370859
0.938492437452861261
0.381383503543192448
0.214837530683131522
0.23748394668202194
-0.0119357378455399749
-0.053522315701594346
0.0221950303695006672
0.0725431414690181492
0.0573709968505434001
0.022276765688015697
0.00965504539741915586
0.00376204559206035939
0.00865531712194199908
0.0130157615168899708
0.0430205328568809414
0.0368318822714990904
0.0278673338436547409
0.0159726928425213896
0.00599431317900856343
0.0527108253644351515
0.0427500599844106155
0.0312796624621044725
0.0193896574780748031
0.00417559296888807795
0.0505046007931135091
0.0409829584178115214
0.0309043864536627556
0.0188685240135645048
0.00330439767376037707
0.0431276797908572082
0.0345905839224174422
0.0256360523017069852
0.0153483299401854338
0.00246201164516284595
0.0296406989882391989
0.0222623938638717989
0.0149468999386672373
0.00730988520775475732
-0.00128076498906360401
0.0111956658764277694
0.00474090568808009909
-0.00121100972770379119
-0.00655708358098143745
-0.0112252261339883409
0.00183926916345417048
-0.00497244837739126144
-0.0115426268918013969
-0.0176366842281806754
-0.0229495535288221746
-0.0270577675986960232
-0.0294198269946270678
-0.0240450226931950319
-0.0310086032722936035
-0.0378722573913796851
-0.0443215251771964802
-0.0499177910830769928
-0.054049720703788065
-0.0559122104628817715
-0.0515135357445213882
-0.0591936990754165365
-0.067018887065836405
-0.0746473280569438374
-0.0815808467823868622
-0.0871130708476662574
-0.0902819081252916739
-0.0801097318375742218
-0.0890839643308118379
-0.0985780613430307928
-0.108276892592084173
-0.117692910431725806
-0.1261018018909289
-0.132465090616134679
4.39031035798940206
2.86454829501645447
5.61151760694511292
3.83273600804521353
0.249330747799073354
0.309130272758524227
1.06329530976522335
3.45932566694002341
2.87832113246094901
-0.0751046967776352187
0.181317116751593649
1.43562358848927185
0.622705696656069674
0.437111485233729391
-0.0230971886558789079
0.177755557336989001
0.89166753335695137
0.677113972963183763
0.058706851353270556
0.0229472938285793342
0.00668366169681777322
-0.00832006574292228421
-0.00665614364466127813
0.0037144582652991814
0.0459908728626669053
0.0519167830584600365
0.0275527066516445505
0.0145537776550699206
0.00565967849587769353
0.0542385855987182267
0.0435676317084730813
0.0331155816795243862
0.0204007320604249788
0.00523342315603857449
0.0518187301206441339
0.0423547067410094541
0.0320003548715146399
0.019432941588751574
0.00354732919040424586
0.0435273692447310651
0.0349013670972818102
0.0256424835136356798
0.0147957375052137682
0.00118506601787807405
0.0293486297945029957
0.0217233719786363542
0.0139414348070158508
0.00557744089131244521
-0.00408330418058587118
0.0104267919390987271
0.00364399866458776835
-0.00285398730879098377
-0.00904796458401114535
-0.0149802994498824081
0.0010729665102811722
-0.00583745112311303584
-0.0126252438191327386
-0.0190911689233811931
-0.0249802219956577892
-0.0299454464543774737
-0.0335503262370944744
-0.0249475695992606751
-0.0320562563563844202
-0.039176179452603703
-0.0460282637099410918
-0.0522209198494762439
-0.057204914376885331
-0.0602493106840805426
-0.0525190614853558099
-0.0603831609437355185
-0.0685023831561383245
-0.076573171818940064
-0.0841460275370722321
-0.0905720967380678615
-0.0949548918483805598
-0.0811721652978147773
-0.0903615345736555609
-0.100185962112891019
-0.110374216069885442
-0.120496493471812266
-0.129902095149756591
-0.137649244957358668
3.09012484940873122
2.4685365824391976
3.7360395071999557
1.91486001805491535
0.383014217305285176
-0.0285238739640838873
0.467916598276386209
3.29426672068665738
2.34107043110986135
-0.0617954558405843721
-0.117379859165203965
0.498666828200546752
2.80864503459166626
2.0841586238908123
-0.0102848239960252937
-0.042097201586071685
1.10267737977440361
1.52108619141819057
0.365933423916946943
0.0282214184093286524
0.0103573135317184435
0.194147624165505239
-0.0245301592475896772
-0.014892854859697725
0.0499455080570540208
0.0601571239531789176
0.0259677429487934971
0.0125830375620455421
0.00221695387793569443
0.0557023019002076611
0.0463330186168177255
0.0351757350935146262
0.0209616275390616738
0.00509692336748185197
0.0532651429668491647
0.0436215768278066379
0.0328344247554100757
0.0195931124677610376
0.00326072224834381141
0.0439111317363826692
0.0350417503821237111
0.0253131556582472904
0.0137272697474201313
-0.000760999547600061375
0.0289727381866824625
0.0209853101891652703
0.0125900986812148494
0.00331084035870280987
-0.00761323190852676752
0.00953245952875012015
0.00233387719275505306
-0.00483818104598135977
-0.0120540384411764023
-0.0194806789047545677
0.000234058309882353353
-0.00680207082211167508
-0.0138528189252540932
-0.0207637997886983144
-0.027341903424055531
-0.033332173638877173
-0.038428939159708686
-0.0259394839699195016
-0.033218036741979505
-0.0406342435274123781
-0.0479526414266508924
-0.054840316497305211
-0.0608280399881071451
-0.0652876664797226586
-0.0536158028698821357
-0.0616865482498655179
-0.0701358175759148467
-0.0787050978572195054
-0.0870032850270221758
-0.0944544528229370045
-0.100250178484207544
-0.0823232699298407367
-0.0917475847292880536
-0.10193357921651415
-0.112659159168805312
-0.123559560200540874
-0.134067349081866294
-0.143341109022388724
1.86578127561276408
8.03543124179076251
0.499789359184516446
0.304115089848869646
0.271402149616739807
1.35321484991641294
1.44942651326898675
1.46577604014860619
0.60289168368364765
-0.040841678126072832
-0.104431086426281711
0.358061552769699254
2.16969184448108177
1.32294125659296768
0.0108022439067412546
-0.0103607230003331767
0.121996156517949386
0.237517541965801771
0.225803492780752707
0.0385089989326537901
0.0233436298333191267
0.1349585326636491
0.114985334728966576
-0.0192002943684708959
0.0555488993121054306
0.0642546573107886099
0.0329785891414080268
0.0178429319282796435
0.00482081241714830099
0.0590435009862648463
0.0491207732987762533
0.0377366278506722497
0.023222531238970532
0.00629552993555083148
0.0549553885419173591
0.0449524395045318784
0.0336723032964180366
0.0198190164084821249
0.00268273729050784015
0.0443098545411095696
0.0350476717941005794
0.0247222801434059877
0.0123668530582384476
-0.00292975469112283227
0.0285446303645952096
0.0201217504082123119
0.0110326918284728362
0.000758688828728556466
-0.0114631447404037242
0.00855561611667523918
0.000884737218238216367
-0.00703073106205651197
-0.0153450236045518194
-0.0243392228197019458
-0.000649114256056997335
-0.0078293862714176269
-0.0151730149330427388
-0.0225731158152449526
-0.0299017807056600124
-0.0369997258838848722
-0.0436969008599436548
-0.0269861882650949472
-0.0344508923430298514
-0.0421881862920801057
-0.0500100299268128809
-0.0576469607414153845
-0.0647156408420920537
-0.070701637164013037
-0.0547698662560791999
-0.0630604170006708875
-0.0718596585071312882
-0.0809577244356648601
-0.0900263857935787448
-0.0985682788232244839
-0.105867932604993595
-0.0835309570875744367
-0.093199459288449818
-0.103761419115710629
-0.115046198229229193
-0.126756713836137042
-0.138412222179879196
-0.149277746897904795
1381.67186874753406
910.57672729467447
654.499803194092124
351.706880241150657
388.912325261388276
335.21206826813642
145.9701739492466
191.291079366728979
276.187348134975934
143.508656511395429
75.8552110715372265
675.552400820361299
497.543576163506884
470.906136127744844
309.476306036357414
342.360445476337304
276.262719125439673
144.349888782442292
237.45146193810649
263.025396087096567
142.345878247392818
37.2435920696567706
271.102549627965118
199.707562301227767
251.58027528749821
319.59291585144058
260.24711526818578
215.754229272179231
192.592312458561224
264.052855381647475
171.793069977233245
90.4575486285695831
14.6835241606203688
145.859212482910436
175.175125117226514
99.6411131615488301
129.014593117868088
48.8670465259224329
49.9813125161035359
67.0729227647028523
34.4583306449128628
26.8527040774881627
21.1721515708474364
23.3061699019819137
95.8461938553995338
180.09090789696387
46.0057561730078177
77.4053789769571807
17.265163808652396
21.6128720266264871
27.283396505243168
6.48061601811378551
6.4972079482096623
8.4129745524574453
12.6929712954659699