/*--------------------------------*- C++ -*----------------------------------*\
| =========                 |                                                 |
| \\      /  F ield         | OpenFOAM: The Open Source CFD Toolbox           |
|  \\    /   O peration     | Version:  2206                                  |
|   \\  /    A nd           | Website:  www.openfoam.com                      |
|    \\/     M anipulation  |                                                 |
\*---------------------------------------------------------------------------*/
FoamFile
{
    version     2.0;
    format      ascii;
    arch        "LSB;label=32;scalar=64";
    class       surfaceScalarField;
    location    "0.720000000000000417";
    object      phi;
}
// * * * * * * * * * * * * * * * * * * * * * * * * * * * * * * * * * * * * * //

dimensions      [0 3 -1 0 0 0 0];

oriented        oriented;

internalField   nonuniform List<scalar> 
20536
(
-0.000469644941810780803
-0.000202550935724162017
-0.000106278077303965869
-4.2680098544097217e-05
-0.000740792351523956311
-0.000361936705287689293
0.000487859361171709286
-0.00039690764032535345
0.000422793321525206283
-0.000213960795087113137
0.00032483119947798088
-0.000491512770796682171
-0.000319006651440862884
0.000320811631595076697
-0.000589391392281163589
0.000269587010127578849
0.000216105965092082332
-1.64238859312452909e-05
0.000167439569111290233
-0.000127865282907321928
0.000211003463115380489
-6.5021935032920624e-05
0.000107330087295730612
-4.00566575416788314e-05
0.000261004799093093192
-0.000162278122755167407
9.6414851237459822e-05
-0.000128077369657810506
0.000408198405271510819
-0.000261957274776857083
0.000134918692500202728
-0.000234116231710017092
-0.000317728837259354652
0.000191941516571243081
-0.000301475384129968607
0.000516454543644354752
0.000555014407863437518
-3.05075568578076116e-05
0.000250348307370053789
-0.000257035214577708271
0.00053319266438185426
-3.27047858830868009e-05
0.000230319879087453075
-0.000240816163447921843
0.000517915078208057737
-0.000105427077064648126
0.000181971586441930888
-0.000223545606976777937
0.000533123267371511688
-0.000214520112103607321
0.000131050055709051373
-0.000193695483001115227
-0.000277624903272558066
7.94384904223158835e-05
-0.000145403840769446608
0.000558985218617000495
0.0005547358523054583
-0.000134416063209825552
0.000105911358018196655
-7.89089844119762214e-05
0.000637564724616199478
-0.000119602041930597135
0.00012025484801420617
-0.000116187523606445654
0.000687166456862608956
-0.000140751125197740163
0.000117967872169226682
-0.00013224631290321211
0.000686377926609112415
-0.000206030275622182173
8.51198682859515709e-05
-9.28213227074635054e-05
-0.000280501676070918924
4.4606258682569356e-05
-3.60928384004701624e-05
0.000680742080257105996
0.000431425395857617828
-0.000209806475491070471
4.51450894569637438e-05
-2.217681316034684e-05
0.000500356749787233364
-0.000211708962117450068
6.33547518852571704e-05
-4.01802270826241194e-05
0.000563139423510827146
-0.000228417828329664427
6.73568299272480562e-05
-4.24738582561016162e-05
0.000598932748873971669
-0.000273027297111198017
4.75840917216465713e-05
-1.63806698570510693e-05
-0.00033184925765715863
2.23377294199969744e-05
1.35095478087979904e-05
0.000614434150696936232
0.000384430143611161812
-0.000242276079432595385
1.7962858728412155e-05
-1.94840878341094672e-05
0.000431336424483964788
-0.000260987187276188657
3.42004006849072959e-05
-3.18296316399828947e-05
0.000480158429009371545
-0.000288136893308161201
3.85526385076044749e-05
-2.76568115882697344e-05
0.000515710151154302136
-0.000327427823947626362
3.14700956828160966e-05
-1.26214521024340132e-05
-0.000373338223896400141
2.5018027277267325e-05
-4.78352439923662809e-06
0.000536966203565187
0.000351259716721801949
-0.000267935736779844886
7.06001783545503771e-06
-1.26685872967445358e-05
0.000384732139511811272
-0.000291661271834037998
1.63071820856031142e-05
-1.91070717685315052e-05
0.000416638725493587072
-0.000321213247605762759
2.36444437551433448e-05
-2.24758872771546391e-05
0.000442188598689080992
-0.000356711708748920888
2.79545229472481443e-05
-2.42203656795160785e-05
-0.000396372472298094981
3.19728869840559375e-05
-2.82679497927312488e-05
0.000461519768051997135
0.000302370452376699245
-0.000291902283414547444
1.82944710097161046e-05
-1.92330708333019589e-05
0.000327749434070991399
-0.000317334540552429215
2.30303433895975505e-05
-2.273782083663725e-05
0.000352033426592958409
-0.000346603169869337416
2.82732897412709082e-05
-2.7168367611655314e-05
0.000373701562522529471
-0.000379770310112294816
3.37357535192267052e-05
-3.23450577013593795e-05
-0.000416618467256971452
4.07336878062488907e-05
-3.98720419021782066e-05
0.000393087384056563
0.000254533906947843579
-0.000310893354412969804
2.22804754412847781e-05
-2.26081998717742058e-05
0.000273674122771971147
-0.000336298787182655334
2.6299450475668029e-05
-2.64766439686263709e-05
0.000292034967135527089
-0.000364709798618082588
3.18055471958341877e-05
-3.20603995594456642e-05
0.000309177442128635729
-0.000396246036322246589
3.88692764280255536e-05
-3.95360026052323706e-05
-0.000431114565020881339
4.8392418498011873e-05
-5.01158145908097197e-05
0.000325397652376705068
0.000208078512549050425
-0.0003251509573017212
2.24911009690051213e-05
-2.26780135495990872e-05
0.000221797914713728187
-0.000349543396911644729
2.65679524562886518e-05
-2.70426931913441654e-05
0.000234547596936901455
-0.000376472351158029016
3.25508445971461191e-05
-3.35380987186817037e-05
0.000246315571028607092
-0.000406170451442328204
4.08857682779439208e-05
-4.27294548363916984e-05
-0.00043899010241523124
5.2428002152827084e-05
-5.56363291539834685e-05
0.000257399766049608194
0.000163500113698546336
-0.000334835875553748442
2.09442284988964988e-05
-2.13967276069753822e-05
0.0001725949932621587
-0.000357841458164149054
2.51659519586610733e-05
-2.59617213909009922e-05
0.000180387674603036497
-0.000382934251350797086
3.13624470982210241e-05
-3.26928017504497537e-05
0.000186698132940235135
-0.00041028366162828016
4.01050735720565922e-05
-4.23020165199467968e-05
-0.000440160948253412411
5.22297546674366464e-05
-5.57849862822440263e-05
0.000191425109118653625
0.000107877632651833831
-0.00030289258694827007
-1.4177644472976208e-05
0.000115523946868775063
-0.000321155522540172208
-1.57170489115884894e-05
0.000122178516864734492
-0.000340988752601174979
1.79055342897622154e-05
-1.84059795488188932e-05
0.000127526847523921688
-0.00036236818912725548
2.17571669160982614e-05
-2.25774211078533616e-05
0.000131173581455382431
-0.000385267964748440921
2.73691452007879591e-05
-2.86808441977712007e-05
0.000132647803212198364
-0.000409698116705465665
3.52917481852500333e-05
-3.73498632749457276e-05
-0.000435698273928103116
4.62689336930817923e-05
-4.94753771478198678e-05
0.00013139371901344158
7.53637155780661247e-05
-0.00030836885517349197
-1.05342604893977212e-05
8.02841265712765911e-05
-0.000325794284259894016
-1.18865576567971126e-05
8.42570749799544046e-05
-0.000344510748662180122
1.36402114471693202e-05
-1.40902032535379922e-05
8.69624514618817795e-05
-0.000364374140316397002
1.67058706881414486e-05
-1.74035145253851912e-05
8.79653083629156486e-05
-0.000385201782145556113
2.11030791314960685e-05
-2.21693002778098233e-05
8.66538960321311814e-05
-0.000406769018666450839
2.72260106010619661e-05
-2.88404798805630704e-05
-0.000428803530485690539
3.55765445592928542e-05
-3.80315591743860502e-05
8.2216802626651638e-05
4.45062724984312874e-05
-0.00031147699368571269
-6.51570223973729253e-06
4.72408268809016693e-05
-0.000328327867327619287
-7.41470569389070399e-06
4.9310019240169327e-05
-0.00034627159067389889
8.53275921802023471e-06
-8.84010221180397227e-06
5.04809550943887067e-05
-0.000365080376106197829
1.04873819686908345e-05
-1.09496733747067293e-05
5.04256721466833424e-05
-0.000384452093489438655
1.32560254681963213e-05
-1.39466637713482938e-05
4.86729983904996656e-05
-0.000403981257910767972
1.70622175351754879e-05
-1.80940814712364818e-05
-0.000423136263206475829
2.21722679748038228e-05
-2.37248389935526803e-05
4.45596036973302492e-05
1.47599777555072897e-05
-2.20623522558310206e-06
1.56517266971826298e-05
-2.52062139273651605e-06
1.63135280472197783e-05
2.9029645343525371e-06
-3.01055857251077833e-06
1.66640483502544829e-05
3.57023199767743583e-06
-3.72975944951723731e-06
1.65884949259025185e-05
4.51053009948712301e-06
-4.74639781416062784e-06
1.59226550782463213e-05
5.7975057955086737e-06
-6.14811590549063372e-06
7.51827869260820764e-06
-8.04554000356102871e-06
1.44192495918421269e-05
-0.00055920047139877303
-0.000314031946244240179
-0.000164913549889299986
-0.000810497919572054221
-0.000296567437351181714
-0.000352188523480447815
0.000401764354548288228
-0.000103942647937802494
0.000134307920164511007
-0.000326974001798662622
5.03642884574264098e-05
0.000188687629350657842
0.000350944940056738947
-4.38894227848559792e-05
0.000118762369700183403
0.000402215521790726333
-7.11186906471055651e-05
9.18368636726901212e-05
0.000452449722588625278
-0.000113729767189044709
7.53460666482840528e-05
0.000585548472100104098
-0.000175521018779698081
7.33981301664565972e-05
-0.000233471359296533756
7.80019098360781421e-05
0.000605986015888439525
0.000550820820514210546
-4.177240151993196e-05
0.000205763155505558925
0.000572842479378187159
-6.29485486600868806e-05
0.000200126674426679774
0.000586170261617167824
-0.000104704809443461686
0.000159618163202636534
0.000612887730597976108
-0.00017303157869252015
0.000101843407981924673
-0.000239263691365397768
5.29262726683066493e-05
0.000645193521868013932
0.00052400281570060209
-0.000136772505196788006
0.000145182085850701866
0.000595648513720261263
-0.00015788359802719167
0.000143542502240199871
0.000660230364787198426
-0.000182307248487840806
0.000130987606919898776
0.000697199371933833142
-0.000226969251576790855
0.000102089045685628841
-0.000285938259392652444
7.27892559293483356e-05
0.000715692885426469751
0.000415842957408424981
-0.000192492299461985997
5.44695165468464914e-05
0.000475524169427260046
-0.000222692388648115835
6.84804217803637632e-05
0.000537722414971891403
-0.00025240896763955152
7.52592660079443151e-05
0.000583102951667535305
-0.000290712273004903722
6.59473912989565452e-05
-0.000337202118141019037
4.94912433465277948e-05
0.000607216122425652672
0.000385837689970030314
-0.000220711590845569175
-1.18287382736026489e-06
0.000433335526499878821
-0.000253829730194496026
1.7837934844464056e-05
0.000477888373850953276
-0.000288488632315770375
3.00785985520063317e-05
0.000512307012127996022
-0.000326679551530324958
3.30200783688454832e-05
-0.000368328207252768456
3.27102334878817154e-05
0.000535744383502732391
0.00035478981057344858
-0.000261185309050584807
8.25261532254100066e-06
0.000389505593244316307
-0.000289133718695213651
1.68934273924085216e-05
0.000420058666275624688
-0.000320072152707317733
2.46743164561710191e-05
0.000445630533281437321
-0.000354395513159328423
3.0100121513475717e-05
-0.000392168006150369849
3.48322744063739743e-05
0.000466614122359361428
0.000307377049074387466
-0.000290664799188856092
2.15820009231578118e-05
0.000332492151061389025
-0.000316560589217127256
2.53403341200597493e-05
0.000356682132659754314
-0.000345682155434936991
2.96927924747635893e-05
0.000379351992696087598
-0.000377920637906532407
3.45919706217682566e-05
-0.000413366766745071595
4.08026381204923936e-05
0.000400483836044155923
0.000257739190279392767
-0.000310528594170283523
2.18558585508481282e-05
0.000277895116893327383
-0.000335882048351861923
2.54638197020584746e-05
0.000297609178160986943
-0.000364048211943499218
3.04569825922921496e-05
0.000316666915444238542
-0.000394990979801229094
3.68821542790269963e-05
-0.000428992783728998259
4.52959217977893844e-05
0.000335390619250930508
0.000211238022412874873
-0.000325672226250725777
2.18005561401546952e-05
0.000226566047519357277
-0.000350075067558785645
2.54327698204492316e-05
0.000241303190057501316
-0.000376965494856410183
3.07307529446153874e-05
0.00025565039504773379
-0.000406483659414888705
3.80316092938325664e-05
-0.00043900219931718935
4.80534636305180669e-05
0.000270035937049123637
0.000166977058248290886
-0.000336123549187621181
1.9965724013938171e-05
0.000177675697317653268
-0.000359253544745115035
2.36466216464303637e-05
0.000187546706269432989
-0.00038456157311417727
2.90883961151461128e-05
0.000196642506704484461
-0.000412214663366994305
3.67419353953916361e-05
-0.000442518158652403424
4.73243940676858004e-05
0.000205066804596975097
0.000125352030115028298
-0.000342821567109507076
1.68405946295357365e-05
0.000132145373634265958
-0.000364536573482730645
2.02488656589007831e-05
0.000137702098651943132
-0.000387951841303964306
2.52055111905267508e-05
0.000141735890163449094
-0.000413132529997881385
3.21792389838552659e-05
-0.000440195551124848174
4.17745321345262661e-05
0.000143911502773617754
8.67774867104697644e-05
-0.000346752711460287957
1.27539091352087959e-05
9.0574594922754117e-05
-0.000367095302824824794
1.54709765145410151e-05
9.2994149425021521e-05
-0.000388626456689633636
1.93627210467610579e-05
9.35284763086204778e-05
-0.000411198716202303019
2.47617366361252727e-05
-0.000434642285362527665
3.20585003707457634e-05
9.14959459987085442e-05
5.08972495165126328e-05
-0.000348749515006972755
7.950577191039806e-06
5.27248253135708877e-05
-0.000368118153518752196
9.68666300856919895e-06
5.35077384498435925e-05
-0.000388289191199992357
1.21400231780543827e-05
5.28085303702620381e-05
-0.000408926452415411769
1.54911672343960137e-05
-0.000429582750209161199
1.99444522602999372e-05
4.99773682728593373e-05
1.68455149615857286e-05
2.69987757381380982e-06
1.74144709828266456e-05
3.29435917646012555e-06
1.76165264000563386e-05
4.12866651766913437e-06
1.72982014877267473e-05
5.26177182016010534e-06
6.75662862391822183e-06
1.6218138723097218e-05
-0.00055565503348764967
-0.000337472984835133322
-0.000147240479179817929
-0.00076988214081074105
-0.000248649415908901107
-0.000344778701030988262
0.000479154847713411647
-0.000128426722406562203
4.17915079863891595e-05
-0.000288887278656121277
-9.23397277654766104e-05
0.000140863682566287098
0.000479377476845072286
-4.37993509603515113e-05
5.26875066133757541e-05
0.000559390918006058427
-0.000109482843812668332
5.08040714853682265e-05
0.000641816929963436142
-0.000165628877575568604
4.43625279097489351e-05
0.000771309788842454436
-0.000219085835971257544
3.45638771880529423e-05
-0.000272310916340143575
4.57337730726983834e-05
0.000787001645169106787
0.000547775145703183154
-5.52728854380512028e-05
0.000180019736648590718
0.000589169577790112694
-0.000121069153801990745
0.000170316950577519233
0.000626194206434177209
-0.000178288993096091904
0.00013525280050466284
0.00066330434871205064
-0.000229072542416175863
7.47200212556710407e-05
-0.000284382900111449855
2.92429205036318268e-05
0.000699060465901387069
0.000505766816433406066
-0.000129428646781103428
0.000182461825845560123
0.000552636135398034268
-0.000183725784299804823
0.000159328136180540643
0.000605951675219052084
-0.00022999826519746623
0.000129380616421280865
0.00065415935927304054
-0.000273588831837710594
9.83981319722970928e-05
-0.000319416291469373748
7.41723031638288736e-05
0.000687811205833378206
0.000422555993815474816
-0.000173379575833889694
5.23097653596025957e-05
0.000473639019944500949
-0.000217080893506472453
5.07508710975892438e-05
0.00052705994913682943
-0.000259005820873120811
5.08453600288645417e-05
0.000571363283701790113
-0.000299722610214419563
4.77788248370824951e-05
-0.000341986586738701856
4.3536285834676977e-05
0.000599890842654177505
0.00040034821990444716
-0.00021310885299236288
-8.60310563985005481e-06
0.000444106268778099705
-0.000248491918050041684
5.48950986886065104e-06
0.000483137978513014776
-0.000286225778336908032
1.82666575095512277e-05
0.000514774869934618985
-0.000325128386061545465
2.67903542904743039e-05
-0.000365575359449838149
3.23660459509851584e-05
0.000538710395743948974
0.000360968126372429967
-0.000260503271965042808
1.8920974252047128e-05
0.000394066462605112682
-0.000289064878521060812
2.43668563629774077e-05
0.00042357546197348484
-0.000320382449520054883
2.93219463012466583e-05
0.000449346474489827844
-0.000353939823873321454
3.31417223384259307e-05
-0.000390198283092991181
3.71260410180629526e-05
0.000471677522445355197
0.000310216636307025068
-0.000289752164298977526
2.40166975564301411e-05
0.000335898889949036721
-0.000316012718941118128
2.66048240258493911e-05
0.000360635183180470079
-0.000345057433701905728
2.9631263513314652e-05
0.000384359700138521944
-0.000376617735146052637
3.35459139612419256e-05
-0.000411003621976968147
3.89298141799471686e-05
0.000407038847642437985
0.000260668180209084829
-0.000310541713549450328
2.13358696597441526e-05
0.000281798870922141088
-0.000335883734903100325
2.42033075420344332e-05
0.000302702585727603968
-0.000363846753981147671
2.83423497702389467e-05
0.000323409923317711059
-0.000394309833410243292
3.38672997533412886e-05
-0.000427555351028625365
4.10748735546112698e-05
0.00034418359800207762
0.000214165628182347252
-0.000326362837574664265
2.0631904459911642e-05
0.000230852258619583815
-0.000350727240689195576
2.35894463823238357e-05
0.000247284734750680233
-0.000377557806764300321
2.8009748612080033e-05
0.000263800440421144556
-0.00040691788571080794
3.41251229437299471e-05
-0.000439161028070000892
4.25294931381638885e-05
0.000280931821052505712
0.000170019530299793782
-0.000337402487709155497
1.84098947246733713e-05
0.000182153867128376158
-0.00036064611230021389
2.14319012322405946e-05
0.000193848041722983729
-0.000386138969264996669
2.59770798079557615e-05
0.000205329610337995827
-0.000414042432583004347
3.23873751162827422e-05
-0.00044470561970038605
4.12982858716320406e-05
0.000216902962157470766
0.000128168674514711917
-0.000344585989006120335
1.52482180522969984e-05
0.000136244699882269237
-0.000366586574600610057
1.81151121657907395e-05
0.000143455692208075623
-0.000390443463020779191
2.23020429810922851e-05
0.000149683524074645046
-0.000416270501736621973
2.8182762555442587e-05
-0.000444257930780921724
3.62551677311997292e-05
0.000154757964825603223
8.90169325651943543e-05
-0.000348864682680284752
1.14547234746265943e-05
9.3777161827316772e-05
-0.000369626359309095838
1.37531415995318811e-05
9.74269155591703196e-05
-0.000391775392328665834
1.7048399164339213e-05
9.95431585344172347e-05
-0.000415230526122775765
2.16082996958661908e-05
-0.000439902824883825678
2.77266942984022706e-05
9.95217412045805661e-05
5.23060835573559098e-05
-0.000351062483933014505
7.10939734067394616e-06
5.47131633430376663e-05
-0.00037092657741604623
8.58218545420728901e-06
5.62223187281196601e-05
-0.000391804289549368631
1.06621416627479865e-05
5.64116351353047681e-05
-0.000413416415434663504
1.34889655037761404e-05
-0.000435383129040495644
1.72025469728161804e-05
5.46348581346090524e-05
1.73188832914114208e-05
2.40880067476475368e-06
1.80797542861015326e-05
2.91471843262048315e-06
1.85212361502854068e-05
3.62317321520412756e-06
1.84941195268050383e-05
4.57820048325323131e-06
5.81944168620652902e-06
1.7752650936425071e-05
-0.000575687973644404324
-0.000329586415630120149
-0.000122560400801156958
-0.000778954759871105379
-0.000189950670678149501
-0.000353928719397966643
0.000482677897303027657
-9.75071608081254555e-05
-1.9846425875989787e-05
-0.000262977438354351908
-0.000107830169776443991
-1.78095693018865894e-05
0.000548500426342507573
-6.98204623023571412e-05
4.45180763910138315e-05
0.000625658852493973382
-0.00012815718875574568
6.77633537528319404e-05
0.000716761550160341008
-0.000195876977031306086
5.6975118449828907e-05
0.000861647462287905438
-0.000243747344269418497
3.59172947760548789e-05
-0.000268104853010122301
2.62155855503000424e-05
0.000886292907180814523
0.000526654663517277786
-9.73824004029253309e-05
0.000184206559666861945
0.000560968487569486968
-0.000159397599882003235
0.000167241741440119851
0.000595241105939179672
-0.000214947697804063203
0.000120049883722559908
0.000634312964180748853
-0.000254560983082007268
4.64617017017669107e-05
-0.000292956698698028015
1.02445506399687265e-05
0.000678163809883034732
0.000489760277760160467
-0.000108670635589030654
0.000162345257682667188
0.000527338715474548773
-0.000165352441628507485
0.000127702865636736599
0.000574159902797676328
-0.00021970105517785224
8.73121465140481881e-05
0.000625654092000063286
-0.000269476258905730398
6.18197202723134981e-05
-0.000317297258722956871
5.36890935541521711e-05
0.000670479306040189802
0.000444396683545275238
-0.00014237672155239053
3.77624308791797567e-05
0.000492022532835827272
-0.000194223158062966511
3.19943145096093814e-05
0.000538652076138144433
-0.000245465750281848201
2.99802991733505668e-05
0.000578900943599061982
-0.000292795952432616056
3.08507640576084804e-05
-0.000337963507818133562
3.52303715448056232e-05
0.000607875282544914565
0.000422832228712883586
-0.000209006347699798177
2.08564887016690253e-05
0.000458836619533596363
-0.000247869892020491768
2.31308175842070351e-05
0.000491614380816819511
-0.000287456497891592057
2.74797943864976484e-05
0.000520087797060378118
-0.000326247158139530763
3.17694704297527157e-05
-0.000365548616692452791
3.61870401861214366e-05
0.000543854038944536372
0.000366016327356819427
-0.000260646678289515549
3.60149754626378472e-05
0.000397550150081143734
-0.000290076360333886378
3.50386666138458551e-05
0.000426174592937831676
-0.000321204642363274236
3.44457235808147245e-05
0.000452378450252641456
-0.000353880532146028299
3.4572043440374704e-05
-0.000388889023180646757
3.65219332876274357e-05
0.000476324182501646257
0.000312071749085602928
-0.000288565029588571515
2.48763124394423164e-05
0.000338214080015112196
-0.000315345297936092542
2.57305843557053301e-05
0.000363756722573025087
-0.000344559894441927295
2.7443623679646415e-05
0.000388808821370134432
-0.000375884724411220837
3.04981930977306543e-05
-0.000409622648217295002
3.51617858086758988e-05
0.000413310958877530666
0.000262878953935348654
-0.000311105462775186712
2.13728091599939098e-05
0.000285117512509833822
-0.000336383901895172363
2.30026974600851163e-05
0.00030718459369632312
-0.000364120746735185625
2.58360161805630146e-05
0.000329356871428937252
-0.000394165496502553729
2.99761572227718929e-05
-0.000426793068242260223
3.5677435524976012e-05
0.000351925448408793226
0.000216614003065531942
-0.000327280188949557983
1.88636806551328886e-05
0.000234427713815068737
-0.000351537289184301145
2.09291535324728264e-05
0.000252289209086739509
-0.000378263046555654453
2.42913915232824481e-05
0.000270625671116087973
-0.000407471313804516513
2.90958607619900306e-05
-0.000439505300918496854
3.58131963401687301e-05
0.000290055703294072611
0.000172503789724462892
-0.00033867913275216385
1.61901436838196835e-05
0.000185889859172254211
-0.00036199620076609023
1.85057321980170879e-05
0.000199151310847794775
-0.00038763007002715023
2.20847329940283389e-05
0.000212625172270138724
-0.000415723061176153828
2.71676889884489921e-05
-0.000446672741930814266
3.42843887783188229e-05
0.000226808530515286921
0.000130532392920361303
-0.000346235038651253064
1.31475690445008473e-05
0.000139708209358235254
-0.000368461097718186836
1.54060182622104571e-05
0.000148314855956054736
-0.000392679039584273954
1.87473018232998315e-05
0.000156366568437503814
-0.000419036540513972519
2.34473120584856915e-05
-0.000447789435303241293
2.99047128031577498e-05
0.000163835705033659932
9.09099998209205606e-05
-0.000350779504724230194
9.76912014899974877e-06
9.64880143421437939e-05
-0.000371889415255124479
1.16056224025048842e-05
0.000101167289832832405
-0.000394557532363973566
1.4250485876774074e-05
0.000104591174179036146
-0.000418757303861081441
1.79073989578559007e-05
-0.00044446149172098782
2.27897671028451951e-05
0.000106201775644625522
5.34988234822923267e-05
-0.000353134880964003852
6.03016794386119339e-06
5.63971335274543342e-05
-0.000373417889390434367
7.21406461725718543e-06
5.85095956180389445e-05
-0.000394893774637723543
8.88774839166690413e-06
5.94165326539265287e-05
-0.000417328732868768723
1.11547301263535231e-05
-0.000440385909166493344
1.41011695949666418e-05
5.84437230236767262e-05
1.77211177951324149e-05
2.03898275783693918e-06
1.86440719503590954e-05
2.4468471504513709e-06
1.92833531235071925e-05
3.01796750124252195e-06
1.94876503660602735e-05
3.78338355986952276e-06
4.76527964240584269e-06
1.89963716015437178e-05
-0.000565395515859213205
-0.000367708708037706004
-0.000130120662957212518
-0.00072556114411816662
-0.000158003518714507638
-0.000362924757683460606
0.000370355854723516899
-6.71999737554043313e-05
-0.000104920540230427875
-0.00023611059291484896
-0.000117905635450277443
-0.000109019932312801743
0.000507219481816224014
-7.77110985846976988e-05
4.85511140204667911e-06
0.000607281722776567318
-8.461889089304088e-05
2.36368768877293143e-05
0.000735267376880781309
-0.000118690071283742517
4.7183572314827537e-06
0.000879498799166831277
-0.000165036788145254786
-1.04784797986654896e-05
-0.000204554446698475295
-1.22333246158370433e-05
0.000886391279801775761
0.000539566798506410953
-8.40441403491126184e-05
0.000151041088193773769
0.000591076625484703586
-0.000113199398682128121
0.000144310559189248785
0.000634279398411185732
-0.000145676725386043867
0.000103832683133371653
0.000650928486296173088
-0.000186573868765553275
5.13494310424318493e-05
-0.000247415695348452065
3.81026420634777925e-05
0.000665932109964695383
0.000503374693558839817
-8.43511912949288103e-05
0.000126172677172568722
0.000543460707159291252
-0.000129142015234550605
0.000103557956341297371
0.000591611807776808575
-0.000181934103683404876
7.54179087845987487e-05
0.000644152584532282652
-0.000236745482395703174
5.94510216096823566e-05
-0.000298636391358630526
5.71176862625808967e-05
0.0006919459886913262
0.0004758620944027022
-0.000148887925289998267
6.3656514462193334e-05
0.000515422062465926718
-0.000194535529437648473
5.78267849588936933e-05
0.000555100139117858504
-0.000243466375166408834
5.18344975285067817e-05
0.000591938585037205065
-0.000290506272151577316
4.77741496632573125e-05
-0.000337070754074221437
4.59491530320340426e-05
0.000619656018332767817
0.000427463760656205825
-0.000223312466264593754
6.01719147812278222e-05
0.000461613687153573341
-0.000258505163271962972
5.29498682427729701e-05
0.000493114377699662462
-0.000293877284411920778
4.63902520653451401e-05
0.000521984350302206156
-0.000329185103325494333
4.15793460514911559e-05
-0.000366269229508189105
3.97803841604580581e-05
0.000547591028514179349
0.000364822418104255154
-0.000262313204931845928
4.17730729783235674e-05
0.000396095718895252255
-0.000291166341948733581
3.64260008168577237e-05
0.00042543789474602117
-0.000321745348672879648
3.29715716814005149e-05
0.000453318440586030955
-0.000354029149286299151
3.15358633341132806e-05
-0.000388577122075798611
3.25698531348320524e-05
0.000479579037228283821
0.000312613483529639773
-0.000290204148633471919
2.47581518406978173e-05
0.000339831105889761985
-0.000316693444730617294
2.4039431008381632e-05
0.000366466900422746263
-0.000345473895439885981
2.45359742242882012e-05
0.000392833572697292839
-0.000376243712033958442
2.63458694083351189e-05
-0.000409251109212568258
2.97610332517726581e-05
0.00041890846476834334
0.000264130553126848964
-0.000312285298058157781
1.99766927867788108e-05
0.000287349609140505346
-0.000337294755565185802
2.03845259008143076e-05
0.000310472101794143974
-0.000364705655068953941
2.19452161592378386e-05
0.000333926083655467984
-0.000394366986466312985
2.46456523807054555e-05
-0.000426552666820077093
2.89217637508744029e-05
0.000357983847838786351
0.000218327104902435058
-0.000328385598524975723
1.61040052583938692e-05
0.000237164850558655457
-0.000352496595101226213
1.72935115261679355e-05
0.000256257173683603818
-0.000379089824700200588
1.95841725077513842e-05
0.000276080198873428413
-0.000408142722030883822
2.30497161575956952e-05
-0.00043999705305983617
2.80704279820490761e-05
0.0002972683802530433
0.000174409159745729682
-0.000339929415843987382
1.32416905075465617e-05
0.000188839250516569239
-0.000363263231617010356
1.48433439304671664e-05
0.000203388713442429766
-0.000388982400471504981
1.74297272162214981e-05
0.000218449436817368147
-0.000417207173033894347
2.11732195071483474e-05
-0.000448358736404162901
2.64210375880644663e-05
0.000234675740332558955
0.000132397056274651144
-0.000347702939157511551
1.05277407302046543e-05
0.000142476565120058113
-0.00037009414022407249
1.21589815412025076e-05
0.00015221262367317071
-0.000394592840384945531
1.46240009075579195e-05
0.000161714254995718067
-0.000421364376859324698
1.81049053619232671e-05
-0.000450720903335196136
2.28796422508827989e-05
0.000171103053242630199
9.24197517652633189e-05
-0.000352428207259668691
7.72490661296083118e-06
9.86629502837044534e-05
-0.000373812944921756514
9.08286052199830725e-06
0.000104162987771062572
-0.000396894769702842978
1.10545705639877574e-05
0.000108617733414461738
-0.000421689279083217522
1.37795047798217977e-05
-0.000448218243597007105
1.74034407278478657e-05
0.000111503394626901177
5.44570656378584269e-05
-0.000354897017391826003
4.74002628596808062e-06
5.77509618906634753e-05
-0.000375515765915273301
5.62422829048151896e-06
6.03401408077354614e-05
-0.000397472744276343632
6.87818534818723352e-06
6.1800802017707832e-05
-0.000420567918914528183
8.57442907106675182e-06
-0.000444484719619013123
1.07601131065413434e-05
6.14105454901550635e-05
1.80447292432130623e-05
1.59950746703000527e-06
1.90983314861924237e-05
1.90507571501727257e-06
1.9893801774673757e-05
2.33410702724325346e-06
2.02736159186738618e-05
2.90768860012463483e-06
3.63945207448330985e-06
1.9959425309605693e-05
-0.000568138455785544873
-0.000400460927352083197
-0.000122505738645342665
-0.000719266979178734278
-0.000119028568724064017
-0.000374027346631637106
0.000282112841852027703
-0.000104073644965569522
-0.000161220762862950034
-0.000259140168996718247
-0.000136019799093909369
-0.000159900509671303571
0.000570914794392877816
-0.000187996100312355272