/*--------------------------------*- C++ -*----------------------------------*\
| =========                 |                                                 |
| \\      /  F ield         | OpenFOAM: The Open Source CFD Toolbox           |
|  \\    /   O peration     | Version:  2206                                  |
|   \\  /    A nd           | Website:  www.openfoam.com                      |
|    \\/     M anipulation  |                                                 |
\*---------------------------------------------------------------------------*/
FoamFile
{
    version     2.0;
    format      ascii;
    arch        "LSB;label=32;scalar=64";
    class       surfaceScalarField;
    location    "0.0299999999999999989";
    object      alphaPhi0.water;
}
// * * * * * * * * * * * * * * * * * * * * * * * * * * * * * * * * * * * * * //

dimensions      [0 3 -1 0 0 0 0];

oriented        oriented;

internalField   nonuniform List<scalar> 
20390
(
4.67102243783082453e-08
-1.40954510571894408e-08
6.61761999731453865e-10
-4.31927659053513539e-08
3.37238444483135564e-08
-2.30679344849241238e-09
1.06401882057435601e-08
-2.26105424708795676e-08
1.40438309971787374e-08
3.24709018063380665e-09
5.99982162952081561e-09
-9.90282025355286234e-09
4.21471500064805481e-09
2.53384065411581024e-09
1.4564609112332573e-09
-5.43313506108968766e-09
1.01313763982921978e-09
9.92205826450860879e-10
3.31302272513885389e-10
-2.64976858091867705e-09
2.23445302043991847e-10
2.41897160950673484e-10
1.0265426817051656e-10
-8.49974572769727428e-10
4.32696644903916249e-11
5.06849149141114718e-11
2.95934447157053417e-11
-2.13178127407272552e-10
7.88861161742433459e-12
8.7082516471449202e-12
6.6285614650823345e-12
-4.16231262032718378e-11
1.32784940208991655e-12
1.38478020708129955e-12
1.19791889129794442e-12
-6.85990322476801555e-12
2.07294984092788147e-13
2.02022998906712039e-13
1.79364567226491808e-13
-9.8382106076591273e-13
3.10963782652071195e-14
2.63530385394448295e-14
2.22382534232386659e-14
-1.22604860980615559e-13
4.83680274930272538e-15
3.09163150855054484e-15
2.55468577262184911e-15
-1.28749451926237127e-14
9.67698976842320661e-16
3.71457728278345626e-16
2.96054043353766616e-16
-1.31798102413491184e-15
1.26415877114075237e-16
4.47855170434524605e-17
3.19566814857794488e-17
-1.41758640612097522e-16
1.21604882775287135e-17
4.71644993418784536e-18
2.80255469012868492e-18
-1.34164242371995668e-17
1.11996425761283412e-18
4.60334682199168724e-19
2.32279846642241101e-19
-1.12775351432289472e-18
9.6629294915704971e-20
4.22383077814213278e-20
1.80389734824675728e-20
-8.85354604485503571e-20
7.77818257910294692e-21
3.64476817275215875e-21
1.31090224936499796e-21
-6.4931185219684274e-21
5.83086521570139296e-22
2.95155308616210655e-22
8.90486525109648109e-23
-4.44588125127588231e-22
4.0634696915055224e-23
2.23766105287080515e-23
5.64724999896673389e-24
-2.83936319868603129e-23
2.62692671868043228e-24
1.58444622699698267e-24
3.3384965820484406e-25
-1.68927320781389338e-24
1.57134858956317115e-25
1.0454767971743593e-25
1.83654464273419169e-26
-9.34751434965278002e-26
8.67004799853793226e-27
6.41360868780916075e-27
9.38138883617748503e-28
-4.80094355122115558e-27
4.3960474364853624e-28
3.64791221633518049e-28
4.43850188663891406e-29
-2.28293456488958904e-28
2.0390426460247771e-29
1.91726340861473858e-29
1.93896985753578719e-30
-1.00197425845603341e-29
8.60435151011666904e-31
9.27698270259005078e-31
7.79181482241374906e-32
-4.04382817118045621e-31
3.28097290075275509e-32
4.11321752325002994e-32
2.86747940820860175e-33
-1.49405836673947901e-32
1.12112360467710063e-33
1.66144605178757912e-33
9.61201027999043237e-35
-5.02622827788685289e-34
3.39726986181502855e-35
6.07065272526692814e-35
2.91570279645068184e-36
-1.52962796308880889e-35
9.00822524800541008e-37
1.98880810267753513e-36
7.94019602206190769e-38
-4.17788884652496596e-37
2.05404231813319812e-38
5.77684119011488306e-38
1.92225385428212163e-39
-1.01415675816244396e-38
3.93393253182499908e-40
1.46625040599709615e-39
4.08586359987160946e-41
-2.16095291000763692e-40
6.1223475536511447e-42
3.18934329900643089e-41
7.50162105017879043e-43
-3.97643506820598074e-42
7.36918462575558317e-44
5.78675302495397248e-43
1.16295536724419045e-44
-6.1773903723281025e-44
6.3291061390207559e-46
8.41719448468836828e-45
1.47131882047570535e-46
-7.83059676689030712e-46
3.44837296847054539e-48
9.20924617404022083e-47
1.43529406961883812e-48
-7.65302286500437131e-48
1.43294268970634118e-49
6.92683690466128447e-49
9.88407835848690733e-51
-5.34355527151393108e-50
3.20454809364579443e-51
5.11135988473866037e-53
-2.77420003955396753e-52
1.54439384747508158e-08
-1.27789434006967309e-08
-4.4678601339761239e-11
-2.35546945606285654e-08
1.89369805523107876e-08
-6.06010638577571633e-09
4.30369012606171867e-09
-2.01167193471166202e-08
1.29698786300768469e-08
1.37541606750196776e-09
2.70136696072696794e-09
-1.23435500050938858e-08
4.74245190270639898e-09
2.0683216729867411e-09
1.32311459282396335e-10
-6.89586641929075577e-09
7.21865563020452469e-10
9.62677296616696461e-10
-1.15275784026605319e-11
-3.24590842974272847e-09
1.27690448242209754e-10
2.2072089278054046e-10
4.51028992788583698e-11
-6.07016552251672869e-10
2.79900629043424583e-11
4.53385165049800556e-11
1.72563769419447903e-11
-1.5160986987191904e-10
5.33646226268159336e-12
9.24972260884813955e-12
4.501502291423908e-12
-3.0387141950151656e-11
9.36569780217651324e-13
1.53009061262105387e-12
8.74603215615306848e-13
-5.14042882150150167e-12
1.53500664129349443e-13
2.35057753839246958e-13
1.35300013583119777e-13
-7.52654231137267205e-13
2.49220355209775491e-14
3.18879110454961274e-14
1.73016732770459159e-14
-9.46842144550737927e-14
4.30818720998088985e-15
4.13619689689236471e-15
2.0245513026693987e-15
-1.02898069231176836e-14
8.28003834726014945e-16
5.24087993428650873e-16
2.48818171120890392e-16
-1.07594486381410284e-15
1.04888911235442805e-16
6.36068558589441205e-17
2.63987130133227107e-17
-1.20445067707316531e-16
1.01777052502521138e-17
6.75374163021067552e-18
2.34369275118106361e-18
-1.11473478647806301e-17
9.44322032711531165e-19
6.67239296733403179e-19
1.95848928167590858e-19
-9.43447214070271936e-19
8.19441063246285317e-20
6.19108544458383271e-20
1.53188153867999768e-20
-7.45436357057026181e-20
6.62954758836934281e-21
5.39464576724702816e-21
1.12023733655139759e-21
-5.50020949331320114e-21
4.99297760931489983e-22
4.40649975019039033e-22
7.65200351162472769e-23
-3.78767938898263439e-22
3.49490162170098662e-23
3.36715785795834867e-23
4.87696307875954882e-24
-2.43215559569128352e-23
2.26898436461952572e-24
2.40197946292960116e-24
2.89640091737557208e-25
-1.45445306927422861e-24
1.36290478613310098e-25
1.59627634543369283e-25
1.60027658206763256e-26
-8.08748788141876656e-26
7.55102427607550425e-27
9.8614454601471913e-27
8.20881206788970973e-28
-4.17318416159990404e-27
3.84441791801585486e-28
5.64808536711479605e-28
3.89974226692170935e-29
-1.99335389180159922e-28
1.7905247485873154e-29
2.98908805733956188e-29
1.71060957922609467e-30
-8.787131546539731e-30
7.58692861169214473e-31
1.45639561786528632e-30
6.90232573515907151e-32
-3.56163317188635879e-31
2.90506427269151704e-32
6.50266086913566375e-32
2.55062532043947217e-33
-1.32152767734019051e-32
9.96843376675949538e-34
2.64518817243503232e-33
8.58557752214555711e-35
-4.46480710195288584e-34
3.03349770412865438e-35
9.73413181682935176e-35
2.61535170977042987e-36
-1.36460975556682122e-35
8.07827868743687062e-37
3.21207103545886158e-36
7.15277325337745866e-38
-3.7433329153453652e-37
1.85007140415679473e-38
9.39856420011465167e-38
1.73914378322055167e-39
-9.12650196827833746e-39
3.55918553813761729e-40
2.40335430576583719e-39
3.71289230862795923e-41
-1.95326646860057474e-40
5.56481733596875217e-42
5.26775122485387896e-41
6.84708849169724307e-43
-3.61032753018730224e-42
6.73074170886006265e-44
9.63329978353248536e-43
1.06624727285600584e-44
-5.63401164354519456e-44
5.81135625297556524e-46
1.41277492759311648e-44
1.35515959698028402e-46
-7.17483275833506751e-46
3.16431315740262304e-48
1.55974895421965192e-46
1.32837395824229568e-48
-7.04625131644528013e-48
1.3253134936310604e-49
1.17063597191071842e-48
9.14868188918382375e-51
-4.91388041263052891e-50
5.58036402472585111e-51
4.77162724961698097e-53
-2.57835533576083899e-52
8.52981332633289212e-09
-8.70767068423112862e-09
6.85660602001173109e-10
-1.85294901588342392e-08
7.75433185822569764e-09
-2.16726434592292309e-09
3.12337675745644284e-09
-1.47949759465081986e-08
4.4674157235050904e-09
1.0020544021574951e-09
1.50423231304224729e-09
-8.53339650287335418e-09
2.15187619204245741e-09
6.11915160878933002e-10
2.45044184782703472e-10
-4.62468683699784771e-09
4.99224514018253463e-10
2.83311146493365884e-10
4.78987775393920785e-11
-1.74012208091641701e-09
5.57841604760554166e-11
9.68271248847275264e-11
1.8460811047509548e-11
-3.91550490186909026e-10
1.12264108211746981e-11
2.06060025324831563e-11
7.79601658920451691e-12
-6.76024033817888457e-11
2.35034914478526267e-12
4.55099772224154955e-12
2.0410353676167346e-12
-1.47900698686290975e-11
4.32076337233762266e-13
8.47756008009705313e-13
4.09995985961970061e-13
-2.53165702000821627e-12
7.67956953030293524e-14
1.39578454601918779e-13
6.60408158013617634e-14
-3.80859735809767545e-13
1.41825959410166197e-14
2.02624324218850819e-14
9.21530631216831843e-15
-4.82763214973310438e-14
3.21217529986880664e-15
2.83684418407895894e-15
1.20312337718273819e-15
-5.58836757318573763e-15
5.27863508527514721e-16
3.99774764307195991e-16
1.52393201480009518e-16
-6.25616741473312513e-16
5.99603933798032387e-17
4.64019432057978405e-17
1.49725316396063956e-17
-7.03433889286115752e-17
5.95684786268076608e-18
4.9253693223643463e-18
1.34652303242954185e-18
-6.4345715534966482e-18
5.56848420863868312e-19
4.89052254181054731e-19
1.13472462865444045e-19
-5.48317285562921731e-19
4.85809543582287716e-20
4.55965874396604194e-20
8.93914600492905087e-21
-4.36029074413256319e-20
3.94833363796986104e-21
3.98910495259792373e-21
6.57791662732768059e-22
-3.23634732422717753e-21
2.98566570467812961e-22
3.26930057863429382e-22
4.51783673502568975e-23
-2.24085062660597272e-22
2.09743313675921382e-23
2.50517993940777712e-23
2.89337672897750807e-24
-1.44608653300365112e-23
1.36618656215361578e-24
1.79129784128455702e-24
1.72577672988410198e-25
-8.68698737595095273e-25
8.23096356337239415e-26
1.19279414563556808e-25
9.57194021037891359e-27
-4.85021179263954807e-26
4.57296985494701872e-27
7.3812483311771036e-27
4.92723219017650051e-28
-2.51198160702311668e-27
2.33422379792293777e-28
4.23354883050730514e-28
2.34825315666268184e-29
-1.20386932777188081e-28
1.08977894710072902e-29
2.24294842414599581e-29
1.03312511535701549e-30
-5.32301580437193686e-30
4.62815047913453129e-31
1.09382090341908297e-30
4.18009719188539126e-32
-2.16352764481583238e-31
1.77591790782273998e-32
4.88705207285789021e-32
1.54866767762680402e-33
-8.04842041589255517e-33
6.10615105903323086e-34
1.98885199178081083e-33
5.22569773995859848e-35
-2.72577534147004807e-34
1.86170576804466073e-35
7.32049343091378166e-35
1.59556922961760594e-36
-8.3500562211556672e-36
4.96672301956689019e-37
2.4156749448422517e-36
4.37345343125393513e-38
-2.29552529631029022e-37
1.13941437028035044e-38
7.06709302486261832e-38
1.06564160898537072e-39
-5.6082628739152348e-39
2.19554688231290859e-40
1.80650005899296988e-39
2.27972003426174849e-41
-1.20268402094839962e-40
3.43789350907310422e-42
3.95727276561701754e-41
4.21250735252576314e-43
-2.22727555305231091e-42
4.16379222866702178e-44
7.23091397130968352e-43
6.57249168717145548e-45
-3.4822025038322238e-44
3.59904831290100534e-46
1.05927214928668576e-44
8.36876682788324015e-47
-4.44240686649818798e-46
1.93709861538307227e-48
1.16765723709043088e-46
8.21714952222272662e-49
-4.369840033822999e-48
7.90960470627039658e-50
8.680198760499396e-49
5.61137165094178471e-51
-3.0139090414137743e-50
4.28372119338148144e-51
2.91020578743334499e-53
-1.58167181358093661e-52
6.27591616111258174e-09
-4.2293234429068732e-09
1.25952513003244297e-09
-1.78294791959820141e-08
3.81167717139017775e-09
5.31979292015735133e-10
2.17332050808066976e-09
-8.79940053348717148e-09
1.72850905535389339e-09
1.01197960473880475e-09
6.28049404031632948e-10
-3.96617069070801588e-09
7.35742635141203905e-10
4.29134356879078858e-10
1.3702087474718887e-10
-1.78630626463256143e-09
2.00233034281471232e-10
1.30573170902655107e-10
3.48909028097498481e-11
-6.4350260392040256e-10
3.37386558774164256e-11
3.63046359518605901e-11
1.17088833520002011e-11
-1.55673267100921692e-10
6.34234701987715357e-12
1.06296036412494134e-11
3.7891894809591679e-12
-3.18597263728682279e-11
1.21767015773207147e-12
2.39566045346681711e-12
9.48236489560463081e-13
-6.81151720185610246e-12
2.22100901440799586e-13
4.74177849739603478e-13
1.93006530171841985e-13
-1.19913409160225351e-12
4.06639445415072105e-14
8.10144234226473183e-14
3.17260906659722208e-14
-1.79941166087354588e-13
7.67377302448933277e-15
1.28513160269510651e-14
4.48978682020427446e-15
-2.27988256051368774e-14
1.92515152250019037e-15
1.89480127070573361e-15
6.35296234842052964e-16
-2.72984263631332376e-15
2.9328410317431885e-16
2.62876839155676968e-16
7.89013683974965409e-17
-3.37137330843658664e-16
3.10455451713064902e-17
3.03696839045514678e-17
7.61416361673098756e-18
-3.60357501501893021e-17
3.12470776680572641e-18
3.24164622642671831e-18
6.91858264170274658e-19
-3.32284565452337131e-18
2.9405223223379132e-19
3.24040870301065227e-19
5.87606704426004277e-20
-2.85230668622030761e-19
2.57864393407357197e-20
3.03894482610427775e-20
4.6604019949389717e-21
-2.28348117107749704e-20
2.10501610502762466e-21
2.671763390489984e-21
3.44994057503450011e-22
-1.7050973126397989e-21
1.59796508139899137e-22
2.19874653496969415e-22
2.38215329207119421e-23
-1.18694529902867062e-22
1.12644817653452911e-23
1.69085146122665831e-23
1.53291260280706097e-24
-7.69614729476510968e-24
7.35994054345259689e-25
1.21279258323197987e-24
9.18237729296269371e-26
-4.6427424917623069e-25
4.44660892146308898e-26
8.09801777400970324e-26
5.11253288088460674e-27
-2.60186891121958782e-26
2.47675210042774903e-27
5.0238550186603594e-27
2.6407633570391404e-28
-1.35201452870716082e-27
1.26716852447730124e-28
2.88814258486413404e-28
1.26243654496639736e-29
-6.49878684377429311e-29
5.92867933851454653e-30
1.533271967780497e-29
5.57003319091130471e-31
-2.88119572979569821e-30
2.52281646623313144e-31
7.49178130646130637e-31
2.25936084453228245e-32
-1.1738853406062188e-31
9.69830729170852774e-33
3.35319213055709478e-32
8.39025945205859435e-34
-4.37674941634829031e-33
3.34025790952101037e-34
1.3668440174866428e-33
2.83735150961352704e-35
-1.48541436653023519e-34
1.02003818918732621e-35
5.03854633171719935e-35
8.68114001560531053e-37
-4.5594109702949651e-36
2.72539327872876274e-37
1.66496521491925693e-36
2.38411829515456191e-38
-1.2557897966800795e-37
6.26125978309053801e-39
4.87719253476332892e-38
5.81990313759561543e-40
-3.07355124758287076e-39
1.20813526829491524e-40
1.24823323766710685e-39
1.24724890861747527e-41
-6.60250283261107145e-41
1.89423763950716226e-42
2.73749359115377127e-41
2.30860332781416717e-43
-1.22475151348404506e-42
2.29710184888353752e-44
5.00752786986626485e-43
3.60784918147359585e-45
-1.91787136028551102e-44
1.98797282666020912e-46
7.34317978634217701e-45
4.60109991595835982e-47
-2.45046567876257647e-46
1.06320828790209107e-48
8.1021535767865876e-47
4.52449909883823619e-49
-2.4139526240591343e-48
4.31951138956397613e-50
6.0037383973239282e-49
3.07498051495433878e-51
-1.65467184524728193e-50
3.00626657062677581e-51
1.5994886504704956e-53
-8.72526111707414634e-53
3.77299939913067776e-09
-1.38168582461679765e-10
1.11586388340797774e-09
-1.37313692093157222e-08
1.86193979079022526e-09
7.91034651332761613e-10
1.14327330295322766e-09
-4.74356778729467341e-09
8.08833642424013463e-10
6.51950501942753984e-10
2.18631199352107134e-10
-2.35977626960798548e-09
2.98100819194988518e-10
2.56040909780853332e-10
4.96976228594417461e-11
-8.595738195483745e-10
7.28664418557837782e-11
7.05113907410656421e-11
1.60022596726164624e-11
-2.65740067557694602e-10
1.5084136281890006e-11
1.86709516409579113e-11
5.71570670451161088e-12
-6.26897727896747602e-11
3.0399903111591754e-12
5.28668737395005907e-12
1.71206769687470412e-12
-1.45028724859376523e-11
5.63336030255957844e-13
1.21093266283386037e-12
4.22271995556786587e-13
-2.98639693253451933e-12
1.0671409664492787e-13
2.47627816271299151e-13
8.63892326987471131e-14
-5.32940793473422189e-13
2.19661730206417206e-14
4.42956861516120278e-14
1.48676229601429568e-14
-7.9111885862812688e-14
5.60982967078517056e-15
7.38981757308320318e-15
2.3109564836609254e-15
-1.05849995859298184e-14
1.08178309184274341e-15
1.20386006268695529e-15
3.33591171181548419e-16
-1.35122337190599728e-15
1.39905381559585684e-16
1.54638693536562044e-16
3.70299260167531408e-17
-1.7259409190423293e-16
1.51499718433488566e-17
1.78505756972500548e-17
3.63143244902423135e-18
-1.72873738203369532e-17
1.53860257833221404e-18
1.91725868530778158e-18
3.32903313131208033e-19
-1.60509318684874081e-18
1.45639573485544402e-19
1.92871603451802762e-19
2.84813263116547368e-20
-1.38743582929426538e-19
1.28327223030623776e-20
1.81864915126976679e-20
2.27352087876210083e-21
-1.11790952812216738e-20
1.05190061932974825e-21
1.60617502527126073e-21
1.6927684508040023e-22
-8.39602206287606177e-22
8.01417614099938443e-23
1.32685810504755423e-22
1.17492776254743034e-23
-5.87497087991266801e-23
5.66749084072932593e-24
1.02369680020361059e-23
7.59598207802548292e-25
-3.82698193989363934e-24
3.71351254626781968e-25
7.3634599248625358e-25
4.56914236763237448e-26
-2.31809040003208821e-25
2.24927455910946667e-26
4.92881665234821335e-26
2.55349199178494475e-27
-1.30378104090369694e-26
1.25571094693982516e-27
3.06464336126047178e-27
1.32331235160423e-28
-6.79643955774997021e-28
6.43771983933579881e-29
1.7654660697396296e-28
6.34467688432158744e-30
-3.27608309428794562e-29
3.01762149560751596e-30
9.38902025029824492e-30
2.80700157219752979e-31
-1.4560705366608017e-30
1.28626398998220374e-31
4.59536391368594603e-31
1.14119734397557275e-32
-5.94563735991593532e-32
4.95233722477701074e-33
2.05993669761158546e-32
4.24700324320086049e-34
-2.22139724986967919e-33
1.70807465044323556e-34
8.4082104724444408e-34
1.43908021868584518e-35
-7.55373337482754802e-35
5.22287376017379124e-36
3.10329793831573048e-35
4.41113017994623082e-37
-2.32276028980850492e-36
1.39717394553762813e-37
1.02662822633162821e-36
1.21352931610887774e-38
-6.40835371326969782e-38
3.21351159913009085e-39
3.01045429417257734e-38
2.96719969734290986e-40
-1.57096168738542383e-39
6.2073333030489196e-41
7.71227802153216667e-40
6.3688254431457332e-42
-3.37985295343434033e-41
9.74260537316522112e-43
1.69293905743992193e-41
1.18059869225445853e-43
-6.27876927701454176e-43
1.18265101369687187e-44
3.09952341316681064e-43
1.84766532496186558e-45
-9.84599546149178165e-45
1.0244974922762714e-46
4.54911167737064436e-45
2.35957492659214937e-47
-1.25973159030038335e-46
5.46328039147689828e-49
5.02350707786964869e-47
2.32332599677445615e-49
-1.24256159984976918e-48
2.1809166784101305e-50
3.71187604195145157e-49
1.57998945402723822e-51
-8.49465533535987981e-51
1.86943206680876529e-51
8.15907521016181643e-54
-4.46795187985693832e-53
2.04730478931404537e-09
3.78977263556124999e-10
5.43033066510011219e-10
-5.94642644591759424e-09
1.05757391353708028e-09
5.21003821030777594e-10
4.94568777917285387e-10
-3.46099956142902197e-09
4.0586759114979127e-10
3.25475953360533165e-10
6.20119001533248145e-11
-1.34477959515474723e-09
1.22261500598078324e-10
1.14426972004858273e-10
1.9618362749115084e-11
-4.1779433783567351e-10
2.88906645260492219e-11
3.19116609406383191e-11
8.30003052705318065e-12
-1.13710209125009478e-10
6.62083170035943092e-12
8.96415633986347104e-12
2.52340016553730545e-12
-2.70903233110325112e-11
1.35957260086469467e-12
2.46265625484773619e-12
7.5289135403625406e-13
-6.38180269823339916e-12
2.53853027301429927e-13
5.80309177624522113e-13
1.85359560904914596e-13
-1.27761288464429252e-12
5.14794313968520539e-14
1.22563294848340624e-13
3.84782223317729052e-14
-2.2537456316838825e-13
1.15204905995759299e-14
2.37733334073245375e-14
6.64773642989610078e-15
-3.35020625827154046e-14
3.20307370067630931e-15
4.21764028370183746e-15
1.11798543067674315e-15
-4.64367424976807726e-15
5.46197573910550277e-16
6.5755923018077292e-16
1.56012360249060263e-16
-6.5164207174419749e-16
6.41516124775446653e-17
8.30542538371383885e-17
1.65655451180906053e-17
-7.78222711728517313e-17
7.03987898940805249e-18
9.62762903525481863e-18
1.64249952654333056e-18
-7.84971908754475327e-18
7.20072723950464604e-19
1.04117310732071472e-18
1.51819181443959614e-19
-7.34084992752402364e-19
6.85269155150819527e-20
1.05399106586069741e-19
1.30819458704256383e-20
-6.38989462426088843e-20
6.06559405299096409e-21
9.99131433913652321e-21
1.05096933241884417e-21
-5.18151962238005829e-21
4.99165137820632577e-22
8.86317002537505025e-22
7.87032426640781751e-23
-3.91397817705340556e-22
3.81618453191089038e-23
7.34904459102231282e-23
5.4911256184184643e-24
-2.75282226684011387e-23
2.70693420379524948e-24
5.68787514426872183e-24
3.5666380530702985e-25
-1.80138105211687939e-24
1.77838780350155758e-25
4.10244172984237025e-25
2.15436649032422319e-26
-1.09555886701549064e-25
1.07970983374576443e-26
2.75237007281574903e-26
1.20846492240571254e-27
-6.18387650142717693e-27
6.04038140116058528e-28
1.71498100422181557e-27
6.28332593273989332e-29
-3.23370570284767266e-28
3.10247938096284441e-29
9.89844013019563081e-29
3.02118090589560294e-30
-1.56303054982089902e-29
1.45666280380994513e-30
5.27232444500918588e-30
1.3401862984784168e-31
-6.96370432819058755e-31
6.21818220633560259e-32
2.58444743438343701e-31
5.45974382568346712e-33
-2.84949454238293429e-32
2.39721574801059447e-33
1.16003456604857718e-32
2.03598371358326405e-34
-1.06673560810247373e-33
8.27764449415952089e-35
4.74032996359728572e-34
6.91164608427919117e-36
-3.63397221433150295e-35
2.53375468822459776e-36
1.75128790982066116e-35
2.12216703374201345e-37
-1.11930145282739316e-36
6.78455383983899674e-38
5.79869666480965511e-37
5.84732532486068322e-39
-3.09285010855935773e-38
1.5618312322286039e-39
1.70174531939964386e-38
1.43181864409106115e-40
-7.59287420458841095e-40
3.01937132548963232e-41
4.36273962703196096e-40
3.07750785768784914e-42
-1.63580868852559418e-41
4.74267292149057619e-43
9.58311335781405404e-42
5.71228605485496705e-44
-3.04280557822989476e-43
5.7613669680736627e-45
1.75561360636351396e-43
8.95100687286576791e-46
-4.77747174831283867e-45
4.99446090023825524e-47
2.5781869465778826e-45
1.14444621115084141e-47
-6.11966194676579629e-47
2.65540622666677875e-49
2.84864446693960689e-47
1.12810494335376193e-49
-6.04286660825479925e-49
1.0401282122819117e-50
2.10605557222109518e-49
7.67945009009976945e-52
-4.12006905009352946e-51
1.06127446482882087e-51
3.93054069270023805e-54
-2.15939581594837856e-53
9.9970806186180995e-10
3.05812923374306015e-10
2.48995275874610024e-10
-3.08041937705620412e-09
5.62332293526685293e-10
2.43614628701604213e-10
2.06766892372867264e-10
-1.63341099384275533e-09
1.85903763417156314e-10
1.1800950029535542e-10
2.40550561105133215e-11
-6.06786381696297353e-10
5.16848094830947582e-11
4.27224560102054876e-11
1.08043856126356419e-11
-1.80586212324433062e-10
1.21478563947726982e-11
1.2672535046441803e-11
4.01373417479741879e-12
-4.72311924405730327e-11
2.88251608059325785e-12
3.89320052933468805e-12
1.08350159709847366e-12
-1.14857684937806864e-11
5.95766454421004478e-13
1.09040629047630921e-12
3.21371730114769343e-13
-2.65879807703995385e-12
1.15909908355846722e-13
2.68596997516138453e-13
7.98223168521310528e-14
-5.24624037413236456e-13
2.64870435603449388e-14
6.0949971448102498e-14
1.66825896966278394e-14
-9.0720324080364904e-14
7.92154488899500426e-15
1.25023670923102993e-14
3.26817801907954068e-15
-1.41638347268708842e-14
1.68700647341198397e-15
2.33342323742899835e-15
5.42455125728012053e-16
-2.10745551480279478e-15
2.37473789377802033e-16
3.2947473927442777e-16
6.57213939977407383e-17
-3.02748726988009424e-16
2.82824721618733658e-17
4.15172280491699389e-17
7.07477785674883178e-18
-3.34488812967300349e-17
3.13202035934582902e-18
4.84476177983418134e-18
7.08299338111753614e-19
-3.39574241515844492e-18
3.22369710139976991e-19
5.27684558238986327e-19
6.60025505518820482e-20
-3.19937405209876222e-19
3.08362037826304781e-20
5.37532346577361583e-20
5.72841281800561976e-21
-2.80450120003545734e-20
2.74149367284844885e-21
5.12241796771251784e-21
4.63201330385049217e-22
-2.28870286489612852e-21
2.26476418692156957e-22
4.56399847313033864e-22
3.48911607979256968e-23
-1.73881245510936741e-22
1.73723632704643192e-23
3.79815927301102589e-23
2.44722805430613595e-24
-1.22931078578720772e-23
1.23586561272455034e-24
2.94873774493554969e-24
1.59708307198392147e-25
-8.08169092986566827e-25
8.13983742554093918e-26
2.13244923373073242e-25
9.68777209431778433e-27
-4.93536167999534318e-26
4.95282265353076197e-27
1.43382301602912164e-26
5.45490224502358007e-28
-2.79583750942249028e-27
2.77617356811462673e-28
8.95170608114627263e-28
2.84605300872998851e-29
-1.4665557561318977e-28
1.428319116329442e-29
5.1754982652500804e-29
1.37259340438796178e-30
-7.10747503615504587e-30
6.7161150154596202e-31
2.7606732490854243e-30
6.10344595602861957e-32
-3.17410596534740781e-31
2.87060144372056698e-32
1.35517607333394058e-31
2.49087305344770944e-33
-1.30146416439531809e-32
1.10785445663089239e-33
6.08944977692532225e-33
9.30720142534314855e-35
-4.88157897289557057e-34
3.82900839787925395e-35
2.49062040117516103e-34
3.1651132129688883e-36
-1.66584743835432846e-35
1.17300294814008852e-36
9.20850097064538667e-36
9.73346764490948797e-38
-5.13895224851103341e-37
3.14318598234851312e-38
3.05103508296273118e-37
2.68575149405016781e-39
-1.42201090068819476e-38
7.24041733132091827e-40
8.95896503506786062e-39
6.58524114543822482e-41
-3.49560570628364045e-40
1.40055364764850466e-41
2.29793045562476e-40
1.41716145956900967e-42
-7.54021933842357491e-42
2.20109633800846122e-43
5.04978116877589061e-42
2.63349885380612758e-44
-1.40419972055188408e-43
2.67521183017840615e-45
9.25471470816144178e-44
4.13113223569060991e-46
-2.20712531076917581e-45
2.32020367789750154e-47
1.35957093427944264e-45
5.28731982236040075e-48
-2.8300801290927247e-47
1.23414181676734123e-49
1.50268966249701282e-47
5.21665378816386417e-50
-2.79714947969045905e-49
4.72027053627824016e-51
1.1113401470511834e-49
3.55407824760718821e-52
-1.90867674406528711e-51
5.59584757566033514e-52
1.80129485682977714e-54
-9.92459297388289503e-54
4.70506055315209958e-10
2.27893293481945444e-10
1.10374471555791667e-10
-1.27298311324200545e-09
2.58678203632300694e-10
1.01020177551807013e-10
8.78858881987786075e-11
-6.39938169899631849e-10
8.11286055812646223e-11
4.2591912448847339e-11
1.16733991909376849e-11
-2.45526064452830598e-10
2.1263930643580699e-11
1.53624891833550564e-11
5.83042632509725888e-12
-7.17604627688685812e-11
5.19105296636758986e-12
4.89015665120415073e-12
1.67848927958427801e-12
-1.90013289699609203e-11
1.25802319419916811e-12
1.64151246873114706e-12
4.53147607850631365e-13
-4.68157883739533102e-12
2.6352582029592559e-13
4.81866920822453955e-13
1.35751087199904436e-13
-1.05656744066564358e-12
5.6858745156324251e-14
1.26744167216216613e-13
3.4111816861834875e-14
-2.06333903232122587e-13
1.5868764790329128e-14
2.98765137416512509e-14
7.83858484967224287e-15
-3.64549022880178114e-14
4.28391306645732119e-15
6.5795168642300645e-15
1.5066700556688638e-15
-5.96551472165270789e-15
7.60174539558490186e-16
1.11464014542532804e-15
2.25245603823326756e-16
-9.61585113502005998e-16
9.97367654072830037e-17
1.54458192760161351e-16
2.65531532914723929e-17
-1.23889937834856603e-16
1.1999084651076276e-17
1.95503852770220438e-17
2.89056107146484653e-18
-1.3734689841110678e-17
1.33870677120055481e-18
2.29913390275395145e-18
2.9212428041961567e-19
-1.40500097010992041e-18
1.38597840366769154e-19
2.52234761013945022e-19
2.74465344631951567e-20
-1.33401518506960731e-19
1.3323792111323152e-20
2.58547288185199597e-20
2.39976085846715116e-21
-1.17771402165412471e-20
1.18968494316188786e-21
2.47674076586163524e-21
1.9534151484155026e-22
-9.67332427003806389e-22
9.86494792953335705e-23
2.21636124758738652e-22
1.48028505109652276e-23
-7.39213293079744384e-23
7.59171650863270788e-24
1.85108956473063262e-23
1.04387006626199528e-24
-5.25360429934683048e-24
5.41593087922217387e-25
1.44145388174093534e-24
6.8454167553661587e-26
-3.47011984792636348e-25
3.57573645734273778e-26
1.04510648323721052e-25
4.17035611031856571e-27
-2.12803943547370587e-26
2.18022465269544283e-27
7.04179336755990989e-27
2.3574826130236657e-28
-1.20989901568446231e-27
1.22416742429260832e-28
4.40473464797426299e-28
1.23444824955546081e-29
-6.36516953127969947e-29
6.30830288475605273e-30
2.54978734848825415e-29
5.98047326322462766e-31
-3.09145838244443517e-30
2.97021304585391388e-31
1.36228893712254759e-30
2.66150876629882378e-32
-1.38438564759068828e-31
1.27086745912706402e-32
6.69564358003772472e-32
1.08793003693204914e-33
-5.68836209020546269e-33
4.90885187122888446e-34
3.0112346899222116e-33
4.07345808248406162e-35
-2.13776781807717419e-34
1.69783072311162364e-35
1.23243939206678085e-34
1.38756969583232858e-36
-7.30740402197507143e-36
5.20437140789625506e-37
4.55913574697160953e-36
4.2733137074386754e-38
-2.25758715726170899e-37
1.39526950423727855e-38
1.51122679187210025e-37
1.18068193199583678e-39
-6.25534059931450781e-39
3.21540602894508799e-40
4.43904842286568314e-39
2.89841360322701158e-41
-1.53956528372151642e-40
6.22197903023710423e-42
1.13890145495341567e-40
6.24438263958743889e-43
-3.32464761630469109e-42
9.78144544820826904e-44
2.50330117367208922e-42
1.16158208347840991e-44
-6.19783318248143877e-44
1.18916323202188406e-45
4.58854356629365646e-44
1.82389468887546545e-46
-9.75108329677224584e-46
1.031614294395545e-47
6.74171804547358102e-46
2.33638852143871084e-48
-1.25141904428380957e-47
5.48855614967907726e-50
7.45222352752349672e-48
2.30694608330018067e-50
-1.23780706049639974e-49
2.04694032355127052e-51