/*--------------------------------*- C++ -*----------------------------------*\
| =========                 |                                                 |
| \\      /  F ield         | OpenFOAM: The Open Source CFD Toolbox           |
|  \\    /   O peration     | Version:  2206                                  |
|   \\  /    A nd           | Website:  www.openfoam.com                      |
|    \\/     M anipulation  |                                                 |
\*---------------------------------------------------------------------------*/
FoamFile
{
    version     2.0;
    format      ascii;
    arch        "LSB;label=32;scalar=64";
    class       volVectorField;
    location    "0.0299999999999999989";
    object      faceTraction;
}
// * * * * * * * * * * * * * * * * * * * * * * * * * * * * * * * * * * * * * //

dimensions      [1 -1 -2 0 0 0 0];

internalField   uniform (0 0 0);

boundaryField
{
    inlet
    {
        type            calculated;
        value           nonuniform List<vector> 0();
    }
    outlet
    {
        type            calculated;
        value           uniform (0 0 0);
    }
    top
    {
        type            calculated;
        value           nonuniform List<vector> 0();
    }
    bottom
    {
        type            calculated;
        value           uniform (0 0 0);
    }
    left
    {
        type            calculated;
        value           uniform (0 0 0);
    }
    symmetry
    {
        type            symmetryPlane;
    }
    interface
    {
        type            calculated;
        value           nonuniform List<vector> 
104
(
(0.061312499999999992 0 0)
(0.183937500000000032 -1.63369318073591823e-15 0)
(0.306562500000000071 5.4456439357863933e-15 0)
(0.429187500000000055 -3.81195075505047508e-15 0)
(0.551812499999999928 0 0)
(0.674437499999999912 0 0)
(0.797062500000000118 0 0)
(0.919687500000000435 9.06881892213061478e-30 -4.08423295183979715e-15)
(1.0423125000000002 -1.54169921676220823e-29 -4.62879734541843813e-15)
(1.16493749999999996 0 0)
(1.28756250000000017 0 0)
(1.41018750000000015 0 0)
(1.53281250000000013 1.51146982035510522e-29 -6.80705491973299341e-15)
(0.0613125000000000059 0 0)
(0.183937500000000004 -1.63369318073591764e-15 0)
(0.306562500000000071 5.4456439357863933e-15 0)
(0.429187500000000055 -3.81195075505047508e-15 0)
(0.551812500000000039 0 0)
(0.674437500000000134 0 0)
(0.797062500000000451 0 0)
(0.919687500000000213 0 4.08423295183979636e-15)
(1.0423125000000002 5.13899738920735562e-30 4.6287973454184334e-15)
(1.16493749999999996 5.17336173899707044e-15 2.58668086949853522e-15)
(1.28756249999999994 -5.7179261325757067e-15 2.8589630662878565e-15)
(1.41018749999999993 0 0)
(1.53281250000000013 0 6.80705491973299341e-15)
(0.0613125000000000059 0 0)
(0.183937500000000032 -1.63369318073591803e-15 0)
(0.306562500000000127 5.44564393578639567e-15 0)
(0.429187500000000111 -3.81195075505047429e-15 0)
(0.551812499999999928 0 0)
(0.674437499999999912 0 0)
(0.797062500000000118 0 0)
(0.919687500000000102 8.16846590367958325e-15 0)
(1.0423125000000002 -9.25759469083688731e-15 -2.56949869460367781e-30)
(1.16493749999999996 5.17336173899707123e-15 -2.58668086949853246e-15)
(1.28756250000000017 -5.71792613257570828e-15 -2.85896306628785414e-15)
(1.41018750000000015 6.2624905261543469e-15 3.13124526307717345e-15)
(1.53281250000000013 6.80705491973300839e-15 3.4035274598664967e-15)
(0.0613125000000000406 0 0)
(0.183937500000000004 -1.63369318073591764e-15 0)
(0.306562500000000016 5.4456439357863933e-15 0)
(0.429187499999999944 -3.8119507550504735e-15 0)
(0.55181250000000015 0 0)
(0.674437499999999801 0 0)
(0.797062499999999785 0 0)
(0.919687500000000213 8.16846590367958325e-15 0)
(1.0423125000000002 -9.25759469083688731e-15 2.56949869460368026e-30)
(1.16493749999999996 0 0)
(1.2875624999999995 0 0)
(1.41018749999999971 6.26249052615434453e-15 -3.13124526307717779e-15)
(1.53281250000000013 6.80705491973301234e-15 -3.40352745986650065e-15)
(0.0613125000000000128 0 0)
(0.183937500000000004 -1.63369318073591764e-15 0)
(0.306562500000000016 5.44564393578639488e-15 7.55734910177551787e-31)
(0.4291875 -3.81195075505047192e-15 -5.29014437124285629e-31)
(0.551812500000000039 0 0)
(0.674437500000000134 0 0)
(0.797062499999999896 0 0)
(0.919687500000000435 8.16846590367958641e-15 0)
(1.0423125000000002 -9.25759469083688258e-15 0)
(1.16493749999999996 0 0)
(1.28756250000000017 0 0)
(1.41018750000000015 0 0)
(1.53281250000000013 1.36141098394659868e-14 7.55734910177551769e-30)
(0.0613125000000000198 0 0)
(0.183937500000000004 -1.63369318073591764e-15 0)
(0.306562500000000071 5.44564393578639567e-15 -7.55734910177551261e-31)
(0.429187500000000055 -3.81195075505047271e-15 5.29014437124285454e-31)
(0.551812500000000039 0 0)
(0.674437500000000134 0 0)
(0.797062500000000229 0 0)
(0.919687500000000324 8.16846590367958325e-15 0)
(1.04231249999999998 -9.25759469083687942e-15 0)
(1.16493749999999996 0 0)
(1.28756250000000017 0 0)
(1.41018750000000015 0 0)
(1.53281250000000036 1.36141098394659884e-14 -7.55734910177551209e-30)
(0.0613125000000000059 0 0)
(0.183937500000000004 -1.63369318073591783e-15 0)
(0.306562500000000127 5.44564393578639567e-15 0)
(0.429187500000000055 -3.81195075505047429e-15 0)
(0.551812500000000039 0 0)
(0.674437500000000134 0 0)
(0.79706250000000034 0 0)
(0.919687500000000213 8.16846590367958325e-15 0)
(1.04231249999999998 -9.25759469083687785e-15 0)
(1.16493749999999996 0 0)
(1.28756250000000017 0 0)
(1.41018749999999993 0 0)
(1.53281250000000013 1.3614109839466001e-14 0)
(0.061312499999999992 0 0)
(0.183937500000000004 -1.63369318073591764e-15 0)
(0.306562500000000071 5.4456439357863933e-15 0)
(0.429187500000000055 -3.81195075505047429e-15 0)
(0.551812500000000039 0 0)
(0.674437500000000134 0 0)
(0.79706250000000034 0 0)
(0.919687500000000213 8.16846590367958325e-15 0)
(1.04231249999999998 -9.25759469083687942e-15 0)
(1.16493749999999996 0 0)
(1.28756250000000017 0 0)
(1.41018749999999993 0 0)
(1.53281250000000013 1.3614109839466001e-14 0)
)
;
    }
    procBoundary3to0
    {
        type            processor;
        value           uniform (0 0 0);
    }
    procBoundary3to1
    {
        type            processor;
        value           uniform (0 0 0);
    }
    procBoundary3to2
    {
        type            processor;
        value           uniform (0 0 0);
    }
}


// ************************************************************************* //
