/*--------------------------------*- C++ -*----------------------------------*\
| =========                 |                                                 |
| \\      /  F ield         | OpenFOAM: The Open Source CFD Toolbox           |
|  \\    /   O peration     | Version:  2206                                  |
|   \\  /    A nd           | Website:  www.openfoam.com                      |
|    \\/     M anipulation  |                                                 |
\*---------------------------------------------------------------------------*/
FoamFile
{
    version     2.0;
    format      ascii;
    arch        "LSB;label=32;scalar=64";
    class       volScalarField;
    location    "0.720000000000000417";
    object      alpha.water;
}
// * * * * * * * * * * * * * * * * * * * * * * * * * * * * * * * * * * * * * //

dimensions      [0 0 0 0 0 0 0];

internalField   nonuniform List<scalar> 
7236
(
0.99189512909227151
0.993387804604201841
0.992045222775910451
0.990628876073146758
0.990138151687452561
0.990700702655074705
0.992054132003807543
0.993095126986103582
0.99441192526879818
0.995451123597386078
0.995971092433533878
0.996078710702817727
0.996161217700985313
0.996024307394646646
0.995652214606415509
0.9950414831628559
0.994279282009500553
0.99341460392756642
0.992479092105608363
0.991525422682193458
0.990596988263913625
0.989658827966426569
0.988548091161244202
0.98735730493554863
0.986212214344257321
0.985005951413313707
0.98327872395196958
0.981486097094308674
0.979770669835183128
0.977781925511233885
0.975605977065165053
0.973145857798696334
0.97133542919846505
0.971550290972146402
0.972462653972736679
0.972714805554624418
0.972799393961755854
0.972083887174942873
0.45571123051925011
0.860611153099348769
0.959935598374741295
0.963688901824379274
0.923023175126034379
0.8535762565641416
0.878117561638126265
0.920566655847338766
0.974270773161064918
0.989529724751777584
0.991759562497410263
0.993347494354705596
0.993954603455089014
0.994486266542864872
0.994541192255420148
0.994029790207970554
0.993332347234135993
0.992457292926094969
0.991384891225345788
0.990203682732233692
0.988966741432828922
0.979497951765216257
0.960587063493310245
0.96026437995249414
0.95619136503452018
0.952855785315304793
0.951151052776042949
0.918171601004824645
0.947158109676902171
0.946247590682759987
0.865915337184792966
0.877008667925834318
0.91093335230975081
0.906306761742283973
0.932609541483290005
0.976387826448691043
0.973846389515859445
0.971020684053599203
0.314908234253545638
0.322167489169234378
0.637840001146144031
0.758382785134582238
0.600014635569122712
0.432258706688498084
0.401463635751112935
0.43401013516445297
0.533498182295945145
0.583506756501530832
0.722319971864553101
0.803841762793936931
0.855962598022637078
0.871576092571107686
0.877338566372278028
0.889099764425874239
0.820406219664788883
0.771789311881227569
0.711819837395355925
0.581380686661074009
0.585381495140078201
0.692500562410399034
0.41301612967358059
0.311008090820150629
0.370325046660846036
0.435330166658363105
0.406441150549488261
0.0609715221078612271
0.117615669682221285
0.130962485583642541
0.332929701363064878
0.0447911341556423426
0.067156246215367435
0.0785237205792277404
0.00441493445223633055
0.175780299057446021
0.905789649546980047
0.962177920574403656
0.215795508857910656
0.34217860846974768
0.0666878792776166157
0.037663447510165704
0.027109546895154879
0.0249272515737555128
0.0242170925169242109
0.0226139387812210706
0.0202596745038173091
0.0163086905566664359
0.0104567631970776623
0.00592548980884351033
0.0036380901709853232
0.00448358600089145392
0.0058276479174938639
0.00560114560378766231
0.00540462031098721055
0.00781236210122284846
0.00836663098820540629
0.0075920467809384674
0.00787517716296986039
0.00816081789066880683
0.00777391750648960198
0.00598366858856989436
0.00537932087091047301
0.00496105919705468537
0.00427114718440197664
0.00329801012822608696
0.00284109919715759768
0.00247542157365836409
0.00203415253530587255
0.00167815123201691253
0.00146613304285714524
0.0019669676684525312
0.0024318241592110601
0.0119144383046092851
0.789986739068407662
0.910886359218966879
0.181878968607323332
0.025333286578443661
0.0333974451190049287
0.0223356015698412819
0.0194337227980803176
0.0231600394033100801
0.0248395476442475165
0.0247541669695221025
0.0236403436908031103
0.0210750740022668873
0.0195868834306280604
0.0171390428644095892
0.0160001637948877472
0.0145109716316414866
0.0142190637440327526
0.0168902525663132269
0.0144433372982015959
0.0130027573030671011
0.013047470391254451
0.0112239917617317341
0.00941455108581493866
0.0079366246554470922
0.00704943959579751572
0.00616385465843231114
0.00486943757139893761
0.00419559028005764625
0.00325959125123415419
0.00275900403212303059
0.00238179800002394186
0.00193742467032967641
0.00154370692849005019
0.00127519596804859595
0.00100332677279941335
0.00121735070431805317
0.00176839541166558516
0.00550039526038832716
0.45846415864504364
0.838719007996425958
-0.00114187616544290265
0.0111098417641350162
0.0135790842195619432
0.0141611397186896699
0.0222352192476793775
0.0300136587689880385
0.0344249686826946649
0.0373185434076893641
0.0365353512948074222
0.0330023956809511257
0.031462199779912832
0.0294505873439238133
0.0207604553552157498
0.013189777525857177
0.0131615570035934423
0.0138711535496779947
0.0138604204581693775
0.0147289237159685636
0.0144307294783171877
0.0111389854479000266
0.00712430821234668818
0.00758649138279025338
0.00550055841038740723
0.00448348642136568547
0.00392696367518390044
0.00316624122825644085
0.00260547796462259028
0.00237685430461971169
0.00199672313061338312
0.00145596770114070221
0.00110571263476976888
0.000940840768672196719
0.000684978937376443759
0.000847202331441314631
0.00131373675421730235
0.00539961851744078652
0.385805762409638542
0.790975832048703031
-0.00154817347672437061
0.00526630154461377349
0.00526118872017468549
0.0140500449029708208
0.0405698839374611722
0.0499906561716437006
0.0471118162765788162
0.043683357444399884
0.0409355890336221898
0.0377913617650690592
0.0350241510081313462
0.0341454271021288253
0.0333531955591496176
0.0307456617588452927
0.0277337495813663182
0.0135676767352796608
0.015205243484082788
0.0173533954916780947
0.0178635547483399285
0.0170401533008017955
0.0167411958337892949
0.0167230626938301916
0.0125868895470330998
0.00519927522822725974
0.00489564332607756066
0.00459359485841032145
0.00283956010734029082
0.0023637593928526289
0.00163211129310542047
0.00112675465551661429
0.000741570817629356571
0.000671678177549023215
0.000551184853512882251
0.000730837571079946918
0.000934529744765741723
0.00636949177998911639
0.327181003873508125
0.766493905548826016
0.000117606390493280369
0.00100602556252519593
0.00769690559650001646
0.0289419046501969875
0.0602018758953137556
0.0552877572337425183
0.0505884357541983576
0.045742985394207028
0.0398089908603138781
0.0337070985147128188
0.0351130303588817055
0.0322584668916051226
0.0248054680325892722
0.00744257901678656644
0.00601328539279743276
0.00688098353698159224
0.00843104936323622184
0.0185786070639787325
0.0174667565446214035
0.0164548344401702976
0.015571257348759325
0.0160854697245425005
0.01571995521654386
0.0126898633907959468
0.010700190226624948
0.00521657874689267307
0.00265645303715052617
0.00168017216046499975
0.00109424287724710985
0.000715686115274616992
0.000536333595358242472
0.000460158186041410041
0.000583212191788991859
0.000603733099476173245
0.000563223800762996667
0.00928237608392810075
0.137009175629179497
0.757903074938227062
0.00106056452605861979
0.00102749992215806158
0.00435348866722448397
0.0735887879337051298
0.0664579894226927786
0.0601857489490963682
0.0519376539988378946
0.0262966363075395754
0.00967934917420847432
0.00642767708072107188
0.00494091692563538177
0.00492058415168477106
0.00456880776668112942
0.00457776483799805962
0.00382226610360954146
0.003674578141705547
0.00571166643904589318
0.0163197694817574165
0.0170902273546642836
0.015938364683937032
0.0151021854465867005
0.0145896460974684668
0.0130711761815265337
0.0101791159091818781
0.00691690550861551526
0.0031395057372684658
0.00151283616184193399
0.000963930778612525035
0.000654911416257786152
0.000485701331884249145
0.000534906427924898022
0.000504843763592217605
0.000600072505812283222
0.000356709698663677398
0.00616772697730147423
0.0120644409013555241
0.0573125202988670548
0.717237298234725595
0.00102988658369962448
0.00105832743648419728
0.0362030797131707438
0.0819290354173497215
0.0736373906784152932
0.0588235575686587228
0.0089164169125341558
0.005355832599072235
0.00401898390001704468
0.00335692645263152003
0.00323721832536777486
0.00321694291742128649
0.00294582839859491418
0.00270075097578841451
0.00268721203162615311
0.00677360929063979857
0.0143463018295780509
0.0159775599065886779
0.0149741726425403898
0.0141853910470025081
0.0136628694628632384
0.0125992098398748902
0.00113985832012003714
0.00466870648611184599
0.103598715593663862
0.0946647696879868161
0.0808531770776331205
0.0071409450172002847
0.00485547351823201537
0.00309491784884860077
0.00239670074333519275
0.00192093100717190702
0.0020811983666440023
0.00203813577690323397
0.00173536869647137161
0.00188841923114597791
0.00454231459409884519
0.0122003977453074668
0.0131759771469098577
0.013247276875785776
0.012804860604652267
0.012477387341079102
0.0118175182989978256
0.00787937490752306513
0.001314029752171387
0.0133198004137994336
0.132593978161119147
0.107319838935537565
0.0154184849868302144
0.00403722918891497116
0.00314356850393168177
0.00199664038993456906
0.00133924245041443192
0.00110141237317546445
0.00124755326553039106
0.00173447461884811637
0.00129043164938714245
0.00130420926508627928
0.00188180251109322451
0.00529234515090700949
0.0100275523007334749
0.0110236121229577433
0.0105413893400788765
0.00745949593395694825
0.00367053729320454894
0.00122853896147950186
0.00137759902794231445
0.138140982311849903
0.145827381797026423
0.0688245682518126151
0.00359255358497386715
0.00275882591706891073
0.00197433350321394316
0.0011266460854564436
0.000668435678299914167
0.000558845777764326447
0.000726374655676372796
0.00121038080366156616
0.00165910050853566859
0.00173121489607650663
0.00175347618914940156
0.00328957487908099113
0.00395660725014763525
0.00230983573604076186
0.00184581537473543279
0.00182001936492187503
0.00124775715932654192
0.000664457145561649781
0.000249945800591762325
0.000363016418163579794
0.00047566480259308145
0.00151165320540862691
0.00292105540239950834
0.00255730781794559058
0.00215743604266573248
0.00138930494298030718
0.00128902313258978988
0.000616253628362774773
0.00048532267282729274
0.00068407629623991903
0.0015491898265792821
0.00149718904213639583
0.00106691455411090687
0.000655290788284481848
0.000328104375197788055
0.000417073977298941328
0.000362207072743864125
0.000302111351308123307
0.000117638579065049967
0.000191130512707087582
0.622413961196826016
0.7254051174811188
0.955343150905504812
0.963758702142748835
0.968844516181166182
0.973210668757085062
0.977354404994791315
0.981741154186732023
0.985806059865532491
0.989007854455303148
0.991446908996926446
0.993090083868817142
0.993651383577802472
0.993916316292366098
0.993883782255202686
0.993468739910890686
0.99286131066832306
0.992050221810995447
0.991046505920078147
0.989994491982968405
0.988923822891506266
0.987687207526145583
0.98633637577985156
0.984999036366906333
0.983611503242068475
0.982021323166603732
0.980063893134872188
0.97843726548863641
0.976684214924569361
0.97457107205257254
0.97231382577485137
0.970434550770861604
0.969013932957518365
0.96862182546858544
0.970831397388509987
0.971504935270884218
0.971704817644094332
0.970928741710699761
0.00146766158151467375
0.281339104278705399
0.307132534312033356
0.635103097706245068
0.775061908718320369
0.81614876841294115
0.829451708649688868
0.813650778032133482
0.811370206694188578
0.805160040755346973
0.855410035727333318
0.898643291195208471
0.959840288291422428
0.984864182539724964
0.990324975449322742
0.990441214377391188
0.99018348038603432
0.989595593906094084
0.985856314888989171
0.978036509262327658
0.967849883750784068
0.941061279220571478
0.940994921049190691
0.945395138093962917
0.965384905837935459
0.925472470647831891
0.910060220550487076
0.908363932037536292
0.940003486152518608
0.848263829380164425
0.820557981236759604
0.898218735240071453
0.89267758180089074
0.827612576118346821
0.836335044025349861
0.978843163946332417
0.971977739407290708
0.969253543868364265
0.00115438817581927635
0.127827050915525153
0.148269133700390132
0.0878932580182606726
0.0339536714951298099
0.0243591017558682892
0.021483160538887075
0.0200213014278456461
0.0204073840398990639
0.121698463217743746
0.100262183727914594
0.228488250680036808
0.360057633781825981
0.522590078485507648
0.627276761031315466
0.638301984018041835
0.671328457978009441
0.60730415452980302
0.526335987120833848
0.508985674165116642
0.56148061232518276
0.450043400875678512
0.243364183062061756
0.240458342740907799
0.232959195421711451
0.401045905870798802
0.0412696880447170414
0.08746697663168157
0.0998768264189046906
0.245142245662778618
0.0371777792525957787
0.0384073379035006837
0.0715658620067930185
0.0420258508340619966
0.0133864263648202364
0.154217703742628942
0.920378658815634965
0.958502894511435888
0.00126822631687327405
-0.00352556978680969085
0.0225473656803576034
0.022476404879158314
0.0166211202912264731
0.022569036307857563
0.0214864057440103187
0.0204516584921185865
0.0197565319807210885
0.0194567215192699705
0.0191986392077335977
0.0173857718783461644
0.0161057515926989678
0.015396762713611678
0.0144775981042924006
0.0135299070751173749
0.0130054209593804156
0.012755876129611949
0.012272748712830019
0.0115988094989405294
0.0105842031859116094
0.0095111690186961053
0.00821234462514794719
0.0071648063271296282
0.00645445648036285357
0.00556857960548061588
0.00453438386487376843
0.00375599206682213083
0.00319068750405973166
0.00271354754802075743
0.00225851079741567606
0.00188729833523482811
0.00168153841131440593
0.00240995983252584181
0.00340000428648466919
0.0146281314925218488
0.786145199274448148
0.907383010994657124
0.00149516858841760442
-0.00278747977779771495
0.0104533603209358717
0.0136880439901645116
0.01434702975339857
0.017519543718975409
0.0215903424339746186
0.0218610757891704935
0.0224690931388719373
0.0211094095554415703
0.0174560870121654374
0.015292873711417812
0.0150037243964051374
0.01464379149056938
0.0139453468673655951
0.0133863502114961314
0.0130584310932562939
0.0127740457443373812
0.0140499520736752665
0.0112680684980901655
0.00959726401692439363
0.00822857542528946696
0.0070427673122060979
0.00598157440418481835
0.00516103619064873197
0.00442493416989771064
0.00328299973543562645
0.00277900698864368394
0.00249220862205418343
0.00207158250618528789
0.00176956659731150189
0.00145150771166338999
0.00121534084732225715
0.00122930694016796615
0.00259919241421747819
0.00934919726606936105
0.424224979336720487
0.839268629899989183
0.0016714122438061369
0.000286549812758651705
0.00318314444405532956
0.00805557060594686188
0.0141036025392889796
0.0276792846594171235
0.0368194141498401836
0.0408180618097825632
0.0396737143182792421
0.0375790309967766398
0.0358113207181931098
0.0363820583098192069
0.0347713579246167054
0.0259974144178337641
0.0272086536293390455
0.0237566532222608581
0.0210342263971343216
0.0193815162016425062
0.0182578451186056409
0.0130885167979701567
0.00839677427678110246
0.00697665992815586777
0.00613930488179755159
0.0058732536428383695
0.0041894181953835239
0.003108261773923635
0.00260504990467759837
0.00249621923523201533
0.00209110296180928506
0.00168474612807950597
0.0012763573611444944
0.00115734407869969675
0.000893045713404282777
0.000943584461629159944
0.00179827302323425195
0.00955983519950047433
0.372834789387907595
0.79647228362954503
0.00188114430019728691
0.00168419565810087966
0.00381433390371039042
0.00540965627419117204
0.0386591042317451089
0.0535828143234364784
0.0493486776084161027
0.0452540540383030987
0.0430262385631755978
0.0398361278028660504
0.0371145681595178717
0.0349783160921131597
0.0324408454326389831
0.0308111853220221915
0.029198748580213145
0.0272721350729868001
0.0223284995843146331
0.0115599502660561244
0.0137105204158460663
0.0160763720120956424
0.013852520470689373
0.0160075779603561785
0.0138268031715915625
0.0129945749220450671
0.0105877524633113777
0.0051294468675210491
0.00289570886039328644
0.00237348800973613419
0.00180283900767403077
0.00112751303566090665
0.00099211441871705614
0.000856511152227785403
0.00062472621046254955
0.000934273615590885563
0.00140363075786420965
0.00990885757908188669
0.442605457582248119
0.763607059828695256
0.00144405442897276373
0.0019169272299629221
0.00298563993074865003
0.0300008847690381164
0.0631450026402805842
0.0585542062558035842
0.0535346763935310097
0.0491697847454603265
0.0429206862478212492
0.0346750442361877104
0.0282500849380358694
0.0250987770483273101
0.0269917690442556465
0.0239436066380023654
0.0106632950110857258
0.00433786610151176959
0.00337096848974383599
0.00401523889148881589
0.00641963844359228018
0.0125957340261889199
0.0147104156317704425
0.0138230460883604564
0.0130644949950220329
0.0120370251409491896
0.0108069559624988341
0.00859367565747759347
0.00237594638293517216
0.00175311443402303784
0.00108259146222754914
0.000889211439666957133
0.000647566516962347089
0.000630668077513541945
0.000740005271300296749
0.000497313062681164065
0.00660071188380072227
0.0134339294316056998
0.20928513794390427
0.733373165525770698
0.00107619009163980326
0.00139241790307795331
0.00553657403481232647
0.0795747173265531071
0.0696599320487418794
0.0637652002781266825
0.05818531387492408
0.0367873142372478271
0.0148032514313520096
0.00610588855304048782
0.00412265164336146368
0.00343712738039747123
0.00297056618483141667
0.00270532806533602121
0.00253624047456458722
0.00250285066977104943
0.00281384213925388055
0.00223768531755969263
0.00277838657033714891
0.0102202659430013013
0.0136504351595252774
0.0125448810048603698
0.011605487045515863
0.0105962826313565506
0.00762784476079757506
0.00454216767715984703
0.00151186687890369565
0.000993475053227740748
0.000736181861459166186
0.000561108630755612937
0.000573721847755680235
0.000614625320537178768
0.000404962476391437613
5.83313291629983322e-05
0.00542105445228057651
0.0178365777446814928
0.0811502714477045639
0.678917328305774115
0.00113985832012003714
0.00151766502351231261
0.0377424654208963622
0.0863812201867195095
0.0795658433462883563
0.0704066072303312085
0.0205710015969815321
0.00644032785466769776
0.00414990357977244265
0.00294611054119594314
0.00230190508368303655
0.00231897513852825313
0.00221426915498656183
0.00214085035270212068
0.00175360252183728534
0.00161773522063885671
0.00164453138065132282
0.00216421188993526923
0.00773546711684225223
0.0124977464241787274
0.011879238645204581
0.0108216735393326744
0.0100592118224054963
0.00131402975217138679
0.00519579396369868485
0.109514031868693268
0.0996380258702241617
0.0863870434703432055
0.01933362487367421
0.00614036259519797935
0.00365332966212373548
0.00224841570137902617
0.00153711949659011667
0.00149510727204580978
0.00190902755981972789
0.0015233412280700367
0.00127497947220576958
0.00119573834647671582
0.00126671833401130951
0.00333052137530849253
0.00879234370456741243
0.0110091348385274578
0.0106345572412888129
0.0101416971129426256
0.00945691084523140116
0.00137759902799136809
0.0117396125765777386
0.123395683047183846
0.116022530632843485
0.0390042515291404643
0.00545013351145295227
0.00359543850839017919
0.00202932601796506533
0.00113869014554892484
0.000787069112118217104
0.00109876748282424072
0.000888024468323236264
0.000883225614157016328
0.000903344979078537038
0.00096490538041017716
0.00285777285857996511
0.00767936491015099032
0.00884074842787979653
0.00914458993490216768
0.00889817725190683931
0.00732912415004418477
0.00523253655078919667
0.00145067283744979817
0.139748184654146512
0.155061296843494956
0.100873903548691066
0.00515877327014521107
0.00338775290482201631
0.00202331045596441722
0.00103190681760204073
0.000460261363432750857
0.000485575328150598679
0.000509868430977567996
0.000476448921573645497
0.000615914585163409439
0.000666045012357614373
0.000780504180055557385
0.00231833810048274721
0.0052420240225888072
0.00612973907464619931
0.0049018750687935455
0.00383982119387839792
0.000853496596346195544
0.000742297329897258652
0.000264622101259464086
0.000229425039740789171
0.000284317820899814997
0.000378980441018576808
0.000571849233473976622
0.00080894745590970481
0.00122458014510251623
0.0018738659294638034
0.00171516305180911474
0.00120934496197433309
0.00013739988076236635
0.000315522182071534653
0.000528588297526982843
0.000737116745557243012
0.000650636860730797735
0.000413834361642875608
0.0003082661715163761
0.000453450573382787854
0.000143738199950306229
7.35353135658574765e-05
9.93770626787059423e-05
0.000216927104439174816
0.367280149047459425
0.637420394884433583
0.757041200635927058
0.815973776264509176
0.920876429124641405
0.936543002664564361
0.948631807628192325
0.959104240655462736
0.9680110574962284
0.975146480049275288
0.98080384860486447
0.984826859177446501
0.987767688362322427
0.989601593068400009
0.99053366748352234
0.9906516625300541
0.99033053149214112
0.989726853046428157
0.988849689950160649
0.98779370322343818
0.986441303749785892
0.984855344088587215
0.983409372843776164
0.981896357242671325
0.980302539108932725
0.978281248079130084
0.9764253665208662
0.974823308322925741
0.972703478497231822
0.970314075543287413
0.968388082575878384
0.966692625329465094
0.96526369392617295
0.965887680310490992
0.968215929091019722
0.969348443246048519
0.96999658571688363
0.969188066897032074
0.001812083312524532
0.0076225348449635395
0.0598423822249882498
0.443110292842002429
0.493437671761109808
0.642019016880899018
0.670132832471005524
0.681746551938480216
0.731835934697154578
0.776404755770595534
0.818202066544754913
0.873987214016722302
0.873815495412948229
0.875913034181731609
0.914941249838901238
0.91179494667140859
0.929649414887393721
0.94605432643960552
0.938804677115310682
0.929298668184252552
0.944914365614877738
0.935731684393741325
0.928742771608646711
0.956957041794193275
0.91763844797385552
0.884972817095109221
0.865143890790694758
0.903653909243304465
0.885152233143895906
0.754652484640708776
0.817679564990178687
0.885874987737386932
0.812915970441123625
0.706827952466449805
0.77465483791148193
0.973085405699751438
0.968327255136261167
0.966851158939401323
0.00145742288905559162
-0.001857125118586484
0.0239372549369272318
0.0323029694420285049
0.0222599631831968577
0.0209733681011442033
0.0188739898097863637
0.0181188133678996319
0.0168520341802583344
0.0162764546775604063
0.0169976572625057665
0.018619313283749564
0.0180939271607811411
0.144058483683880856
0.0726805666584609406
0.258040131702958253
0.304453208400945252
0.36688718210720106
0.396793706907097421
0.391919689800715509
0.285219479497448636
0.182591857368015142
0.165103622829793295
0.282508803352494009
0.145512641181765601
0.0516832923610363176
0.0565533630818243621
0.125490284626198989
0.036569622897283327
-0.000758710257367844164
0.00617178453648811395
0.00432033425970891703
-0.00291780937817374617
0.00653418845180360301
0.0212852175943162372
0.196703560851702403
0.940895761984266832
0.95445762038606996
0.00148817458765936592
-0.000881010107741785325
0.0124278158319344433
0.0130596604812738062
0.014031819932978036
0.0174995832741725935
0.0206870342422283172
0.01977275560417412
0.0195958942021311998
0.0192832535093545587
0.0176817875989407312
0.0149020960205463425
0.0131114797416775966
0.0146566802766703828
0.0153815613966240133
0.014825078074060076
0.0141461211771810313
0.0137537802233123792
0.0136310192590858061
0.0128942069593843689
0.0115956294067938361
0.0101297877678099627
0.00908228961536148433
0.00807521925129209978
0.00718498214370829127
0.00578923591091542143
0.0049729719202065599
0.00404470426538427238
0.00354368599473679335
0.00292820496960929152
0.00247145454318000411
0.00215086963544912704
0.00213064433111884123
0.00324964545213137466
0.00727044002849986694
0.0222524010156086582
0.785618105078362383
0.90453221662410721
0.00166668988601670516
0.00141185068221448833
0.0056416505211563904
0.0104696088281527322
0.0125550118512928119
0.0143955988223114541
0.0174055425130637334
0.0201840290857777972
0.018727471271010359
0.0180399457916270121
0.0168825713448245984
0.0158852782729737851
0.0155282361051808301
0.0154381022570795924
0.0147521217587083288
0.0139703168066118988
0.0133350137920638916
0.0130090954280033307
0.015605942749546943
0.0162597014430242541
0.0144782171242144736
0.00992916552972408079
0.00745477698943162841
0.0067531250775363337
0.00548493064913228336
0.00433384897727345873
0.00374501425162126773
0.00325785528286214347
0.00273371902740918984
0.00225804091876024736
0.00197129383967580615
0.00174714312144913031
0.00121296059355354801
0.00175947721142845261
0.00470636023835489976
0.0173624968732596988
0.34970218483961002
0.841785434229836649
0.00187741159715221293
0.00247104115014848066
0.00444660421285238052
0.00830086563651048423
0.0107408261826098701
0.0166817702656477176
0.0298914224953182664
0.0336077958172451771
0.0377776834195734518
0.0362311666259744133
0.0311525190797501718
0.0327750486028641694
0.0319815589172664297
0.0266395467340869163
0.0275695325827568748
0.026130116015773884
0.0241491528727405501
0.0190507082894731568
0.0208453505186287635
0.0174111903404169169
0.0107384269522249193
0.00775754248653840687
0.00660088792464754055
0.00634307184429165963
0.00589955477749485018
0.0057570586519562145
0.00316696434101943619
0.0026624657311810811
0.00224927217777268424
0.00183853468212940522
0.00165174842516555313
0.00121748834436091594
0.00102524604144754294
0.00045464631832577043
0.00280553758339033938
0.0175388970974716708
0.332232679958825661
0.805914044580544386
0.00204364343864430484
0.00267484063660713761
0.00418698486109074335
0.00682252141030389829
0.0231877220059283663
0.0551042365004301982
0.0517433326845967989
0.04689715201833769
0.0440282265303348908
0.0408661581735712126
0.0385459102502561102
0.0353793598459031383
0.0328476066764655725
0.0320937680748714788
0.0296348902788096911
0.0273690200720910388
0.0218102592434580786
0.0126940522135511671
0.00378148128785919715
0.00664106551944558358
0.0122649427415455169
0.0138083683989669616
0.0129165328255790805
0.0122536292424265461
0.0113256117759539532
0.0105767558531362528
0.00791736567497240348
0.00236341802699424099
0.0017204847555601858
0.0014560604814770439
0.00119609742125963755
0.00109162700302864435
0.000880313048105638152
0.00104968815857323116
0.00182054119095562909
0.053767694985209169
0.612595199639476728
0.735298551661031974
0.00197828557737979825
0.00252325877750769843
0.00371420372114519533
0.0134389466746310214
0.0661279338504862646
0.0599671221943257129
0.0551974804599214899
0.051418747524856645
0.0454991478755831236
0.0400898977760361375
0.0320956022950927983
0.0262981183309782887
0.0255764059775978186
0.0157807106464965749
0.0142642537191711681
0.0041915220224136903
0.00220944657806047872
0.0022438915394492236
0.00231410672558606196
0.00242704360621565345
0.00432674210141096877
0.0111625337418653492
0.0117734100874494277
0.0110105654000830482
0.0100368474884198582
0.0089267177046831285
0.00636803482854587412
0.00282795952882962821
0.00120401384701166467
0.00094990550225381679
0.000906583759471889759
0.000826958311562966974
0.000917121124296433514
0.00103013599653000256
0.00655204059317278809
0.0233045705848614476
0.490726341559655554
0.737840829603313431
0.00146802040493511214
0.00216940232946624071
0.00456136807896886497
0.0782709282123216776
0.073709504429378403
0.0661488389620407402
0.0607224695872967263
0.0481754661687408894
0.0288134907322860345
0.00951077791720884511
0.00475425092314672032
0.00326670982422002688
0.00281848428951776871
0.00224588774093301222
0.0017243220677684184
0.00161735943077192038
0.00156471282591849224
0.00174702734839263978
0.00165571813063410643
0.00182014769118723141
0.00338622184518579724
0.00888014559921291267
0.0100986204948179184
0.00953770218074149329
0.00648818609945228837
0.005251947663002186
0.00132662150824594191
0.00100429370773942421
0.000756195927562175376
0.000679018813272116084
0.000664716725719924025
0.000789898517733829582
0.000910750627549937789
0.000560005000188572711
-0.00645950457150856749
0.0139067328130611616
0.134634925811298795
0.793561029178256216
0.00154371185777392363
0.00214944427643717255
0.0268760704707552561
0.0881455485191278421
0.0818489920159445189
0.0728300472055779941
0.0390717349051443313
0.00782630398677490284
0.00485249522197481187
0.00321378238970644169
0.00230201799322503689
0.00224615099810840727
0.00214770460606929139
0.00257404104495989172
0.0015537733635596759
0.00126333037455561093
0.00128250334031669794
0.00132492992230431438
0.00136273305925340002
0.00193241764756213984
0.00595206457647684886
0.00946517112237544103
0.00845444995116956081
0.00158628170242277851
0.00424013577364573593
0.104753546714823481
0.100337321353467346
0.0880122208293905445
0.0416851611401805669
0.00744416941815881882
0.00434285062192080011
0.00256892588964645601
0.00167084384183310451
0.00151668038582327986
0.00194014434415924189
0.00209510155731983377
0.000911572482622881037
0.0009492370163338
0.000936791906709626187
0.000977534370723543615
0.00112444860028663844
0.00180828931950181241
0.00557016280983057416
0.00872273264488886493
0.0080223488815632793
0.0016454988631249912
0.0126733369835124073
0.12765951396332012
0.118230565008899474
0.0662304130517661488
0.00686489828859954306
0.00427874324360048765
0.00238148191639505876
0.00130679992622764014
0.000831043038990001933
0.0010982564043842452
0.00129290711764398119
0.000606750975444348859
0.00066267133363908401
0.000694322819961295189
0.000733945249376385489
0.0010197860982889041
0.00255153719322700166
0.00668078014704272163
0.00744957138653208357
0.00716992693801696192
0.00481957074897041218