/*--------------------------------*- C++ -*----------------------------------*\
| =========                 |                                                 |
| \\      /  F ield         | OpenFOAM: The Open Source CFD Toolbox           |
|  \\    /   O peration     | Version:  2206                                  |
|   \\  /    A nd           | Website:  www.openfoam.com                      |
|    \\/     M anipulation  |                                                 |
\*---------------------------------------------------------------------------*/
FoamFile
{
    version     2.0;
    format      ascii;
    arch        "LSB;label=32;scalar=64";
    class       volVectorField;
    location    "0.720000000000000417";
    object      U;
}
// * * * * * * * * * * * * * * * * * * * * * * * * * * * * * * * * * * * * * //

dimensions      [0 1 -1 0 0 0 0];

internalField   nonuniform List<vector> 
7236
(
(0.532926726721096422 -0.151785451717403264 0.465928027662959932)
(0.909385273059739596 -0.147784611301220836 0.788710343362187372)
(1.09449502333024173 -0.100234160507422204 0.819950422489751918)
(1.26934266053474021 -0.0648308433592832967 0.824443524420880092)
(1.40508506618016393 -0.0448412462206027665 0.824102518265880102)
(1.49745328144990664 -0.0332585584209498936 0.825081303737016047)
(1.56359781261432129 -0.0280765341110185487 0.829784071681281432)
(1.61515939770540151 -0.0261479968942674099 0.838650089131297127)
(1.65667553857204619 -0.0261838525865548608 0.850370712327626621)
(1.69047081456303427 -0.0262386247631143134 0.862886046532091555)
(1.71859564898903883 -0.0269424974745278607 0.874854136889812728)
(1.74390569341835988 -0.0278079541785915228 0.884446317729293385)
(1.76881632061056027 -0.0283544418963786425 0.89011077285590634)
(1.79441767763302384 -0.0285780909479675799 0.891358553437643919)
(1.82105060199246394 -0.0285590239209784248 0.88862182769810838)
(1.84944429960739498 -0.0287777600765446867 0.882437726064669192)
(1.87972502429321042 -0.0283756885428925916 0.872720830632798594)
(1.91065499488001889 -0.0278622346980943597 0.860628018331560662)
(1.94216817211558745 -0.0275561380004635884 0.847276005061482929)
(1.97385262239517312 -0.0266687087297906647 0.832553632291948009)
(2.00508990556019029 -0.0262561257707082177 0.81679792339411883)
(2.0373770107949678 -0.0268955048812488592 0.801660698480790246)
(2.06994790898470793 -0.025379174507635216 0.78837979730722485)
(2.09985837808621634 -0.0235258544777686603 0.774598433696367272)
(2.12798078734179485 -0.0235968951465960579 0.760315056661695632)
(2.15701390007963267 -0.0239991538986062646 0.74643431012703032)
(2.18849934017219416 -0.0249183174123533725 0.735579677273603849)
(2.21837987257811209 -0.0215619569819286983 0.724353735154294354)
(2.24457218478660891 -0.0208070921993050578 0.711805516103136138)
(2.27019396810378105 -0.0206812219225155393 0.700002756583600227)
(2.29659440262339221 -0.0219282970012992483 0.689579512494812863)
(2.32023581477404317 -0.0191305546908403512 0.679243535053669412)
(2.33260355711467504 -0.0144105926750291539 0.667806827757468247)
(2.31201661279081971 0.00176926712008033948 0.656815125778478115)
(2.19430828567370462 0.0510926726721011859 0.64141468007174518)
(1.86728227228185695 0.198242979919947382 0.614817442083885113)
(1.06132636246509948 0.270583586769638784 0.561713334531147246)
(0.0886820626443750037 0.116756223923214553 0.350839371822847801)
(0.676093916571511855 -0.388737188046602178 0.567950383337452513)
(1.03285216365704646 -0.405203552059944683 0.844244078076158977)
(1.18373026730589981 -0.338852402177005518 0.924767540768783314)
(1.33552975231062687 -0.276422582680583395 0.932089348700140263)
(1.46889363655122773 -0.226208657511186018 0.917842863716667789)
(1.56856371585516063 -0.180237472835298201 0.895896177468307187)
(1.6400734783445956 -0.145448491245136008 0.876389032720657712)
(1.69103027804287187 -0.119369798428030555 0.861556267971972933)
(1.72792601795708145 -0.102078399610999015 0.855682911680343605)
(1.7583680970381852 -0.0879714899114627524 0.857126357910432013)
(1.78049462786871793 -0.0791131131468546384 0.863378489364786117)
(1.79813486819737856 -0.0735407651519668498 0.870938903532199382)
(1.81447196831473168 -0.0700001833674814694 0.876687189643782894)
(1.83156840579676516 -0.0681733612378594561 0.878735968436653692)
(1.8498164164574229 -0.0676571611138284817 0.87681675483944066)
(1.87110477506312844 -0.0698750083415767276 0.871496767898532254)
(1.89639078740150113 -0.0711430319724404292 0.861319363472284771)
(1.92428801817814144 -0.0726666493463569707 0.848154461245160474)
(1.95457223140965497 -0.0750781415831230231 0.833603251559551839)
(1.98618878185484826 -0.0750128576196227442 0.817151298748885369)
(2.01727207958848176 -0.0759134339356209303 0.799254476912921064)
(2.05088737315552816 -0.080165914736102975 0.782409804326543612)
(2.08614052295498054 -0.0779738848711798299 0.769594347797654232)
(2.11708981409791708 -0.0735377458606913392 0.755659895369738988)
(2.14377512268151982 -0.0740065888871521554 0.741955647928661977)
(2.17110345925518144 -0.0750261693013178632 0.727592030519288668)
(2.20291650310636022 -0.0781751823254132616 0.720404457352061156)
(2.23311442346739142 -0.0707144720501935581 0.71148067514782154)
(2.25479548644657779 -0.0689670433482093559 0.701460524715546541)
(2.27478285269673508 -0.0674310919178711526 0.691742622177704325)
(2.29797908758147074 -0.0708804137546212853 0.685785575436534178)
(2.3227883172186492 -0.0660996389746804913 0.682323718535422952)
(2.34343705021152227 -0.0609352146983396584 0.676511255616374152)
(2.36249090908023618 -0.0383751630531288593 0.66956657555417487)
(2.32259169117282793 0.0347823857476218107 0.662768243809363722)
(2.14659279554493221 0.266918915550630409 0.655066429033150599)
(1.68095314355967385 0.581518186526273406 0.625746169235347316)
(0.557132907786555887 0.475924675990299029 0.592941518875723661)
(0.907147056903943594 -0.476118637575305703 0.614122687213632723)
(1.11582599768966517 -0.611063627919268271 0.995166059038276041)
(1.1822542806743892 -0.56411512329334712 1.08658247615256243)
(1.26192538182944802 -0.490418939199155912 1.09234507444575102)
(1.35421231158486188 -0.419005033854709497 1.04940294914799592)
(1.46173793320072609 -0.342876818741069789 0.977209452928295974)
(1.57939440518393615 -0.278206090492059799 0.90595784769089327)
(1.68393466032048411 -0.227556758362170874 0.861805029457075267)
(1.76298355069899504 -0.194726731628932864 0.836967278157164429)
(1.80558087686300328 -0.168533286657823106 0.824804672020711949)
(1.81803227506327736 -0.15251088603030119 0.826665638672591907)
(1.82413842808974946 -0.142500874634467978 0.836291570367196369)
(1.83153899239483109 -0.136166426392211687 0.846362413319878382)
(1.84236594580620272 -0.133325134487573826 0.853130560297592377)
(1.85676130040364629 -0.133283942828052809 0.854676753582579329)
(1.87650141371997892 -0.137902950101529642 0.852444226840149866)
(1.9032525915608367 -0.140795956167972414 0.840912103527032828)
(1.93237689686440528 -0.142013158392797045 0.826421435830996365)
(1.96585166759834262 -0.14355692438220119 0.812024105937402152)
(2.00130091498596707 -0.141278872806215011 0.796602563092692839)
(2.0353186067444593 -0.139677731913449232 0.780079356288217451)
(2.07054346350036456 -0.143050676307901747 0.761739143565019927)
(2.11092783017360963 -0.136080209173853411 0.752831923086874744)
(2.14126800312211252 -0.126580751015033799 0.741672570333545389)
(2.16509623446743582 -0.126511631263434288 0.734573537303441659)
(2.18505194941029757 -0.124844901918536921 0.716692117560750575)
(2.21349715284608273 -0.132691626077314051 0.716287714585342128)
(2.24024286072111511 -0.111917727784412266 0.712723074155118597)
(2.24064597508720098 -0.109472109840565171 0.717456577004118912)
(2.24012279879556653 -0.101637740467908175 0.700367734289784605)
(2.24275465881958214 -0.114512222571111724 0.68805680565406635)
(2.25419424994330253 -0.0968156230865702822 0.703593698642981047)
(2.21794694480423216 -0.0906369971079615255 0.706600766697734195)
(2.19065190684624556 -0.0617015895820649529 0.690983789931314485)
(2.13129619939194415 0.0854201511315893919 0.671380345440605653)
(1.91757791997235838 0.477972123719637043 0.665976339482220792)
(1.60897877657295529 0.95348474790882376 0.644060990573905201)
(0.674630951092923481 0.891272366007824557 0.614875424939673287)
(0.984417930722488177 -0.469852026040397441 0.730990591610716445)
(1.09007414327978203 -0.721392818965207794 1.11681519425124431)
(1.00316100255934759 -0.678785006351230402 1.17528224375025969)
(0.939697687609630905 -0.598365424247202626 1.11189803065909087)
(0.984033499338455742 -0.52172744539005067 0.917321879149923136)
(1.17325870863362103 -0.437041020409920766 0.676319623191624641)
(1.47253149009150208 -0.345001683225964806 0.459806740979248174)
(1.79334377717102278 -0.254249532754676155 0.287705585939194208)
(2.07372666766455938 -0.182785256010933705 0.171357530010234627)
(2.26065572356184363 -0.120956952835282974 0.139390374545393297)
(2.33526964776030521 -0.0893383482746666902 0.173074497801886634)
(2.33159004143406312 -0.0792698164684328133 0.253698942126733162)
(2.29612546931131156 -0.0835373421563173346 0.334837668954078127)
(2.2588086280311348 -0.08932786761086213 0.40008846100925699)
(2.2400315158238171 -0.0970212933407698236 0.433783419487313415)
(2.24609422450515117 -0.113622300292897188 0.450631265733393238)
(2.28824310135593878 -0.125276732927669415 0.421497413356313244)
(2.34136655769564328 -0.133566404000775019 0.380834313403573266)
(2.40131671416691139 -0.141157612695299944 0.340968667052533814)
(2.4631620877151863 -0.138903043040733393 0.304877230981718428)
(2.52396416501225529 -0.135495004213815162 0.277838852050593443)
(2.58399983163475433 -0.157645069310787866 0.250389685249978677)
(2.63433210465857481 -0.147787902946868999 0.230354668191738582)
(2.67588280690468672 -0.132499195296327199 0.233480097640643119)
(2.70800197086648664 -0.134176508954930968 0.240076206533499037)
(2.72550645878807174 -0.129891375575414969 0.244517768224961435)
(2.72467397239651365 -0.157486372684605608 0.23902709333559205)
(2.70916681887163113 -0.109838822709531575 0.242168735151849224)
(2.68242514714525093 -0.106447338892060123 0.237607715617441817)
(2.63882393998753706 -0.0726745174195653765 0.223658600079854081)
(2.57429742896964209 -0.138809814265482778 0.179501667478392468)
(2.44300195423139499 -0.0659311827536747525 0.0958088076028818098)
(2.32355863253811679 -0.042928524967813346 0.0345387272840696896)
(1.82813813455137808 -0.0024382780010446109 -0.413251138523101247)
(1.73362545813786539 0.230474839163112066 0.302641803856606439)
(1.40618438552624481 0.733950854620111781 0.610004669347380291)
(1.28379475273255661 1.29444723799256889 0.647046569973681485)
(0.626659299150307714 1.39659078979734685 0.621478392772344068)
(1.01069081410877026 -0.498255496397759845 0.90227717133223384)
(0.968672280639532368 -0.712346026158144352 1.17478818128038376)
(0.732364652518567305 -0.679722064514133972 1.1322547464687136)
(0.507801170858426243 -0.587343346158658797 0.844304790846601261)
(0.620085594063811252 -0.568179734649775003 0.419754655040352365)
(1.09246105021562667 -0.587656429016401027 0.0313746912460736646)
(1.63602810797316089 -0.534983881453179544 -0.245571807829413902)
(2.10570920240725279 -0.409258975143333148 -0.426472524595012836)
(2.47445183720828421 -0.254829557454463784 -0.529492959142977671)
(2.74478431605091355 -0.0944599633746090184 -0.599093314377530106)
(2.94491546769485257 0.0441725786743496635 -0.643174916662047513)
(3.09296292198803302 0.13532030753216151 -0.625394082275766539)
(3.12306811943068796 0.184573681018940672 -0.561613910568405705)
(3.13213747969505896 0.182755410494075038 -0.497921887063678736)
(3.15844596799235866 0.167307478515732161 -0.462096484141350183)
(3.18296086568079284 0.136424373803790772 -0.433282168177350602)
(3.18445113172764049 0.0923045084614392275 -0.38427679189065761)
(3.16474258648241635 0.049510921309219226 -0.310908012687686253)
(3.12552526381042872 0.0149828391192147227 -0.229383766401694916)
(3.07494327473682549 -0.00821622439219845541 -0.146281852818205105)
(3.01700313508232121 -0.0287102036056613094 -0.0560333561299053914)
(2.95221908772607522 -0.0550924928534321512 0.0342907606982885138)
(2.88743071747282221 -0.0618322160165787407 0.111322693788085417)
(2.83740763385930261 -0.063588663353737862 0.169747780094837958)
(2.79603825261360939 -0.0732111298891933437 0.210279878152454247)
(2.75395225708223856 -0.0812572067932102043 0.240917580527526543)
(2.69725081070903228 -0.0862259825608037156 0.252905014407339479)
(2.62044178657171134 -0.0477366524625202626 0.256058497148735187)
(2.52171932766208862 -0.0336530820667307468 0.247239938179065893)
(2.38632271820833664 -0.00408822815822326366 0.219189048427704147)
(2.19827460733702518 0.00877371382354867266 0.158126471243369537)
(1.97217225621139103 0.0816582639718343439 0.0196464387905331828)
(1.83687706493328351 0.167275347953473874 -0.204513091182152773)
(1.25964028866198996 0.271462445334929803 -1.15048662015698078)
(1.07646250247416653 0.421101070450868198 -0.893942134396727539)
(0.803629868557991567 0.927930043273420657 0.385206553247085803)
(0.869934699928483379 1.43840654267152623 0.639327659015833438)
(0.533502738539437193 1.71794887786820372 0.617778216102501054)
(0.887297697191544055 -0.353066309050277805 0.992612466769854263)
(0.855647754109664982 -0.568675197629650908 0.980167596045888878)
(0.56916319113946312 -0.547044758714748669 0.768734678781371472)
(0.437904679891513271 -0.528846814618138872 0.246995065129661129)
(0.946636308703681317 -0.760990545783213568 -0.187654852424506802)
(1.49274682894829147 -0.897908069013858334 -0.396800852344956323)
(1.90068729079614163 -0.842968905827434223 -0.493927853736548128)
(2.19590773828204799 -0.686360393508049227 -0.551015200332473087)
(2.41033795143740548 -0.505762221018804525 -0.587205944883003039)
(2.56662471698659367 -0.342483117339632825 -0.60836250825031013)
(2.68648311970162634 -0.221071571606774875 -0.622337723197282977)
(2.78547669106317519 -0.139753372033186302 -0.636526712396720429)
(2.88257786134250749 -0.0786762302638361888 -0.64322595545212613)
(2.97126340423407287 -0.0406125849381127127 -0.635036627176568835)
(3.03457633803486315 -0.029099926707247873 -0.609677094853930623)
(3.0661104324273647 -0.0221838238247159883 -0.568448668856659678)
(3.06606710915890446 -0.0171605893111836834 -0.495408783513711037)
(3.04004801126422786 -0.0152349598991695402 -0.377757184988112393)
(2.98487137874847575 -0.0198311527716762831 -0.214567919780026817)
(2.91176797636250617 -0.0310406730861005342 -0.0497577226796567379)
(2.82249130687273597 -0.0444315375248962446 0.101705135156271262)
(2.74384569807884082 -0.0734704801769282823 0.197879625878714882)
(2.6781625379941052 -0.0926599267815432365 0.263557959789373297)
(2.63518539786816364 -0.0952346360487176802 0.284171247177303354)
(2.60273458157712323 -0.101877899537705402 0.291466787768023206)
(2.57090496559493698 -0.0987363223092333486 0.286035222124937982)
(2.52400290025140839 -0.0796138761919703841 0.276104305983031262)
(2.44370630405704858 -0.0393423536300492732 0.255258659667636445)
(2.32859962580201119 0.00277619548671211372 0.220211495798201817)
(2.16866490853263727 0.0644264775091104303 0.162782998832945808)
(1.95307051758230488 0.136827546196890304 0.0626557234209438457)
(1.6908140757559138 0.217389918532638421 -0.141851951133120519)
(1.4591758873196512 0.414092831076665502 -0.485233008715600822)
(0.817046859954623672 0.725714097717790163 -1.63009661109198234)
(0.429650559261471776 0.462696466223505465 -2.06868662817301496)
(0.336581472423966577 1.09114309978611002 0.0222233340039887546)
(0.464537303061501872 1.43975234313043798 0.621688007057356051)
(0.430634461429379722 1.90343821764821763 0.60940545860163664)
(0.80425291616972594 -0.230632647319128248 0.796609714067534114)
(0.777797605045457141 -0.382355872059921664 0.782417788023259342)
(0.484301269054765449 -0.368614037062527378 0.275042264181004525)
(0.771962669462023188 -0.684500767141236088 -0.281173528890507951)
(1.32058909919419243 -1.06998096243156415 -0.458851860557510094)
(1.70122257097153673 -1.15528925762903745 -0.512616546772039272)
(1.9513255615506051 -1.02816081697126593 -0.543369343388632076)
(2.12937576096121362 -0.816144538552584287 -0.563916019668000534)
(2.25826118474111093 -0.59995563562120835 -0.565156276642357902)
(2.34710641141356513 -0.416893245013876701 -0.548450378382756454)
(2.40847654375520959 -0.282325603601305819 -0.521981570688128227)
(2.45674720244418276 -0.191869009117493494 -0.495447032280452171)
(2.50075942081374825 -0.130435014920477932 -0.473151986796634227)
(2.53990709751383203 -0.0846907016134097329 -0.455879912970739376)
(2.57942041716540604 -0.0487872835292482154 -0.42848497147943887)
(2.62313644335121499 0.00404344719373073321 -0.380939490179277973)
(2.65908102941037994 0.0650770617289639919 -0.287143661485513957)
(2.68252615254201165 0.0781602782095123794 -0.163167892452630081)
(2.69040249771205842 0.0719330410199237325 -0.0329471734704967489)
(2.68094745161113446 0.0597215350837553074 0.0810566731052227152)
(2.65666174508036956 0.0346323918044597751 0.170402190814512217)
(2.61249240650051018 -0.0160096382774798512 0.230387355044041814)
(2.56761088202553189 -0.0707959475736066601 0.255929846288969587)
(2.53014130595652231 -0.0954685844238539888 0.263818960186377682)
(2.50506806741510424 -0.113699381133928162 0.254119558895897268)
(2.47664643286537567 -0.0948152183507803975 0.235251515926752808)
(2.42353105561227666 -0.0570095975367203162 0.213675471706976039)
(2.33191277439730849 0.00569939272639914674 0.181328099840173507)
(2.19918595829718022 0.0773633544852909277 0.126775963283658866)
(2.00671197108190791 0.173961038069650187 0.050369182362428308)
(1.75958848172221671 0.277634853138286064 -0.083835982372889542)
(1.49012849561981975 0.386633862597682731 -0.315229475822425109)
(1.21554333082456179 0.64645205629780611 -0.697803255840016567)
(0.496045267212649355 1.23006312960624431 -1.98267144111966487)
(-0.0162483496728260124 0.453483281200868837 -2.67989476778127189)
(0.180889574397673697 1.28299862773804607 -0.131568668375963288)
(0.136823897247889764 1.38247234161511634 0.598608133992574065)
(0.377806222446709139 2.00621566772611093 0.599941546118779367)
(0.495654094646951704 -0.130975355244833308 0.744782099388277108)
(0.665741931478403659 -0.185406536042101194 0.274419234892416264)
(0.493392902907007713 -0.311651458366315748 -0.413484426850906028)
(1.11059265806127927 -1.00725116101445855 -0.506781622368285056)
(1.51311589936139357 -1.33292604002029158 -0.520467832504697414)
(1.73270035133565781 -1.33031491886225117 -0.529500888889784971)
(1.87671154154294317 -1.15013543524804285 -0.537070629510117081)
(1.99151460144539083 -0.902863243677528904 -0.523080276773220887)
(2.07608668728535095 -0.655422050403751899 -0.485330305739983814)
(2.12575645207033448 -0.449674265698768227 -0.428173710126995011)
(2.15168662689355417 -0.301009163325650642 -0.361685087442535302)
(2.17150369604183524 -0.204632965549439244 -0.297205315796604419)
(2.18549572249427815 -0.150043610062729038 -0.250139773314452085)
(2.20797286514315072 -0.0983128083790293233 -0.217435974110134933)
(2.22736165407559117 -0.0639149065537155114 -0.179084702646499089)
(2.26736459843473437 -0.00297618411404689236 -0.119343228264321533)
(2.32198153287968578 0.0534902335402220458 -0.0387968832015836845)
(2.37160799124858679 0.0553118470769034393 0.0442368007995760093)
(2.41191194927021391 0.0467225456808043685 0.12410977773687594)
(2.43998422397729842 0.0318014108120984046 0.189869160497357525)
(2.45882465810756035 0.00888659054044489 0.23650859058244994)
(2.4536076698551228 -0.0344782762315796326 0.264532911767318912)
(2.41660008274996141 -0.0837069976842665792 0.273899153981646826)
(2.38374913965679092 -0.119356367713313094 0.274048859023873548)
(2.35433804174212202 -0.14272307544197696 0.266985606204204473)
(2.30437290814323648 -0.122984266842374373 0.247817290128345191)
(2.21465287850470505 -0.0486138033191519867 0.212546820120905422)
(2.08996167955445999 0.0131477233283659664 0.151074952139673119)
(1.91638341091517361 0.113229318241774374 0.059763828185734405)
(1.70170059370566862 0.228538626797398003 -0.0676238326935220124)
(1.45542054897490769 0.376217808927390984 -0.262730769094085936)
(1.2166839030319323 0.548459777483595978 -0.512514042797391767)
(0.997556919537638809 0.891471146449442475 -0.892268221597016797)
(0.230992293543343385 1.76559915110446242 -2.24354830205501221)
(-0.397688013179842814 0.368034722342176324 -3.05641486364342141)
(0.228827832271282894 1.35372638729270656 -0.155864189292852978)
(-0.13048603111817611 1.32014067976262339 0.600613951821824199)
(0.364107991234005612 2.04341551033836044 0.591268415527527402)
(0.369886649773348508 0.0789828875259588337 -0.638403873399338462)
(0.16047014708520646 -0.071058920822247601 -0.884416595388774485)
(0.821149734331866887 -0.658111331578367209 -0.589036383190443824)
(1.30382820911380914 -1.30702268457918236 -0.536025716012922482)
(1.53100051786291713 -1.5136262444399915 -0.53035481517517391)
(1.6487311712926056 -1.44279710783338189 -0.511707352348963695)
(1.74789759754197527 -1.22616184495931191 -0.469647707393630265)
(1.84818419703859527 -0.943947446359122089 -0.410389123959564617)
(1.92818360038206138 -0.652308739770354751 -0.334729290173465255)
(1.97641629705433508 -0.410443819986421099 -0.254122325251614378)
(2.0040443367509555 -0.247311797247961651 -0.180702504793368079)
(2.03131394677567645 -0.156494422763365559 -0.114612506487285895)
(2.07178429031205846 -0.110228130015074421 -0.0542720891153876117)
(2.11886993103371912 -0.0667795559382331344 -0.00938095743337590514)
(2.16129268730456303 -0.0364004331255707442 0.0398909518751138989)
(2.21234137889315363 0.0162846994960597694 0.116416574040660442)
(2.25372062506425008 0.0434209325363757934 0.181308468427993141)
(2.29159576050209779 0.024540594508963641 0.23392496894127876)
(2.31966398580836453 0.0044453050348722406 0.27604521429348583)
(2.34505987045512887 -0.0123467239995167649 0.304122836773310645)
(2.35835116887814245 -0.0369220004821301934 0.317878335737032836)
(2.36111235204663883 -0.0757386270125487981 0.317163035982602259)
(2.33428171159189901 -0.12002854196345264 0.305953319873284169)
(2.30347423899382386 -0.156526344985842503 0.300392908276868764)
(2.24378054592768938 -0.165102046821755222 0.295738402035421954)
(2.14506996350034829 -0.105815897599422226 0.284811396867629796)
(2.0050429993836989 -0.0276682026339491322 0.219067322284765914)
(1.81002507575459393 0.0708774344867381528 0.106706247782842156)
(1.60307032776526093 0.182120351635757127 -0.0292585163743892956)
(1.35486222238738008 0.313317814088181934 -0.224531121379729304)
(1.09236932225922545 0.473260917772332923 -0.474248989407095589)
(0.882346858638503928 0.693407007675462816 -0.741678360645362744)
(0.85099942373161741 1.16026738586327571 -1.08344865903297549)
(0.00834230323750140279 2.50759384114331718 -2.56511784227203776)
(-0.623415449305706248 0.485462766387276368 -3.17963002791019367)
(0.314450448778180625 1.35608882356587479 -0.292991770688469544)
(-0.29112965253156875 1.3109300386203655 0.622640228077451008)
(0.365300172176334703 2.0295661207839033 0.582673221211663761)
(0.306187385789987221 0.176104293578034921 -0.392042690160596508)
(0.400960719367353002 -0.00753741165667637381 -0.574060136513135588)
(1.03377789399922704 -0.985683038396174105 -0.557661228593858138)
(1.3354051414101531 -1.53240369819736721 -0.556575471349841422)
(1.44719068935152628 -1.63140464521821316 -0.520763297161274452)
(1.52529083939315324 -1.51335187821225325 -0.448288850305693876)
(1.63203861255791693 -1.26454697079143208 -0.353711961174931033)
(1.75299215417160714 -0.95523015491488994 -0.251380815599410889)
(1.85146060536337731 -0.639086304472690214 -0.151901728995665175)
(1.9186861534790185 -0.389477169044401883 -0.0696890633792334457)
(1.97600457772761584 -0.228287136381714661 -0.00305502759669160073)
(2.04210819343855832 -0.137289882437325539 0.0614285476885218021)
(2.11587953258734451 -0.090464389894419267 0.121597096123098325)
(2.19054346151476587 -0.052761050698834841 0.189769244182694113)
(2.25277114638773179 0.00444047417898289082 0.27534977337075961)
(2.29617763068746816 0.0266041973880961832 0.337238523050345296)
(2.33402777111402537 0.0218423492966818497 0.376336826777414923)
(2.363737428508486 -0.00806311658876519843 0.401343451374925442)
(2.382098669097378 -0.0336043080798002491 0.414071745201885999)
(2.38678227353108685 -0.0549885036373966782 0.413548048494635334)
(2.37592703863188737 -0.0800493167293837016 0.403215912373220742)
(2.35334681724000205 -0.11066279566666333 0.385668916949215901)
(0.101637764664195301 0.311064546472724635 -0.347412034821592164)
(0.613580376079106649 -0.207501316605769065 -0.544931620973715614)
(1.10334710275523573 -1.26694659127192777 -0.583708263898143453)
(1.26273884955500804 -1.67558686611863239 -0.550947126219195615)
(1.32084150924090937 -1.69901178967818534 -0.46757688009600179)
(1.41576899992993299 -1.55807060420261489 -0.34831361530672561)
(1.569629893760351 -1.28820090372221308 -0.212629473520256906)
(1.71019005751757747 -0.94636619813078271 -0.0803561449524070048)
(1.78990406202079089 -0.616049354044115982 0.0353535645474236312)
(1.84335952944397508 -0.360540589465691064 0.121861589295052253)
(1.90703394630907797 -0.193940549731805079 0.183721249310692725)
(1.99329523348001802 -0.0975535952029575049 0.241057507394768833)
(2.08991336899419355 -0.0399187876654004889 0.303193307871915507)
(2.20764006030870963 0.0162169763495728751 0.405085573715794789)
(2.30332108011945191 0.0521779249960392655 0.491887147780573186)
(2.37313624072571505 0.0469596157673697889 0.526477298270804361)
(2.42106774329995877 0.0176351025608645698 0.541882138485389131)
(2.44627854067235884 -0.0186451555253994081 0.544067050524396412)
(2.44263102969955659 -0.0476634597204323301 0.534217846391293549)
(2.40907505653192677 -0.0671208516116604675 0.510788246876459295)
(2.33854440927763552 -0.0959613851052933953 0.478304655186043148)
(2.22186335850923511 -0.097673710371633693 0.429067737300013408)
(-0.159058332897402538 0.4187063458393947 -0.679955701579805449)
(0.802866954964487567 -0.72787130155352997 -0.625636863877783944)
(1.10326842908520995 -1.50942329890914495 -0.586044157575477009)
(1.13611409238754235 -1.7602761201337378 -0.51500280514241159)
(1.20013769747635402 -1.75338797776747679 -0.391654536140199683)
(1.35873747820574975 -1.60166078668998746 -0.240986606218922123)
(1.54066347234295264 -1.30021001555479465 -0.0854551599096793624)
(1.62554893312932358 -0.914067383139655298 0.0467617282730307116)
(1.63680526226410583 -0.552768034129982655 0.143858960663039159)
(1.65605353507773212 -0.286817590711772819 0.200624572810244151)
(1.72283806082335533 -0.118404030550459963 0.247357023023534489)
(1.85198506376874894 -0.0313923948684495802 0.311982911325070611)
(1.9873218819883105 0.0152081243969290434 0.382259335119544463)
(2.11495713995505463 0.0353482818732188883 0.460820671224706047)
(2.22746258300763378 0.0515230127101924326 0.533442326589689597)
(2.30111225150358667 0.0356153990238400608 0.574186135758145921)
(2.33464050427252268 0.00531058891362753971 0.587910733843437727)
(2.32967691015657152 -0.0227876672104751071 0.579214323665045994)
(2.27325466539011822 -0.0478748648332438104 0.553801826769215855)
(2.14555516905495214 -0.0658553443366754615 0.507820531898504623)
(1.92807693768590482 -0.0626786225192745988 0.437421545629708641)
(1.6427655151426066 -0.068847731156666897 0.373863449345180676)
(0.130179294627298853 0.56157277515390891 -1.20176154425441317)
(0.876450952186869747 -1.04092275637273168 -0.637645751578647668)
(0.971688395191492638 -1.63510033771512275 -0.563163262398400422)
(1.00120254712537093 -1.81350878189345566 -0.465324750252589348)
(1.11802883798782404 -1.82064823743533544 -0.311601394103229068)
(1.3321953218878344 -1.64795980971506051 -0.148639720075377291)
(1.46308793251916769 -1.2817551131957956 -0.00169637178057483601)
(1.43664037243660814 -0.829888976132518996 0.105380581986548025)
(1.3636057105687025 -0.447473437692738396 0.167502025755951856)
(1.36378363045295803 -0.192649277474875508 0.201784514390210307)
(1.47069623785744552 -0.0515674471057783745 0.252494380180513289)
(1.64109443448957615 0.0177934311002165245 0.32373859159829671)
(1.80711264179727316 0.0392202744927536984 0.407941772482450726)
(1.93811897230935481 0.036102800924364277 0.477215988545311609)
(2.03326233348668417 0.0333471814908936626 0.530066403994421176)
(2.08821090112685459 0.00553618962653267682 0.561675615524364069)
(2.07515368148243606 -0.0296764905451518818 0.564481494793193983)
(1.97095405987377958 -0.0469686434055825788 0.546041921557242405)
(1.77438972746500934 -0.0260129052656019703 0.507369505519565278)
(1.50160246141591447 -0.00116399040779301133 0.44502718340673314)
(1.14838229458697483 0.0284291259614609174 0.373391173734456461)
(0.805843231505628088 0.0459800001844697104 0.297540575528685403)
(1.02174008542136341 -0.0950714849605134998 0.16303949070638396)
(1.18028068044731382 0.0047097426025808839 0.227075161116657653)
(1.38211906575129118 0.0539863059911663834 0.309509588258038482)
(1.57803562222963523 0.0545440810259133907 0.41378652921247161)
(1.7039428763913107 0.0368272961434929907 0.483770269592837976)
(1.7717573664596018 0.0228721892590823053 0.524705812041893926)
(1.76789019832408556 0.00545408277762626098 0.547903424270100192)
(1.6576266776779196 0.0156848371251467403 0.547009300418532463)
(1.44118257712452169 0.0603765553148229578 0.513328494882214548)
(1.11894709608614296 0.110357325680626089 0.448414410440193423)
(1.14306426115985227 0.0679205964991344835 0.302370739826770318)
(1.32412160993701189 0.0599501289793486075 0.396589081915924069)
(1.42319019320386708 0.0392322840059615291 0.46475584163346656)
(1.43386956922412434 0.041349897367703406 0.507788180926780797)
(1.34608243530670646 0.0603200251592883804 0.525144533480143449)