/*--------------------------------*- C++ -*----------------------------------*\
| =========                 |                                                 |
| \\      /  F ield         | OpenFOAM: The Open Source CFD Toolbox           |
|  \\    /   O peration     | Version:  2206                                  |
|   \\  /    A nd           | Website:  www.openfoam.com                      |
|    \\/     M anipulation  |                                                 |
\*---------------------------------------------------------------------------*/
FoamFile
{
    version     2.0;
    format      ascii;
    arch        "LSB;label=32;scalar=64";
    class       volScalarField;
    location    "0.360000000000000098";
    object      p;
}
// * * * * * * * * * * * * * * * * * * * * * * * * * * * * * * * * * * * * * //

dimensions      [1 -1 -2 0 0 0 0];

internalField   nonuniform List<scalar> 
29184
(
2221.83402112109934
2220.68864906105546
2214.02523830993459
2203.08048024553727
2189.72430558216456
2173.71932215063453
2156.00119397819981
2137.77551485395225
2120.35383200368005
2104.60194631256581
2092.48263293373748
2082.94672365226734
2077.98214673419443
2063.6796364282668
2048.22979118547482
1882.90476846183628
2098.72461106647825
2097.15431918787453
2090.49037547607213
2079.56794704136018
2065.93601880459664
2049.84657578681345
2032.04658298290042
2013.65632484919206
1995.92156596468544
1979.96355789746281
1967.42161340401276
1958.36133140614061
1953.29913161965624
1941.77416701221864
1924.71248016106256
1776.0247565079228
1974.94171976897792
1972.75979642307038
1965.98594427191711
1955.04838167628373
1941.19410571721323
1924.91799371619663
1906.87047057354016
1888.10252571334513
1869.86557257741197
1853.44257495157035
1840.47549422808379
1831.65528054935044
1827.31461947189177
1818.95259630132273
1805.44655207567803
1667.59905251600003
1850.37483093604351
1847.64813672952801
1840.6848602738487
1829.6661060817919
1815.54041913977926
1798.91225323523531
1780.43227003599054
1761.09223231852025
1742.12925201647727
1724.95624101872409
1711.34433965503672
1702.54043458714705
1699.33382281166496
1694.73543964152736
1686.97294707237438
1563.38971751587314
1725.02392964697037
1721.8627692609175
1714.620782566667
1703.41426843470208
1688.94129249861908
1671.82992099817284
1652.74832571010393
1632.62915853703544
1612.68277230852345
1594.43396407403338
1579.86912770228992
1570.83729194496436
1569.0017565591379
1568.8937287533995
1569.22294752631888
1463.72807773267027
1598.90943005564986
1595.39565046960433
1587.82099691950816
1576.33035691683426
1561.42088588494289
1543.69876107487244
1523.84052298277766
1502.7182795269041
1481.49750208889418
1461.78842785977213
1445.84364046383871
1436.19868295393599
1435.75747875767547
1440.86876443837377
1451.19645112899798
1366.42146264005169
1472.06637506498464
1468.2573157234915
1460.30869739678906
1448.44305913021503
1432.99855413838077
1414.54289749436043
1393.73771962818296
1371.37801210139378
1348.54966698263843
1326.90920334708608
1309.00006346093619
1298.14184047509252
1298.85939411116283
1309.87013610565054
1332.17355549957256
1270.30042034343819
1344.55021788776958
1340.48032366670213
1332.11314142950323
1319.79140026101231
1303.71621769508693
1284.41496565964917
1262.50078262957959
1238.65825906764121
1213.83396051937916
1189.6797632906605
1169.0228340592721
1156.01522285382157
1157.25888378671289
1174.70020799926124
1211.36610950268141
1175.1665143740131
1216.42005533423503
1212.11308113521272
1203.27465999114042
1190.43051854394366
1173.64412217593144
1153.40745327983223
1130.23823084541755
1104.65985062523305
1077.38750181992486
1050.02748359076895
1025.60545460290496
1008.98534485612049
1009.43605717817013
1033.58480236994455
1087.68164401270155
1079.73219637140483
1087.73257765426297
1083.18650999127249
1073.81901795403201
1060.41684436242213
1042.87366494778757
1021.65251115807837
997.102181022200512
969.520414273506276
939.275654943107156
907.922346395226441
878.426233032225127
856.017953935408059
853.245891245063376
883.847175104824828
958.077947119024657
980.185957489910152
958.620756630923097
953.794807342902004
943.804730602538712
929.845011577784135
911.5460497399215
889.33987571619673
863.288166677972185
833.400603011386465
799.578350174582511
763.31581407189924
727.017199454394813
695.897708576756258
686.405225023699359
722.389318317577818
818.906524073817081
872.332343045995458
829.443667429507514
824.279990447294267
813.531157151458274
799.034448965737738
780.02094005733511
756.885417741773153
729.244833657222216
696.784890787340601
658.779503304545187
616.715239848057081
571.426807277218359
526.831485351566698
504.825020879319709
545.487418399790613
666.389516937624421
751.991534515270587
700.699781511683568
695.278177749988572
683.677979293989438
668.663997630932727
649.035109881578592
625.160976584608989
596.023383263273217
561.016244370611957
518.543394054757982
470.309483948631168
413.268511929633405
345.152471446177742
302.654332593881918
348.792304413320608
499.10275869246243
615.565775455404719
572.722890038339528
567.272627673653915
554.972534823756405
539.486050577998867
519.461282407391082
495.207390947928616
464.79807451346619
427.520366317209664
380.784705481950368
326.60607498379045
254.541026128204976
167.963245077702595
112.740510644335927
147.62678156330162
316.764451206036483
464.608756465527676
445.762053747778282
440.376602333806204
427.89524831596168
412.201178097585398
392.160556259339046
367.712434749278145
335.864268123167676
295.797779915722231
244.924630044003379
187.76242857559987
116.406399860312831
49.4332872411662265
21.797453777183307
38.0513179867082556
149.561681741989332
310.326467480561405
322.374130976261085
316.160575704565872
304.13081735759306
289.182995245588472
269.526919024650397
245.662545769937651
214.771255902178609
175.485586658007151
129.877593332329297
83.707998457851204
42.039321095711216
8.71401337645539087
4.23373760282887446
9.58701532711727822
46.9192071571640099
179.783522736499435
2222.7461528123481
2221.68408509914889
2215.27126416912279
2204.82535606942656
2192.26398927502396
2177.4922326396013
2161.60785840834069
2146.04647171219494
2132.3632076873655
2122.03533362231292
2117.29697301031183
2119.25644126067164
2129.93556164244819
2145.16971404674541
2160.62858153947172
2149.6718412732198
2099.64579750448775
2098.16646431306572
2091.75296018914241
2081.32274220878389
2068.49392391835636
2053.64294473664859
2037.67632083690614
2021.93733270217945
2007.96045969484203
1997.39561102005246
1992.40748443138273
1994.68107857048608
2005.56745237332711
2022.60871261712941
2037.98090009019643
2036.91868753910671
1975.88528378087585
1973.80539031154467
1967.28135277838169
1956.83269973835399
1943.79002206356108
1928.75939360880921
1912.5478810609643
1896.43473110911327
1881.97635849136623
1870.96728825195351
1865.6503213746937
1868.14243934157753
1879.76681022228922
1899.2384738016965
1917.28133706751441
1921.49320312028044
1851.35817213527025
1848.74208506541595
1842.02521563043456
1831.49246787391485
1818.1887770793046
1802.81754737756933
1786.18068124205638
1769.50501504519775
1754.34540696165618
1742.62445232901132
1736.75033093229149
1739.30865550527278
1752.0424284750186
1774.53290726568957
1797.03726598195067
1806.55536316304597
1726.06594410995103
1723.01786154854108
1716.01578660394989
1705.29522938396758
1691.65932387299426
1675.81848085373304
1658.5880230527805
1641.14691011714649
1625.03249754500939
1612.28773370604586
1605.56042590067591
1607.99474184036512
1622.08449418272448
1648.3100770049291
1677.10137195899256
1693.99391666557608
1600.02921451624911
1596.62191138557
1589.27778517705065
1578.27751968015127
1564.22586709712732
1547.78663108296496
1529.78510700087099
1511.35514566152824
1493.99507453291267
1479.85021838851321
1471.86385326833533
1473.84301255383821
1489.37114079974367
1520.0487196974218
1556.85547915209463
1583.61076753511225
1473.28053727565134
1469.5618195082352
1461.83233700227788
1450.46798155950137
1435.90790158667642
1418.74060555006076
1399.7894254556154
1380.13055312399501
1361.18592256936518
1345.17460770567504
1335.374604196581
1336.36382373429433
1353.18557096791096
1389.03280552856268
1436.04710229125476
1473.79894155628426
1345.8679033864446
1341.86601814293294
1333.70910077541589
1321.90661873304225
1306.74523698982784
1288.72126119821269
1268.64181420783279
1247.49355023513931
1226.56209429895875
1208.1032889351186
1195.74274243769855
1194.88792121091683
1212.4915301182823
1254.08515610274821
1313.32646634403272
1363.49804276046916
1217.84564515706415
1213.57302066182388
1204.95136864809524
1192.65278846813794
1176.80519937825511
1157.8041754165622
1136.42421051205997
1113.50380527073025
1090.1089157017318
1068.50532682958556
1052.60383464530946
1048.54425439306442
1065.81609406944335
1113.53722135442217
1187.41439144065453
1251.69522826476191
1089.25677071040354
1084.69984308706898
1075.58764052539982
1062.76551099012499
1046.17210052130554
1026.09676297594615
1003.2528562627931
978.242788309572234
951.831164311143084
926.303193027459656
905.59724626629577
896.234601960306691
911.08495442076287
965.101764150859253
1055.56210563055674
1136.91167573001781
960.180361066592013
955.302051002774988
945.664082677385295
932.318354811078734
914.958910198006606
893.735699840196958
869.254032447655163
841.789664426600211
811.758609850419589
781.465235011201685
754.30754338525162
736.63896866369214
745.776663679559533
805.589524420267708
914.71944545007841
1017.50988492383067
830.927081881146933
825.681718173771969
815.460114550480284
801.603020784253431
783.492865412664969
761.066037897739307
734.78971793793562
704.553848699506489
670.381123366856173
634.51123438502691
598.753746945159946
568.127298092936371
566.481530138431708
631.145046710463021
762.03808353993395
888.004327534571757
702.134051987378825
696.494416096880968
685.691993788519312
671.374512627947752
652.556677851045151
628.996936809903445
600.982740879016774
567.912537266340905
529.412025171533969
487.601499834464448
440.223212623858444
387.221869592506891
367.193162541644142
437.383728043329711
594.669366910873805
743.568059312792684
574.246274498892035
568.314368401665661
557.131069761030858
542.464400009881729
523.047133181369645
498.730977542588107
469.290669559124808
433.461616779176211
390.931294059646461
343.638727213030734
280.542743760038547
202.317295250114967
162.628546368329808
231.291635533741783
412.606405244034477
585.845219693258741
447.27204263055205
441.280124354171448
430.038710987086688
415.139340456372793
395.449075575384768
370.698754347778049
339.683059112235242
301.08857141503654
255.360454719685094
204.420267115942352
135.971723561767021
64.5873201450717715
37.061586212818213
74.9820421519426645
231.175631700135
420.121830748815455
323.035056522849345
316.646347095162128
305.495126277300187
290.811135084739362
271.954756937452885
247.547328288393146
217.052768638236785
180.525648177485209
139.904310696321545
96.4754047216732715
50.264270823696279
12.8569791871105537
7.12285314933691538
18.1429383546627321
88.6028844563497842
264.365382637322682
2223.64407291861698
2222.65730246838575
2216.49346662736389
2206.5228515154422
2194.69718114623265
2181.05377565141316
2166.82488866442009
2153.61468702335651
2143.17132409246915
2137.33000229231993
2138.55529286640649
2148.88273073187656
2169.94649604855886
2200.6253235147542
2235.87380160910061
2272.1263980092358
2100.54060038567104
2099.14509900285202
2092.98515073911676
2083.0284491919856
2070.94524491075526
2057.22827039276171
2042.91729850091792
2029.52358736367682
2018.79784580335922
2012.73288526504825
2013.80408305202627
2024.36471169057586
2045.84235832903869
2077.95365689835808
2114.09141846846569
2159.25044010168403
1976.77792190633522
1974.7935111270076
1968.53519223026296
1958.56488075663219
1946.27773013771048
1932.39019279593458
1917.84026601384176
1904.07633155225653
1892.88552752149781
1886.40636324163393
1887.21923256777427
1897.99016732327573
1920.24910884538917
1954.39550295312779
1992.75427843742887
2042.01196318631355
1852.25076620372192
1849.74336519010285
1843.30997032263622
1833.26255909256406
1820.72586256698719
1806.5148116321875
1791.55281503481342
1777.23344003012562
1765.35901573756473
1758.20959707397469
1758.54667136456692
1769.43035848275326
1792.78691326481044
1829.5243442496992
1871.43741146431535
1923.17221168469518
1726.96126661105518
1724.03673513378317
1717.34123105291587
1707.11482807744301
1694.26127542939707
1679.60679348810731
1664.0702550910878
1648.9922427109359
1636.18117861270252
1628.06362572010858
1627.64897506517946
1638.49827526145373
1663.18531175738553
1703.17685169759034
1750.13040876346395
1805.82673682820814
1600.93369470843481
1597.66755511739257
1590.65545510951551
1580.15720811039273
1566.90886073183219
1551.69318577436206
1535.40813172823027
1519.34213053797657
1505.30181285764024
1495.85593407622787
1494.31286669461269
1504.84313249341085
1530.96147798989432
1574.8496499109815
1628.37470947468273
1690.12182985293794
1474.20760612145295
1470.6521501123475
1463.27635222561344
1452.41802869900539
1438.69006502874572
1422.79502286892057
1405.58019669686632
1388.27250446471771
1372.66319720539309
1361.4457854714401
1358.25840664401312
1367.99499649916811
1395.45340727383268
1443.89692400863805
1505.65880840569162
1574.15470437116528
1346.83821073326999
1343.03270780799494
1335.23693588373135
1323.93614115912419
1309.64391771827604
1292.94916882151574
1274.61493474630697
1255.78711730994837
1238.21508416593656
1224.67770157859491
1219.14615370932597
1227.32016945888654
1255.71931473510335
1309.47973840189661
1381.01153749294554
1457.34461711125118
1218.88945291887444
1214.85998248168676
1206.57981391400313
1194.7674644606027
1179.83250726380948
1162.21794051003894
1142.57466001848729
1121.93257203128837
1101.94851341686172
1085.42404372764554
1076.61876894426086
1082.00272119784154
1110.40188777867047
1169.70889736581535
1253.16762855950174
1339.51458851439111
1090.40992143146445
1086.1489541250819
1077.3242043709015
1064.96405438097577
1049.32814249552393
1030.68433416109474
1009.55149387447636
986.78303416307881
963.870294355302576
943.575925532980818
930.292113468050502
931.008005169086573
957.684980230870678
1022.72317678861373
1120.25390461740244
1219.64753619371686
961.477327846079334
956.933881878829197
947.501825978597026
934.577946091208787
918.210738673772539
898.452604457287634
875.656612148573913
850.400504910325708
823.945963726799846
798.977388885867185
779.661123699125483
772.969185411323906
795.047900800793968
865.657152939534399
979.57363550612763
1096.33479220058871
832.397210696928369
827.501676764037029
817.370701084984148
803.859912328702421
786.764013373067428
765.859731832410034
741.274420707867876
713.147961976061197
682.502404515461876
651.867736812314433
624.526516630283595
606.249553991152652
619.067047859344029
694.894336728753842
828.514920571496532
964.334229563987265
703.794977556246522
698.483221518626124
687.638435630793765
673.585704552922607
655.844394831821546
633.858472524757872
607.538831088329744
576.340510583431296
541.106919362357985
504.027162950181946
466.025020011436709
427.973141351597405
424.4752374345112
505.819927663401586
663.54788179657703
818.566900976210718
576.108404370630296
570.33519639709084
559.106773284615429
544.752560864600127
526.57643840318201
503.615901788898555
475.762946893695698
441.504445031379191
401.64758473102188
358.092567081223933
306.388477556652106
239.615765048335788
215.156032163328291
299.748832264746625
482.962740892839747
658.787673663458008
449.188580425802684
442.980767073820289
431.997051574782972
417.522079332484282
399.126260627275769
375.31340815969088
345.787791558181652
308.160609732149169
263.687058085293756
216.56028382550312
157.645336624760375
86.1773055521003926
57.6551602484790919
112.380862474615697
292.905608643295182
487.517539836340575
324.697819789863388
317.810689532728247
307.470194085766934
292.634722527197027
274.180132707200301
251.418667149901466
222.273164787863152
185.613221354039069
144.46005578133213
104.368123369858267
60.974332097379488
19.3742356794079456
10.3340267405411979
28.7689501349553183
132.182161616749454
318.232292417311555
2224.53179847969432
2223.62723239425395
2217.68820782442754
2208.12682823652085
2196.92592903231935
2184.24847083862869
2171.42749879285475
2160.18685229719176
2152.39663449606269
2150.09907290572073
2155.79691645233288
2171.74950240438238
2198.95093137455387
2236.43793962995323
2278.76634965634457
2319.38002436734405
2101.43874252194746
2100.13400575654714
2094.19511876679826
2084.6411524042137
2073.19142895739515
2060.44222941027965
2047.53800328364377
2036.11281036792752
2028.05765359988868
2025.5491852106386
2031.1457179820386
2047.30406977206849
2075.03409206374045
2113.91848155905609
2156.78660235526877
2205.96095335388009
1977.70005621409632
1975.81596941584212
1969.77778566922643
1960.20730490431197
1948.55934329034153
1935.64237338221869
1922.50176056623627
1910.71472481013711
1902.21802252187808
1899.32441871687206
1904.71082122719145
1921.08828953199327
1949.62736307248201
1990.36802215604803
2035.02312011657409
2087.62480726925423
1853.21346316684617
1850.81030970087795
1844.59702401283585
1834.94800966681828
1823.05594086585916
1809.82136187976494
1796.27473695351955
1783.94583897847906
1774.7956632966393
1771.27594868718074
1776.25185989164834
1792.79050852019395
1822.42767914107708
1865.51868062375752
1913.09812132593697
1967.28617017971192
1727.98011214690496
1725.15509674192617
1718.68108509314288
1708.85593980293265
1696.65390530005925
1682.98200122061235
1668.86751635822407
1655.79807204245117
1645.74893278135846
1641.31924278917222
1645.62791134204963
1662.21173711116899
1693.17538042319529
1739.26255271573814
1791.04122381508978
1848.46278098321318
1602.01881474837364
1598.83887900490527
1592.05286619325398
1581.96412535424656
1569.37468414985551
1555.14484261893767
1540.28768355495231
1526.25313809785303
1515.01972427367082
1509.33352317533445
1512.62415635919433
1529.00726129149643
1561.40696717526816
1611.05584001809848
1668.44185563768406
1731.05581565367424
1475.36193787079833
1471.86861816850615
1464.7312637152329
1454.29660390658228
1441.23369191212805
1426.32246966451476
1410.54011532210825
1395.29151706757102
1382.53937473629412
1375.1675757118619
1376.96013544720927
1392.71944684854975
1426.49780617620627
1480.29740423336989
1544.67618725843772
1613.11359187330231
1348.06021368369511
1344.27321960637755
1336.74206744989056
1325.88350111366253
1312.25928627077133
1296.54044213102839
1279.64318465994984
1262.90511768909573
1248.24079710510387
1238.65238982888445
1238.2988868335915
1252.74147744506445
1287.57439605585387
1346.09000036922407
1418.99385645096595
1493.93791922450214
1220.1726689120726
1216.08971800579889
1208.11885014840118
1196.76777968990541
1182.49759431262896
1165.84531106664735
1147.644698507361
1129.12212402660407
1112.0926957822021
1099.64950203818103
1096.29795675681066
1108.30487500231629
1143.41919826963431
1207.13462377845349
1290.43006808845212
1373.40945899107919
1091.74554506143386
1087.32307310448095
1078.87023887593728
1066.98696861300937
1052.0033372080793
1034.30371529878039
1014.61791658691368
993.991041716747077
974.084453890209716
958.064965925835168
950.631444115185786
958.488871475850146
992.389939492947633
1061.58900964600411
1157.51645552683408
1250.91874978912847
962.860622445067975
958.017877217807154
949.021536737926226
936.57525927254369
920.844849670612803
902.013354859469246
880.659888072939793
857.546658592264293
834.180056704799654
813.813124849271389
800.944239297614104
802.122677903268141
832.256940911926222
906.965444185572778
1017.79026946547833
1124.83993421318405
833.822834804692775
828.480127956056322
818.809490619779581
805.761843556874283
789.277653572610234
769.288191411715843
746.130445917628549
720.124005611352686
692.71855456952494
667.227787343885666
647.195347618400092
637.817890135587959
659.854478420343412
740.098326792895932
869.012420896078083
992.933552951564025
705.230156659675004
699.369417536851188
688.919028305335814
675.233673808106232
658.0567420422135
637.001396728333248
612.073438006219476
582.998763712086429
551.265173232058942
520.02799323467093
490.424053034764256
462.842852896393879
470.43652765269826
556.851637677996678
708.195236560071407
849.527402852480691
577.480632697538113
571.187553526324336
560.195835975097452
546.018440728593305
528.250468131915113
506.317689584457639
479.688864212826729
447.634535637461568
411.633506838166795
374.583770068765034
332.270875446923355
274.845949074627015
262.732008955940501
355.323574349412638
532.515309792890775
690.917277241240299
450.454493643994056
443.908237259260886
432.864481426076054
418.512809204591349
400.32471961409874
377.603460582358139
348.980743536242926
313.374977143048909
273.172146954637356
232.226267387343341
180.589853627654293
109.543662035526609
85.4004517372623013
158.028843735084138
344.902980400048136
520.025260918642971
326.003227176573091
318.994887583023683
307.802756154604367
293.282081969660339
275.361927977543019
253.274349060851137
225.127198572817179
189.362355349939435
151.933491454147088
116.159503765029513
74.0285504100302205
28.9639600444443772
16.8701011949850681
44.3086374838268853
177.468858676107175
346.30979898172609
2225.34104287790615
2224.49010961176509
2218.74474329830309
2209.52061309094915
2198.81979987381783
2186.9208895271513
2175.22541688823185
2165.53087186396124
2159.77263565870862
2160.08916375205035
2168.90308370105458
2188.39471919721018
2218.94695313343891
2259.5829800314782
2303.75992748716681
2344.29275834718828
2102.24071149995143
2100.99955568150199
2095.25878877184368
2086.0433137146365
2075.10343694553467
2063.13142453439968
2051.35201300320205
2041.4783899040533
2035.48091532930789
2035.61448913266236
2044.39229611829887
2064.11293976811794
2095.29434906871029
2137.04013574120745
2181.81081419731163
2231.32112039042795
1978.48550157533282
1976.68683504006754
1970.86008858923151
1961.63115934497182
1950.49550997355186
1938.35364367527222
1926.33970272512511
1916.11506774056397
1909.70247674431448
1909.48538779491719
1918.10395113912728
1938.07220194690535
1970.09054060328367
2013.57331372192812
2059.94182800613362
2113.51018183617498
1853.97343711807798
1851.68933234294127
1845.70778277183013
1836.40170216563411
1825.01950421725405
1812.55920931654873
1800.14420239288893
1789.39341409338658
1782.36140777687569
1781.56728646827992
1789.83767208422705
1810.01811895942888
1843.14411918923156
1888.82434849911851
1937.84641903098327
1993.38276400086329
1728.70434373311832
1726.04756512466656
1719.83090802394236
1710.34537285689521
1698.6444624274111
1685.74509496047403
1672.76951776246392
1661.30004848023736
1653.41428666289676
1651.77400161938112
1659.45387867309046
1679.74976572223932
1714.20511501174769
1762.68273412898338
1815.54742169663041
1874.28594563135039
1602.69766791733855
1599.75778522186101
1593.25241833747191
1583.48890296925674
1571.38366660059
1557.92402895505461
1544.21670031468398
1531.81256101846884
1522.80238384632116
1519.98481907566156
1526.7415605049714
1546.93429358305593
1582.83942608641382
1634.67900278420939
1692.71666285076799
1756.47870742761984
1475.98787904746746
1472.83797573937136
1465.98790840103629
1455.84739456939042
1443.24416829860502
1429.10356630628303
1414.48753460886792
1400.91122437571062
1390.4596217686626
1386.04875567057343
1391.42274982925937
1411.12355942871136
1448.45937259970447
1504.23951338550319
1568.67206129905389
1637.92822952770166
1348.63884984120205
1345.32905127325512
1338.05430706388302
1327.43904207958644
1314.24904283126443
1299.31281313637555
1283.60506504186833
1268.59493219117394
1256.3251356875021
1249.79479398369904
1253.1602914532848
1271.72422701044661
1310.24683491356132
1370.55887518249847
1442.77731883625256
1517.87732026608887
1220.73766640783128
1217.26390410965951
1209.47259180376568
1198.2930816299704
1184.44582614721662
1168.61329370494173
1151.63368826086798
1134.90583015164566
1120.3693900578553
1111.06811883549199
1111.59559959019884
1127.95938797675103
1167.04548156838518
1232.50792256758064
1314.24986985121973
1396.44417470439566
1092.3539417932684
1088.62773675535959
1080.24328141361593
1068.44691250125061
1053.90970851167913
1037.10587672015231
1018.68918047771172
999.911993779452814
982.57075304060254
969.73522455123566
966.34939662317197
978.846523090494884
1017.24848635955914
1088.38613224563005
1181.93192233667264
1273.29436273035162
963.578990812859502
959.445654771504678
950.387649791204694
937.98125598358547
922.776532769475807
904.967532234856435
884.920864321745967
863.646425451101777
842.865044163923358
825.651891408492929
816.975199356827716
823.061889159725979
858.632605729564148
935.823595489546051
1043.69933165774273
1146.92377943950169
834.694410132299026
830.023330554418635
820.163525862663619
807.167417143801913
791.383594358749406
772.569096299173225
750.640650928850164
726.355124839826203
701.505300694655261
679.064290017038047
663.380319524831293
659.01781946607889
688.014389456302752
771.768569859767013
897.461775659233354
1014.45406795067242
706.213299546717735
701.074545457706108
690.227727879171198
676.616631484552499
660.385532463478967
640.657197311909385
616.7505000203289
589.181797365625926
559.89832643900445
531.626580051654628
506.525853072653945
483.978718384475769
501.271701597307128
592.952049858728969
740.599018307350661
873.076608314948317
578.499381101128392
573.214179416790557
561.362730481344897
547.17468264675199
530.605823852623871
510.318665240156406
484.538422015195238
453.623234349624909
419.891982596978096
385.746540057611583
347.278529661975881
295.113729325747954
297.015319116917226
397.738331024410854
570.362399484108664
718.167510588813911
451.544088609281744
446.243805300219947
434.156187184476266
419.684434409275354
403.042213374272023
382.229374284987216
353.922877438069236
319.02296964550078
281.228661597295968
242.538711406385573
191.917093420001493
121.849086615341776
113.833229895703312
202.914047153175261
389.465376965838459
548.269524399043348
327.65695152223816
321.379391508872686
310.198529936829118
295.844526453643994
280.04784835582609
258.390181140145387
229.057867014485282
193.881206058906628
158.729304164122141
123.631267223880059
79.4665398752015335
31.5397154581070254
24.0485187471840334
64.3100978393397327
219.456862609083601
371.581227544465264
2226.1090767395458
2225.28130381006849
2219.67378572379812
2210.68640325717433
2200.34122386403124
2189.01690478314504
2178.15714625403461
2169.59318108827756
2165.30373616012594
2167.43448448010849
2178.37908565543103
2200.01342965676986
2232.56477081216099
2274.14132269231186
2317.59483232140565
2354.51580671439297
2103.02962058031244
2101.82089840297112
2096.20428922722067
2087.21816852247775
2076.64274179093854
2065.24770408663744
2054.30656872787449
2045.57106392050309
2041.05404106549986
2043.02768101576021
2053.94366461724485
2075.84778554292052
2108.91896585419363
2151.55027168033303
2195.91039796851055
2241.79025062542405
1979.32029367975338
1977.56086189313737
1971.83883732001777
1962.82732158598469
1952.05840314865509
1940.49719980594227
1929.32808255264672
1920.25099835594847
1915.33124320417141
1916.97336520969111
1927.75033184245854
1949.92846592570231
1983.81054059111511
2028.13121571208285
2074.03397598489482
2124.38951393340358
1854.88089857431396
1852.63371304738985
1846.72865188635569
1837.62436935844562
1826.611112180796
1814.74148178564474
1803.18400056116479
1793.59258192372135
1788.06603768851642
1789.1523268879987
1799.6126764287485
1822.03496777612645
1857.02187094032183
1903.43264141104214
1952.02247950271772
2004.75096924187255
1729.70968278113014
1727.07106180164146
1720.89461934096335
1711.5969222862218
1700.27152766508016
1687.98021388496841
1675.88123621530758
1665.58384670860551
1659.21377717033101
1659.47644087678145
1669.38742514230762
1691.97273661137342
1728.29046427028788
1777.37458572016203
1829.70715360995564
1885.53505864874091
1603.81833355447998
1600.85127769571818
1594.34988081265919
1584.76893950706813
1573.05489123156417
1560.23046401934903
1547.42513902767928
1536.20297398929233
1528.71160570162056
1527.81991688716244
1536.86084112627987
1559.41496581719093
1597.20089605948624
1649.53901912108722
1706.73971344931169
1767.24156927582726
1477.22688800255355
1473.96614476211676
1467.10228655964329
1457.1573277700204
1444.97391651523731
1431.50563197745305
1417.82001081353974
1405.42540161262923
1396.4834912716492
1394.02248539166976
1401.74950937747462
1423.91718025216869
1463.19874615929712
1519.37252119883806
1582.55285622432211
1648.1543992322795
1349.96932050256555
1346.42876865726794
1339.16663141323625
1328.78707718159012
1316.05917566911421
1301.83861356666466
1287.08524263561321
1273.23554528747172
1262.45206666302784
1257.90204102722146
1263.71110507999674
1284.8995584381903
1325.5174436962343
1386.15252130031149
1456.52037676170949
1527.52686499528045
1222.08921369725408
1218.26868349208212
1210.57171352826481
1199.69480290125784
1186.36585036362862
1171.29390813569762
1155.27116332866535
1139.64979791692758
1126.56787508590742
1119.29389489130153
1122.38184808684991
1141.61278283950082
1183.09527979769359
1248.87560561895884
1327.91685368024582
1405.38549897716484
1093.62163923844105
1089.49443402522093
1081.33324157309016
1069.92291681798133
1055.97884782390156
1039.96955953168322
1022.45476204444867
1004.70673045869125
988.79877100247495
978.058166246111341
977.378140797799006
993.099675389599042
1034.43451479336818
1106.06866860061655
1196.11113513907776
1281.73668284561518
964.641468687827228
960.133963998280478
951.474949763665791
939.567829709736998
925.043255692734419
908.002051646480595
888.722987747910793
868.43638453935796
849.104736572287038
834.047139307005637
828.230678041555393
838.064405133641912
877.463153981619143
955.480330132981862
1059.39257630792144
1155.41525892902359
835.456062893041462
830.501554809845629
821.258165748123702
808.916300939343728
793.886294237602897
775.703878019960484