/*--------------------------------*- C++ -*----------------------------------*\
| =========                 |                                                 |
| \\      /  F ield         | OpenFOAM: The Open Source CFD Toolbox           |
|  \\    /   O peration     | Version:  2206                                  |
|   \\  /    A nd           | Website:  www.openfoam.com                      |
|    \\/     M anipulation  |                                                 |
\*---------------------------------------------------------------------------*/
FoamFile
{
    version     2.0;
    format      ascii;
    arch        "LSB;label=32;scalar=64";
    class       volScalarField;
    location    "0.360000000000000098";
    object      alpha.water;
}
// * * * * * * * * * * * * * * * * * * * * * * * * * * * * * * * * * * * * * //

dimensions      [0 0 0 0 0 0 0];

internalField   nonuniform List<scalar> 
7248
(
0.0266620072416155658
0.879995751173770824
0.00312817545154385696
0.760796437959360583
0.000428928228599732646
0.00076883355318199014
0.00278225189743345385
0.00897226450090879944
0.488623468482981882
0.000902588826637447904
0.000111174100083622857
9.880166331940997e-05
0.00130756886965067987
0.00035943712410479512
0.000252382871229191869
0.000145969420269909231
0.000537987466490789327
0.000316982414853846908
0.000239257218109188713
8.93230997502830603e-07
3.11400163649399826e-06
6.84891352142019526e-06
1.40371245676237022e-05
4.41069376450530391e-05
1.2508477560105838e-07
1.11999504757879413e-06
4.35620846706750706e-06
7.23725727303464074e-06
1.39320307662064073e-05
5.11248995610136846e-08
8.51864959806263447e-07
2.27318021998423537e-06
9.93153850059579622e-06
1.27806089070086561e-05
1.25690924207572967e-07
4.29563293589300062e-07
1.72866304335276905e-06
2.14203406799090895e-05
2.24118328312663424e-05
1.50892201383515402e-08
1.94612953558486156e-07
1.66050266760708044e-06
6.02607752625039712e-06
5.51059577570352253e-06
5.0324925862589814e-09
6.22404799320656028e-08
3.82502128746736339e-07
3.92362545401839969e-07
4.00822043493200922e-06
1.83619567629888759e-09
9.62939696777751894e-09
5.7484434981234857e-09
5.7772635708518959e-07
1.10705669905028024e-05
-1.98608773307811574e-16
8.33534514710209233e-12
5.58658669458381607e-11
6.42510503710113439e-12
5.89397605079688381e-09
8.36987538611993529e-08
8.29003839039427673e-11
-2.17414742294143959e-18
2.43990530761113305e-15
5.07437842575827797e-13
5.27773317347049881e-12
6.36013657849259376e-11
-4.97106357473455959e-21
-8.32859338219784489e-20
-2.95812253834236173e-19
-1.03921560495511696e-21
-7.17303705019372558e-32
-2.25981474758513487e-35
5.00948093116959174e-16
-2.41496374348859471e-17
-1.2166135712876471e-14
-1.63526060603985452e-19
-1.78510256595563881e-22
-3.31330425790113538e-25
-1.63278088322619544e-27
-7.21704635684150948e-30
-2.49462560438137158e-22
-2.85103230080330408e-19
0.151544915176053646
0.889789107711694505
0.00570702032337670577
0.801526133675875885
0.000573937094483271959
0.000128013308862192423
9.20699391718889695e-05
0.0719614110199842671
0.56715429892460123
0.000737889449578837519
2.99961875786963997e-05
5.21221778404543312e-05
0.00106706591336289168
0.0101047463652742201
0.0001079136155746773
7.38249707381819816e-06
4.563724613668674e-05
0.000131046923708547292
0.000168303198783340338
2.71482612120696787e-07
1.39763189438446809e-06
1.02927203895797143e-05
1.63526480531713155e-05
2.45832374243937828e-05
7.19547446845759679e-08
2.71221273539539771e-06
4.99859909971539058e-06
1.29323378707532268e-05
1.63676007228058236e-05
6.34682158380250781e-08
8.38583661128227899e-07
2.05019127563923383e-06
2.10680039760234414e-05
1.59559151023265625e-05
1.01577592241084093e-07
2.52415439124925612e-07
2.43062118618000896e-06
1.25212383952192377e-05
1.06440852876922919e-05
1.27487677588165361e-08
1.32827407775805122e-07
1.27006280739908529e-06
3.09211138964064461e-06
6.49418297157654205e-06
4.62437047499932086e-09
5.37962218961058425e-08
2.10300396511292888e-07
1.01392553669479575e-06
4.21365328439918666e-06
1.50790515207146635e-09
6.37756273738250426e-09
3.17178189820690322e-08
5.77979356758454885e-07
1.13547248703807435e-05
9.96683302017667824e-11
4.33225738303832455e-10
1.17055681394380529e-08
1.02357768590850613e-07
3.51194043626337378e-09
5.67325945426345779e-13
8.24088482827210828e-12
1.97148578003976463e-11
-6.94195010524236109e-24
-8.653099294800937e-20
4.01305282184126218e-21
1.63494369761039561e-23
1.81611790572105698e-17
-9.01424945388791566e-19
-5.34411611134575101e-16
-2.17061646002488308e-26
-1.04917810239243342e-28
-7.70032642258859677e-36
-4.0871968826595313e-24
-5.022012491008004e-21
0.289899561577607101
0.937435121555170947
0.00451656981164975154
0.793573831846928202
0.000175010917355966601
0.000109606616075818121
0.00020130585694353291
0.00148681481284848116
0.638321329495330381
0.000164075698978163344
5.18095229948666098e-05
0.000242219827186160395
0.000432895582680090844
0.128272616937055023
6.44307810947785428e-05
2.49505470443663589e-05
6.0695720783351408e-05
0.000286081026960893737
0.0112201308581523877
1.40442934243875775e-07
1.52710301514599819e-06
4.31339998784778185e-06
8.45807357178644925e-06
0.00160161387251336667
9.39735075944912949e-08
9.72616382491564918e-07
2.93589500261625416e-06
6.54992421843183363e-06
1.02332357818237614e-05
6.39531867624218104e-08
5.64139269664023078e-07
1.76013093899261937e-06
2.25094353711870737e-05
1.1333188321398848e-05
4.5726173951515918e-08
1.76069238603130501e-07
2.39023536809376144e-06
2.74942967158309583e-06
5.01518687014493483e-06
1.33964519246787663e-08
1.41683487564113969e-07
7.30861214698353338e-07
1.78042163340606606e-06
7.54757264588335302e-06
4.90203794663348443e-09
5.70551652985583682e-08
1.35354043093274798e-07
1.76020597062417853e-06
2.15746326390879258e-06
1.27687527984833613e-09
4.55523571952780357e-09
4.78208701408241245e-08
3.84602131347117745e-07
9.60307668628359757e-06
1.48812292845655335e-10
7.31388722087827006e-10
1.41958812735498465e-08
7.50050638007122814e-08
2.67732626183727881e-13
2.04549516530143062e-13
1.09065160601022869e-11
7.70434445578382871e-19
6.0573987020439963e-21
3.5060484676489275e-30
-1.64807660895010442e-19
-2.3494797330264377e-21
-1.22583538488897801e-22
-7.29251255402122334e-24
-2.02610384284436791e-17
-3.25356915471716222e-24
-1.67933495346047345e-26
-3.04444928429679778e-33
-4.94856301883186913e-26
-7.53457317751983585e-23
0.379202889467419368
0.943287757442819341
0.0064425147141379431
0.790825833538440714
4.40860051324927832e-05
0.000143738348255554465
0.000258659576276616817
0.00190738984805241324
0.65117952713400018
1.32577738846832448e-05
0.000193134774133063016
0.000997110110436012819
0.00381595295564678832
0.208140036851708288
1.58912194398071405e-06
6.68549195382046749e-05
0.000337971559270814617
0.000183095457059173882
0.000689903205905286485
2.61768387886360759e-07
7.29345365208184258e-07
1.85396072531993546e-06
3.18191004163331667e-06
0.00112245995293801704
2.3751134939527622e-07
3.99738766133055563e-07
7.28907811107503708e-07
2.45282280265436087e-06
1.64682891687971148e-05
1.37245169353393832e-07
3.32660162307260375e-07
2.62820342724806242e-06
8.37615005270429352e-06
8.4982470150687005e-06
1.92310444564688572e-08
2.17832613248166639e-07
1.22318429747970281e-06
2.45856773228166885e-05
7.35667875575176495e-06
1.36061713203332786e-08
1.4808639834561375e-07
1.13285830369406412e-06
1.14903725653152881e-06
1.92196051113391632e-06
7.80367119867917058e-09
6.13111396033272484e-08
1.31188413903175521e-07
3.22843305737291698e-07
8.37041919165895965e-07
1.73146183502691867e-09
4.91375683878249827e-09
4.55744386111566606e-08
4.71707056351881727e-07
1.22582053919022302e-05
1.00579320436231272e-10
7.15405442651551409e-10
1.58162636918320783e-08
1.33150035257232331e-07
5.99320535493048936e-08
4.18829935227360958e-12
2.40086616376578458e-11
2.1307710330382966e-11
6.41760444557986676e-22
6.76410849014681568e-09
-1.41698536790365756e-20
-2.99348467180662317e-22
5.00252519558526043e-21
-2.51726573174900992e-25
-6.53213433268003339e-19
-1.31570840713405107e-25
-4.81010556192160546e-27
-5.38094847048016785e-45
-5.40387476492653297e-28
-1.00745389060473482e-24
0.471410806051507092
0.942703851505254375
0.0111729287770545929
0.799900978770160309
1.83049346382520426e-05
2.4750363931866175e-05
6.65564088988526887e-05
0.00308604444156190382
0.689292378895265956
1.15439311767946831e-05
0.000269813451587992735
0.00048266872386811151
0.00338578544676155883
0.258776257509620411
1.02151729813034116e-06
0.000233872714646003494
0.000540851752301484958
8.12468205325819445e-05
0.00096167233050029196
1.19201207649215468e-06
1.23181517479360549e-06
4.61423862793327184e-05
5.9372202952127604e-06
0.00192893152895583014
6.17844381347262957e-07
2.53342629923964676e-06
1.763502251584761e-06
3.08900853989180811e-06
0.000452650447094418153
2.29712867614492262e-07
2.41034190841646387e-07
2.06878656771973964e-06
1.115228656858947e-05
1.06663942189325079e-05
4.60312149767612436e-09
6.72443799151185291e-08
4.24655986164080002e-06
2.39658461596902399e-05
8.12560964173480394e-06
1.36036272012530819e-08
2.9532242641553148e-07
1.3076897764057334e-06
3.6607421640666416e-06
2.8040498394842947e-06
1.17533513523912019e-08
6.79855867296918761e-08
1.09585695480609053e-07
1.80278464465427515e-07
2.11840493261595306e-06
2.04674063499431514e-09
4.28709781350442447e-09
4.64293042437484901e-08
4.12187951397632066e-07
1.28972399634265321e-05
7.52039629921826031e-11
8.91240004348218525e-10
1.76475092393010145e-08
1.56042937262843773e-07
4.25752188472263068e-07
8.37533797208661392e-12
5.46081535112887242e-11
7.12336686213824643e-10
2.66544660552407915e-21
1.57978144738610123e-08
-1.31755257576118185e-19
-3.19411266981144628e-21
1.05788783475864844e-38
2.0043167187814681e-22
0
-2.72654816665256319e-19
-2.0072449019952511e-21
-1.87420089918930093e-23
-2.46636203990639182e-25
-1.65814136397824708e-26
0.546219746655856486
0.941723754457655549
0.0138737238549802838
0.805051823040855652
2.13977055203032224e-05
2.05372779554745888e-05
3.15279241795100382e-05
0.00292778144447556092
0.710065266686009111
2.70741583591824485e-05
3.97920329933858837e-05
9.24581971059504592e-05
0.000730493548613936642
0.257970066604703674
1.01134103088573703e-05
0.000220310254745393383
0.000192647914570330439
0.000118303055107447965
0.00216562901520402562
5.90624117583951035e-08
0.000136936111824986003
0.000386381676983495615
3.79148103822979723e-05
0.000118999375027634927
1.22779743664083499e-06
2.62028032338544755e-07
8.89953520920045294e-05
6.66263014441598427e-06
2.57397710726446909e-05
5.67768659313065297e-07
1.44835395495725281e-07
2.70978932915791904e-07
2.42806623679749432e-05
1.49032354466743838e-05
2.15551675129342863e-09
1.10739509936420086e-07
1.0084391968876389e-06
8.87702150604651288e-06
8.77263720401117103e-06
1.76323259890849912e-09
2.28808771903169193e-07
3.70987067362470678e-06
2.82603839902621586e-06
6.62916077962924142e-06
2.45322699648188084e-08
1.04221611372836213e-07
4.5634519694317976e-08
1.04540601051446417e-07
2.66101240240763663e-05
2.12255802530909832e-09
1.16993941540658075e-09
2.30589090024869572e-08
4.56353872251594458e-07
2.86062499178529812e-06
8.08415284818887536e-11
8.08755467712675817e-10
2.61425463416530343e-08
2.34328459481232322e-07
7.92901118796057332e-07
1.30155121016588895e-11
1.27631284911581903e-10
1.51582763040236145e-09
7.93071160654533202e-09
5.120538300632555e-08
-3.26405262671063762e-21
-1.22626829768036078e-22
-1.51111146720294723e-22
-7.460577227773729e-20
1.52583229312083247e-29
-3.40120810138560148e-21
-3.69840992268678198e-23
-3.56982650913468122e-22
-1.83531663645246325e-19
-1.46528443224732155e-16
0.592521752535784207
0.938683306468936052
0.0166905808389002028
0.809838893596153797
1.20010508172974856e-05
1.12472759680983447e-05
4.72879320933602146e-05
0.00390339551360294927
0.717507969337859874
1.56991864091756252e-05
2.60608036160291608e-05
1.92583038288713748e-05
0.0029825705853615595
0.282897333750037006
9.68722755175020593e-06
0.000144849469440818854
8.06765741501306623e-05
0.00019748619871651888
0.00136879992560775079
3.86164925384826057e-06
0.00014654144834570345
0.000133918916708702831
3.86158234465606759e-05
0.00165748872232088576
1.66280429747780261e-06
4.32782131925986233e-06
6.28902443083759953e-05
1.34223686225816994e-05
2.03596448636406827e-05
3.50553213563516072e-07
7.78625529830050584e-08
1.79830171067218868e-07
1.43220178489201495e-05
1.79302150391903926e-05
1.27480669578346321e-09
5.66574311158205034e-08
2.88371036916962591e-07
1.23180346756443305e-05
1.20197581732242057e-05
7.09123854630247098e-10
2.24436132031294203e-07
3.70987067362470678e-06
1.38099531497682819e-06
1.24085885156279784e-05
2.15527910633199983e-08
1.20316735975121319e-07
1.06085856360990204e-07
1.50586751108438343e-07
2.91391687974150172e-05
3.08158808927658121e-09
1.75666203516232146e-09
4.05008144055156736e-08
4.44718910170502165e-07
6.438586712093286e-06
1.16301998345620531e-10
1.5128884192670052e-09
2.76342626472203419e-08
2.56297508016195851e-07
8.88528261395784583e-07
8.16022111080287456e-12
1.33202605827160334e-10
1.77374249194273174e-09
5.42377519931773955e-09
1.94531640832974505e-07
-3.50876030865833369e-23
-3.80057120691085427e-24
-4.20272074705197393e-23
-6.09136311261384801e-21
0
-1.8095695264674233e-23
-4.04461229341851046e-24
-8.15387883498148639e-23
-2.22756772475601609e-20
-4.83002307688194245e-17
0.608179850454300452
0.945234156969340544
0.0170981986501052147
0.811616596949182423
9.29746288375587744e-06
1.25241325011619494e-05
-4.24315179362059214e-05
0.00375004301145560187
0.740742880493825639
9.99024936124994872e-06
1.49866285745140011e-05
1.12101539397907355e-05
0.00686022861207518861
0.346909438453066432
3.66451936808543871e-06
2.05978985286441545e-05
1.92835789762475313e-05
0.000203828755858894193
0.00317791322222880489
2.16230583376032506e-06
2.52470733427656756e-05
2.42788067867454502e-05
1.67142590888691905e-05
2.18067757186641801e-05
1.22190799109423451e-06
1.00271528537320697e-05
2.84182454742010836e-05
1.5534188538726634e-05
1.725239769939609e-05
3.38621069116241624e-07
9.08246618480269889e-08
1.90707321208006795e-07
1.20286311651543249e-05
1.37412190861178551e-05
2.17339646836433611e-09
5.45505278292936567e-08
5.89371373320704191e-07
6.93426180179770648e-06
8.42739080110092818e-06
2.55231450569714736e-09
1.51141634944713515e-07
1.7897084211038267e-06
1.95719972569007714e-06
9.08329497879670831e-06
1.52996649752140429e-08
8.50666275159109204e-08
2.50017727647028694e-07
1.1656579695461514e-06
1.96979060470401404e-05
2.84527412129166133e-09
1.07834563336822167e-08
9.11955787451185478e-08
7.83450140860784073e-07
2.55343383037153288e-06
2.51772067540864023e-10
2.25184755715422874e-09
1.24772881667139402e-08
1.42831829486099298e-07
1.0863083236032432e-06
7.80152411065371875e-12
7.08917812511424004e-11
1.46499286745642798e-09
6.8753694733328169e-09
6.5691596400919124e-08
-1.65594534802043609e-25
-4.5988379389686366e-26
-3.24489435634552755e-24
-2.16857649708076173e-22
-1.86258824843851346e-33
-5.37166081869679909e-26
-4.92391373619833899e-26
-5.98918983715589295e-24
-2.38738006672154933e-22
-2.78694593301717194e-18
0.00529881249023339204
0.00823464152872743771
0.00494242893282167885
0.00817928490076511548
0.000833419038305405679
0.00181960741228102702
0.00112263407747772125
0.00170245363731820823
0.00380823877014185809
0.000171793941827573396
0.000789458891039113196
0.00195963771181208559
0.00173295714562931875
0.00360614484791979203
0.000221941680823584163
0.000299655329343773516
0.000664436374229052172
0.00208482985726924242
0.00466715443559420455
0.000352212308221381762
0.000870484240501054763
0.000853225699212665622
0.00120316599934822415
0.00231864152248602122
9.02591637143778064e-05
0.00011590133343150738
0.000479594196386345733
0.000882999878218974194
0.00125959766524988653
1.67379379927478471e-06
1.07843859606419802e-05
6.3565188138032421e-05
0.000275272707072345786
0.000701716918916427883
8.76267105999294827e-07
5.77867926603345463e-06
3.03017644424256812e-05
0.000123217791974709944
0.000353468347404949763
9.62057493903214351e-08
7.81524732715196914e-07
5.34656429590890569e-06
2.91912672526155682e-05
0.000117747096629647408
3.49706230439878916e-09
4.36229599571265672e-08
3.67625540866238081e-07
3.048670612280358e-06
1.88742038739117128e-05
6.92432967544158614e-11
-1.00835398190082308e-10
1.67248990514875298e-08
2.08889230841105992e-07
1.77079211319615836e-06
-2.96967342939535958e-14
-3.08510283956964636e-13
-1.24579821465834095e-11
-7.17465258698599801e-11
-1.47373485055170613e-10
3.24530844889480704e-09
5.43928218864965384e-08
-5.64600799959061889e-17
-1.63388989509507295e-15
-6.06423622896648256e-14
-1.22854408139312655e-12
-1.18694785922000758e-11
-8.99581197957831357e-11
-2.56700111236317458e-10
-1.35701999093939507e-20
-5.85888000613270485e-19
-3.75310327637570815e-17
-2.08091381268289053e-15
-5.53742593760271844e-14
-9.92661103511716492e-13
-1.05561647878564212e-11
-1.45368159535826157e-27
-5.69232680997004094e-25
-1.19160381163320316e-22
-1.904763860041269e-20
-1.76062943169039445e-18
-1.02331319835477142e-16
-3.8601032690082882e-15
0.00232399877916610129
0.00463223851930415296
0.00140940756344392422
0.0041217931223857026
0.00121747846277757464
0.0011236031701139682
0.000681809088260030161
0.00107960134310099566
0.00205171858311376139
0.000939625784962905579
0.00302945097860036691
0.00179188317076418076
0.00095335366835252761
0.00226602866420221039
5.57229169876121444e-05
0.000262355196366084286
0.0010343383391378531
0.00444737658077745332
0.00509705199468639056
6.03759782035497209e-05
0.000352063821603908937
0.00105580259640667882
0.002605336627505438
0.00163053623226551967
1.16901124065088682e-05
0.000204684503461846331
0.000504475460379275932
0.000784171332241118905
0.000646122962828864006
1.68955731435228761e-06
8.01490403056085325e-06
0.000108753519135713482
0.000291194645209656581
0.000377823653944477891
4.9540576024087858e-07
2.89498769601919553e-06
3.10231214059108009e-05
0.000105643579637163291
0.000185402814102387863
5.62535060755005961e-08
4.69116589548318701e-07
3.13314721477264363e-06
2.16197298284094897e-05
7.91737364646004946e-05
1.94222918144604353e-09
2.30301467771377823e-08
2.43117138713908713e-07
1.74733645909148231e-06
1.19682617543654577e-05
-2.20298474122963399e-11
5.23707300888221797e-10
7.9272360811333267e-09
9.1969072590248005e-08
7.2021436085880226e-07
-4.58402752003631848e-15
-1.30865489719581651e-13
-1.69032214285333686e-12
-2.2667192858909741e-11
1.81206464698746051e-11
1.79351088302157718e-09
2.40900725736524803e-08
-1.92816402057870009e-17
-5.69379340364624246e-16
-2.01551431880139588e-14
-3.93930344204770123e-13
-2.31296058056412268e-12
-2.82916777110530094e-12
8.65296781782110278e-11
-5.53129054217316966e-21
-1.53066455998474968e-19
-8.32548465136469838e-18
-4.23406162788361706e-16
-6.14007716142496983e-15
-1.12168185376281068e-13
-1.53323543811231119e-12
-7.38240967263752687e-25
-5.43415330606290806e-26
-1.12842309083775993e-23
-1.7754088711926812e-21
-1.35766209992153699e-19
-8.6237438303998526e-18
-2.44169422844429872e-16
0.00115306620407927074
0.00241355299471378206
0.000852520853470948052
0.00141135923038276999
0.000377826679433668558
0.000349143537034711298
0.000446033078046495024
0.000616059718927989045
0.0010763984132461722
0.000695362449381930472
0.00107692118780931714
0.000482305317284109885
0.000699217699275245588
0.0012077137789762416
3.0476666204093818e-05
0.000948986852261658352
0.00212006823664048901
0.00132900866816409264
0.00153310562614145237
2.45747728850268039e-05
0.000580471027264100855
0.00205722605083775772
0.00273073802819676428
0.00273073802819676428
1.43065230223449957e-05
0.000218233922050437869
0.000538881259058802574
0.000707046656135080207
0.000372689872603210876
7.1611174703278983e-06
2.44448636791030742e-05
3.30787304062350577e-05
0.000136589457894362973
0.000142689757064072228
1.68286272278237257e-07
1.00530744685382387e-06
8.68912712846850292e-06
4.04600767487476047e-05
5.86188958378730467e-05
1.82313558445312523e-08
1.65893170181193632e-07
1.59870611754266976e-06
9.80055873845029527e-06
2.46544682362036805e-05
6.65489606941155438e-10
8.90373809165720267e-09
1.24397281525294694e-07
1.00577139901135837e-06
6.51131307325109287e-06
-1.1433392409179824e-12
8.28815339983829096e-12
2.87427144005426434e-09
3.68160171358189727e-08
4.74607324455813913e-07
-6.28050327358936149e-16
-7.51049232372417828e-15
-4.5988766759424172e-13
1.90631120607089346e-13
3.29634323832839392e-11
5.9896023916040072e-10
8.25711038261224948e-09
-8.07478893291130366e-19
-1.70857309556216709e-18
-8.05008790234307033e-16
-8.37624065466884298e-15
5.32234821018456951e-14
1.66827256082842448e-12
4.18394102359483807e-11
-6.0500385782990071e-25
-6.36205596032810932e-21
-4.68631005986199757e-19
-1.27585111314370782e-22
3.74085989185150415e-19
-1.20660375168958982e-15
-1.34781646503230926e-14
-3.31531897840011149e-23
-1.77807389709177663e-21
-5.70064163274183997e-20
-5.9469187005153074e-19
-2.26459782946167502e-21
-1.30196241224017344e-19
-2.68280564718389863e-18
0.000796450229611397366
0.00116147813679324348
0.00047950318377038806
0.00113734199788541237
9.73942984846185554e-05
0.000209019740368213038
0.000269327452403049191
0.000512529386826183781
0.00148791974392788922
8.83409388342424554e-05
0.000190029153397667947
0.000377401306770091182
0.000482297043399418574
0.000699171685023551506
0.000112341177268437682
0.000691992538058202049
0.000894849304098241675
0.000719244935482868755
0.0010331915968012275
4.28777298379264457e-05
0.000423947038232852578
0.00207059371058703964
0.00256267058908468681
0.00180713544633914129
3.09049811874888432e-05
0.000347177254688002188
0.000672821312951440791
0.000686746114051393236
0.00108143903863119678
1.45849207319228414e-05
3.25289106924161022e-05
2.29073532804726886e-05
7.58041119500587013e-05
6.10909763300115471e-05
5.73373775214577388e-08
3.32520243292150925e-07
3.05426892150981383e-06
9.46923207755355901e-06
2.75231300900701187e-05
7.16690714388395222e-09
7.46216690262352128e-08
8.00650400897138845e-07
3.2073377606324443e-06
1.08573042386662945e-05
1.39662155861211336e-09
2.26099538959167111e-08
1.73912830331527527e-07
9.18627566407371416e-07
5.24461516313815001e-06
9.74534391438985348e-11
8.93007519921900208e-10
1.03364185061180513e-08
9.97122873703461727e-08
1.03451620314122879e-06
1.54693128931075683e-16
5.95651203675109468e-14
1.23610976257502437e-12
1.14662243460440185e-11
6.22913878398374759e-11
8.92296661179761717e-10
1.53688839258623159e-08
-2.94301447949853307e-21
4.10642263735051778e-17
1.67724043357291171e-15
3.73432292722974116e-14
3.12933740222448242e-13
3.31945522890605524e-12
1.90073362356826663e-11
-1.03747866146680225e-27
-1.60121142793647069e-24
-1.61440753929837236e-24
-6.01200989014838959e-24
1.21636067155650782e-17
7.43584759554566018e-16
2.60634526377297094e-15
-6.85188452690604012e-23
-4.71594079038549231e-21
-2.07412553434161292e-19
-4.60087864352858751e-18
-4.05870334375961749e-29
-1.17839613302634099e-25
-2.03844966217145916e-21
0.000570566360165857423
0.00068338933548014178
0.000341715012450040758
0.000546617588749672822
7.14799536671387599e-05
0.000218935450885892577
0.000442515821041645357
0.000629676419930139835
0.00139794853536962947
5.38006557932224196e-05
0.000222325831028596303
0.000292626070190770392
0.000617014568441517095
0.00102654347416799522
0.000124781117971080763
0.000160395364511525346
0.000345871850442058338
0.000735988843205288065
0.00144309245775724529
6.00239280150698101e-05
0.000391192672939441859
0.000943578479955983957
0.00109619510955161789
0.000590972712437729084
7.86045023387326445e-05
0.000266693328839445612
0.000439282717932449858
0.000588365086278533561
0.000593722541276914869
1.37272718205555025e-05
2.93538182068745965e-05
2.98245837167913444e-05
2.79766905455949873e-05
0.000173193748286784891
1.71896602663477082e-08
1.04625983577948518e-07
7.06659133356967141e-07
6.863649269931049e-06
6.73900868594903477e-05
3.79568437933719376e-09
5.99454388452725737e-08
7.46404302720369124e-07
6.73493072084262598e-06
3.56566581504633943e-05
3.32725037030208414e-09
3.25589279284661262e-08
3.08682929295943484e-07
1.53473750890874438e-06
5.65675800182165775e-06
2.81609554702327895e-10
2.71307616501289376e-09
2.22187924221792487e-08
1.32549772923821248e-07
1.44916394204507538e-06
2.88811441666839693e-15
9.17227460565982934e-14
5.04976457869890724e-12
3.02550271851677204e-11
1.43586037220954468e-10
1.96539638426446581e-09
6.61450058017259152e-08
9.03901697928240912e-19
9.39284500944944804e-17
1.01781690227089393e-14
9.04495964526163966e-14
4.36645307298566819e-13
1.29780067530747722e-11
2.09005694872248378e-10
-2.15393205412415346e-24
3.89048317945165776e-38
-1.15388340609958342e-24
1.59091333548656028e-19
1.87179910592561141e-17
1.53318059844616065e-15
4.78289121929512975e-14
-5.50168504648437947e-24
-3.36208209630386971e-22
-6.47447224352919077e-21
-4.70551167068303072e-20
-6.68687172125236888e-30
-1.29271363026625956e-26
-3.16182706380039547e-21
0.000615947359413309705
0.0165245417496779415
0.00064061741613725368
0.023214848931772801
0.00012927930942725863
0.000328563537690426991
0.00114739354345959332
0.00915260085937041716
0.0213173612691573006
0.000110221269589853873
0.000383619195846362539
0.0017773663242351208
0.00143014122874214286
0.00149772844620915647
4.71942284419109726e-05
0.00033765260324164438
0.000863416504925063554
0.000595313700774288083
0.000841784873043737933
9.99392058173202247e-05
0.000402715706460102978
0.000305352982961067305
0.000338147903946294675
0.000568212984902305342
4.85423008110034295e-05
5.48887175526276068e-05
2.28948672102618342e-05
0.000272378162919846166
0.000361180533830532467
2.33765337031891608e-06
8.13737003037636906e-06
1.12221458935245955e-05
2.55477338727764838e-05
0.000205522726538976227
6.42082892981772045e-09
2.18234241328287095e-07
2.18313030266635735e-06
2.55417531220777152e-06
8.78395960114055095e-05
1.80364675376175226e-08
2.19385731294557064e-07
9.80279326999823216e-07
4.91850752832974801e-06
4.45581574471611735e-05
6.34876049202302675e-09
5.10217479801378493e-08
2.90045127309228791e-07
4.13522959525207755e-06
1.14381659746934697e-05
5.05263779196798377e-10
3.06789593372796404e-09
4.66869765433809451e-08
1.02048786397141066e-07
2.65270189782431005e-07
5.11634009323244494e-14
1.15753861342006631e-12
9.12610695617546391e-12
8.33192938749680274e-11
1.78982541731887923e-12
5.96806341273885566e-09
9.00657695010076697e-08
3.58792928844010365e-17
1.66840529499928597e-15
3.72739786118601121e-14
3.37037040916829617e-13
2.74220774099237936e-13
1.20548947917382167e-11
2.93262251235739202e-10
-5.61580920354004504e-23
0
6.51106086489085191e-21
1.49852581298910625e-18
9.38767313540170723e-18
9.65922482886662019e-16
2.6802161869745996e-15
-1.94695474142827164e-22
-2.4800032598047486e-21
-5.84482187437928748e-23
-5.24564028373057903e-22
-3.79721979820657459e-28
-9.21556171961015066e-28
-1.74234465411545772e-23
0.00143559842446044222
0.507128091717415685
0.00068855609092103448
0.341651839890559472
0.000172067976132945068
0.000212801599366896322
0.00119143044921285186
0.0147094468624799843
0.189059980280398943
0.000171876343952981825
0.00160082349966008688
0.00397149144558730377
0.00304137307727840329
0.00296669455450453189
0.000183170026888273695
0.0014599440958501346
0.0017701714862734543
0.000686738726513083956
0.00290467818005664662
1.46439784945687928e-05
0.000150241054528863264
0.000306261094836268288
0.000663966531086333757
0.00092098952837005657
6.35808282661057853e-07
2.0912645714089959e-06
4.41063095922781791e-06
9.97738730141855553e-05
0.000974272867966518197
1.26600698754310976e-08
2.06690224145197301e-07
1.74213102828743737e-06
2.19025867010124676e-05
0.000115061814775474698
1.98173097732807237e-08
1.16980029739762053e-07
2.45096458044388483e-06
7.00173698361864939e-06
8.19474376119142553e-06
2.85455481147633305e-08
3.62786501164064347e-07
1.9612187442934069e-06
3.76380463258712188e-06
2.91268574796222653e-05
8.58863358314375717e-09
6.14830495298724462e-08
2.03227391511947414e-07
3.08887435717997949e-06
9.90484498750456e-06
6.18209564781613673e-10
1.30427648389186928e-09
4.09431100107297635e-08
2.10110341410246418e-07
2.0380934603914673e-06
2.53325282921447442e-14
3.22448177704162253e-12
2.66190782932948177e-11
1.74175092752902453e-10
1.37698922765179048e-09
1.24871617199521802e-08
1.4652299249416579e-07
9.09468689064532951e-34
2.50501900691909191e-15
1.4371722574987384e-13
9.49238938736336834e-13
1.65941126208508049e-12
4.36380750776615798e-12
4.8966653616359229e-11
-3.88788294748001444e-24
-5.50353817543782098e-23
-2.24033870532615653e-33
7.35084586976689085e-19
4.64977609624253115e-17
1.94438235284373246e-16
-4.05386854071907194e-30
-2.01024361471661511e-24
-3.01866971327453963e-23
-5.36020231322444969e-25
-5.96978092749092419e-24
-1.4410736033262346e-29
-5.90203842744586158e-20
-9.98392373860614673e-17
0.00448506818303003908
0.795329022187046153
0.00103802556032022699
0.655304133588073823
0.000254061378906013803
0.000493027616996111586
0.000982284495415667192
0.0428568501060478599
0.378674833899891095
0.00048181657177051373
0.00197198373822444605
0.00397147024716036287
0.00205211725032918534
0.00127477319697873182
0.000344800575179625098
0.000718203060099210054
0.000941275074258462324
0.000994602204763231357
0.000341441297396375375
3.04285234431835018e-06
6.8386191549772853e-06
0.000150260897675165878
0.000222562064508222861
0.000260391732019594796
1.81007790309295915e-07
9.01612371944596065e-07
2.29581510568823053e-06
8.70755390054562001e-06
0.00071757570930513874
2.26176896261687468e-08
1.85151496283813544e-07
1.44574820257935331e-06
9.48112903799967415e-06
5.50610514759757106e-05
1.01086405334835823e-08
2.62049616610371655e-07
3.32643149525538428e-06
1.00330563636575651e-05
1.71967312185729072e-05
2.67045744722457329e-08
3.4730279719708146e-07
1.71551954036234934e-06
5.883206822346712e-06
2.41911414182875546e-05
9.65016656586956233e-09
6.44322266545443958e-08
2.4278774641065512e-07
1.77978154410459952e-06