/*--------------------------------*- C++ -*----------------------------------*\
| =========                 |                                                 |
| \\      /  F ield         | OpenFOAM: The Open Source CFD Toolbox           |
|  \\    /   O peration     | Version:  2206                                  |
|   \\  /    A nd           | Website:  www.openfoam.com                      |
|    \\/     M anipulation  |                                                 |
\*---------------------------------------------------------------------------*/
FoamFile
{
    version     2.0;
    format      ascii;
    arch        "LSB;label=32;scalar=64";
    class       volScalarField;
    location    "0.360000000000000098";
    object      rAU;
}
// * * * * * * * * * * * * * * * * * * * * * * * * * * * * * * * * * * * * * //

dimensions      [-1 3 1 0 0 0 0];

internalField   nonuniform List<scalar> 
7248
(
0.00014607877308571901
1.38721593617797898e-05
0.000647646710765307164
1.88659455996115248e-05
0.0121920086776529622
0.00833785504207531537
0.00304773020231757005
0.000943749022796740319
3.27690842479016686e-05
0.0104127402061834975
0.012267962632841984
0.00708729133749169075
0.00585094191308199989
0.00107516750827726286
0.0133984069449954515
0.0170986403926416085
0.0123888800522956189
0.00857772928389431352
0.0138699929417532147
0.0169259330975427662
0.01870432301065348
0.0178707103922049054
0.0175167427795137332
0.015971864396918483
0.0176024714158639246
0.0174987550992794783
0.0169096511182372823
0.0168456400474239487
0.0168209547144906879
0.0188800755208729347
0.0177649527986624804
0.0167455869997535645
0.0163066196522534818
0.0165312666970593644
0.0194885737569162575
0.0183832258538679134
0.0172448463256848206
0.0160215458548818232
0.0156400151092942717
0.0200205494899468942
0.019070148380948497
0.0179990386765567674
0.0169001880509665713
0.016659070289316881
0.0205548701583949701
0.0197930082018894053
0.0189173123059412258
0.0181441775544036211
0.0177902741612100228
0.0210529201530003235
0.0204767315331600142
0.0198299106533087396
0.0191871898038889176
0.0186262378983138056
0.0222116119999937779
0.0218919045743671166
0.0215178180971234319
0.0210911515131501255
0.0206323897869641407
0.0201890779859008364
0.0199488380847448639
0.022453574400557532
0.0222204291170524197
0.021938313795378226
0.0216113817520077918
0.0212526927328226256
0.020882891027242563
0.0205338417698647142
0.0227218577106182255
0.0225705976161924733
0.0223762599160002643
0.0221321756777115505
0.0218279432818860968
0.0214521257553834631
0.0209854609445542621
0.0167508281235946507
0.0166931356497037435
0.0166075082539258075
0.0164855443462375677
0.0163141272194320397
0.0160740232102597747
0.0157218037235771768
7.1974129229124132e-05
1.33803982091719091e-05
0.000447156450366181346
1.7561543165892174e-05
0.0134181227958647138
0.0106684691698075533
0.00450871682287509994
0.000304190391237883859
2.83634546595942338e-05
0.0112775127801450336
0.0165919002430776931
0.0154794172660780872
0.00693803359079519545
0.00035536459510786191
0.0138626537262648408
0.0180283191093299246
0.0159310105217611887
0.0111985879347015187
0.00963685807966982791
0.0171231699489737196
0.0196536743829653152
0.0194376258884055263
0.0163750820774271333
0.00925718491473803869
0.0186888855177584218
0.0188215216644650844
0.0180878299485319992
0.0163039193027288351
0.0148886581846071602
0.0196729712946364099
0.0184733546237825751
0.0174054610973407055
0.0161440633868821862
0.0158415772027042621
0.01971830137955689
0.0186244622302623106
0.017559795202438503
0.0163986565348152244
0.0160616722856469253
0.0199197452434114845
0.0190928665469582183
0.0181412465417798187
0.0172422594874659212
0.0170222596048437598
0.020428921812189263
0.0197521295546573654
0.0189693692512425474
0.0182631328896121874
0.0180015915357690029
0.020930122169972469
0.0203822430426459714
0.0197841841843379128
0.0191929131797756655
0.018651914265251382
0.0213671872593746634
0.0209634869873749664
0.0205463815496709952
0.0201568316324189714
0.0199654994419421299
0.0217833768982056176
0.0214577626979155604
0.0211135712700359392
0.0207841034335130431
0.020535205913223855
0.0222183292394650365
0.0219586922117123683
0.0216435447412172827
0.0212599290454982513
0.020787384360792905
0.0163999801213216209
0.0162420497117359251
0.0160322732154996213
0.0157462251167881408
0.0153378847834193949
4.70473014852736005e-05
1.32332972089353328e-05
0.000365296727056951733
1.7341991885521172e-05
0.0170369810545055907
0.0150738742236984271
0.0120145239388494036
0.00338032183506081123
2.55532386377163661e-05
0.016218912150350262
0.0164876935046142092
0.0195357391134458394
0.00746634226172200946
0.000109385331647299342
0.0149627485584661185
0.0170414494142654832
0.0155086294281052469
0.0112932530234417326
0.0015462138560739672
0.0174074801000129106
0.0182956743409917744
0.0159841123383698443
0.0160808771521616899
0.00669995386154267035
0.0200161469240209867
0.0200068749706623708
0.019338923123866994
0.0176290987651914269
0.013609005327309914
0.0202481644991720569
0.0191476387211420053
0.0182440747302256463
0.0170024267400169064
0.0159633503259897017
0.0198767742135261966
0.0189868367220021039
0.018040349359256462
0.0171589857834876965
0.0168827080567710251
0.0200108419155851612
0.0192843586072264893
0.0184291883783091227
0.0175910562877630225
0.0173807299991717533
0.0204198699328434138
0.0198042558379076979
0.0190957991578256554
0.0184038976285755967
0.0182028886212435952
0.0208694414698008604
0.0203587078954397052
0.0198035965701948875
0.0192471097808072471
0.0187339411022819993
0.0212827323815240922
0.0208986978005269303
0.020513367579520804
0.0201613289019437099
0.0199792112941727697
0.0216827253944835117
0.0213603935801982385
0.0210266676027223501
0.0207144220174258868
0.0205042402334900849
0.0221026853490577102
0.0218313881531680791
0.0215044306602637236
0.0211084461965284111
0.0206189301995706072
0.0162267716658560275
0.0160404301849364599
0.0157989395200148972
0.0154755808426092958
0.0150187840084002461
3.91155800916655809e-05
1.34345662970761984e-05
0.000293821924931052963
1.75225957487455753e-05
0.0187868625003830662
0.0148288395598391402
0.0139125825664415583
0.00191401498819706835
2.45118046321473858e-05
0.0189968798225363597
0.0157098949229720723
0.0117525359610367031
0.00463028637251638054
7.40039073433167892e-05
0.0180290435867515204
0.0180947625873864523
0.0158937421381192961
0.0117811079293123205
0.00447948218687703459
0.0192658866914026464
0.018242356096889685
0.0200910717274036116
0.0189508323137719918
0.00569115079772359797
0.0214598692790854174
0.0207558740488282684
0.0201972696803982797
0.0173020920609909222
0.013252252858693957
0.0205009595448886334
0.0196346716233541801
0.018790932956472918
0.018106027435422594
0.0152050422166948359
0.0200874098015074408
0.0194054969150283634
0.0186196550349696337
0.0176002863286091743
0.01732148304736442
0.0201976331141108037
0.0195560531816011129
0.0187643219887876044
0.0179209945840352811
0.0181819177184993908
0.0205073414334826856
0.019918222207531297
0.0192467237537625284
0.018605262625042307
0.0186345109164803638
0.0208646791369359978
0.0203834609950752678
0.0198569334214005813
0.0193236017102153129
0.0186911448801679592
0.0212531117662306604
0.020883500778875852
0.0205165568527010678
0.0201854014089171696
0.020036821169060904
0.021625296954312978
0.0213078977140508073
0.020982259702930009
0.0206723286523320324
0.0204449753204810521
0.0220223420247079374
0.0217429844672902828
0.0214060844651372019
0.020996200298034888
0.0204924157675839338
0.0160865642841526574
0.0158780860840420923
0.0156110415530955685
0.0152564191309029502
0.0147566947785256492
3.3674625071829708e-05
1.375059756242603e-05
0.000225599306539432665
1.75109814926287042e-05
0.0198523644492623157
0.0202599723514396146
0.00614223772703605207
0.00104346356666008984
2.33263919854994725e-05
0.0195490823989364626
0.0164862011479940604
0.014084011909120767
0.00381015021391055289
5.98176529226793086e-05
0.0211216783853990404
0.0172571982404053498
0.0121567483936709953
0.00799359432763320325
0.00176451698658423406
0.0225197298602546614
0.0215564582101292826
0.0212066488987100177
0.0184045271653393155
0.00501850751436694505
0.0213609015307497929
0.020540656340768508
0.0205870469006812218
0.0204124605033125343
0.0113163951592254244
0.020717187233265523
0.0202069440017429713
0.0195161067094258463
0.0191943613394779597
0.015851601606582201
0.0203401159024515846
0.0197765838660801767
0.0190009245881250233
0.0181259308870839082
0.0180167066916787043
0.0203749107970145581
0.0197569607390614861
0.0190108001796900489
0.018142741062030128
0.0183922109885816219
0.0206026057296240135
0.0200371709836251015
0.0193824583002429086
0.0186970685488028997
0.0188652445587363486
0.0208956865072368221
0.0204358060628787169
0.0199246300579448664
0.0193970146521735103
0.018751589098609113
0.0212657374968324049
0.0209081044707001597
0.0205569089600010288
0.0202470904691678527
0.0201197759413317481
0.0216064284106364558
0.0212954504601299208
0.0209814630665278272
0.0206969104715957301
0.0205077729693055669
0.0219754510914952246
0.0216909325695884905
0.0213474003443902688
0.0209267668920250852
0.0204154749102304044
0.0159784331243759299
0.0157525211434094946
0.0154650523381669215
0.0150839336588407587
0.0145555636900397498
3.04893928639413965e-05
1.40942969659750846e-05
0.000195910953069834925
1.78315319561366135e-05
0.0169775666951856655
0.0191839905366539831
0.00436370392104467458
0.000813208163580509324
2.3456667589604864e-05
0.0188319323167287778
0.023115085508443052
0.0117305847916096689
0.0031982316986618989
5.8013155061049404e-05
0.0215139218523572769
0.018558099730716298
0.0183213639755859317
0.0102177083220900446
0.000625059824614574507
0.0228766721864680223
0.0186206026676523327
0.0155244327122674285
0.0158404771993339404
0.0060170332957110214
0.0216753463773339539
0.0212058861812736664
0.0183769717511747081
0.0208839827277419454
0.0116156668147526215
0.0210034115963111633
0.0206287633895094052
0.0199414713760601922
0.0196201310769661616
0.0160578852247230085
0.0206061244964021902
0.0200852381398760917
0.0193213591555768983
0.0186505698704859182
0.0184308993437347808
0.0205349823804353813
0.0199361103071786332
0.0191505793660440536
0.0184112946264913986
0.018184560120194173
0.0206940849489971462
0.020135729038372404
0.0194609550724180007
0.0187177333616648095
0.0180943735635862649
0.0209658559583583565
0.0205075212928845368
0.0199673492801007643
0.019358586092700053
0.0186113441931885192
0.0213039003118949619
0.0209535905661468215
0.0205995174012658551
0.020250503393678447
0.0201018783831538456
0.0216213846003793266
0.0213170664257261583
0.0210115751823970569
0.0207458502347160172
0.020636934724523881
0.0219592730672525001
0.0216734649115489439
0.0213278400478772792
0.0209099388627514218
0.0204123809269155486
0.0159012720869919702
0.0156627736843552579
0.0153605401581874742
0.0149614558720291401
0.0144171222295497135
2.93004536048362561e-05
1.46384663383271218e-05
0.000183045709713528946
1.85990924471292494e-05
0.0178369574754004105
0.0189508465165863157
0.00369411319603471771
0.000720752837370453969
2.42951503940056092e-05
0.0200355604897807932
0.023863458367255494
0.0118111853502070128
0.00389186836200193943
6.00262440281465983e-05
0.021986970603536396
0.0221369429505847252
0.0164149226491978328
0.00721172974103941739
0.000956126416395031479
0.0232199289228019953
0.0198775930377524113
0.0164706961747808599
0.0125247319804812317
0.00495695842322848267
0.0223086280600372187
0.0222318706414352599
0.0214015187762923893
0.0196764945342234841
0.0123195171784091541
0.0213238679319192152
0.0210971899597805629
0.0205343994503169036
0.0197682751393816816
0.0184406394279252768
0.0208195660492314534
0.0203242140979616286
0.0195342623760373021
0.0186682677128191428
0.0182753493285603905
0.020686069956911371
0.0201030268752525297
0.019284785093039044
0.018521586177059006
0.0177944331945327286
0.0208133316573801443
0.0202606806631239339
0.0195650306083130776
0.0187593334438373796
0.017611493675086954
0.0210639272148205464
0.0206108842624646328
0.0200521011068036346
0.0193732776219818076
0.0183682572623810429
0.0213800107330669488
0.0210330129124535713
0.0206771812347193648
0.0202933135966166765
0.0200813318252636673
0.0216661838929929525
0.0213683434363522301
0.0210716248019778736
0.0208044033645630316
0.0207843168077692583
0.0219728398197265064
0.0216893290493983988
0.0213457230379711892
0.0209293527137051211
0.0204448843398618817
0.0158541808797940005
0.0156086887730518663
0.0152968202793766252
0.0148858758322722873
0.0143308119867547306
2.95620617578703826e-05
1.4828020464675745e-05
0.000182654758175240231
1.85299617834648733e-05
0.0174803052528711804
0.0192532190423358382
0.00390155668279191853
0.000693682205196543612
2.33181053774564651e-05
0.0182075779074399521
0.0207383496810921546
0.0159215050278451037
0.00229759979058647128
5.00613719944919056e-05
0.0217978251501357405
0.0238609118401734849
0.0190378698383253421
0.00439836327009426268
0.000443927598657807186
0.0233577759947477537
0.0240608415818888317
0.0221501692341462622
0.0147258316617814664
0.0124360249964920889
0.0227069880593257709
0.0227156094958898512
0.0221872866653159452
0.0212632696708944351
0.0211219900423941231
0.0216751320485624073
0.0213760289919012331
0.0205509742478054251
0.0191378281908787633
0.0186848817664947986
0.0210304483097758996
0.0205572180700042025
0.0196966399855290353
0.0188000485360443614
0.0184059543185722402
0.0208315124609875883
0.0202885073543647917
0.0194949205877648461
0.0186393911616932542
0.0177371562308244884
0.0209379894391695902
0.0204062096741140196
0.0196883246767931876
0.0188080679815328805
0.0174122764767971165
0.0211815613308020609
0.0207361035313081248
0.0201751627079688502
0.0194178699384712772
0.0183081397776028165
0.021473993486350814
0.0211410150469782121
0.0207728078248889461
0.0203328151417502545
0.0200292223661036224
0.0217326787709171028
0.0214424483813215258
0.0211452070606410435
0.0208500449168446192
0.0207157745929013072
0.0219990045744966889
0.0217235057254850719
0.0213869006218483579
0.0209676216206051008
0.020454728138587959
0.0158272753610358176
0.015579504086138082
0.0152640310085529318
0.0148473793838671715
0.0142823442511506912
0.00135104356410554712
0.00100463747174118307
0.00159024487959012598
0.00115532707339234758
0.00610575461702736032
0.0039575101201117114
0.00382924741388023957
0.00330122136706925435
0.00239172261499841308
0.0121208136403032837
0.005594345349154475
0.00367947551346820261
0.00324000031749965313
0.00309489455155134404
0.0200319280437163613
0.0146549599992920523
0.00834044260813137511
0.00428773281426025107
0.00269772802023010528
0.0172558017412753444
0.0120834222974191465
0.0106617956727192223
0.00619055984315142627
0.00361972937206236868
0.0202283635404471689
0.0187294345788859458
0.0144355733514181031
0.00825329408818465705
0.0051080404514841117
0.0201045821971602041
0.0192783239055252936
0.0170320529925754721
0.0108066343663369441
0.00700220398670666714
0.0204799251106841489
0.019540877952911484
0.0184178692141680929
0.013737297886732773
0.00963618225381776723
0.0216344026897976154
0.0212698076058395122
0.0205213273649073394
0.0175329301921060415
0.0129156210071756563
0.0219960291172235575
0.0218323686623924963
0.0216481291663715367
0.0208028653896541772
0.0176074445074639631
0.0225461571096763833
0.0224648307600775511
0.0223939094592289743
0.022380424906943381
0.0216776072602749489
0.0229241659809577766
0.022938931963372055
0.0229410027007747631
0.0229167866570185626
0.0228684698295489285
0.0228470368582141016
0.0228549195150668481
0.0232685570477241047
0.0233481533173023094
0.0234223997260036877
0.02347827637283861
0.0235137357184152275
0.0235531307930379602
0.023625749811248431
0.0234905810711391293
0.0235926638118611268
0.0237170171278316619
0.0238628404178649924
0.0240275156336120475
0.0242210037938284106
0.0244687570879692437
0.0178740501653744978
0.0181194494407696041
0.0184219665260204821
0.0188015845233204977
0.019289486812116792
0.0199443135494701482
0.0208709452640369331
0.0024949081931281516
0.0018319549918730724
0.00437333994167907799
0.00307853252005587915
0.00644512697316037067
0.00599954933075376538
0.00691011369938618596
0.00503626037590974851
0.00381016047948929673
0.0071275039122660486
0.00378307932292023781
0.00364532605208573628
0.00477612000837608804
0.00393361280824497395
0.0155067946021812796
0.00821427924664781817
0.00469385821685074089
0.00319081157280015062
0.00287542644053913983
0.018993645291587407
0.0131289083320810136
0.00690704942050439016
0.0045831735883617216
0.00466642767196008383
0.0212668687526759888
0.0177968065853351294
0.0131344509212174918
0.00887283492681775234
0.00829778244894915397
0.0196491565052214906
0.0195028897736950618
0.0170140120849039539
0.0127395958142869359
0.0108569831499232255
0.0198801688455669118
0.0189640527355916452
0.017309094936067651
0.0149222213510276577
0.013174412620175031
0.0206409029236863939
0.0197983815601032558
0.0184090275107719054
0.0164864829267141258
0.014612808614563098
0.02138232725448053
0.0208337234920739078
0.0199067803409877578
0.0184260438959218849
0.0166893506492409166
0.0219666619425033932
0.0216332512605494423
0.0211101295261871269
0.020309800784204312
0.0192141133871033265
0.0226714185277169973
0.0226252466207620372
0.0225248238905731632
0.0223351181794105985
0.0220272841733175143
0.0215660558335452751
0.0208751900076705049
0.0230151528504393167
0.0230249055449352341
0.0230166338944896506
0.0229684645998086863
0.0228571327308439258
0.0226588987093779108
0.0223358934439858853
0.0233407421878369659
0.0234048643399268029
0.0234775457398577435
0.0235537526676489438
0.0236234007920526831
0.0236736578787026392
0.0236938365609949617
0.0177752524692462166
0.0179970380965503302
0.0182683284293841224
0.0186062181323337315
0.019036732163282076
0.0196000755213873688
0.020359500761162632
0.00574413949392470289
0.00442697164825270589
0.00778049298315084282
0.00728974033096824875
0.0112043515972789776
0.0146498056443564902
0.0116214675700257904
0.00493336736096646172
0.0022866742212422071
0.00894244890027698358
0.00720182154142225573
0.00944494336364650085
0.00700472807705510622
0.00452951465970590373
0.0123450797963038789
0.00643946610613207147
0.00434097377330876135
0.00510510382452398007
0.00675047829385475202
0.0137091672063602635
0.00890216024932560628
0.00481888040259918424
0.00410532731685808467
0.00510248830350781835
0.0177318392410631132
0.0138056394179624994
0.0108241149181593221
0.0102493569360099148
0.0109877657045671477
0.0204151345247404782
0.0194401729257884445
0.0182666773064513455
0.0166135923414441437
0.0145515800903932187
0.0202909960308506263
0.0195900822419859157
0.0182081193118459918
0.0167262840492769932
0.015751660806943367
0.0206148985604243176
0.0197757070683085706
0.0185289169109268646
0.0172211263741013886
0.016489201030915817
0.0211956913271463786
0.0205980707782104262
0.0196291594166916467
0.0183865696206087295
0.0173162845533413948
0.0217439532183451613
0.0213473802533970143
0.0207222284809058903
0.0198071867037414584
0.0187173096709581065
0.022523401805770369
0.0224440418476905615
0.0223001797264573386
0.0220551644266434865
0.0216716151437888367
0.0210961614973351266
0.0202621231433132779
0.0228769024032232336
0.0228548622931949962
0.0228056539673744708
0.0227051397300243492
0.0225255167672220036
0.0222371905738406768
0.0217862273209781451
0.0232302257941541419
0.0232652851028233888
0.0232994821604554717
0.0233248383035941052
0.0233286347157003471
0.0232926941164542552
0.0231896152169963031
0.0176747532214961943
0.0178661768731247367
0.0180954058082233339
0.018373873466379656
0.0187184940722882505
0.0191549386609083938
0.0197195081210491709
0.010210208925897123
0.00342468751132529291
0.00709369947279565698
0.00177199353129410455
0.0138610858327870533
0.0184179417576860044
0.0113254452454654916
0.00404383583257263059
0.00111786873106909323
0.0125426858000244456
0.0131086835689497548
0.0143706568273182702
0.00737077478984625879
0.00479370117077120798
0.0110214158990068582
0.0076923473191867443
0.00747290954382234893
0.0101385619910734307
0.0112251016657951268
0.0117744334930910671
0.00870858010789995682
0.00564837399472220818
0.00513657742743204269
0.00710196266719157615
0.0146800265845146265
0.0115340605115608445
0.0101540204437022292
0.0106717698944606663
0.00901697363693682724
0.0187078929882197702
0.0181628676581725539
0.0186786956324696343
0.0177461678836229354
0.0146756249861897201
0.0202951444789817165
0.0199273977121973631
0.0189851935181666424
0.018147267691550114
0.0172840876420578549
0.0206261381235322769
0.0199868986150220918
0.0190436153747103876
0.0182808317357714516
0.0181047586082677819
0.0210863663923371476
0.020568490849931266
0.0197554225395595306
0.0188041727989435997
0.0181299608147019939
0.0216012869718195839
0.0212138506244275889
0.0206149493677828081
0.0197735533097436571
0.0188929504898854954
0.0223978630104888776
0.0222958487744512636
0.0221299418638361833
0.021867857440973807
0.0214740228837219382
0.0208892816834324695
0.0200610711650842377
0.0227601114987187811
0.0227127806924940258
0.0226329713380373984
0.0224979112803412803
0.022281331041498275
0.0219570685863465301
0.0214702059671850604
0.0231236876724402705
0.0231319400479219756
0.0231321661612947684
0.0231146630483473371
0.0230650210795038009
0.0229624351510966627
0.0227723159138873109
0.0175427068723067008
0.0176952013914483744
0.017871625242421349
0.0180772737804477356
0.0183196964551247295
0.0186099059765012856
0.0189601393670687408
0.00943239492252145872
0.000469029389959254705
0.00693538109090877011
0.000442418246065619464
0.013705198896605918
0.0141185786627634792
0.00778214844488258565
0.00328884933086811713
0.000468212495545317151
0.0137318495273234861
0.016385020526590667
0.0109965446496098924
0.00706246762274505193
0.00643230906405299618
0.0116411214936032112
0.0103846829382995623
0.0118188089624855688
0.0134489324614301322
0.00762719777406742783
0.0119922064641685353
0.00972801598880995537
0.00923202455534096952
0.0101302030196702385
0.0127081664198215507
0.0140685206841612755
0.012286349933152951
0.012479567173769501
0.0127917477678879156
0.0114552310826644254
0.0182034687220357198
0.0180977143144250216
0.0191329778600419012
0.0179321332588082381
0.0136856645334165177
0.0200466637038002639
0.01982447397413694
0.01919859805046455
0.0181100195720303829
0.0161384526096980639
0.0205814129166851066
0.0201090135535578543
0.0194503702223123645
0.0187401072595752977
0.0178116645662007161
0.0210443096126491994
0.0206022774409656655
0.0199322111910883899
0.0192187888831629045
0.0187659417918493478
0.0215438869165425796
0.021184922235449169
0.0206333086102679121
0.0198883188505958215
0.019238509580433813
0.0223223665693840778
0.0222087200544323626
0.0220380293364329793
0.0217847960682947435
0.0214152734285842673
0.0208657931446413376
0.0201152014831120877
0.0226740948569132891
0.0226109120199721528
0.0225147995329237488
0.0223668061638433065
0.0221457795562209937
0.0218272382307512711
0.0213533583729496462
0.0230301842476310845
0.023016788012607748
0.0229911383626309543
0.0229436938840102099
0.0228601798491627484
0.0227216432796415076
0.0224917408669566624
0.0173906899142864564
0.0175004628593916807
0.0176205246950528992
0.0177511917978579563
0.017892703550392193
0.0180449984175851362
0.0182020313103695118
0.00421561464862039645
0.000121705566217790795
0.00516696320007106226
0.000156270328465691786
0.0101942653833787533
0.00889982746867375163
0.00431804869289684982
0.00154622589328046937
0.000209686385882673984
0.0158114073194203786
0.0141916766045668934
0.00436904144329895976
0.00437326757134692563
0.00263066717379053855
0.0148062966623226377
0.0121421824690376365
0.00860770400825743368
0.0143309325546009513
0.00323513663802810214
0.0136568138139673296
0.011302065797945831
0.012742450706108471
0.0153148442380415511
0.0120175104820186909
0.0152787900032868972
0.015419387084930191
0.0171447324089381188
0.0150141932181076417
0.0117594052731129391
0.018451642287504233
0.0189378259893029748
0.0185433250184525687
0.0168196547940487329
0.0132203317227685638
0.0198906969575085649
0.0194776934600954417
0.0184110143837152782
0.0173249816670269091
0.015242336455175776
0.0206092924749952146
0.020166307324840458
0.019157975747135448
0.0181078257384332357
0.0169973832151898048
0.0211069469612962315
0.0207467080503578906
0.0199522999833912605
0.0188301438401350142
0.0177905245866309888
0.0215742238943967164
0.0212554286457286509
0.0207556200691997352
0.0200778515993390479
0.0194394386269466091
0.0222963668267167903
0.0221837208854009614
0.0220233138237383962
0.0217959141881550744
0.0214723027068684791
0.0209879616038692977
0.0203374882042364757
0.0226228422828443285
0.0225517966660091287
0.0224508872109959144
0.0223068453330019616
0.0221063349811771552
0.0217964308900107998
0.0212832431709697248
0.0229535386974169565
0.0229238133479835737
0.0228800696600870261
0.0228144299132907701
0.0227147080295427087
0.0225438817214665133
0.0222305942354142569
0.0172291337203409334
0.0172959148892492323
0.0173611844585838115
0.0174219055633031972
0.0174736710546224902
0.0175066072616587749
0.0174868461377867893
0.00115626970457459498
2.69544555283874206e-05
0.00284329429550880591
4.19331812642922925e-05
0.0164590591360305322
0.00724185411915657072
0.00258139670775826358
0.000774265539461833387
6.95686545248363298e-05
0.0187331185877825691
0.0067526557813037888
0.002477025371798015
0.00241214331475599585
0.00152492561506539608
0.0154372496180449591
0.00725372881009360079
0.006280077169013654
0.00828541468278376839
0.00221837091640595622
0.0157431459456609003
0.0123805611166471624
0.0112042091303505426
0.0123986868167071385
0.0105199141182275649
0.0161906924083460371
0.0165926867141952608
0.0172817130645122122
0.0158342906291767081
0.00715685146454748868
0.0183338384685984464
0.0179894470791922625
0.0171661597245931184
0.0160035786017919922
0.0129947859856239158
0.0198742321481222596
0.0188790354642274782
0.0175907640555434813
0.0164854811603502779
0.0158108480236933656
0.0206020451183188402
0.0196900825956045321
0.0184417112631232866
0.0174428168674872729
0.0167776193324127194
0.0211393417959543951
0.0203922529364875052
0.0193324364844009097
0.01828485390829903
0.0175078182622984482
0.0216086614655749167
0.0210810499463485734
0.0203343718810952458
0.0195718339189555439
0.0190916093769964018
0.0223204014996253204
0.0222150773771608544
0.0220272316711837002
0.0216648896187484688
0.0211484233379870962
0.0205462799893384694
0.0199399588892602876
0.0226056632844974931
0.0225324278843880219
0.022406528031821759
0.0221588936775727503
0.0217954910929936893
0.0213517371803673625
0.0208069904496631618
0.022895502023928628
0.0228540471445739073
0.0227923135545683962
0.022650394680628648
0.0224081210319642746
0.0220888179118974987
0.0216642430563920331
0.0170672554565813074
0.0170934069026798877
0.0171087837127987842
0.0170999603439650032
0.0170518961710579564
0.0169537066377730382
0.0167780490949430913
0.000330860600710077371
1.59313568113614736e-05
0.00172197433237745588
2.22268463864529185e-05
0.0145728644816762055
0.00591770110657863137
0.00290870680520148367
0.000396292101692651228
3.75977622092162338e-05
0.0151526090932958026
0.00475808332646319391
0.0025138798385455725
0.00363309012248773291
0.000606424403238859668
0.012692808357283078
0.00898439768736378382
0.00736773226030046878
0.007135356887044959
0.000701020783955824201
0.0159498914298419892
0.0161266034829321003
0.0140575835512305614
0.0141681157633139505
0.0102719152851348042
0.0168223146640936946
0.0168894146365554734
0.0167069601210221193
0.016942227134159743
0.00834546193508139966
0.0184747866813253329
0.0175259682142895751
0.0165691617535868099
0.0161640749440042676
0.0138450226674761336
0.0196586824300112491
0.0184065961238649642
0.0172014956990539369
0.0161735853033183087
0.0153492068961892485
0.0202893782685518165
0.0192301018015196487
0.0180858466007723963
0.0170343028635531885
0.0165108574155978863
0.0208124707822767915
0.0199797894774256558
0.0190145286994620952
0.0181183874823107431
0.0177136825019388704
0.0213025030131521395
0.020694071493660593
0.0199798691289302215
0.019261378998275111
0.0188144872726532068
0.0223585234982598934
0.0221168064838655615
0.0217512512320889549
0.0213162148452252891
0.0208201150262878956
0.0202960242133773776
0.019879243333712146
0.0225940255139106989
0.0224207926418990185
0.0221573527553737964
0.021838762064737692
0.0214681308320791644
0.0210526204523698718
0.0205911593724634641
0.0228487021218039543
0.0227466582371783736
0.0225785257989653959
0.0223596414730591886
0.0220782867943049368
0.0217211480547710375
0.0212617894975112229
0.0169116690925020345
0.0168936292792353816
0.0168488274700090597
0.0167728511092154683
0.0166539965232715068
0.0164732378421200074
0.016192479026582187
0.000769468396104384033
0.000448300419510681836
0.000529304706935259219
0.000391236655783121104
0.000645620426045008695
0.000434833624615840958
0.000352509159218149714
0.00081623613900779911
0.000553791929436074529
0.000420675708931946479
0.000363854268055829747
0.000235625669333798559
0.000145567193694876284
0.000333856819247394584
0.000182953669314636641
0.000881055627866112346
0.000403541288775163766
0.000206555665467913905
0.00132875162523088267
0.000731024712049900853
0.000479645833422317656
0.00025817177913698932
9.20507693923497454e-05
5.17762233130919362e-05
0.000107013694065128626
5.51137390571465624e-05
0.000277612865766661701
0.000114055768263630317
5.5607699280945572e-05
0.00129830914257085452
0.000278954404525936009
0.000105016413027769523
5.56172842242164074e-05
2.61433012178141805e-05
1.6416969468822986e-05
2.85444563068658749e-05
1.9881307033110997e-05
6.3912054404229691e-05
3.00455786239743479e-05
2.45247275233535363e-05
0.000228409213559599178
6.41921137305215939e-05
3.36353240789440588e-05
3.16776769752280678e-05
1.28160909934803548e-05
1.41811545256093326e-05
1.61997982333439108e-05
2.05048082984777638e-05
1.98900960914385656e-05
2.00269368781039909e-05
2.78949041860198435e-05
4.86125123099731185e-05
2.33573677276405709e-05
2.61257362999295264e-05