/*--------------------------------*- C++ -*----------------------------------*\
| =========                 |                                                 |
| \\      /  F ield         | OpenFOAM: The Open Source CFD Toolbox           |
|  \\    /   O peration     | Version:  2206                                  |
|   \\  /    A nd           | Website:  www.openfoam.com                      |
|    \\/     M anipulation  |                                                 |
\*---------------------------------------------------------------------------*/
FoamFile
{
    version     2.0;
    format      ascii;
    arch        "LSB;label=32;scalar=64";
    class       surfaceScalarField;
    location    "0.0899999999999999967";
    object      phi;
}
// * * * * * * * * * * * * * * * * * * * * * * * * * * * * * * * * * * * * * //

dimensions      [0 3 -1 0 0 0 0];

oriented        oriented;

internalField   nonuniform List<scalar> 
20789
(
1.70615702989445483e-05
-1.7054627232625017e-05
-7.64057420781818966e-07
7.57114358898878683e-07
3.55607070024191251e-05
-1.84885855260991195e-05
-8.1691484466513328e-07
8.06476122778736701e-07
5.43770857327455196e-05
-1.88015933506607377e-05
-9.0584644634084987e-07
8.91149256394182436e-07
7.41563552422958385e-05
-1.97573165138756768e-05
-1.05030930058623297e-06
1.02842598429044018e-06
9.52992059339696079e-05
-2.11089862066476896e-05
-1.26033868175054388e-06
1.22652030117029881e-06
0.000118425371531227745
-2.30724900562211875e-05
-1.55580354656976174e-06
1.50214678923939183e-06
0.000144267299292038316
-2.57557568049147502e-05
-1.96330221835816419e-06
1.8771215613950341e-06
0.000173444400671242388
-2.90304721115363153e-05
-2.52894725539244396e-06
2.38228103725526627e-06
0.000207153038598059685
-3.34708681771735605e-05
-3.30778146477698121e-06
3.06994990836282468e-06
0.000247613353808208089
-3.99460363485968484e-05
-4.4046801220441906e-06
3.89031702603595271e-06
0.000291251410734467183
-4.27718462163809583e-05
-5.90731581039080293e-06
5.04100412480927627e-06
0.000351135934682924515
-5.7052740000090239e-05
-7.38028863342108977e-06
4.5484022172695363e-06
0.00042640200413660435
-6.75777092234198677e-05
-1.11166418762062257e-05
3.42819511996620141e-06
0.000477597998487885541
-3.98967599637860799e-05
-3.28220025284068511e-05
2.15226824193981221e-05
0.000407151903686926958
6.84311896999793536e-05
-7.83223157086080735e-05
8.03370766991925566e-05
0.000217234455935333989
-0.000229338565011799546
0.000419255777953468352
1.7135906236538629e-05
-3.4179339310772519e-05
-7.65467506341202755e-07
7.5453212962613598e-07
3.5278805845823837e-05
-3.66170792013518625e-05
-8.13463428231237798e-07
7.99343692920147146e-07
5.36306621934087561e-05
-3.71348966778633355e-05
-9.00063423646879753e-07
8.81729042598500418e-07
7.29706444808757044e-05
-3.90715098980718033e-05
-1.04020736603538824e-06
1.01456385739693538e-06
9.3831536756666732e-05
-4.19321251775122336e-05
-1.24478487165010308e-06
1.20709214492604157e-06
0.000116645554893864139
-4.58280243483627178e-05
-1.53283624843706069e-06
1.47432388953533346e-06
0.000141921901266985832
-5.0938241648300002e-05
-1.93163664801488726e-06
1.83766035481503709e-06
0.000170639046058753319
-5.7594581402067296e-05
-2.48992369565087299e-06
2.33669411793446808e-06
0.000203163983545923111
-6.57227490788613906e-05
-3.24261781310495354e-06
2.96929755917212073e-06
0.000242508864208200204
-7.87286495514564138e-05
-4.34670064757592369e-06
3.78412183179590774e-06
0.000287126731754883428
-8.6356303152305096e-05
-5.72702920826627967e-06
4.69330397783137803e-06
0.000344950670602649646
-0.000111524084474494807
-7.70690520011025074e-06
4.35403918306080055e-06
0.000420228925206759434
-0.000136372657006219233
-1.49404574148885819e-05
8.45690954172864576e-06
0.000483780967423955675
-9.65397269175666186e-05
-4.20916428176204907e-05
3.5182208353468799e-05
0.000458091691835733601
7.48315511181107447e-05
-0.000112884815669694831
0.000132173085450033276
0.000469321260076247242
-0.000312850286663359921
0.000518854475644846985
1.71521249625047683e-05
-5.13157345342546816e-05
-7.67076020409704092e-07
7.51545417384148845e-07
3.49653131929674048e-05
-5.44116646579139574e-05
-8.14701378327362913e-07
7.96334629308743662e-07
5.32205683488783723e-05
-5.5367704018896864e-05
-8.99482207036927212e-07
8.77217439841609703e-07
7.24444402409520777e-05
-5.8265813145447181e-05
-1.03671225967816281e-06
1.00726911972854e-06
9.31242347680849754e-05
-6.25703128006730781e-05
-1.23698025992855928e-06
1.19543154821342806e-06
0.000115713483596175049
-6.83539961909383623e-05
-1.51919950808714054e-06
1.4559097256603161e-06
0.000140739463873888434
-7.58633518697102507e-05
-1.90921640295638561e-06
1.80826445558142335e-06
0.000169032586705819511
-8.57214142393219092e-05
-2.46070810680924466e-06
2.29427143787925349e-06
0.000201169708771049567
-9.75566587607600656e-05
-3.18348428122237044e-06
2.88006621656566641e-06
0.00023925089717916786
-0.000116161575910078376
-4.34457676609875184e-06
3.69606861068192666e-06
0.000283005605167809438
-0.000128829021875189603
-5.42288156741675624e-06
4.14064505104839931e-06
0.000341552302732062412
-0.000166447689504333634
-8.10353256132172287e-06
4.48022726478029576e-06
0.000417182215756222992
-0.000205645035260118244
-1.86976317243963053e-05
1.23398947184581524e-05
0.000471362558019868937
-0.000146602377244196727
-5.39125078794622356e-05
4.97944723949928246e-05
0.000435492999922874966
6.88302489768388644e-05
-0.00013517713109961109
0.000177047378332528176
0.000683207178591768455
-0.000349819003562437203
0.000571425544768923085
1.70537754145536327e-05
-6.83484259451284693e-05
-7.69876841349369524e-07
7.48980507036696816e-07
3.4539596894931508e-05
-7.18738895147069088e-05
-8.17119191903171145e-07
7.93753912372847519e-07
5.2598759183348904e-05
-7.34000556614904808e-05
-8.99956191725096486e-07
8.73328144473862831e-07
7.16084993366348621e-05
-7.72419583711008773e-05
-1.03398323958080906e-06
1.00051761927279761e-06
9.20110459273477645e-05
-8.29272827061723291e-05
-1.22918746247381378e-06
1.18367727041664038e-06
0.000114254886096779184
-9.0529643812607325e-05
-1.50467160985010048e-06
1.43647881915789188e-06
0.000138869380869393114
-0.000100370528474127648
-1.8836601608479403e-06
1.77627566272718992e-06
0.000166558967812038627
-0.000113230502921650151
-2.42556568259250583e-06
2.24493714758452098e-06
0.000198059551728468273
-0.000128722314738701984
-3.11815901335126534e-06
2.78304131055424289e-06
0.000235143395421912493
-0.000152499362775677586
-4.3281918311211376e-06
3.5819068719467859e-06
0.000277269060098728583
-0.000169429725889175123
-5.10125883147869223e-06
3.57607439459088767e-06
0.000336525414244303852
-0.000221702147972227027
-8.74745438305173583e-06
4.74536997424350678e-06
0.00041340749482805068
-0.00027435671652694608
-2.25194365352003478e-05
1.43488435589668521e-05
0.000459776955363883392
-0.000190140934032398618
-6.48110835828169236e-05
6.1979806594498926e-05
0.000414117566255876965
5.54581218480319456e-05
-0.000154595107942678606
0.000213625991167645357
0.000862975849025261212
-0.000369563948782161125
0.000603912427141138066
1.68485451177811471e-05
-8.51693173458574346e-05
-7.74271520592790468e-07
7.46807492955812051e-07
3.40078962795473669e-05
-8.9003650174098318e-05
-8.2112612909668911e-07
7.91774611894882579e-07
5.17863603058107085e-05
-9.11468220055231898e-05
-9.01722539150164015e-07
8.70217461725808101e-07
7.04947417333493215e-05
-9.59123148020081772e-05
-1.03228151956806734e-06
9.94398088526987699e-07
9.05298736427537757e-05
-0.000102912963766915049
-1.22159655004655596e-06
1.17222638740710932e-06
0.000112321381759327585
-0.000112248644246164039
-1.48871391217359633e-06
1.41622123906483461e-06
0.000136384767029323412
-0.000124321246968402615
-1.85475590704036265e-06
1.74203711652940276e-06
0.000163326935548055056
-0.000139980228700526126
-2.3836393669345863e-06
2.19107708094501174e-06
0.000194122007676563699
-0.000159153330869543988
-3.04402375574167717e-06
2.67978491928971765e-06
0.000229908455887129013
-0.000187436393693112398
-4.29042600578135214e-06
3.4407888482106384e-06
0.000270315646720100517
-0.000208165182495457151
-4.81237641621263986e-06
3.14043341755176999e-06
0.000331785618233896879
-0.000278883690930386749
-9.34568544489789757e-06
5.05708633328863464e-06
0.000406890968471126187
-0.000340006254499864769
-2.63202516854348212e-05
1.68642547425724714e-05
0.000445503040289484998
-0.00022770402304259584
-7.67274092131289576e-05
7.56780295726673159e-05
0.00039528212367341835
4.61923164816544353e-05
-0.000173701830529222445
0.000233187945445894414
0.00103072752297217528
-0.000385826140998311146
0.000613356321611600972
1.65617272770072598e-05
-0.000101694931149800215
-7.80796524924934879e-07
7.44880274878235389e-07
3.33628109608152075e-05
-0.00010576772473906949
-8.27113082940703471e-07
7.90356113584829901e-07
5.07892271248143353e-05
-0.000108535892913679536
-9.050481580105299e-07
8.67910992403996222e-07
6.91155419643102676e-05
-0.000114195340588654095
-1.03196484542813183e-06
9.88834913217168318e-07
8.86973558753086544e-05
-0.000122441384781633628
-1.21438521824076946e-06
1.1610919593626338e-06
0.000109937143309238392
-0.000133411835617056236
-1.47179947314959081e-06
1.39523726807517108e-06
0.000133315426468930056
-0.000147583695764345673
-1.82215978032691607e-06
1.70628935490935806e-06
0.000159398673900068582
-0.000165858330720758813
-2.33298083626934789e-06
2.12772596709407216e-06
0.000189090261608314351
-0.000188465626060396686
-2.95634074719492396e-06
2.57687063450418179e-06
0.000223375455299937368
-0.000220780739456537814
-4.23058517903021061e-06
3.28952494112082773e-06
0.000262444804293465294
-0.00024556180311979017
-4.47807773687139793e-06
2.80515592571219202e-06
0.00032474662322454044
-0.000336923335011412369
-9.96965761414420588e-06
5.70733193086427935e-06
0.000389292714300187696
-0.000396425862036431115
-2.94278223798454978e-05
2.13011681194982506e-05
0.000422577060243029684
-0.000264620162414468075
-8.6320438716089526e-05
8.99518456563197706e-05
0.000376574378701361031
3.84385409735604495e-05
-0.000189526811852453375
0.00024328274853654814
0.00119608361327420087
-0.000404378405571864121
0.000615596514350896773
1.62060454850691722e-05
-0.000117853961048908055
-7.89951692774264823e-07
7.43143914245384154e-07
3.260430293023856e-05
-0.000122119212322621332
-8.35672140833419273e-07
7.89170560105814888e-07
4.96153861771464456e-05
-0.000125502979354288441
-9.10262070107441726e-07
8.66492376889674454e-07
6.74854518533942957e-05
-0.000132015385931701963
-1.03361020381327148e-06
9.83770494155562384e-07
8.65340171903459707e-05
-0.000141432497093268577
-1.20785048291783586e-06
1.15052009465611519e-06
0.000107129110070239799
-0.000153926055176376681
-1.45462810405731226e-06
1.37381099147263045e-06
0.000129712968885702633
-0.0001700518052415383
-1.78580471456641968e-06
1.67003749100804983e-06
0.00015481303173462099
-0.00019074460117123721
-2.27349503574361087e-06
2.05960418058952822e-06
0.000183085029374612565
-0.000216367185544232753
-2.85328029162015098e-06
2.4826707644299084e-06
0.000215658849849208612
-0.000252388568637689002
-4.12491706014301107e-06
3.15872364851203835e-06
0.000253301031073886729
-0.000281762047659266741
-4.00106091555107063e-06
2.55895046112627922e-06
0.000312565695852650132
-0.000392148283550903718
-1.02863141022462568e-05
6.24647303504093281e-06
0.000366823867874308072
-0.00044455438934062441
-3.08946930922357707e-05
2.47649026211815555e-05
0.000398138597375332715
-0.000301545437159356959
-8.79327225847118302e-05
9.35429507870911008e-05
0.000352023030155885412
3.21829261027318939e-05
-0.000193600429385832381
0.000245971168242023279
0.00134404041166995909
-0.000415914857597102737
0.000619980827992548666
1.57897337010713108e-05
-0.000133582468432908683
-8.02202597679479157e-07
7.41196012234661934e-07
3.17359538686331417e-05
-0.000138005454630191774
-8.47688994301657383e-07
7.87996144200899807e-07
4.82738974751981251e-05
-0.000141989189841097512
-9.17738346099650984e-07
8.6625293034136053e-07
6.56199612171242297e-05
-0.000149302241678219485
-1.03813496799473533e-06
9.79131535096359331e-07
8.40623536210547974e-05
-0.000159813344184595263
-1.20244354483711176e-06
1.14104693274098924e-06
0.000103927348601922607
-0.000173705498509698329
-1.4380795884681944e-06
1.35260957205375099e-06
0.000125622642477268663
-0.000191633320473938375
-1.74700262468614598e-06
1.63322670834655187e-06
0.000149594820048750603
-0.000214501900506460332
-2.20452804031058908e-06
1.98956435304350462e-06
0.000176531866983024226
-0.00024296729705251409
-2.73137435763353984e-06
2.39427669919204986e-06
0.000207285079745428283
-0.000282219903823750166
-3.93039161401943005e-06
3.00832682138345886e-06
0.00024249873188328524
-0.00031587228508457479
-3.49186405858033725e-06
2.38830201539303713e-06
0.000296538288208086139
-0.000442751651331189792
-1.00130202053038799e-05
6.57674226867490111e-06
0.000343754518421362902
-0.000486654729059271497
-2.98204775435135922e-05
2.47044759231288239e-05
0.000374422445261266619
-0.000332688440477834258
-8.54085182228075273e-05
8.5883388809560588e-05
0.00032663618778902521
3.66096092671796235e-05
-0.000192593083584260462
0.000235952256066390226
0.00147869616300109292
-0.000417741959825519856
0.000609721994425754658
1.53191798788388581e-05
-0.000148821533265519271
-8.18258532891441817e-07
7.38374321896695036e-07
3.0763218397925216e-05
-0.00015337126325951398
-8.6458588869754328e-07
7.86655150553937697e-07
4.67751802589028888e-05
-0.000157940782730820828
-9.27920743755239148e-07
8.67818684969861184e-07
6.35354267018622872e-05
-0.000165989954907779191
-1.04704084230461806e-06
9.74736035058197856e-07
8.13065735040179814e-05
-0.000177519165659703951
-1.19877963766761189e-06
1.13363022738221821e-06
0.000100365570929380587
-0.000192671103235865737
-1.42409625191209895e-06
1.33081258198276429e-06
0.000121084696816798539
-0.000212245878380382818
-1.70410055603752845e-06
1.59755824307211363e-06
0.000143828177157277
-0.000237036529720821012
-2.12829299972855054e-06
1.91937251911633377e-06
0.000169250144431985734
-0.000268096437625493301
-2.59068742078039785e-06
2.29771256501516632e-06
0.000197853135895895941
-0.000310049841519128319
-3.61858782385960117e-06
2.84536783758540735e-06
0.000230312196893858165
-0.000347589419015162501
-2.98650379456503462e-06
2.24446138314228042e-06
0.000279030472319368719
-0.00048858196671550645
-9.21055583687926663e-06
6.32254480549336433e-06
0.000321489742893195688
-0.000523694485331236033
-2.74008904463041297e-05
2.19812997068718099e-05
0.000350881803024755568
-0.000356712974271289102
-8.25229946694381981e-05
7.71553942822778905e-05
0.000299556084324395424
4.93521137278580884e-05
-0.000191867382685753012
0.000230450119393384655
0.00160267922757254466
-0.000422718294269922327
0.000598290809490517172
1.48002728614349583e-05
-0.000163516199031074524
-8.39715741886286161e-07
7.34346846095008299e-07
2.96919726651150575e-05
-0.000168159229531404382
-8.88195540679572357e-07
7.84768469549845678e-07
4.51304652926408863e-05
-0.000173309926685641353
-9.41448236903691255e-07
8.72379992888570124e-07
6.1248441789416079e-05
-0.000182015194247839627
-1.0627625013545818e-06
9.70273445885548351e-07
7.82925157396088583e-05
-0.00019449516178060317
-1.19768436722982685e-06
1.12980739422597283e-06
9.64775433547338646e-05
-0.000210750078513284063
-1.41626161319339528e-06
1.31034529468891006e-06
0.000116147496922121884
-0.000231819512845815888
-1.66231909112069231e-06
1.56604990920323519e-06
0.000137559538230769919
-0.000258249677672575228
-2.05111337791471032e-06
1.8521703474353359e-06
0.000161333680208421458
-0.00029162779639641212
-2.42910987632580063e-06
2.18619915597782789e-06
0.000187546066365381232
-0.000335647819200407223
-3.31108594080081182e-06
2.69653948192829718e-06
0.000217168350627237563
-0.000376778501059402767
-2.47104532928139423e-06
2.03776098927659145e-06
0.000260535010503268284
-0.000529538262052022305
-8.10474136747638013e-06
5.69435267691624647e-06
0.000296896386331026141
-0.000554287697013796385
-2.51414734607521598e-05
1.93732761946794478e-05
0.000323127027024438986
-0.000375364795822349636
-7.88315290868541537e-05
7.1252684622814401e-05
0.000271175090247779862
6.5730518676731511e-05
-0.000196083113911308662
0.000231656125680049653
0.00170966883387793384
-0.000433009967898072062
0.000597194989290445789
1.42376321892133689e-05
-0.000177613010177688657
-8.68662383437392421e-07
7.28079525791983551e-07
2.85268148690541312e-05
-0.00018230917719589456
-9.21353696739645834e-07
7.82420489779065979e-07
4.33507794568367788e-05
-0.00018805602518377106
-9.59597859682692097e-07
8.82014402173965031e-07
5.87749315951951545e-05
-0.000197315735631763204
-1.08895896107472712e-06
9.65606144752697793e-07
7.50464607251841588e-05
-0.000210698248394452733
-1.20024936511491653e-06
1.1320250871379863e-06
9.22979876991359538e-05
-0.000227872643238996873
-1.41986680726483727e-06
1.29106299216576162e-06
0.000110861522155739837
-0.000250301544207615849
-1.62398328671736848e-06
1.54255311309934502e-06
0.000130860063234327067
-0.000278058505378226436
-1.97860542586614845e-06
1.78886470886559718e-06
0.000152844189192462575
-0.00031341320519166321
-2.25875106671092156e-06
2.05993363018103993e-06
0.000176559118107697221
-0.000358876139084840268
-3.00529838116928356e-06
2.5185867141701111e-06
0.000203513843743810497
-0.000403493651483891567
-1.9530675299054052e-06
1.71344666771850434e-06
0.000241655402130205345
-0.000565785099272701135
-6.89248936281808287e-06
4.9977771590967503e-06
0.000269612788113487035
-0.000577923255898599771
-2.22899067797280019e-05
1.79680883631053474e-05
0.000288479488947799255
-0.000387704652069601873
-7.27128522742674405e-05
6.61858642651753134e-05
0.000242479193891714052
8.00002225551880303e-05
-0.000195040240176430613
0.000226770354462624941
0.00179759463100087396
-0.000445514095621568217
0.000600067268650214623
1.36323429115103249e-05
-0.000191053808646063388
-9.08982425636155187e-07
7.17664777675659811e-07
2.72687474631700302e-05
-0.000195756064729764464
-9.68768813546280765e-07
7.79531665212286254e-07
4.1445676287372024e-05
-0.000202147395086657659
-9.84732270010336799e-07
8.99440594045922206e-07
5.61297658695883268e-05
-0.000211829163109827586
-1.13076688751183542e-06
9.60355810844528852e-07
7.15953873204510293e-05
-0.0002260998732553982
-1.20764353425595773e-06
1.1438681016911092e-06
8.78624686246105862e-05
-0.000243970601769730709
-1.44230923927194596e-06
1.27335674957119527e-06
0.000105281132477440744
-0.000267661863363479
-1.59302216016062853e-06
1.5347677752169965e-06
0.000123793452170241217
-0.000296376770161034823
-1.92320315774084549e-06
1.72914306787285151e-06
0.000143893104655706518
-0.000333372854212747323
-2.10376984698341348e-06
1.96369768557207537e-06
0.00016506579308849835
-0.0003797074070711568
-2.71349219061065759e-06
2.37200989178070719e-06
0.000189199735571782686
-0.000427441538769696746
-1.52134513101453135e-06
1.33528142505888871e-06
0.000223246151833466071
-0.000598696179037941931
-5.81355848451636175e-06
4.67826617198300541e-06
0.000242479415616376039
-0.000593909251564546533
-2.00986917995032553e-05
1.68514904285531133e-05
0.000258874594888354969
-0.000398848080436040356
-6.59960927844310678e-05
6.07440337131734203e-05
0.000214604224268326641
9.6160526970632198e-05
-0.000189350405386970704
0.000217459699594550374
0.00186787017834030974
-0.000441127651106706616
0.00058545639636352776
1.29744682476239378e-05
-0.000203761455467065813
-9.68593454006089216e-07
7.01972531074202311e-07
2.5906438827438128e-05
-0.000208426039964631132
-1.03686491948876055e-06
7.75106008214986367e-07
3.94206303932099011e-05
-0.000215569034441196161
-1.01988515505035125e-06
9.27561713820963545e-07
5.33265618769181046e-05
-0.000225491381252979517
-1.19475309349188958e-06
9.51260414773771773e-07
6.79695657826490292e-05
-0.00024069336408785277
-1.21880850694275299e-06
1.16949760054019649e-06
8.32091681381866239e-05
-0.000258970753982850352
-1.49388424980367284e-06
1.25459857871741991e-06
9.94665450934135076e-05
-0.000283899504934625091
-1.57201177842399663e-06
1.55237267440549747e-06
0.000116428985085821078
-0.000313102489879415026
-1.90142176910638967e-06
1.66471386781549657e-06
0.000134616293914504063
-0.000351471588096770944
-1.97453415906159776e-06
1.88592151175658403e-06
0.000153355024375027372
-0.000398209450504571102
-2.43861028085134589e-06
2.20190090269777106e-06
0.000174117725624337906
-0.000448069433873068761
-1.18184491459654025e-06
1.04706349826756335e-06
0.000202187533323659399
-0.000625734999057296929
-5.44091820257930577e-06
4.40999238092855819e-06
0.000216213808714391174
-0.000605681913299170724
-1.85180269738543004e-05
1.62644807733763633e-05
0.000228572118608055201
-0.000406051217485237656
-6.02130171814878754e-05
5.50574602423844442e-05
0.000189064805911518744
0.000118450634509365059
-0.00018188099870439017
0.000199097148165750307
0.00192314369717516893
-0.000428656001107561386
0.000562447797777287364
1.22136122465258499e-05
-0.000215593489224149236
-1.0592374519244405e-06
6.77816493864509356e-07
2.43936419687196878e-05
-0.000220240912519493553
-1.12812385057292817e-06
7.63136953747537229e-07
3.72723757286666768e-05
-0.000228351636594379569
-1.06390620266643995e-06
9.67939202374224861e-07
5.03771753324878496e-05
-0.000238245217723474469
-1.28444219945458608e-06
9.33641748926050403e-07
6.42007406113353769e-05
-0.000254499121469236949
-1.22894013322605086e-06
1.21128764197758096e-06
7.83795844175875822e-05
-0.000272790670874598139
-1.58640775697836767e-06
1.22761511560992661e-06
9.3477821192104415e-05
-0.00029903231654689592
-1.56679781993440736e-06
1.60145716132909302e-06
0.000108856813258327939
-0.000328140171812678978
-1.92533148696615594e-06
1.58404122734278147e-06
0.000125194784181573051
-0.000367756179720613561
-1.86798265620163527e-06
1.81459102611506012e-06
0.000141554602926487606
-0.000414371826574086379
-2.18454382166049939e-06
1.98710943042830105e-06
0.000158704578362348265
-0.000465194914122174594
-9.67774818632677281e-07
9.43324258022521593e-07
0.000181632577805390324
-0.00064706956791311639
-5.38255867591091707e-06
3.78918720398897145e-06
0.000190738123704954296
-0.000613340172965478074
-1.63400323600165281e-05
1.48927362446597873e-05
0.000197820023968615368
-0.000407477002120423088
-5.48927857062125912e-05
4.92363912250035524e-05
0.000166739648574431822
0.000146903348356386258
-0.00017850914005853425
0.000181135368875166218
0.00197371358308227321
-0.000418985873641240054
0.000535156979220425839
1.12361934539644622e-05
-0.000226264358774125779
-1.1891558266445955e-06
6.23931050613041525e-07
2.26778006531109864e-05
-0.000231192732867704855
-1.23240293731801324e-06
7.42701155897313836e-07
3.49934963049204891e-05
-0.000240567588951042058
-1.11638943147710455e-06
1.01672383102508032e-06
4.73027807617000859e-05
-0.000250109225832098505
-1.37725924280085196e-06
9.32061188743906015e-07
6.03019282090803347e-05
-0.000267509463638210482
-1.24206680662266283e-06
1.25334112163032286e-06
7.34303442758845679e-05
-0.000285417734812425149
-1.70176500151281042e-06
1.20048878066368964e-06
8.73483325722001304e-05
-0.000313008076503758063
-1.59551961117682607e-06
1.65334112636935636e-06
0.000101191659969307435
-0.000341483467028422889
-1.98918302947758863e-06
1.48916228387159388e-06
0.000115780048025949448
-0.000382285629930039666
-1.77432631754773403e-06
1.71539017073483225e-06
0.000129357912194300755
-0.000427799948261886251
-1.89102483480349764e-06
1.74130786973960822e-06
0.000142927292507454777
-0.000478859272871907352
-9.08596034095380869e-07
1.00362043308694996e-06
0.000161499546035451616
-0.000664507167793417669
-4.97063561676979108e-06
3.83602431486289628e-06
0.000171589400467608334
-0.000621513271461696191
-1.58174418286411727e-05
1.39006053535194876e-05
0.000164046470467721199
-0.000396942517625578151
-4.71911158950179301e-05
4.41995898950698927e-05
0.00014009652641953403
0.000177498639168880909
-0.000177646915793103297
0.000171000004743643693
0.00201538693744733556
-0.000412149567510794869
0.000510576247210796212
1.00122261240242751e-05
-1.33896279230360386e-06
4.65473430553871668e-07
-0.000235403065068616181
2.08360975811964785e-05
-1.33219658298995792e-06
7.2975677209821631e-07
-0.000241414176930239004
3.25816257397587469e-05
-1.20102494911504084e-06
1.03871233875540746e-06
-0.000252150827333105429
4.41569221197552096e-05
-1.4144507670883036e-06
1.00225645288807055e-06
-0.000261272351936058314
5.62554371634851563e-05
-1.29684755300486815e-06
1.2517291217048755e-06
-0.000279562880090096196
6.84388044852338932e-05
-1.78329236191442317e-06
1.21045360218826507e-06
-0.000297028274490559151
8.10778609473069732e-05
-1.71650320307324577e-06
1.62967938101258722e-06
-0.000325560321249860501
9.35028554622540948e-05
-2.05502874272805625e-06
1.41778256047642051e-06
-0.000353271234975328691
0.000106440926079051556
-1.70231052492035026e-06
1.53543244696159194e-06
-0.000395056824694172185
0.000116931053553876092
-1.54017673620466368e-06
1.54275523559454132e-06
-0.000438292628670058893
0.000127876608341368837
-7.62431465325973217e-07
1.17934563935313348e-06
-0.00049022171665953206
0.000141356040279576258
-3.82502081713658516e-06
3.04581229003978009e-06
-0.000677207373338099242
0.0001574142363690192
-1.78418557583584703e-05
1.57895379535378601e-05
-0.000635519194960518403
0.000136348357260581256
-3.7915734331031914e-05
3.79686342929430251e-05
-0.000375928364594307852
0.000115433434057235322
-0.000181833546075565495
0.00016147469729341766
-0.000405049769698895919
0.000485592604240513604
1.70275744247474581e-05
-1.70549126763573444e-05
-7.36584568039641561e-07
3.54895561939964433e-05
-1.84877791599276863e-05
-7.908955443081949e-07
5.4262263826250468e-05
-1.87991157975916192e-05
-8.79264985126116142e-07
7.39871550098156335e-05
-1.97517008581396525e-05
-1.02337492895522142e-06
9.50599075655887883e-05
-2.10982476969443122e-05
-1.23477691558829342e-06
0.000118092352639797416
-2.30530011727322072e-05
-1.53524414342750374e-06
0.000143805717699640166
-2.57198904457560692e-05
-1.95683705199239639e-06
0.000172814851281917817
-2.89821390269731729e-05
-2.55606222979830321e-06
0.00020627517473089982
-3.33807497185452569e-05
-3.38753033281765582e-06
0.000246444123112578143
-3.98919686346349594e-05
-4.68187763912156014e-06
0.000289649406345467153
-4.28235466248907709e-05
-6.28928527961867259e-06
0.000347881573505742542
-5.65082191264559483e-05
-9.10444757878524362e-06
0.000418785292950010139
-6.71236062086900042e-05
-1.48969361165288854e-05
0.00045538859446527354
-3.75268265736506909e-05
-3.18987122668229131e-05
0.000368480348518575567
7.60738101731064334e-05
-6.74883039772569552e-05
0.000257708680744344948
-0.000118567489107439789
1.71025498587925547e-05
-3.41809505381834573e-05
-7.4165527317571327e-07
3.52093692439734313e-05
-3.66165266242704534e-05
-7.91196516191499437e-07
5.35195295375262824e-05
-3.71317615766088925e-05
-8.77318606293333858e-07
7.28078554215703933e-05
-3.90627618676192036e-05
-1.01730160047250766e-06
9.36014476985164569e-05
-4.1912892004542761e-05
-1.22366519147324268e-06
0.000116325342854382412
-4.57923399681461958e-05
-1.51743436383283339e-06
0.000141478355512431346
-5.08731749604795545e-05
-1.93151440366665845e-06
0.000170032905369802215
-5.75059192636046964e-05
-2.5209435279067546e-06
0.000202318871521699612
-6.55520389176093545e-05
-3.35763175888197142e-06
0.000241307753749198187
-7.86048754130757644e-05
-4.62306667950600031e-06
0.000285542289354097443
-8.65506813293936229e-05
-6.23481498558268883e-06
0.000342022481739134247
-0.000111125145143913141
-9.57049708764677595e-06
0.00041722678014427788
-0.000139989587032707849
-1.72790681763549645e-05
0.000460678393575901046
-8.54325791776345677e-05
-3.76379607561134252e-05
0.000396944691948871017
0.000115315435899064839
-8.83935959943128269e-05
0.000526014280255837196
-0.000184212003664282857
1.71193098631004696e-05
-5.13198312479998503e-05
-7.47236110867497406e-07
3.48975832387865461e-05
-5.44129884324283405e-05
-7.96218656457194094e-07
5.31120676426488631e-05
-5.53650827099297688e-05
-8.80415479532965204e-07
7.22855253873636093e-05
-5.8255258237454746e-05
-1.01751625809873323e-06
9.28997651489375966e-05
-6.2544006566720464e-05
-1.22003340872761149e-06
0.000115400831692607077
-6.83037633070687425e-05
-1.50886205643435539e-06
0.000140307333337924914
-7.57715317794059953e-05
-1.91747183462349159e-06
0.000168437537939563432
-8.5594334723397851e-05
-2.50269490085581955e-06
0.000200348507620544245
-9.73154964470898437e-05
-3.33127104781132319e-06
0.000238047495222198826
-0.000116033394582066841
-4.61536612723234828e-06
0.000281247772916782212
-0.000128974378734424128
-6.19977501346432336e-06
0.000339178147777576564
-0.000167110152509378435
-1.00491626236916176e-05
0.000412227159829342722
-0.000212361450209589683
-1.93750303443084326e-05
0.000446989413919324609
-0.00012946755937542559
-4.46402265621348091e-05
0.00038650688912852466
0.000141119709513306982
-0.000100499688792703796
0.000770380724643940969
-0.000207679138686489811
1.70215305235152809e-05
-6.83563124289007242e-05
-7.54664844964130704e-07
3.44736209781510753e-05
-7.18791475902714057e-05
-8.02755871756078841e-07
5.24931177215423806e-05
-7.33994839888172106e-05
-8.84815988483202183e-07
7.1454127069351715e-05
-7.72316034456203295e-05
-1.01847928826098431e-06
9.17932631440592704e-05
-8.28959529669432571e-05
-1.21628959835620157e-06
0.000113951478405778473
-9.04678064323413282e-05
-1.49884375889821964e-06
0.000138451186488421866
-0.000100254574867559784
-1.90041459251855234e-06
0.000165974156358168675
-0.000113064944423867141
-2.47810293896747119e-06
0.000197248123392244792
-0.000128407098575236765
-3.30077880750882593e-06
0.000233830490298712033
-0.000152367004507340912
-4.57724598438436823e-06
0.000275213214562416563
-0.000169218599119043444
-6.2400445322901983e-06
0.000333656073934487322
-0.000223989525003028694
-1.03111706568927549e-05
0.000401426572821778646
-0.000281808858017943299
-2.08427567439575073e-05
0.000429672222559657148
-0.000170973127851684823
-5.15516205878620726e-05
0.000373449283657414162
0.000157229323174013262