/*--------------------------------*- C++ -*----------------------------------*\
| =========                 |                                                 |
| \\      /  F ield         | OpenFOAM: The Open Source CFD Toolbox           |
|  \\    /   O peration     | Version:  2206                                  |
|   \\  /    A nd           | Website:  www.openfoam.com                      |
|    \\/     M anipulation  |                                                 |
\*---------------------------------------------------------------------------*/
FoamFile
{
    version     2.0;
    format      ascii;
    arch        "LSB;label=32;scalar=64";
    class       volScalarField;
    location    "0.0899999999999999967";
    object      rAU;
}
// * * * * * * * * * * * * * * * * * * * * * * * * * * * * * * * * * * * * * //

dimensions      [-1 3 1 0 0 0 0];

internalField   nonuniform List<scalar> 
7360
(
2.82590618975616967e-05
2.66695301535847337e-05
2.52229336801377451e-05
2.38592331724134891e-05
2.25526902382315005e-05
2.1275142305851719e-05
2.00055530331343485e-05
1.87394630377314464e-05
1.74590507336648584e-05
1.61358673611595129e-05
1.49098562077002737e-05
1.39954526945882964e-05
1.42382501708825787e-05
2.11858035237280281e-05
3.54585976761802335e-05
4.16972975404832159e-05
2.67887936463480917e-05
2.52779008535700636e-05
2.398470600142656e-05
2.2718222395364638e-05
2.14745636709825886e-05
2.02362547188529749e-05
1.8997395928775186e-05
1.77507789503063206e-05
1.64980047351466318e-05
1.51700346330437376e-05
1.4001501863257256e-05
1.33447410223534976e-05
1.42795124619643398e-05
2.27739075655361922e-05
3.94514619487706369e-05
3.73806401554167378e-05
2.54589280088323287e-05
2.404606458405032e-05
2.28665640495735185e-05
2.16664343883582632e-05
2.04691059814886472e-05
1.92688741752086635e-05
1.80615951218327397e-05
1.68356177978997153e-05
1.56138159015652474e-05
1.42956650357782468e-05
1.31842625183695028e-05
1.26566441104471116e-05
1.43999341812544125e-05
2.59212243111698291e-05
4.63998008253997012e-05
3.87055693575636621e-05
2.42617164660526511e-05
2.29554012221836368e-05
2.18649678827081298e-05
2.07286822360480596e-05
1.95793298956593538e-05
1.8418940658385432e-05
1.72456654563031852e-05
1.60485290168256216e-05
1.48582019087476599e-05
1.35630136505871816e-05
1.25057186484436778e-05
1.19978491786019042e-05
1.42146507111549436e-05
2.97789710494171164e-05
5.34819014865944376e-05
4.23345919556643348e-05
2.31848933672983783e-05
2.19834261250164944e-05
2.09669342846927275e-05
1.98910094597630644e-05
1.87897160977665429e-05
1.76701158327517818e-05
1.65323829977131038e-05
1.5368764151026885e-05
1.42067538384175387e-05
1.2944549264702382e-05
1.1941448104408478e-05
1.14463223894161191e-05
1.456854707362265e-05
3.54204273917336268e-05
6.26506577064692616e-05
4.85240208764705944e-05
2.22160425038814895e-05
2.11129762746354173e-05
2.01614481566092881e-05
1.91421712499259498e-05
1.80881705754219583e-05
1.70096412412197836e-05
1.59085975027312767e-05
1.47805753279555687e-05
1.36486844523321786e-05
1.24274669622462632e-05
1.14659275743036394e-05
1.10227376627810143e-05
1.6097033862437277e-05
4.38142980849437228e-05
7.47542097211146569e-05
5.73796612840228888e-05
2.13437628805855112e-05
2.0331329469581614e-05
1.94384699538391116e-05
1.84723962414633793e-05
1.74644134123929801e-05
1.64267983444009345e-05
1.5362920241707746e-05
1.42712127473435807e-05
1.31738353696019591e-05
1.1995098963505042e-05
1.10619445670154409e-05
1.07400682679276748e-05
1.84940271160022565e-05
4.83296294348364844e-05
8.91869632361348664e-05
6.72312270219029657e-05
2.05579254129738478e-05
1.96283667718144398e-05
1.87891558160180599e-05
1.78732410853732054e-05
1.69096769557326475e-05
1.59125589599867923e-05
1.48857208178362418e-05
1.38311214423879928e-05
1.27670797453925623e-05
1.16289166862118772e-05
1.07219056851874077e-05
1.05656235969723097e-05
2.16172452872863149e-05
5.27466752518549869e-05
0.000106893141457979873
7.58556526306702206e-05
1.9849649505903663e-05
1.89957579871301852e-05
1.82057884430637595e-05
1.73374196773436484e-05
1.6416425961736854e-05
1.54592871257310573e-05
1.44689946422419547e-05
1.3451871666315044e-05
1.24204667149753433e-05
1.13260135156011779e-05
1.04451748586943532e-05
1.05298841170347136e-05
2.58246731826897463e-05
5.97775343712492497e-05
0.000129595281757048555
9.03019240162910685e-05
1.9211171109331151e-05
1.8426566286501943e-05
1.76816442446991793e-05
1.68586951415511467e-05
1.59781315855001341e-05
1.50605033403507545e-05
1.41058664891238242e-05
1.31266645913088918e-05
1.21277883489519344e-05
1.10787959392989106e-05
1.02243913404309274e-05
1.0671461971364627e-05
3.05157746177265449e-05
7.06304369362711063e-05
0.000159942709164961612
0.000106602205490039528
1.86358190105116186e-05
1.79150397683183419e-05
1.72108577331610808e-05
1.64317980300335779e-05
1.55891029565150779e-05
1.47108110658387477e-05
1.37904999000598882e-05
1.28498452086566427e-05
1.1884034266108441e-05
1.088236639862022e-05
1.00502347161724187e-05
1.0915142191703273e-05
3.65655087833358216e-05
8.6404840090940953e-05
0.000203903966105202554
0.00012830731773965512
1.81180555324837848e-05
1.74565533211766651e-05
1.6788325558440533e-05
1.6052366281272099e-05
1.52443284973479216e-05
1.44057608662794848e-05
1.35177536903810826e-05
1.26169150253359672e-05
1.16844142937576663e-05
1.07312041931165146e-05
9.92025714875850583e-06
1.14174237317373413e-05
4.46969644362373337e-05
0.000108561111867824662
0.000263586635419432464
0.000133403845490003323
1.76537586541483515e-05
1.70478449673954583e-05
1.64096835857819824e-05
1.5716967772346788e-05
1.49393107628571983e-05
1.41418267305661035e-05
1.32830361361927503e-05
1.24246346298439139e-05
1.15249294416489602e-05
1.0620087649834666e-05
9.83588816484827213e-06
1.19513336959489261e-05
5.6145669865636422e-05
0.000139323750761300493
0.000341832360604312499
0.000151678942088863443
1.72416250653810395e-05
1.66878368794429976e-05
1.60712435179567514e-05
1.54230652681849721e-05
1.46700304899300711e-05
1.39165306076261168e-05
1.30824456231853989e-05
1.22708306198682855e-05
1.1401598903401393e-05
1.0545756978616066e-05
9.79774914273023047e-06
1.30988707016930699e-05
7.07574307829727026e-05
0.00018509550155485009
0.00046145619212749193
0.000173018981851273451
1.68855539640757307e-05
1.63761090898252812e-05
1.57692268089265367e-05
1.51677336187727848e-05
1.44338203318906619e-05
1.3727880042136228e-05
1.2914180052054809e-05
1.21537315295087777e-05
1.13115684015144551e-05
1.05127064124603473e-05
9.81153086413634619e-06
1.34968128328694929e-05
9.33728197333503313e-05
0.000256440600298017435
0.000655297802564385823
0.000178515634351461599
1.65939735275288841e-05
1.61074887296487006e-05
1.55015510771961705e-05
1.49464780987478495e-05
1.42320640743180003e-05
1.357325280029982e-05
1.278134535267166e-05
1.20721886024574861e-05
1.1255319541416781e-05
1.0524482370885268e-05
9.86887392235133627e-06
1.44775512047006967e-05
0.000116058251552986766
0.000384038675278529991
0.000958036812843458124
0.000177951782173796494
2.82615285616802531e-05
2.66744538366412675e-05
2.5230194498278449e-05
2.38687909829223043e-05
2.25646006430487931e-05
2.12895521914861149e-05
2.00226750272763097e-05
1.87587891181740089e-05
1.74812885028011109e-05
1.6155302088328111e-05
1.49284981725019568e-05
1.40349370157534911e-05
1.41805474159599176e-05
2.15906742438204756e-05
3.82766342455485818e-05
5.27844411544061318e-05
2.67906043757028782e-05
2.52819874199177396e-05
2.39909519950289973e-05
2.272661922749439e-05
2.14852391323458781e-05
2.02493770435880309e-05
1.90132487371802795e-05
1.77687793092688095e-05
1.65185407000495092e-05
1.51882028709707931e-05
1.4012653447847951e-05
1.33967254722742803e-05
1.43274168232297915e-05
2.37724167607825943e-05
4.27807732421449152e-05
4.51354971869188129e-05
2.54600868528271867e-05
2.40493543588420298e-05
2.28718901644915618e-05
2.16738293755773955e-05
2.04787587130032238e-05
1.92809352796900312e-05
1.80763264668425912e-05
1.68523276666986554e-05
1.56329481338493308e-05
1.43114739265708059e-05
1.31898378992918171e-05
1.2724767576891762e-05
1.44199033373993594e-05
2.77320932315742465e-05
4.8215634511461295e-05
4.47761134417043805e-05
2.42622045284731398e-05
2.29578817968417632e-05
2.18694166799058605e-05
2.07351204834274245e-05
1.95880057598995013e-05
1.84299768596749266e-05
1.72593122797584437e-05
1.60641235232997742e-05
1.48762563683456499e-05
1.35775816166201074e-05
1.25125881733951032e-05
1.19946568774281674e-05
1.43278952267118498e-05
3.25656163244822513e-05
5.42335449077803702e-05
4.75031045703817818e-05
2.31846696125309952e-05
2.19850510091616438e-05
2.09705259934439782e-05
1.98964964042836223e-05
1.87974477555132083e-05
1.76801406313296136e-05
1.65449985937492517e-05
1.53835756178908647e-05
1.4223870361455751e-05
1.29592153636328373e-05
1.19505711351473418e-05
1.14317538324902599e-05
1.4683758378210726e-05
3.89381586236434008e-05
6.25418430369143353e-05
5.16293841933545219e-05
2.22150366053565632e-05
2.11136588477355095e-05
2.01641972999321992e-05
1.91466646867718122e-05
1.80949759444351331e-05
1.70186360160237171e-05
1.59202566401271389e-05
1.47945901133037297e-05
1.36649989602928075e-05
1.24457107766759791e-05
1.14818264443314615e-05
1.10041696147511536e-05
1.60776806011967205e-05
4.72357405169015327e-05
7.29394962980829534e-05
5.72910382835364133e-05
2.13418796734980097e-05
2.03309094612138851e-05
1.94404050514917442e-05
1.84757833794289681e-05
1.74703070235257644e-05
1.64346769183459569e-05
1.53736690285548021e-05
1.42844197165617471e-05
1.31903597279718628e-05
1.20188815443772204e-05
1.10855819762648783e-05
1.07230101905220463e-05
1.83322437519255516e-05
5.12837636523626081e-05
8.46504215121903701e-05
6.30767029804848084e-05
2.05550531778598433e-05
1.96265716209023809e-05
1.87903582152129765e-05
1.7875293358392402e-05
1.69147016243057645e-05
1.59191275351906309e-05
1.48955422092223149e-05
1.38434475466125672e-05
1.27835362946445161e-05
1.16552198692554548e-05
1.07486718450520302e-05
1.05261245355345528e-05
2.09897436642779801e-05
5.55884096743387545e-05
9.80103199135157817e-05
7.01590209557707324e-05
1.9845682681750188e-05
1.89921454990813844e-05
1.82064599711040773e-05
1.73377063283295586e-05
1.64207046035867144e-05
1.54641424060347654e-05
1.44779236393784007e-05
1.34629200700377925e-05
1.24363828273730288e-05
1.13515985529897975e-05
1.0473523478480789e-05
1.03878429005727773e-05
2.45941875111669858e-05
6.28961153364457592e-05
0.000115861606798941573
7.98453019372460986e-05
1.92060731204845805e-05
1.84204340555760987e-05
1.76822055496947589e-05
1.68564327339800232e-05
1.59819652845930191e-05
1.5062947937112812e-05
1.41140677889378007e-05
1.31357222046522949e-05
1.21420224053408086e-05
1.10997523831712342e-05
1.02525956637745641e-05
1.03360985709467818e-05
2.87503649199951963e-05
7.38933895822327581e-05
0.00013824051458894847
8.93234345642626791e-05
1.86296851174453748e-05
1.79052942982152486e-05
1.72120623598052271e-05
1.64256364618877464e-05
1.55931213978518012e-05
1.47096618811673983e-05
1.37984288842071496e-05
1.28559336950296224e-05
1.18949445150752471e-05
1.08959766803487028e-05
1.00757134921809976e-05
1.04934989202097532e-05
3.41595852561362611e-05
8.79400883157410745e-05
0.000161132983060394158
9.81802959546479128e-05
1.81111931057033738e-05
1.74414174745326093e-05
1.67913563577478376e-05
1.60401143798850585e-05
1.52497100240771281e-05
1.43991482064092174e-05
1.35264831396077588e-05
1.26185303192575293e-05
1.16909783203331428e-05
1.07363420370443616e-05
9.93571561792901538e-06
1.11795413967666403e-05
4.19655712884855822e-05
0.00010936774096364901
0.000197981548888028115
0.000104710382187892965
1.76466729554390106e-05
1.7024372674857159e-05
1.6416270563094051e-05
1.56951798209062204e-05
1.49481857772690361e-05
1.41268746210674852e-05
1.32946065248191809e-05
1.24192676939052616e-05
1.15274013875729509e-05
1.06176616325894635e-05
9.83382152807592119e-06
1.2038716764785512e-05
5.5355344475123686e-05
0.000142013160563726456
0.000247165380103979632
0.000122482883182107753
1.72345848029826013e-05
1.66513565620714575e-05
1.60839649083694409e-05
1.53867174293330686e-05
1.46861161660093371e-05
1.38888678260884329e-05
1.30998965261901589e-05
1.2254344327067933e-05
1.14020149415219664e-05
1.05386868733929713e-05
9.78329391868650428e-06
1.32107782324911525e-05
7.04124428459700075e-05
0.000192603102034971495
0.000320858371793197612
0.000143947119357265183
1.68771184202709761e-05
1.63209884870103401e-05
1.57912868859748338e-05
1.51121087062006966e-05
1.44616789035770507e-05
1.36826840505820224e-05
1.29395587234638192e-05
1.21204188942841746e-05
1.13116574753835378e-05
1.05014586980112791e-05
9.79376087884651362e-06
1.33317152395114958e-05
9.11991904251812713e-05
0.000279898250627869582
0.000426671984486225446
0.000157160694666593257
1.65792404013345356e-05
1.60309030000320051e-05
1.5532881871763961e-05
1.48735200161123917e-05
1.42718493904338097e-05
1.35102206101970375e-05
1.28095155430242261e-05
1.20179878387181028e-05
1.12524339565822267e-05
1.05101474000309383e-05
9.85804979022198688e-06
1.4243113591555335e-05
0.00011774161234314724
0.000493328600563358827
0.000577530572292078888
0.00016425213240574434
2.82670249602855294e-05
2.66821305122123414e-05
2.52402792823136779e-05
2.38814674273395616e-05
2.25801397900509174e-05
2.13083900864109539e-05
2.0045429790365002e-05
1.87861600837048567e-05
1.75152316368854785e-05
1.61952152831601003e-05
1.49856873770584298e-05
1.41223670162536765e-05
1.40792464719296834e-05
2.15210504733719922e-05
4.21497119695925135e-05
6.43789127538253069e-05
2.67950394670486072e-05
2.5288469777047384e-05
2.39997257422136721e-05
2.27378539324398276e-05
2.14991924059846371e-05
2.02664710504186203e-05
1.90339973611230267e-05
1.77938471896353803e-05
1.65485775723197691e-05
1.52240199417283159e-05
1.40624150958022203e-05
1.34608700333402737e-05
1.42538679088098491e-05
2.38832573577045594e-05
4.70675564054937092e-05
5.41697051288170868e-05
2.54634755727210962e-05
2.4054704297325027e-05
2.28794327354361776e-05
2.16837776251169128e-05
2.04913713765613028e-05
1.92966205474910031e-05
1.80955096234965151e-05
1.68756822368688631e-05
1.56605952512584224e-05
1.43458647827118394e-05
1.32386558620298073e-05
1.27550580309283605e-05
1.44300415311248212e-05
2.84453386581944979e-05
5.2152925616321503e-05
5.27851313758483548e-05
2.42645237982554648e-05
2.29621071158030893e-05
2.18757636944609211e-05
2.07438600685149098e-05
1.95993754813368153e-05
1.84444121069857351e-05
1.72771614458135126e-05
1.608613327781947e-05
1.49023785961664552e-05
1.36122421239779981e-05
1.25636323199926137e-05
1.20032481578833061e-05
1.43163810372584014e-05
3.37547915714856412e-05
5.77482193455262699e-05
5.38855603847012042e-05
2.31858426279957827e-05
2.19881267456277907e-05
2.09756644567463059e-05
1.99040740984967217e-05
1.88076291242534707e-05
1.76934335473078005e-05
1.65617143234060961e-05
1.54045367785671113e-05
1.42491211856997879e-05
1.29926930805648706e-05
1.20024776884527444e-05
1.14283283082995118e-05
1.46187265419345907e-05
4.0860293454650247e-05
6.49007213014983936e-05
5.4595518902367677e-05
2.22149238577582878e-05
2.11155288882221482e-05
2.0168055167714849e-05
1.91531056030758592e-05
1.8103971121751942e-05
1.7030868589657977e-05
1.59359301255431066e-05
1.48146077755980793e-05
1.36898635615584881e-05
1.24777043226440417e-05
1.15309974364823783e-05
1.09931806527875761e-05
1.60281642875110784e-05
5.169360854362678e-05
7.24046447638183519e-05
5.90561292915052144e-05
2.13402504718542142e-05
2.03314951561982183e-05
1.94428255564773475e-05
1.84811056212643945e-05
1.74780473499348769e-05
1.64459261520925743e-05
1.53882779866804064e-05
1.43038542368589786e-05
1.32143335066236975e-05
1.20481697919648124e-05
1.11250756584830451e-05
1.07340995752895177e-05
1.87243026451450415e-05
5.83652273770307383e-05
8.17547989748636765e-05
6.37183530066463095e-05
2.05515371927271506e-05
1.96257848022596909e-05
1.87910525730772936e-05
1.78795378685699848e-05
1.6921011763493499e-05
1.59294673998934263e-05
1.49089895125925512e-05
1.38625398832398871e-05
1.28063521794516771e-05
1.16857798581995859e-05
1.077787393810553e-05
1.07041848363247647e-05
2.29372371397518295e-05
6.41860068341784987e-05
9.27722258994638201e-05
6.89668523994089002e-05
1.98396971929657107e-05
1.89899149385805605e-05
1.82049294805903957e-05
1.7340997359190983e-05
1.64252370772615591e-05
1.54737032211727053e-05
1.44899613508353718e-05
1.34816413805600772e-05
1.24576486461026075e-05
1.13838939850870429e-05
1.04894905993097841e-05
1.08086846252294248e-05
2.73481077538231809e-05
7.29990237580373908e-05
0.000106266704546277102
7.39307013131847092e-05
1.91967163432399213e-05
1.84167476137710016e-05
1.76776239426971206e-05
1.68590785787920691e-05
1.59840875679253143e-05
1.50720398488065926e-05
1.41243066971275628e-05
1.31540299519413243e-05
1.21617824276680414e-05
1.11327136279589477e-05
1.02591516449949616e-05
1.08996613362740011e-05
3.19851712770676287e-05
8.52286293013173734e-05
0.000119785107533933912
7.67087718313808021e-05
1.86155528655015084e-05
1.79002786108537326e-05
1.72031142219397825e-05
1.6428264024386141e-05
1.55917538998054039e-05
1.47189148350376942e-05
1.38061653357733497e-05
1.28741947468207433e-05
1.19137979593571998e-05
1.09277604418309941e-05
1.00794802997380236e-05
1.09470254144123962e-05
3.7118893707160427e-05
0.000101395949240912233
0.000136757975085548402
8.00120358665041897e-05
1.80901569246258625e-05
1.74354512449349947e-05
1.67760423459936956e-05
1.60438401603777026e-05
1.52431255674141677e-05
1.44096534156081861e-05
1.35305066731404138e-05
1.26378464831699263e-05
1.17092314075315197e-05
1.07673142922770204e-05
9.94676070049524106e-06
1.13431586604932871e-05
4.38780667693241757e-05
0.000125630399689039679
0.000164120402455908518
8.92132388483586543e-05
1.76157877900522644e-05
1.70182810450896482e-05
1.6391695067958135e-05
1.57018786059018196e-05
1.49336993664779912e-05
1.41403965512508717e-05
1.32928892402455991e-05
1.24414651767143293e-05
1.15440591765364889e-05
1.06490784493177927e-05
9.85674744053761619e-06
1.21219978570563407e-05
5.66729379422769084e-05
0.000163082757781210578
0.000200330684842428699
0.000105278680929503217
1.71903919605193594e-05
1.66466694591428856e-05
1.60459286674806326e-05
1.53992453382029692e-05
1.46596585952735673e-05
1.3908069269264354e-05
1.30893069686425737e-05
1.22819813461996162e-05
1.14148279553101143e-05
1.05718198302357279e-05
9.80523049846069448e-06
1.36339688831916058e-05
7.43532122743365882e-05
0.000219251365447406364
0.000255217603372430869
0.000126857626782271696
1.68174413909209329e-05
1.63196663631849656e-05
1.5734278664396336e-05
1.5132748649595967e-05
1.44187882373150051e-05
1.37095380614284662e-05
1.29171891212584166e-05
1.21557909811296375e-05
1.13188968327288749e-05
1.05378007114235697e-05
9.81045511925300351e-06
1.40369744527508944e-05
9.55326755574878998e-05
0.000318852439609251727
0.000334633679119591108
0.000143488520907979477
1.65038773302397249e-05
1.60329572210956802e-05
1.54529761933916422e-05
1.48986938141570162e-05
1.42125811438337243e-05
1.35402637096463956e-05
1.27771990315799912e-05
1.20589641065223492e-05
1.12562340376501321e-05
1.05519944678184281e-05
9.86216771715587089e-06
1.51236002512332031e-05
0.000129506348096062245
0.000605064525488122843
0.000418815386641794164
0.000155722893441993251
2.82754487361366951e-05
2.66923038280525043e-05
2.52528215882106163e-05
2.38967115521374995e-05
2.25985730844528307e-05
2.133070059700015e-05
2.00726397842372872e-05
1.88195376579375508e-05
1.75571646327480519e-05
1.62471564497238955e-05
1.50547814690056428e-05
1.42218205484784884e-05
1.41206692358475696e-05
2.14263610445818702e-05
4.47702538458668729e-05
7.21589907161844605e-05
2.68021734868038838e-05
2.52972196701413522e-05
2.40107694471346447e-05
2.27514578727356467e-05
2.15157712585986495e-05
2.0286662384426709e-05
1.90586336679505016e-05
1.78238954658498151e-05
1.65860646405440806e-05
1.52687563391206907e-05
1.41201437142162616e-05
1.35212768176178137e-05
1.42830011984528702e-05
2.42123068358309145e-05
5.12536185059352757e-05
6.22564968086789617e-05
2.54693835910022606e-05
2.4062157643344692e-05
2.28890952202960685e-05
2.16959120186563204e-05
2.05063995961217861e-05
1.93151621987518295e-05
1.81181154409340524e-05
1.69036643925999442e-05
1.569464934643112e-05
1.438619129601761e-05
1.32871092272803814e-05
1.27995641434409318e-05
1.45373100261349555e-05
2.94531257691629546e-05
5.56856582535914454e-05
6.11198235055537695e-05
2.42692580938044875e-05
2.29683050894226695e-05
2.18841215092141852e-05
2.07546273624755186e-05
1.9613007042682457e-05
1.84615251025929197e-05
1.72980228500958993e-05
1.61130620302000104e-05
1.49321179363145317e-05
1.36492826368810464e-05
1.26079479337024361e-05
1.20234477624203301e-05
1.44905317011157345e-05
3.58347755206813674e-05
6.07271190523281593e-05
6.28328840221972123e-05
2.31894373609278876e-05
2.19930800827194214e-05
2.09827758905572169e-05
1.9913538129749983e-05
1.88199898206339857e-05
1.77092411294943481e-05
1.65813074166370033e-05
1.54306151593719751e-05
1.42743231607468324e-05
1.30337909746110624e-05
1.20497083074599573e-05
1.14425954328354564e-05
1.48525694742145085e-05
4.38379425050836161e-05
6.74871762816360029e-05
6.04260883858348725e-05
2.22174131638566032e-05
2.11192073426567012e-05
2.01739691034050661e-05
1.91612865913404742e-05
1.81151590709384098e-05
1.7045440292680682e-05
1.59545360415618497e-05
1.48392182198128809e-05
1.37183127132098442e-05
1.25301337882974016e-05
1.15773111782788583e-05
1.0974284597217458e-05
1.58928054628305338e-05
5.63741368790594778e-05
7.38692916412513441e-05
6.25518390078335095e-05
2.13416894189638503e-05
2.03338106928494024e-05
1.94475994490410023e-05
1.84879648414713337e-05
1.7488151796611494e-05
1.64593102123792957e-05
1.54060114610693825e-05
1.43273357149300394e-05
1.32422119775932896e-05
1.20977351634998392e-05
1.11684559840557935e-05
1.06326513210837883e-05
1.75843224607931914e-05
6.46332678640770185e-05
8.234458716473923e-05
6.700502389938849e-05
2.05520295529134873e-05
1.96265641157016895e-05
1.87947903321273625e-05
1.78849492593170187e-05
1.69301494532726494e-05
1.59416253164674994e-05
1.49260108890498554e-05
1.38844169590723864e-05
1.28354374617122338e-05
1.17329753671702725e-05
1.08284271312753533e-05
1.04303632536049049e-05
2.03174044647457996e-05
7.21538433443112947e-05
9.22068601431610876e-05
7.08106475345875359e-05
1.98394663239909518e-05
1.89888500291235172e-05
1.82078503454494437e-05
1.7344696471647304e-05
1.64336127506040984e-05
1.54845113273916213e-05
1.45063656114977534e-05
1.35017725405391796e-05
1.24876583264183281e-05
1.14246137218876117e-05
1.05475752226340488e-05
1.04322605953065365e-05
2.50858978572923814e-05
8.18556476880181354e-05
0.000103629768672799694
7.33582210288356536e-05
1.91961875858958935e-05
1.84133142027019981e-05
1.76801776622680184e-05
1.68605777345061715e-05
1.59921035206046373e-05
1.50812184635819822e-05
1.41402560586298965e-05
1.31721741401393205e-05
1.21917020807462017e-05
1.11682185868842316e-05
1.03197147594536661e-05
1.05437931139521824e-05
3.04347345515299231e-05
9.44618991488479088e-05
0.000114146786824575208
7.50921465803214673e-05
1.86154622301066147e-05
1.78936120799804495e-05
1.72061393192939868e-05
1.6426728333787434e-05
1.56001580986069021e-05
1.47259441750495783e-05
1.38220513858133282e-05
1.28896709427572545e-05
1.19418728724870192e-05
1.09602017129737677e-05
1.01392899139959056e-05
1.06121600410448335e-05
3.56922010642249108e-05
0.000110337349280388071
0.000126210747745629628
7.66461566762945487e-05
1.80916347592247324e-05
1.7424187091522919e-05
1.67809653895802223e-05
1.60379114634082673e-05
1.52531885502789916e-05
1.44136508225436074e-05
1.35471565963083498e-05
1.26493470647141417e-05
1.17344134112240736e-05
1.07974245238057607e-05
9.99735796753029332e-06
1.14909938932508509e-05
4.34324742129851846e-05
0.000135412276911476724
0.000148711337144799701
8.5717132087771811e-05
1.76203671373057836e-05
1.70003129230867549e-05
1.64008703057401663e-05
1.56894188087938703e-05
1.4947473268467057e-05
1.41398637852586756e-05
1.331189497159577e-05
1.24472442612493931e-05
1.1567545294551659e-05
1.06753650410554604e-05
9.88504273088598461e-06
1.29382824448247362e-05
6.0611590262082294e-05
0.000174005327932633466
0.000178448325392313622
0.000102708867708482113
1.71995834803066486e-05
1.66188638108817673e-05
1.60631888779798951e-05
1.53771061756122902e-05
1.46801808058839841e-05
1.39008003841504014e-05
1.31136509791283378e-05
1.22800365481617555e-05
1.14394554556228473e-05
1.05922314522318949e-05
9.81972819009542351e-06
1.4243325792324556e-05
7.52656420379929257e-05
0.000225032692774267568
0.000220902543060268663
0.000122606866915829282
1.68304140560132442e-05
1.62785693615857297e-05
1.57650274685023218e-05
1.50981747147213994e-05
1.44486218190188301e-05
1.36946781019495506e-05
1.2950718189980329e-05
1.21448552607078623e-05
1.13463351365693354e-05
1.05495149946899781e-05
9.81996418866260011e-06
1.40863182691786191e-05
9.10629990453134803e-05
0.000305745669559247409
0.000277593764254055356
0.00013941810815790162
1.65152525403023911e-05
1.59782810176869328e-05
1.55014584955466569e-05
1.48536890826786434e-05
1.42488591913329398e-05
1.3524152018770525e-05
1.28209405156269366e-05
1.20416593115982777e-05
1.12831202809047704e-05
1.05492964348639553e-05
9.87245857194257793e-06
1.44311639224499153e-05
0.000113496792793419535
0.000535996559292379942
0.000357611249613467837
0.000150691284236024282
2.82864095934269041e-05
2.67045817010343502e-05
2.52672564699029937e-05
2.39137335566087901e-05
2.26187936433336853e-05
2.13548999599266759e-05
2.01017534940078084e-05
1.88547719177256616e-05
1.75987479456505199e-05
1.62971222100637546e-05
1.51111238547172315e-05
1.4278087223271699e-05
1.42366659226706615e-05
2.18729808880890788e-05
4.60179733632855312e-05
7.59181104276279663e-05
2.68117359642426918e-05
2.53079618814278981e-05
2.40235992195278248e-05
2.27667140409358945e-05
2.15339824240165262e-05
2.03085423920892189e-05
1.90849745369587492e-05
1.7855635897375454e-05
1.66237958705517298e-05
1.53119692556912442e-05
1.41710152605272037e-05
1.35752416764809174e-05
1.44318131256523048e-05
2.46057658414567854e-05
5.20729029441311254e-05
6.71653061500120509e-05
2.54776295293341897e-05
2.40715496587290076e-05
2.29004906242487382e-05
2.17096470520549229e-05
2.05229635365070184e-05
1.93352383446062657e-05
1.81423275795781552e-05
1.69330142947551365e-05
1.57288874758772948e-05
1.4424593321920794e-05
1.333204168765736e-05
1.28503628330855427e-05
1.469036189248395e-05
3.00684839173627963e-05
5.83947164502569672e-05
6.62169630796559052e-05
2.42762457357993469e-05
2.2976423573195146e-05
2.18941665026978164e-05
2.07669668370525544e-05
1.96280900932189763e-05
1.84800282155162061e-05
1.73204276344142485e-05
1.61405742499043603e-05
1.49631365637072002e-05
1.36846724119898457e-05
1.26459621521982087e-05
1.2099228178517724e-05
1.48199303448741153e-05
3.76042640120349117e-05
6.25457158224138271e-05
6.99603429309396141e-05
2.31951831096332748e-05
2.1999982357236471e-05
2.09915236597532851e-05
1.99245859467733007e-05
1.88337163351022727e-05
1.77263474611061681e-05
1.66022276830568103e-05
1.54567016155052732e-05
1.43029428488840223e-05
1.30691805619564606e-05
1.2081653121468585e-05
1.15467840017624322e-05
1.56476427463796602e-05
4.87108352673466276e-05
6.86640276534895974e-05
6.49370974084113525e-05
2.22218774324854296e-05
2.11249361129708612e-05
2.01814267275735164e-05
1.91711276125001127e-05
1.81276030056395866e-05
1.70612751370450659e-05
1.59741956629666128e-05
1.48641725128302068e-05
1.3746577302048866e-05
1.25668244536695272e-05
1.16106079296878023e-05
1.10450908917665864e-05
1.6729698490179435e-05
6.16399942226011899e-05
7.3929901894159456e-05
6.62574013023276443e-05
2.13447473503084098e-05
2.03384053090259663e-05
1.94537022190606894e-05
1.84966751100137067e-05
1.74993257108235326e-05
1.64739603137755617e-05
1.54244861375685347e-05
1.43513620577765126e-05
1.32705056613028468e-05
1.21366648593752931e-05
1.12123488686288762e-05
1.06510833665067963e-05
1.77547609875349664e-05
6.9762297060235406e-05
8.22409119440057284e-05
7.03309124333565983e-05
2.05534251615492514e-05
1.9630086785274205e-05
1.87993580330821491e-05
1.7892621219109266e-05
1.69399865722751057e-05
1.59551501977502355e-05
1.49432554657197191e-05
1.39075118640953506e-05
1.28635049826760299e-05
1.17737259865156165e-05
1.08814730918579824e-05
1.04260670406518485e-05
2.00254231377641551e-05
7.95759299808463966e-05
9.261207417463162e-05
7.38856349402693358e-05
1.98387339666371137e-05
1.89914366705813486e-05
1.82105129420675849e-05
1.73514897033845769e-05
1.64419299417039955e-05
1.54969853121122608e-05
1.45221978256119564e-05
1.35238762266130098e-05
1.25156251131060197e-05
1.14668326914717374e-05
1.06038614836187825e-05
1.04627720375674453e-05
2.462045137774766e-05
9.17037888386581037e-05
0.000101890899320826239
7.54526622314328533e-05
1.91925505709992548e-05
1.84152476693465139e-05
1.76802535939772012e-05
1.68668078341842554e-05
1.59985356577641553e-05
1.50927893335966965e-05
1.41543118336493484e-05
1.31932857659286093e-05
1.22196264343726698e-05
1.12093122069434617e-05
1.03758285026359389e-05
1.05078657943736889e-05
3.02492285305889174e-05
0.000106107834392455864
0.000110545553338392365
7.5897605563246068e-05
1.8607725435054248e-05
1.78954247505242329e-05
1.72024548798127675e-05
1.64329824061186244e-05
1.56040423642931293e-05
1.47369058465493302e-05
1.38337189838145909e-05
1.29100051097080228e-05
1.19694960599569987e-05
1.09974955799039776e-05
1.01938795571078859e-05
1.05655607315107957e-05
3.56524748874796651e-05
0.000123793279153660689
0.000120332253105556817
7.60798603718229138e-05
1.80780871211243257e-05
1.74267915499505805e-05
1.67715760431189015e-05
1.60451810143986096e-05
1.52533892751793377e-05
1.44245742306492413e-05
1.35555254818689182e-05
1.26695174135209134e-05
1.17609182853977163e-05
1.08288172950183723e-05
1.00504276579615359e-05
1.11489634935536334e-05
4.26483532220983284e-05
0.000154739616990703222
0.000139753145158049726
8.5304933551144275e-05
1.75987296031474088e-05