/*--------------------------------*- C++ -*----------------------------------*\
| =========                 |                                                 |
| \\      /  F ield         | OpenFOAM: The Open Source CFD Toolbox           |
|  \\    /   O peration     | Version:  2206                                  |
|   \\  /    A nd           | Website:  www.openfoam.com                      |
|    \\/     M anipulation  |                                                 |
\*---------------------------------------------------------------------------*/
FoamFile
{
    version     2.0;
    format      ascii;
    arch        "LSB;label=32;scalar=64";
    class       surfaceVectorField;
    location    "0.510000000000000231";
    object      Uf;
}
// * * * * * * * * * * * * * * * * * * * * * * * * * * * * * * * * * * * * * //

dimensions      [0 1 -1 0 0 0 0];

internalField   nonuniform List<vector> 
20536
(
(0.0894956132843451879 -0.173139069814054108 -0.514559486600088212)
(-0.0388827515691889808 -0.74617662743234181 -0.365779116429675977)
(0.0456259546388104106 -0.272890589030491792 -0.503811775193946598)
(-0.07390994786510173 -0.570818191235358707 -0.515464248387793145)
(0.235395918473684823 -0.229544453051372027 -0.420391033955398508)
(0.205992798675942418 0.130732266793573582 -0.478829553788524598)
(0.232443118105982949 -0.00291446281054097986 -0.569475551489782128)
(0.291276403375266391 0.107153693975816755 -0.498736441750981752)
(-0.0644811546545924763 -0.64770471822050335 -0.271610663784986495)
(0.0736592554010863237 -0.439959787093155141 -0.202833514198452414)
(-0.183764195134103719 -1.05001180123528859 -0.159775192755580248)
(-0.178986977612051568 -0.782146257121410837 -0.207470625337975806)
(0.17048402429759224 -0.812161635356815736 -0.336508440078734816)
(0.268184096275711992 -0.37850843869053663 -0.29174584053671887)
(0.254377340319349332 -0.49795747403095858 -0.356939486852206167)
(0.299139226439653405 -0.297347907681975054 -0.373380697032909825)
(0.139476723893323357 -0.578637197552263061 -0.1986883110869469)
(0.104211930814931797 -0.32654035805191528 0.140008769909579112)
(0.206389077958241157 -0.593022308689038713 -0.100931527955833183)
(-0.143386647305420667 -0.286980887898878656 -0.00444836755751468887)
(0.216341838831199423 -0.515449851456815988 -0.303613658884224868)
(0.322248201727491801 -0.432200429400859565 -0.191447250049161022)
(0.439491205099993676 -0.828552264707152819 -0.379525319718690912)
(0.26060332181591106 -0.581688100673009134 -0.280781465980002032)
(0.204522689668036439 -0.302301004797801531 -0.187327407505654769)
(0.0686458104186901119 -0.183043358791374233 -0.108492908363145235)
(0.00443048897072111786 -0.29348004243129111 -0.254669551211739731)
(-0.0824797422032432503 -0.267565083992337638 -0.149004218398695015)
(0.18328798109590691 -0.647757013171214702 -0.267731290492200236)
(0.287982428262350154 -0.403704451896920669 -0.109679767811723047)
(0.132451299071913553 -0.321802531136230363 -0.181711404991902664)
(0.211704763233933974 -0.312410832545082451 -0.176417091651968422)
(0.23761711007688438 -0.807138763752959787 -0.305421816668823565)
(0.104284454270946278 -0.872249585945608419 -0.341452030263909023)
(-0.00146786705111624717 -1.25309932502174282 -0.328065364842932639)
(0.194581374602063206 -0.725378665392960253 -0.386745175707709499)
(0.196508296639088365 -0.181606522218271726 0.147249830947366017)
(0.360358860863460695 -0.0840007612556550876 0.325038032260462295)
(0.259181270934282615 -0.333348537250614974 0.160096049121437156)
(0.15887477077564563 -0.0447701834222133457 0.288824022845575679)
(0.114674270436695147 -0.132984705503913059 0.00367350047191862018)
(0.373088682284952455 -0.250192937123113912 0.171356032161480709)
(0.205196409283705306 -0.364557443044376261 -0.0238101889631603739)
(0.0879085117861354709 -0.184499251224167021 0.0247806218179438091)
(0.177336134950743296 -0.317251307414980199 -0.0308452686692135027)
(0.284596226644824923 -0.376518997611767936 0.101077500880207352)
(0.0759114155377847849 -0.0843449025887045151 -0.014628371728951017)
(-0.101900014659395896 -0.195264523810116053 -0.0879156720448226736)
(0.386210921422273756 -0.708275750774660207 -0.147370293988345391)
(0.504122468825008663 -0.70641818342314 0.026387964730568033)
(0.468780629166909879 -0.682392305489634587 -0.00158529474676122502)
(0.34444402532034718 -0.795987425990928199 -0.0177308963572349702)
(0.525973745627021039 -0.707940412974931155 -0.148916376213827417)
(0.319063329830377607 -0.996703755317947415 -0.232417388518304291)
(0.403274834413915206 -0.802510530149533108 -0.194757826333181977)
(0.354177099548252439 -0.817904813613052672 -0.325343103590221394)
(0.49084189400414463 -0.0954309012809659435 0.349144233474577015)
(0.467673645890544165 -0.0200948592478939342 0.400412597500152345)
(0.497205353256859828 -0.111728703600211324 0.347043398474199905)
(0.4756807653801296 0.137560418719383043 0.416497036364330941)
(0.522274244321526249 -0.361975721092664515 0.268760032569768881)
(0.523906318438174701 -0.183092953929100688 0.346823874546998145)
(0.506853124256097742 -0.257442127827866518 0.280166832625632523)
(0.502512683903779234 -0.138807082467011289 0.352836877800340509)
(0.646333011336877705 -0.625941337454260616 0.158310734279988152)
(0.603384842610482308 -0.345695506816549869 0.234413286632780882)
(0.58053417903560034 -0.489806961352833747 0.163339613454727778)
(0.548540209737337636 -0.477272497294489007 0.294160566765995335)
(0.65098827503850043 -0.658100669270497818 0.0248418825050868153)
(0.664040234369815963 -0.542297256276730866 0.0865106853353935779)
(0.697063006524057616 -0.670029955268285238 0.0470839335680528076)
(0.580133696758190487 -0.671840721423773934 0.16063720293400055)
(0.639078698987748273 -0.514709952231565238 -0.0405285300571762222)
(0.703977755534671346 -0.56058201360592963 -0.0586418339341670883)
(0.545520268059460967 -0.594042500040388277 -0.0265125619620514147)
(0.542211832069663724 -0.757650733247517083 -0.125948223554974648)
(0.495095141356505009 -0.0917044182209618003 0.398092238572573365)
(0.394803067590885348 -0.100639402951851351 0.35211978447633141)
(0.417547756536221559 -0.171056785316818644 0.366411324843348818)
(0.415397904927112593 0.0853990693629975428 0.434588878855371064)
(0.592688132204788998 -0.20740327144613474 0.312477128610009647)
(0.522024817415590259 -0.181651063786068739 0.313514443495948814)
(0.538977010545802715 -0.241839885763841411 0.316483796562322672)
(0.476637675308707709 -0.0956576680836349336 0.404191828523079888)
(0.654598981204249863 -0.335178849302415316 0.162613237688186196)
(0.609484966323018629 -0.313283013675255406 0.201579106458076668)
(0.621117252439426282 -0.324271612546942534 0.193993841160742336)
(0.552866090618055361 -0.27303287184078695 0.270634120184910676)
(0.620317622684959824 -0.45145998236879753 0.0211402727731310192)
(0.647089289857978867 -0.431880507569079919 0.0933592832372025505)
(0.664069411215220229 -0.43895667142767586 0.0599318061010334843)
(0.593672562826253691 -0.412722087045452879 0.103069654933631086)
(0.641501392119434466 -0.51052390989793317 0.0178224243637331095)
(0.606543816381310941 -0.534320576229874722 -0.0418298289701848486)
(0.596701905946266375 -0.516774413013927236 -0.0234613147164863672)
(0.637842016328848405 -0.486518289533506121 -0.0835721195991770971)
(0.437736158534998643 -0.213968354190107179 0.267541989399706803)
(0.347311847029403153 -0.231759259115711908 0.220962511350739133)
(0.358283054007571544 -0.244610555946934732 0.260902160090421054)
(0.343810243934313864 -0.0757366441662107315 0.304835646704847252)
(0.548103977905262663 -0.295136226660784484 0.202616421344015474)
(0.463050871477213022 -0.290277018287982747 0.193423611192979072)
(0.486790528683544499 -0.290236132301418981 0.223366580638455825)
(0.490986906129998901 -0.157881264948099453 0.249053781529861545)
(0.609038864418750103 -0.408960890465650706 0.132325152007093078)
(0.539342516449946907 -0.392526448453671795 0.13928272002326314)
(0.574425935862584391 -0.379371233686846721 0.151357701473947975)
(0.583581038031725674 -0.314830505492913915 0.15269215233742503)
(0.645237605336409059 -0.496172194550205337 0.0900414348278052029)
(0.582228672985235174 -0.491318026765523774 0.100258369698022348)
(0.624197823655883721 -0.470716514358320515 0.101248001638156213)
(0.626546433684417536 -0.453753949912666821 0.0938003411032345968)
(0.610557869675798393 -0.566193513663322268 0.0735584079426323534)
(0.662376489285710579 -0.517718750318777898 0.0728415408006510834)
(0.644452718483492504 -0.53667376813526313 0.0700801951089552316)
(0.683881257462268244 -0.538733469996987568 0.0579561393415129467)
(0.387888696803587174 -0.318617230151149067 0.146844133144011568)
(0.316194315432237305 -0.317078788370670106 0.120392173797916585)
(0.337472282069627538 -0.305126291255878812 0.135859110171412945)
(0.336514718933090207 -0.265779900458741336 0.161032248366692887)
(0.462843389325013621 -0.388114386893114116 0.130089909872227072)
(0.388470976632275922 -0.36672472100191722 0.116915963019718211)
(0.41976548123742341 -0.359979108983322194 0.129501426404229542)
(0.435498658418963847 -0.332224566506677754 0.145161342729983434)
(0.510862755686058989 -0.470877889235979452 0.107215937714192577)
(0.443169780438308347 -0.441173245371860201 0.103322944706800326)
(0.481610495878530553 -0.433898133323503632 0.108231339550888192)
(0.501407486506648792 -0.427149849648218505 0.118484261065419816)
(0.544273291951202998 -0.54916494441790864 0.0837753428128495958)
(0.481534805877891325 -0.521624653800657367 0.0903971207619261585)
(0.52263970513485436 -0.513416585232855605 0.0886223471878194169)
(0.537089913117151596 -0.514261361597248001 0.0981171888127503333)
(0.506151247636871915 -0.597403984112114039 0.0739960673169945266)
(0.555376989893787809 -0.588376561443487156 0.066520648534061963)
(0.564948555035390765 -0.588978371135909118 0.075301367687922352)
(0.577559512974897493 -0.619796912768662778 0.0513981556955813643)
(0.323836010002010177 -0.373254200327673369 0.0904640036736232001)
(0.269881496018717248 -0.376919810709881009 0.0771991057022881205)
(0.297119317084177159 -0.361354124698983648 0.0826795404683100532)
(0.292298923291571533 -0.335077575238387437 0.093705351340522075)
(0.374514210206185749 -0.427584800202694626 0.090148997854291521)
(0.317233878289542526 -0.418212754569939171 0.0812792150486136428)
(0.350090449875231802 -0.405586464106947597 0.0855090780098446829)
(0.351093439508332328 -0.383590446090982251 0.0962309023619605242)
(0.413191587463227983 -0.497994820536154681 0.0865041277545339909)
(0.356130125685360288 -0.476228922748230754 0.0815018949965823358)
(0.39456040135161019 -0.466125327816359625 0.082555618857357585)
(0.396430113673910234 -0.453566085425261167 0.0935652549478346168)
(0.443272031752753981 -0.575552381921389467 0.0806178452660711725)
(0.388606893588022417 -0.545424589678853988 0.0806360328094113954)
(0.431172789180354898 -0.538911725203996106 0.0790118971383299978)
(0.43171854337389437 -0.532895455092230907 0.089883458296594082)
(0.400137095757594874 -0.620814220817337836 0.0760826950162550725)
(0.45178172777197545 -0.613989595232455665 0.0708200648397956656)
(0.452089589135778902 -0.614103617818380298 0.0813739132726626208)
(0.472701226571534072 -0.648268688228957557 0.0628244182104208404)
(0.265884462133960553 -0.420902694076492889 0.0680143170772786604)
(0.224157645504867775 -0.419032932123414359 0.0578239065275458278)
(0.249613106263110424 -0.406834220634909371 0.0614271043174832235)
(0.243116408269361373 -0.393892760156931199 0.0682556880913014058)
(0.301651198386501507 -0.467292462054917201 0.0726321121909044159)
(0.25720503424237956 -0.455483233784255259 0.0632504403298015799)
(0.286709699633810933 -0.446047692586951261 0.0667835925008574)
(0.282907260148856476 -0.434910391294688281 0.0737282118522554208)
(0.329947363340517108 -0.524671711206305291 0.0756338000514597542)
(0.284774306018473311 -0.502489875813408982 0.0676777670261783232)
(0.318209350458614482 -0.497154009682559128 0.0701568066630486459)
(0.315398270115048951 -0.488998986629256782 0.0778003315143716984)
(0.348489339975710632 -0.591970097869493617 0.0761008825595953231)
(0.307393438726710433 -0.55786395472229855 0.0713624580326264052)
(0.346115261410161912 -0.557990266061337725 0.0723970756392920273)
(0.342642947909141571 -0.552060408131810676 0.0805861666923845255)
(0.309172257058049849 -0.624006702932726309 0.0731850498759371026)
(0.351050103405905922 -0.628417155615872192 0.070080798848567688)
(0.347185226911518208 -0.626027641239830901 0.0787708552090197744)
(0.360659150155754005 -0.661261406717696842 0.065027072292863683)
(0.216377338833769389 -0.453589539212193249 0.0530600297800687265)
(0.182319775407752016 -0.450349569390118776 0.0450369684361593275)
(0.204664478142499467 -0.440523033337853254 0.0481756928093516404)
(0.200018839987465974 -0.431989127024132447 0.0521400312700410346)
(0.241608092421436743 -0.491473010468182647 0.058296095165075508)
(0.205812467488623391 -0.481968114325586228 0.0501237690101477562)
(0.231729897520441291 -0.474438155255784033 0.0530518955857603725)
(0.227332501218379696 -0.466067159124547714 0.0578205199409764642)
(0.260939094323042853 -0.536448753881010321 0.0634064250073449465)
(0.226099698907115121 -0.519727867038938696 0.0553463986909090364)
(0.254674762716608161 -0.515904755900433054 0.0579153030648544703)
(0.250310346200359246 -0.508256866823362019 0.0636049190801369901)
(0.271521158551610742 -0.589135829050581705 0.0684466253489682125)
(0.24142802732377236 -0.562541767935861747 0.0606366330432502668)
(0.272486566757215443 -0.563659902324687767 0.0627866435046298826)
(0.266950184622203213 -0.556868882419430333 0.069074327293517146)
(0.244189880518540847 -0.612216946329827483 0.0659645962059984825)
(0.274218539582303689 -0.620375090119942185 0.0675916784959464945)
(0.267932470164190528 -0.614078588217369603 0.0739245477926881167)
(0.269802646069779994 -0.64602320527623136 0.0658160406228439632)
(0.172158940479404748 -0.478186155368812538 0.042100707666238267)
(0.143160040629657037 -0.473157741873272641 0.0351400245848248124)
(0.16402495713921994 -0.46626123668268904 0.037988208698967324)
(0.159906112778895826 -0.459767464131372483 0.0407766475813391358)
(0.191000117406794873 -0.510188754141916889 0.0471740725359812707)
(0.160485284162195097 -0.501871351901076568 0.039876664299826628)
(0.183901634233772482 -0.496271673781503941 0.0426043156852695531)
(0.179530719494333857 -0.489526700452093677 0.0460813451278365357)
(0.206594614797719622 -0.546091660255513589 0.0525766067268143844)
(0.176575079220761544 -0.534153084144585177 0.0451020267822178286)
(0.201720140063713638 -0.53038358251191442 0.0475389081907180988)
(0.197128255898119192 -0.523777215971677146 0.0517820924852573014)
(0.21700793155044304 -0.585240795407529157 0.0581546039002805992)
(0.190140599502723329 -0.569035949000281982 0.0508579839513864027)
(0.21547173617439716 -0.5679162819004272 0.0529301138556026243)
(0.210398288220419838 -0.561583182316890639 0.0578558155786863607)
(0.199207482585963269 -0.605440221309176629 0.0567791543221749725)
(0.221209972181028863 -0.608956887965841798 0.0586762753600959808)
(0.216414903072805559 -0.601833450195538577 0.0638605804043597264)
(0.217757557986374389 -0.625539681409659654 0.0600857316494645757)
(0.102003551458891645 -0.447381556498670174 0.0250524278091294461)
(0.0812550731302865703 -0.444496707953197734 0.020004094851911472)
(0.0934930708992336018 -0.434454053118965344 0.0238561215580419643)
(0.116698395072466404 -0.470122879457488374 0.0286790500384001279)
(0.0933926461296501892 -0.46561414730522227 0.0228931007380862792)
(0.107631322272847121 -0.455164632896679022 0.0273271660752467359)
(0.131666500495357441 -0.496364328307528413 0.0329159812184131872)
(0.105992199140466453 -0.489987168639716308 0.0263690213316441074)
(0.125919168647865759 -0.485128081490897201 0.029397397937074396)
(0.122225127388240831 -0.47941731403698068 0.0314824944019065842)
(0.146463838735748059 -0.525783065581379883 0.0378046185460632761)
(0.118831645792721055 -0.517585466951377415 0.0305542177908494916)
(0.14107007856140108 -0.513195510541569644 0.0336789058435305391)
(0.136814163774395897 -0.50719182715682043 0.03635426408213073)
(0.160680048720553609 -0.557640848871763573 0.0433834040067898538)
(0.131672903052487827 -0.548039962876655351 0.0356020596659745378)
(0.155862974981783697 -0.54406911415163639 0.0386070175190505321)
(0.150941474055036662 -0.538019903387147114 0.0419837595638006406)
(0.174245956771065996 -0.590922878589239864 0.0494825343732807829)
(0.1445305271773836 -0.580736703287248135 0.041697347389349812)
(0.169818084529825025 -0.576755232425304687 0.0442276629028285698)
(0.164405494659602663 -0.571025987581748384 0.0484843336080809373)
(0.158045631309385343 -0.614664920821651362 0.0490354322692614086)
(0.182296472493110401 -0.610299398344638866 0.0504659047492162852)
(0.177385327133212284 -0.604988666187102564 0.0554518140932864709)
(0.186774233648175164 -0.622612131826655091 0.0553084133207104728)
(0.0723936372870804534 -0.461314404914261234 0.0178447677808683397)
(0.0540165261621213463 -0.456196266506877057 0.0132091710154091813)
(0.0665573827962507164 -0.448374465518577348 0.016891257752945265)
(0.0825618116367642513 -0.484185767197414907 0.0205830720313303003)
(0.0618655922946106454 -0.477558894074660789 0.0151977400619990443)
(0.0761875776748120181 -0.469411503781135553 0.0194599796546515054)
(0.0931454091594509231 -0.510134292916492482 0.0240072579040804222)
(0.0700981767450307436 -0.501943096367373665 0.0176961026312340078)
(0.0892228841821145063 -0.499042397096366441 0.0212395899244792047)
(0.08621096830834582 -0.493475208682491284 0.0226769929885263857)
(0.104141489636963638 -0.539091577854827309 0.0283516589107607395)
(0.0787329497739578665 -0.529412563834457117 0.0208908744648499296)
(0.100371202024363157 -0.52684153617652929 0.024855611117785243)
(0.0965304825696191721 -0.520620182870519699 0.0267450736112341721)
(0.115826233158909553 -0.570747920538600573 0.0339160030485345029)
(0.087838105112179099 -0.559919938598334888 0.0250311849177035639)
(0.112097463012913484 -0.557519684285362915 0.0294523254751058797)
(0.107142951031295591 -0.550705324045986044 0.031918380331126435)
(0.128843550944393703 -0.60463733609043302 0.04125024528533041)
(0.0978184075145365622 -0.593318728302733689 0.0304723341559134768)
(0.124843598939674075 -0.590587065154548507 0.035399719718884684)
(0.118352313011826596 -0.583368461086336998 0.038582656613859935)
(0.10979191135245947 -0.62937004283789888 0.0378559885096486776)
(0.13994635896828958 -0.625386428300233499 0.0433705154874466856)
(0.13128752674205113 -0.618281076184145295 0.047570240468717738)
(0.144596297696757414 -0.640947753856675906 0.0510788237817604296)
(0.0432542080536699527 -0.470633569763433901 0.0105621432965399224)
(0.026988123973158442 -0.463015630938346578 0.00652675264276549212)
(0.0398376184402647049 -0.457639821127138191 0.0100061046529152549)
(0.0492071118352008785 -0.493669195436465702 0.0123107706619027882)
(0.0308508555200557623 -0.484521752661435434 0.00754881275462103169)
(0.0454416834661018898 -0.478829831734130518 0.0116112333729477615)
(0.055514511158482889 -0.519779382664372847 0.0145797191920035221)
(0.0349255806559758408 -0.509028230279131355 0.00887070595147964464)
(0.0533416599624498694 -0.50872222545371959 0.0128077917301392397)
(0.0513115300686215262 -0.502956847983174193 0.0136921384096327196)
(0.0622670261263032002 -0.549057170543577833 0.0175704004717927645)
(0.0392589504159250452 -0.53665384672980132 0.010600639310292561)
(0.0601511899910154718 -0.536847245408131446 0.0152357077259802024)
(0.0574800664021932056 -0.530096407540885273 0.0164122017946392411)
(0.0697410418380590563 -0.581605708212488803 0.0215875160250825829)
(0.0439339118252524558 -0.567537474215032978 0.0129026665848941801)
(0.0676173829792304087 -0.568298972109784084 0.0184580106279729553)
(0.0640281526608221518 -0.56031357729625797 0.0200246328524769854)
(0.0784381709169123115 -0.617533793329810177 0.0270780773802317513)
(0.0492173227800996871 -0.601887674110416326 0.0160235522907026286)
(0.0762181386884001749 -0.603227001533319651 0.022865338915396792)
(0.0712523186252846386 -0.593700358483966184 0.02488513865657754)
(0.0556621036574994552 -0.640093568777537869 0.0203472915382714239)
(0.0870942602458755349 -0.641741279502141992 0.0289675975429069775)
(0.0799047998367290735 -0.630326292996108872 0.0315500818167989)
(0.0893838782380175917 -0.657266098118833297 0.034882783543128501)
(0.0144232710299833488 -0.475782981135115302 0.00351342210084659842)
(0.0132887577379035733 -0.462781995690197512 0.00333301720527909165)
(0.0163986180623245416 -0.498858261974107098 0.00410874804419787253)
(0.0151521989942462933 -0.484000088337256718 0.00387920482012303613)
(0.018485484364788262 -0.525004459744416341 0.00489162606976871472)
(0.0177997991020856922 -0.513979785982040083 0.00428747157283968731)
(0.0170965696873863586 -0.508104154704284605 0.00459330137196450362)
(0.0207135993866184032 -0.554384743244830558 0.00593290542339404078)
(0.0200655356317662216 -0.542238032060890829 0.00512571286822550726)
(0.0191353853141980161 -0.535203481012561655 0.00553967153717622139)
(0.0231637456914696761 -0.587247144014886979 0.00733870285051422058)
(0.0225537735851112295 -0.573996930420406226 0.00624815229326986833)
(0.0212974652665636269 -0.565441623717288677 0.00680482847985837847)
(0.0259793461470832938 -0.624048700278528767 0.00929276644874231679)
(0.0254105941566045122 -0.609642183011772198 0.00778523531105988244)
(0.0236738577217151004 -0.599045221186811139 0.0085162918763986243)
(0.0289024934291943203 -0.64989298472335133 0.00996852805845949673)
(0.026433545827136265 -0.636479223421144602 0.010921269051130755)
(0.0294616873803571003 -0.665628140852413841 0.0120798324317360484)
(0.1408609103066715 0.0309807475771346486 -0.428807166065657441)
(-0.0992554889261045292 -0.909689014116819794 -0.276037325547954349)
(0.0950637597373098497 -0.0596982312061644441 -0.367868861945056913)
(0.238780976477969614 -0.108125649075575925 -0.367151135461228573)
(0.197511158554010968 0.222487255614365276 -0.390300744983107795)
(0.30094960812792998 0.188559536000936862 -0.397803127017432034)
(-0.0985518974452833235 -0.780815521705323423 -0.214381294943525758)
(-0.124972151463276518 -0.562275607513308739 -0.164474574923155675)
(-0.267586885239604833 -1.09534385919209321 -0.117848237231508557)
(0.201984526249065932 -0.621625619308666 -0.328277641036727574)
(0.277165479359143152 -0.285958095854883743 -0.285433961875060371)
(0.279472848669014617 -0.212200770015684076 -0.332985623116493601)
(0.402934580520097341 -0.842937375843928915 -0.177171714824441939)
(0.361358418077592058 -0.647634871134172063 0.0193640032427609826)
(0.564110397272872821 -0.831122900568978751 -0.0623360698690713436)
(0.144915570314508663 -0.606582455681630384 -0.278244082435695261)
(0.322439412656207125 -0.691596182646521007 -0.130778871628255355)
(0.592849587614064033 -0.995989349233338372 -0.218508638060433885)
(-0.0463409654257974438 -0.312981568769719942 -0.253947149170648978)
(0.0116960940898152288 -0.175318192810210882 -0.145119435629642385)
(-0.12273390246008524 -0.290949283911395851 -0.262780073961375704)
(0.0974173961906091429 -0.546295103910621749 -0.278370921016356854)
(0.313249499976472112 -0.715214048935961522 -0.0998616041795474668)
(-0.0331298278377668495 -0.349931376754075263 -0.207536556787707688)
(0.18573067402443949 -0.931058472844657148 -0.260012796587474615)
(0.138063348661036173 -0.587494008018786373 -0.27379114742922539)
(0.253371733055068493 -0.539099973804115673 -0.358977854348625114)
(0.216582265253571549 -0.516299458076720064 0.0657568464389462204)
(0.39602776332768197 -0.370695783932037448 0.22881975024087714)
(0.33640173873317436 -0.65659368699331444 0.0552291379803674862)
(0.14610095668707318 -0.315917640129167065 0.00234577517779799988)
(0.338960851254850815 -0.460968400332467498 0.120990881028882211)
(0.2930291796846064 -0.618599876088347989 -0.114915945391650634)
(0.42903117685944564 -0.449485900663357973 0.00896610936145994519)
(0.371849367928560548 -0.343854088281746739 0.0627975153455490737)
(0.395489511056475063 -0.144220600592925546 -0.153762626775513139)
(0.478305856537663998 -0.970820310032920131 -0.0815034797506639097)
(0.661721166865959054 -0.570698035757371103 0.00610316676576992938)
(0.596796054995420322 -0.733176047602297709 -0.141729298809271653)
(0.497067339738026803 -0.71706976667880562 -0.106425165465608096)
(0.16226254409329699 -1.25276788334803246 -0.150692275597170855)
(0.225873104637062144 -0.901788819129071384 -0.250120493983939041)
(0.493454952221226595 -0.273739930147112176 0.284053784830812617)
(0.447079463902537055 -0.282441871536299405 0.322723829185670996)
(0.464799182954552026 -0.302635533482665253 0.256578994507885849)
(0.520895526696888322 -0.385273368088035584 0.181442621196633735)
(0.521923816363725757 -0.329247497909248843 0.259862482692673535)
(0.500718278007982187 -0.365778008747021155 0.167964101088358714)
(0.694370014593964857 -0.533895579166858369 0.0599345727498593467)
(0.598266588864544535 -0.372414641770651089 0.137321134407221435)
(0.607150113830361104 -0.455347905640826278 0.0281802504542070752)
(0.738673803562363673 -0.57251129960371705 -0.0188185189491737806)
(0.697092183369461882 -0.519426807762863318 0.0282630210545357086)
(0.766579034382520841 -0.588564431598158411 -0.0264797418422367016)
(0.671442872928233458 -0.547110343068466398 -0.0511337717084019705)
(0.881974952852898397 -0.52464827882143128 -0.0418110737998175774)
(0.592266793967138994 -0.82115805999080449 -0.108704566448900267)
(0.466918711786223795 -0.321192252859698379 0.29853252704753197)
(0.381027742952907533 -0.286884412671865707 0.27579599564997298)
(0.384114977120959156 -0.347544732602211415 0.256371637728048773)
(0.575211142424378652 -0.358708226864649204 0.215740995903261706)
(0.503742721813756789 -0.329349871353626089 0.232996517422145277)
(0.510103800419677733 -0.382893131503086792 0.220294078578271019)
(0.647055647581040616 -0.428049434672202911 0.105649582711898046)
(0.586058221978992377 -0.387161259532559809 0.150482611550435463)
(0.595971360383693693 -0.405931178683298866 0.139964198337951595)
(0.617523044025229062 -0.521817265288752941 -0.00405223170469291849)
(0.641177945013125083 -0.464762767851357339 0.0726622078547324579)
(0.648744375435682974 -0.480319986013521938 0.0497385499442261)
(0.627418913547587165 -0.523550706655084075 0.00349630973756909214)
(0.608079737706411216 -0.563040477292520936 -0.0549408592711503468)
(0.614603957269278078 -0.508076659382241225 -0.115279089233653154)
(0.421867400707503448 -0.320878334058246728 0.210259986024586787)
(0.348443489047795985 -0.303596996245207584 0.170304213793461334)
(0.362681410253282599 -0.300992806084655562 0.166471194245133014)
(0.519791522929300864 -0.374471139327481217 0.167738133069319117)
(0.443505138443754499 -0.356659185943138279 0.154523278783876256)
(0.463792229741576079 -0.352408689585574364 0.154529415115890328)
(0.588766485755532587 -0.441126857579516141 0.117495236693269792)
(0.516693915291168149 -0.424753531310254839 0.118104382015838172)
(0.543893842067143085 -0.410842008840649531 0.115107790304271207)
(0.639997330565086564 -0.492263070126893021 0.0802107492969940522)
(0.56460885580550324 -0.50111848920814106 0.0878158972049491171)
(0.603899003658245559 -0.476022577654610202 0.0799463844157635439)
(0.607195609503699663 -0.561629268963182438 0.0625034712197652387)
(0.647548720498536623 -0.507854636412711002 0.0494740316860265011)
(0.694841529782311618 -0.511611513897935355 0.0457309406886909145)
(0.377089425703472536 -0.346488170088051939 0.114567506552751094)
(0.318397283721567337 -0.344009688734201791 0.0951657542747057217)
(0.341330223154409473 -0.326154365043731354 0.0890954152281073636)
(0.444524703957892509 -0.40576285541371182 0.104889527730395532)
(0.381384954480379235 -0.393030562858108279 0.0955972790945277123)
(0.410911207585698268 -0.38066314775128951 0.0938056237384748831)
(0.493602990545508546 -0.476436829320379507 0.0884250425275175389)
(0.433001116791832452 -0.454013828107465101 0.0864555433280560226)
(0.468742563893354058 -0.442274903384969054 0.0841118842322523125)
(0.530832910053557816 -0.552628202258433565 0.0701086191277204424)
(0.472277688437317988 -0.526035583679235197 0.0767525786238083263)
(0.510280479501841411 -0.515117373934391942 0.0721392021573253883)
(0.501007470028891344 -0.597881129413806112 0.0623154574188940699)
(0.547830749573016029 -0.588695045019390184 0.055487704870822642)
(0.570431633646674041 -0.623195186168964521 0.0441220069375612284)
(0.326652656963582311 -0.393686388478257931 0.0761955268164824506)
(0.27685092732857014 -0.392705569611562832 0.0657417521624914653)
(0.303527392145079067 -0.377481891656231305 0.0674930248689340068)
(0.373212783500661394 -0.444126991720612541 0.0771632946921881335)
(0.319566271219500098 -0.433625239320509392 0.0702672011735370194)
(0.351002755893930263 -0.421433602333041279 0.0711852213488908953)
(0.411540352593837699 -0.507042232484200772 0.0747830794243467822)
(0.356639626124864439 -0.486247059495590661 0.0709465551461184868)
(0.393240374422246186 -0.475451719716195098 0.0699758986532300065)
(0.442131016231334051 -0.577348938515062304 0.0689594169149820302)
(0.388681157002494226 -0.550482706675812228 0.0706459880081828223)
(0.428995636078244924 -0.542038039889876533 0.068116712426160006)
(0.402694735420286776 -0.620166796718979341 0.0652004115709389348)
(0.450889960521920319 -0.611802574767849383 0.060290767510119303)
(0.470689365069214494 -0.64201087666583867 0.0526748871963323081)
(0.271512880703937476 -0.431979219145367743 0.0598134265195460688)
(0.230119938900742227 -0.428798678826231405 0.0515073447469916526)
(0.255370672377319363 -0.417370293171623497 0.0536121436958336209)
(0.304676032421996756 -0.47590924021459291 0.0640504616274674282)
(0.261234562911872525 -0.464584877422097309 0.0563670259051216732)