/*--------------------------------*- C++ -*----------------------------------*\
| =========                 |                                                 |
| \\      /  F ield         | OpenFOAM: The Open Source CFD Toolbox           |
|  \\    /   O peration     | Version:  2206                                  |
|   \\  /    A nd           | Website:  www.openfoam.com                      |
|    \\/     M anipulation  |                                                 |
\*---------------------------------------------------------------------------*/
FoamFile
{
    version     2.0;
    format      ascii;
    arch        "LSB;label=32;scalar=64";
    class       surfaceVectorField;
    location    "0.450000000000000178";
    object      Uf;
}
// * * * * * * * * * * * * * * * * * * * * * * * * * * * * * * * * * * * * * //

dimensions      [0 1 -1 0 0 0 0];

internalField   nonuniform List<vector> 
20856
(
(-0.0715691736198195011 0.171448678378735953 -0.149284708693974588)
(-0.0893622635177853397 0.170210912143872628 -0.148747499197580207)
(-0.0284323636068724885 0.150851226070296746 -0.136415220255224623)
(-0.0880443358442925678 0.1664548806140278 -0.166682111198036859)
(-0.100494437400247105 0.166012412992085689 -0.164534233819512044)
(-0.101547082212992218 0.178568197924842853 -0.154423493432064851)
(-0.0540159128411510092 0.147783340382801109 -0.160593088385444005)
(-0.101494840076323298 0.161189373465182167 -0.177936997673257213)
(-0.110394621053171535 0.161185653291033099 -0.175211383213336069)
(-0.112136997766706104 0.173859543983116732 -0.168351117614930046)
(-0.0741319742348286598 0.14416745704859793 -0.174806361935289867)
(-0.112127632238132449 0.157185000857987339 -0.187222672241575683)
(-0.118494847828760838 0.156895356489378968 -0.183310544623748461)
(-0.121146452254640366 0.168762821996963686 -0.178987972941839768)
(-0.0888485139087182851 0.141280583298972862 -0.183506649344149175)
(-0.12054105121734375 0.155444025791555474 -0.196729651846555498)
(-0.124953705646582036 0.154566565839752784 -0.191715750083007647)
(-0.128615110718089842 0.165116391246196481 -0.189085358571738082)
(-0.100308282625386561 0.140175021749145368 -0.19173812379708699)
(-0.126418224359823222 0.154968924516462297 -0.206623327957266928)
(-0.129305604955772951 0.154109257825395557 -0.200257246612063372)
(-0.134165711796650017 0.163136330442285593 -0.198678600521949272)
(-0.109116405175776282 0.141481241622986031 -0.200498854164596507)
(-0.131192041110621854 0.155277924698679681 -0.217256537957274148)
(-0.131866413744829075 0.154108129998828669 -0.209881313838305994)
(-0.138281999185542737 0.161923940046831527 -0.20909643886852336)
(-0.115762527743017388 0.142962585022672284 -0.210366457494445463)
(-0.135944361233768324 0.158030427087537589 -0.227891890125653584)
(-0.134149423569587534 0.155713464536485879 -0.220158582452001872)
(-0.142221217596896404 0.162126214525680268 -0.219742451901819541)
(-0.121051982292881194 0.145174953639919835 -0.220568638253555604)
(-0.140384852442510116 0.165319894766418118 -0.238363509956607045)
(-0.13678038067312967 0.160733431257844783 -0.230565749668881881)
(-0.147354203305888554 0.165410693643573997 -0.231289203256684284)
(-0.126297709730703034 0.150503619204534256 -0.230731608630779877)
(-0.142359390190103352 0.173511198708974634 -0.249849060979210169)
(-0.144786301349402763 0.171667391777500955 -0.241260784226393077)
(-0.158973383081930486 0.172977579419491601 -0.245859594988609792)
(-0.136344405165082672 0.161304217184934762 -0.241000005079942348)
(-0.153352022987127329 0.181392743307117132 -0.252696471466292927)
(-0.136464356189314406 0.183334280110929448 -0.253909371621358682)
(-0.147859062779146927 0.175719689463778778 -0.265605612499414501)
(-0.131539001956852725 0.168496142741911381 -0.251074997935954836)
(-0.165459608366082395 0.256324186024977141 -0.164503530263282072)
(-0.105300447072280645 0.194260964854205076 -0.248199177732378928)
(-0.100620453124429257 0.180550100877874042 -0.259523992301160189)
(-0.11935627332279887 0.186355224125953095 -0.244390972776257764)
(-0.133136625898975541 0.425958327413968774 0.102425582827050887)
(-0.398843390089451799 0.328263422888424083 -0.0738034455164407327)
(-0.419363613050861284 0.317760898544505954 -0.0890406371847873024)
(-0.402891891433961757 0.35020158182294564 -0.0688344884930654627)
(-0.0861762655950479434 0.757873592825934805 0.486142630663007835)
(0.438977218811331393 0.541177882327026794 0.292309875985831191)
(0.607435509354560033 0.474258359719671119 0.229423704312618826)
(0.479620612310646122 0.600716009678368135 0.327030632122371767)
(0.0067601093528075161 1.7380326196501843 0.808476637112229168)
(-0.895156691872477817 0.933466025728853621 0.646783618566388774)
(-0.872593870775590252 1.01475780169734886 0.741961073621733691)
(-0.867779983494054719 1.03156095000403436 0.652835923023684095)
(0.959783435374883198 2.47242343187577296 0.921507635194612762)
(0.996958738457502269 2.41424563101964473 0.952757473443086145)
(0.952286494332736932 2.55838484931279275 0.901353436069933123)
(-0.118482195420844622 0.167435489459126813 -0.163997024323117635)
(-0.120189623481605709 0.165491456345099208 -0.157438819725186391)
(-0.12496100157654938 0.175881891695204184 -0.150706984334837757)
(-0.102525363199005223 0.153661080060744193 -0.164887197944775105)
(-0.123141676126730326 0.162781707956305421 -0.173063505834811338)
(-0.123528562389422808 0.162032784592712337 -0.166203939034484188)
(-0.128384887342151338 0.172480026083190269 -0.161386739027653492)
(-0.110266122450647763 0.149982295064221283 -0.174004315531092524)
(-0.127437831762370779 0.158322624418327645 -0.180584930163827428)
(-0.126900513216765209 0.158016766957443294 -0.17340622231666053)
(-0.13191868024807285 0.168217860740475678 -0.170043253200253208)
(-0.116221037059414001 0.146120412780512549 -0.180676598829899615)
(-0.131181084808406623 0.155137374549673801 -0.187803622465180398)
(-0.130237361867216433 0.154580454651069038 -0.180531043274694658)
(-0.135438838682698098 0.164008308427034538 -0.178436521955641858)
(-0.121190838103852477 0.143342449712988734 -0.186809049037463815)
(-0.133762918945062287 0.153633565988526871 -0.195243344848515354)
(-0.132719050584737736 0.152579222710657714 -0.187785592598622209)
(-0.138231143582944138 0.160972261542817546 -0.186709919182709211)
(-0.125081137357201527 0.142377907004738569 -0.193266579273258937)
(-0.134620216710618551 0.15328491462869101 -0.203515232493102299)
(-0.133570036020113747 0.151999492930284197 -0.195707573896658105)
(-0.139699749708477511 0.159047971743584288 -0.195327970135659001)
(-0.12738045870768569 0.143123244245971587 -0.200406651607143133)
(-0.134755289470656958 0.154301361325740516 -0.21278335833303369)
(-0.133109487778300728 0.152443847631268059 -0.204666847037542177)
(-0.14025475707288021 0.158095558810760706 -0.204826538568603306)
(-0.128027346711754531 0.144411871217180326 -0.208292468675687348)
(-0.135360025479359936 0.158126826890154393 -0.222832441995230029)
(-0.132205134202238339 0.155105559599522158 -0.214696822793550984)
(-0.14059568860800073 0.159317471455159732 -0.215174351670769065)
(-0.127983304852398005 0.147168780811147787 -0.216995816652158169)
(-0.135880716967149234 0.166956351673632541 -0.233463023938667746)
(-0.130995140824092499 0.16132822193163629 -0.225544553480397869)
(-0.141638099974805115 0.163807462984728869 -0.227096086556145743)
(-0.128506221529837567 0.153399927944575853 -0.226426763075992438)
(-0.134758031697642999 0.18133793961062572 -0.245321094868541534)
(-0.135247586010246335 0.174216110214513525 -0.236720515274720877)
(-0.150378261670631452 0.17373470743900532 -0.24244336419761281)
(-0.135379721867605218 0.166076341100888619 -0.236223069562416593)
(-0.142664731070434592 0.195359664643891651 -0.249412077887444683)
(-0.127901977093469565 0.195955379706385491 -0.248435580310955917)
(-0.141223184329688473 0.188015360050681229 -0.263025443871264586)
(-0.130351127076946877 0.182507638619285179 -0.245691202225530064)
(-0.154660841018357809 0.26767166636501849 -0.157499092985535216)
(-0.0770965757952851299 0.209811576740467243 -0.243324715544118553)
(-0.0803834428933679762 0.19869195437950693 -0.260058750420948726)
(-0.106471811731141924 0.19990111283847728 -0.240954536696397131)
(-0.15383271528129408 0.450509050087397889 0.11608084764234447)
(-0.390530020449570581 0.349047413303985421 -0.0737039345467876)
(-0.402181489661013913 0.310301664685119216 -0.0885370265464558298)
(-0.370375610896109542 0.365905505982720092 -0.0461414221353217066)
(-0.139936778798859379 0.723455115628991896 0.452950863889219235)
(0.40138647135259109 0.596989373557951897 0.298613011280099816)
(0.548582486980185746 0.509782393396290723 0.223718560640730257)
(0.270241473313193481 0.637170729560651017 0.349237932187405731)
(0.0154173037889588221 1.67365398863504344 0.759814616648771146)
(-0.869222186636191552 0.819916908457140381 0.573504335889808092)
(-0.911365655150472964 0.883861489240714726 0.662267991423058366)
(-0.865427114370820094 0.933011905887941806 0.590523426951823582)
(0.941402763905805573 2.45841363174955108 0.908623555664038962)
(0.972226836306494202 2.39348413215905254 0.937154434488730814)
(0.938161536893271086 2.54616040617164252 0.893717878101211283)
(-0.125422530514278124 0.160402015506669882 -0.159645734436552916)
(-0.123044543255825561 0.158734438558041396 -0.151765748970556585)
(-0.128001707249663893 0.167458616454619791 -0.147701797825429526)
(-0.118667115623467601 0.149562390206280704 -0.163230348298799288)
(-0.127536212212412875 0.157246120414883866 -0.166546655516333464)
(-0.125206018309712258 0.156506141896429224 -0.158747965308875943)
(-0.130067974585137969 0.165142577599328294 -0.155870227194641303)
(-0.121566513686237457 0.14698058362418312 -0.169035824728835715)
(-0.129778004730806057 0.154146002553695927 -0.173352335427527926)
(-0.127613464847376457 0.153804926584640178 -0.165586804714868224)
(-0.132476122846316047 0.162052695090030507 -0.163659992262644272)
(-0.124201028652183784 0.144236798120607912 -0.174324972082252172)
(-0.131731823099175527 0.151895024970989029 -0.180513013408136469)
(-0.129955347399161814 0.151470332949547926 -0.172810543065622851)
(-0.134951034221388849 0.158983998897552131 -0.171773466845262318)
(-0.126587845477375144 0.142342401700696536 -0.179947092865508279)
(-0.132608639026115693 0.150821139634463863 -0.188249821646764792)
(-0.131377303110832039 0.150062025519095449 -0.180605261585819132)
(-0.136699954919821537 0.156566790313879572 -0.180351719699426483)
(-0.128160662522731644 0.141791613748124767 -0.186263038244982221)
(-0.131949679599437264 0.150966141065139559 -0.19685918844109776)
(-0.131166481350155462 0.14975077797548153 -0.189192516757573037)
(-0.137125257464778688 0.154995804790084929 -0.189534485453455998)
(-0.128113887142025068 0.14250944857687009 -0.193374888079462542)
(-0.130386688471488876 0.152965647731846371 -0.206580311498059277)
(-0.129633592424064137 0.150801739621658853 -0.198832294637732387)
(-0.136596236317888781 0.154729354113520984 -0.199685358454906592)
(-0.126655770024535347 0.144277569703914726 -0.201409378702980368)
(-0.128538680847992276 0.157977792069484341 -0.217408934278718685)
(-0.126967362571532821 0.154468104139635631 -0.209702873690907732)
(-0.135170868209988776 0.156986687076364206 -0.211088974853405775)
(-0.124449542322648155 0.148173902132932078 -0.210517760643460089)
(-0.125657037370902558 0.168283207172001847 -0.22880204481645075)
(-0.122324524931810327 0.161676060552955803 -0.221549852157238908)
(-0.13273176040986423 0.162532510328504132 -0.224225200187623513)
(-0.121813113485715205 0.155565818670520911 -0.220648707826383239)
(-0.119671049189140843 0.188517879405293354 -0.23983500071713526)
(-0.121230630709465242 0.175835608890429512 -0.23306785186998516)
(-0.136594225609515368 0.174326623197489539 -0.239970594217553068)
(-0.125000081115439893 0.170118231914404561 -0.230746628410637034)
(-0.120879993645373052 0.211370443165651567 -0.242348217967629703)
(-0.11511491400901068 0.206383970511743037 -0.241884151213657167)
(-0.127980919063337278 0.199036068829448909 -0.257600669190537035)
(-0.119865556704207954 0.195615895697681508 -0.237953513673732658)
(-0.145326929439907632 0.28936551310492109 -0.159529557105367814)
(-0.0342523054960127346 0.230773682092332871 -0.234201388176958125)
(-0.0442022569856049125 0.220540188893797257 -0.251871015565106549)
(-0.0729726851756573591 0.21647051211742982 -0.234396031498740637)
(-0.145156366319961205 0.488337965307469757 0.108828229090976031)
(-0.386583572702857758 0.368271673146461476 -0.0927397414285973248)
(-0.396555515178653062 0.322190938078362132 -0.102161561923599306)
(-0.377065360173264974 0.394207397009331217 -0.0635473828378822492)
(-0.116911322429204892 0.68928733144413723 0.419166483280692725)
(0.428840813196552595 0.636442721464061889 0.283185004292652198)
(0.504609271303040563 0.564272187578613527 0.226310877999539278)
(0.335026013347180962 0.676586998286347718 0.333463640648958892)
(0.021738611347197536 1.60496442269441686 0.722313274905078906)
(-0.846250056873715573 0.729979239143080272 0.533154631310043703)
(-0.838615129502363166 0.858006048720183823 0.602280196360687081)
(-0.866264416499492262 0.817651936296912907 0.561054686453017815)
(0.926434916366733474 2.45648753143844445 0.901270993459280967)
(0.955347616524686361 2.37075226544011652 0.919369344162691338)
(0.930640886868929651 2.52421580427403924 0.893778454491118368)
(-0.123055859761296724 0.154838397566429781 -0.150867979842879668)
(-0.120441251889970638 0.153509804258658761 -0.143300528078278117)
(-0.124921663367335178 0.16107622681587086 -0.140839284317709534)
(-0.118519766037543925 0.145448771160445661 -0.153638108567030585)
(-0.125546314066997483 0.153006942827818265 -0.157788114507410704)
(-0.123252010569865164 0.152423749123877295 -0.150255701133481329)
(-0.127646216958809039 0.159809453633520698 -0.148588450670959243)
(-0.121058467005183593 0.144042289234087073 -0.159242923073993653)
(-0.12793912242855987 0.151047685777309204 -0.165045012352963233)
(-0.126088048237890826 0.150847850670670719 -0.15752636703604514)
(-0.130575454980757011 0.157758434647834983 -0.1566373433135059)
(-0.123548467766940173 0.142453925762737105 -0.164944536164985778)
(-0.129675496154630282 0.149551321347862531 -0.17290279124330557)
(-0.128450054502137007 0.149391206729663328 -0.165377923803302407)
(-0.133224718985244128 0.155518009667265422 -0.16525315750046235)
(-0.12560447046908757 0.141404773664178141 -0.17114798253300556)
(-0.130077069043861682 0.148902058575602014 -0.18154795669662746)
(-0.12959018364831118 0.148498506939682917 -0.174046272797836854)
(-0.134863463687401264 0.153592915015002107 -0.17462550641485225)
(-0.126500664751252268 0.14124127269495243 -0.178154839463201792)
(-0.128804242538080621 0.149494607680621783 -0.191165622954207498)
(-0.128939782262786434 0.148512491491253451 -0.183662097830709248)
(-0.134984719878520149 0.152362676329797692 -0.18486420942123219)
(-0.125611433971682257 0.142123187979107973 -0.186070409236438583)
(-0.126015068169870625 0.152189540066823337 -0.201954856830580703)
(-0.126590907894233495 0.150035296045599231 -0.194420232370267121)
(-0.133734292269770155 0.152554131141400373 -0.196259359071712963)
(-0.123212297708430951 0.144379294595238072 -0.195006200218632908)
(-0.121596300182431311 0.157978665628361992 -0.213843791569427899)
(-0.122164241148306763 0.154283267213596309 -0.206432313709585619)
(-0.130593141809828506 0.155378740594611708 -0.209092874265104395)
(-0.119444354564634578 0.149157695453299571 -0.205045754173658307)
(-0.114723671859237833 0.168990664716460653 -0.225815659210773317)
(-0.113860917099139924 0.161966185749451097 -0.21929376153874533)
(-0.124282216789336555 0.161309341178334564 -0.223485470093024885)
(-0.113535347189520408 0.157379510076372908 -0.216033858941132167)
(-0.102692898910030556 0.193199639069835477 -0.235117002366507094)
(-0.105843222886448679 0.176148064261273718 -0.230966953357508747)
(-0.120740924305223221 0.173434112475898045 -0.238979943346913776)
(-0.111255907770720364 0.172855995950555674 -0.226325094900331453)
(-0.0922388816351564639 0.225080727780391149 -0.233737321422985478)
(-0.10181347382019991 0.212137661565344138 -0.236726446769349674)
(-0.111689402199174975 0.205046593432832408 -0.252254968831842286)
(-0.107236869100667334 0.206143644771158097 -0.230293959933112552)
(-0.110614548384735889 0.30748233963855387 -0.1674115725001874)
(0.0168812094789277702 0.247755590157312133 -0.223749787979582559)
(0.0030203522783571724 0.238824377896863893 -0.239353775462653018)
(-0.0266644880793176289 0.233777899072532686 -0.223769383265825739)
(-0.115456165004148736 0.513497235529958074 0.0816170337730839912)
(-0.366783794616036218 0.37669268195089628 -0.12211675302526051)
(-0.35622751875995684 0.337905938938599326 -0.11682069463327438)
(-0.385487468388181709 0.402775917982310994 -0.104823655590189246)
(-0.097206297499988395 0.676008884072921923 0.397173152322001677)
(0.52195517759071941 0.669140716160241067 0.249578348291595392)
(0.549589561961582485 0.609551495805211951 0.207485751286110076)
(0.441318277866738162 0.70137927460416416 0.291132919853437255)
(0.0291224589233942018 1.57776804455840347 0.712112349864255534)
(-0.83455859406004973 0.689781964463813457 0.538924160639558614)
(-0.839401335797720582 0.765382043041100468 0.519629651699495487)
(-0.845791957081656443 0.76972286437323223 0.56556307546680229)
(0.915659208746259501 2.46159984127978682 0.900101752719872472)
(0.937609789756804535 2.36499499368652266 0.909900802709995626)
(0.92311668850525852 2.50540036597824178 0.891002337205270112)
(-0.111856462210669735 0.146078745999048298 -0.120983619087187078)
(-0.108511656330864278 0.142137888521319644 -0.114049797742863779)
(-0.113452365601714913 0.14772740434622586 -0.112381563528715936)
(-0.107060767440977256 0.136155312772180681 -0.122477143384442058)
(-0.114608492706935156 0.149694054949110172 -0.128468278693492338)
(-0.111541851649661294 0.146873739842869611 -0.121415002083762741)
(-0.1162354581269847 0.153134598052653254 -0.119509830684792331)
(-0.109822542629657349 0.140231944838132144 -0.130485248030835804)
(-0.117683700509150654 0.151226922989398244 -0.135635694097266057)
(-0.114941462676484266 0.149463398124140279 -0.128553094556464159)
(-0.119335230565946832 0.156062979050811013 -0.126836541850286783)
(-0.112986450273750566 0.142209032746780706 -0.137453192995317941)
(-0.120895488128332881 0.151245369380610811 -0.142688249368879805)
(-0.118476642167926138 0.150390732394720811 -0.135557629363718318)
(-0.122695528635580905 0.157000386847053086 -0.134299830075879922)
(-0.116217804020777873 0.142682316826807487 -0.143748884525178339)
(-0.124077663289004214 0.150391645869816737 -0.149993953662115709)
(-0.122027553163264565 0.150172033603296423 -0.142758756130516723)
(-0.126274884303008539 0.156513162824605256 -0.142123130630193939)
(-0.119387658972105362 0.142245626056519997 -0.149808698108766514)
(-0.126818278256058126 0.149276620591173609 -0.157859278486384452)
(-0.125294776937628555 0.149410262925032566 -0.150502258950432621)
(-0.12978160915061801 0.155222348014741912 -0.150560426169243089)
(-0.122259313543127315 0.141580101701962224 -0.156177389246787174)
(-0.128541072656923827 0.148370252649383055 -0.166521405357833635)
(-0.127741111207950592 0.148573397667810414 -0.159037312242338913)
(-0.132674383390779832 0.153583594027463299 -0.159812878932451802)
(-0.12431844894400787 0.141177152927639799 -0.163172157789321898)
(-0.128667178133214682 0.148095388633916775 -0.176160413931918669)
(-0.128714464479219304 0.148072244140306786 -0.168592977291725066)
(-0.134299827595621563 0.152045957327780146 -0.17007977798216331)
(-0.124908388805241105 0.141357948437040443 -0.171059616388398339)
(-0.126795069440562319 0.149013272699434179 -0.186916707246768815)
(-0.127666389037937644 0.148348674130464181 -0.179292110723726389)
(-0.134150602905174693 0.151067239361647121 -0.181504081350092245)
(-0.123544094582406214 0.14245262339767123 -0.179962566435723531)
(-0.122594322269254291 0.152068796030979503 -0.198897689249272036)
(-0.124335459629612122 0.150128747092789394 -0.191261979724189457)
(-0.132009811402879124 0.151455942615563305 -0.194325861774390457)
(-0.120264249917012525 0.145057576155301543 -0.189941777325644962)
(-0.115274497219409688 0.158141793991350033 -0.211882283678902772)
(-0.117941314231383126 0.154493553127495992 -0.204504297566826393)
(-0.126925583673008296 0.15435205362720289 -0.208722756458430997)
(-0.114749670877745583 0.150313111662221555 -0.200984812126913437)
(-0.104077560302927599 0.168975828948874002 -0.224445055685480815)
(-0.105921330457199689 0.162244304962699037 -0.21837306382973759)
(-0.116581551972740519 0.160046646582242991 -0.224488636318874335)
(-0.105315937464570436 0.158875507826961054 -0.212737546825123885)
(-0.0859504822723713285 0.194305197942654551 -0.232576397760351411)
(-0.0903705309930383088 0.175482631527660166 -0.230307583920872999)
(-0.104588048906914477 0.171047635147828669 -0.239961257848374937)
(-0.0960869534573325357 0.174095789512516641 -0.223165693008368027)
(-0.0588166135310122934 0.233752192341736637 -0.226738913325946784)
(-0.088391592479764261 0.211473710625724953 -0.234187497256663435)
(-0.0961076813110096351 0.204528279300625726 -0.250418349921265659)
(-0.095013286386447654 0.211781246564111708 -0.224613514927113705)
(-0.0678192424876684768 0.31240288941557276 -0.178454968504656558)
(0.0715727232974947697 0.26120377203887557 -0.214540797561486585)
(0.0564970584859727856 0.250501508127788153 -0.230235278873048815)
(0.0274609202330627911 0.249874769298886634 -0.212345698826437723)
(-0.0191702235382684716 0.528038655638371379 0.0458445614932542489)
(-0.335160147116966289 0.35195862840004194 -0.151453689227513344)
(-0.327666063015876585 0.3327413205796379 -0.141515244628489606)
(-0.374292761533031315 0.385395317103301827 -0.14233279129976617)
(-0.0107870767839634285 0.688649657543341176 0.391329356609151802)
(0.652719801752799977 0.694801963310745951 0.195171073102437337)
(0.660546356004778956 0.656586852205795601 0.181323524351138549)
(0.59253772716092401 0.718664701910520232 0.241028091289351376)
(0.0111530018767955624 1.57543359413481743 0.726913563495182102)
(-0.83228488090984476 0.724752645973164911 0.572921084858708185)
(-0.806546943960159468 0.717451197258569762 0.498282305322201247)
(-0.847741670953179427 0.762273786758031591 0.590161066119842759)
(0.909453128741101402 2.45430234724015284 0.903376077003709366)
(0.922461863331624166 2.37256697897656021 0.911417416543579217)
(0.919745345810232262 2.48242339696191117 0.885669433504568282)
(-0.10833178730020436 0.143217278313066271 -0.114481180739439359)
(-0.104872717057476056 0.140202313780677101 -0.10809709287776062)
(-0.109504132005001253 0.145392784657669749 -0.107480222308521375)
(-0.102979228673647685 0.133976865077683055 -0.11462851582219892)
(-0.112027333497293893 0.146886967740130131 -0.121499817946734603)
(-0.108865277420859705 0.144774481308923675 -0.114966566940607737)
(-0.113301631568164043 0.150433180636686925 -0.114126356271224833)
(-0.106716380400446273 0.138046572425324227 -0.122020083047817196)
(-0.11595856442946112 0.148830021269974078 -0.128475029822916392)
(-0.113129708015495017 0.147601104777723063 -0.121801419319713666)
(-0.117376150731084608 0.153470773077638178 -0.121100478948027626)
(-0.110740798760240955 0.140413699706302131 -0.128755583630000559)
(-0.119890667825474875 0.149481362531720924 -0.135628136125355264)
(-0.117409707477249117 0.149009936596178116 -0.128771323829051015)
(-0.12160348922644898 0.154822956163084419 -0.128455925990681841)
(-0.11470644464791567 0.14150233283194974 -0.135148707097727)
(-0.123553202186059891 0.14932297235732897 -0.143267061418833747)
(-0.121502477872900416 0.149407447557840606 -0.136174555486511584)
(-0.125853276398524616 0.154910194469847357 -0.136409188891442157)
(-0.118419820219585997 0.141797539508815379 -0.141601932135484165)
(-0.126499587528494772 0.148808255439220577 -0.15168029270638736)
(-0.125049442704053548 0.149226258667986833 -0.144328822293233461)
(-0.129773600542148232 0.154175895279944575 -0.145215189977749182)
(-0.121538913903663226 0.141782239672560789 -0.148531615471946016)
(-0.128178258414687385 0.148343398909824092 -0.161108884176230371)
(-0.127539321421487745 0.148842690067629096 -0.153504310251278392)
(-0.132843362628182832 0.152994121733061261 -0.155105115279011552)
(-0.123562005079011647 0.14183814510200865 -0.156246260316602631)
(-0.128010975771629759 0.148363917306274101 -0.17172467408353273)
(-0.128360378478448167 0.148644196489988112 -0.163917843517714407)
(-0.134443958236718869 0.151764092849241472 -0.166294008898826895)
(-0.123911977477262666 0.142294805135884411 -0.164984174725160554)
(-0.125423745177773993 0.149476414170572502 -0.183637383201147003)
(-0.126868821006233812 0.149105348813148519 -0.175689361500986407)
(-0.133963941437427736 0.150973678544257695 -0.178955112361274149)
(-0.122080567159007669 0.143569284624186333 -0.174858038162681223)
(-0.119645263127654361 0.152512886561122413 -0.196868588041743842)
(-0.122443089474948114 0.150961777132099295 -0.188894585867253162)
(-0.130808340883126428 0.151414585098327809 -0.193315339671188913)
(-0.117766252022358672 0.14633463388289239 -0.185874719783752113)
(-0.109400420018046604 0.158484275361800042 -0.210995077717660878)
(-0.114013050194394353 0.155158110385564041 -0.203421958736840269)
(-0.123677870262850334 0.154034411247303521 -0.209474815410095438)
(-0.110336814370761788 0.151569947767778351 -0.197903914034157608)
(-0.0937382588601126526 0.168681649321211991 -0.224235592065129774)
(-0.0984778181111975459 0.16259594145537079 -0.218316151489657911)
(-0.109451162745973829 0.159019651681576418 -0.226748304367507897)
(-0.0974168251593174744 0.160179527374277292 -0.210385846947498789)
(-0.0701234533067374433 0.192165113788911324 -0.231918683417185079)
(-0.0757865947917795296 0.174499997620097019 -0.230622845136610105)
(-0.089241667974503433 0.16818150031893353 -0.242613159876317819)
(-0.0808148336278829565 0.174277150514046686 -0.220965153816721688)
(-0.0269786826652074277 0.237689429411252234 -0.221989381492203181)
(-0.0732049999637065241 0.205012315008485713 -0.234052653127358595)
(-0.0803849155984452529 0.19866898016640222 -0.251545565878054544)
(-0.0822622111656526184 0.21110816542899194 -0.221326074582553572)
(-0.0206098358464728848 0.300507875659980606 -0.187539518284343787)
(0.116826071657419983 0.26976452567589293 -0.207795378492671379)
(0.106861038208234727 0.257776609003523061 -0.22614314964559673)
(0.0831882640137735774 0.263317737668488761 -0.202652689086582793)
(0.0512388170553800815 0.520165987984427813 -0.00212717761832539876)
(-0.280400914018765102 0.317066881631121789 -0.169401752124084287)
(-0.273850691201954322 0.311656645346319983 -0.16787884591674887)
(-0.342636689227725777 0.343181936856525038 -0.165814420331578505)
(0.0795175477856958635 0.726344582270371797 0.376762801351997967)
(0.75309421309919955 0.6994730244928139 0.124348819115502607)
(0.721500253994114105 0.670697728441737473 0.129974421755009506)
(0.707335587376806241 0.716838561016063247 0.16759077718352805)
(-0.0232271531888481597 1.59398369784623628 0.74938359836723345)
(-0.800971751717346914 0.827905436667338623 0.625475600362101036)
(-0.790485497377775737 0.765805809176671182 0.520196408812767741)
(-0.825001358274650931 0.817940231168355458 0.6237567079719466)
(0.90060107300444403 2.42347151896808644 0.906343053358757311)
(0.909390572473374847 2.37343038373932158 0.918027843944469235)
(0.915464939268917144 2.44377099961448341 0.879593657363366699)
(-0.0976487541823119337 0.129117406143984009 -0.0958315444036596936)
(-0.0978192703094493271 0.129407792371576819 -0.0920617552388379168)
(-0.0930760313290539265 0.119687060430892084 -0.0932592107170055334)
(-0.0937175188417767729 0.125652123488648432 -0.0905229931814939409)
(-0.101331568750558321 0.136484392086458906 -0.10198940594698043)
(-0.101859962740199705 0.137769177569851825 -0.0968559104219400974)
(-0.0958604148775704795 0.127538268064798399 -0.100363213336756726)
(-0.0975019950302482424 0.133600611240036166 -0.0961926855893280724)
(-0.105587367478382058 0.141924057979919055 -0.108582479078928956)
(-0.106248028643156217 0.144399362223077476 -0.102637765829982922)
(-0.0997956223164102735 0.133340537331582243 -0.107741973178964778)
(-0.101875585580485081 0.139778265701589133 -0.102537941087705156)
(-0.110165728697303206 0.145617911347736856 -0.115268168313586772)
(-0.11099310702544693 0.14916293790613494 -0.108969565796656287)
(-0.104420598788284288 0.137347247567358749 -0.114682237156092201)
(-0.106696101598032694 0.14420713184586792 -0.109044924364556914)
(-0.114832381260134744 0.147877671161838725 -0.122097713325848178)
(-0.115931530367986979 0.152290220895067691 -0.115721701921243508)
(-0.109186854131587852 0.13998630536331691 -0.12121463505661341)
(-0.111671402685338025 0.147187410804467206 -0.115662844607843263)
(-0.119325696668170333 0.149007675125758743 -0.12931774319020739)
(-0.120892643431968164 0.153967062549109107 -0.12302167892079921)
(-0.113739761576989853 0.141537267686090679 -0.127649976267820098)
(-0.116538942327092179 0.148942476726598494 -0.122606617737631735)
(-0.123334036608761688 0.149365327632323103 -0.13723631636091127)
(-0.125683027796585994 0.154496239580069694 -0.131117003283042377)
(-0.117825082356006777 0.14236551891231114 -0.134368599647907927)
(-0.121051888741095764 0.149786955371055519 -0.130181149388338302)
(-0.126427951410394257 0.14930292863240624 -0.146152839838124576)
(-0.12994774234681164 0.154201461675082668 -0.140295583399139112)
(-0.121086912224878246 0.142823086195735888 -0.141750211555044053)
(-0.124839604219125294 0.15004698445401729 -0.138712312682224087)
(-0.128066357883271281 0.14917295556518595 -0.156313269592762566)
(-0.133192231070632661 0.153384689059405083 -0.150828761005724205)
(-0.123066367689015105 0.143224028108082907 -0.150090844121974154)
(-0.127398703026962989 0.150031282779859304 -0.148485798236506872)