/*--------------------------------*- C++ -*----------------------------------*\
| =========                 |                                                 |
| \\      /  F ield         | OpenFOAM: The Open Source CFD Toolbox           |
|  \\    /   O peration     | Version:  2206                                  |
|   \\  /    A nd           | Website:  www.openfoam.com                      |
|    \\/     M anipulation  |                                                 |
\*---------------------------------------------------------------------------*/
FoamFile
{
    version     2.0;
    format      ascii;
    arch        "LSB;label=32;scalar=64";
    class       volScalarField;
    location    "0.960000000000000631";
    object      p_rgh;
}
// * * * * * * * * * * * * * * * * * * * * * * * * * * * * * * * * * * * * * //

dimensions      [1 -1 -2 0 0 0 0];

internalField   nonuniform List<scalar> 
7236
(
165.111383545805126
275.971510280333121
375.328922323033908
417.565530663235677
382.838488607942168
333.247191572449708
298.591983789683525
284.679667086898178
279.649823351976011
279.456096237896702
279.585706219738768
284.067249566724797
294.139668995663499
314.750730460055763
343.895491847200674
378.888544144846833
408.077444166888938
423.536779914176634
417.05176012171637
404.369317446499792
387.293947611902297
370.220453333734895
354.645165644688859
345.24114392165626
342.038060382370986
342.187224547067046
336.581874632385848
326.344227314210627
319.035966191273076
326.05822822685451
334.415679204804121
350.061422448146402
378.519576348315354
472.082688017218402
727.050059024818211
1195.10537021024356
1658.32712608152178
1793.43211188001283
119.862211422865926
173.804901594308461
327.269982791025484
384.764220013491126
330.389445339558677
296.94361826209456
264.860201981069849
261.788129513734475
256.999369299618536
260.874275849217327
260.590684795582831
266.873018988520528
280.614780222329046
305.58176301827541
340.097511535191416
379.848963300067965
411.719664016082561
424.751833903629404
408.454462305863899
393.74906413424867
374.037403435984231
360.174094449978554
340.097142263771332
325.871041585963269
320.530035689927729
329.253324292447189
323.037159020592412
298.217693294508024
271.764299011749301
297.903462003965217
296.653523942391018
317.993733657038206
294.576327655187242
343.111763388562736
533.374301617410083
979.454577203395502
1584.04403004347637
1827.12686210679749
96.1901252965023019
120.050559138588568
172.602801244317448
267.128652406839308
196.19810319513752
103.894272182888443
59.4014244719173021
52.2937120536880826
55.4142091571243611
58.2935016040787914
59.7615374055621373
80.8190197616915782
78.2364431514028382
129.303970418561221
187.938036170967109
261.866392909811225
320.37536775311645
341.577238483081487
268.117322122483984
258.380366267051954
211.898410879274877
182.088583651213156
146.682060609556913
130.546939523179617
145.877518040769843
150.28694939746822
120.876366580247478
115.77308942343096
116.321220810966324
120.578782124108983
128.441493847776371
138.245265142847472
150.238169828912504
169.172421136999901
244.20082169814242
535.356298385767104
1337.6363548097429
1825.18599917811366
64.657226381590533
28.6191443290284724
65.752358365099397
123.29041872532575
100.112870577276823
63.0199530947573265
48.6506832166076961
43.9452883383810189
46.3587240788856576
49.2649744003089722
42.2298418316947846
30.5582469454586096
33.4090822648349359
46.7366385313337744
70.8018127976799434
113.835300046499881
133.501701139101471
138.564408966184004
134.319889388118384
123.735886589372001
108.602048674422235
99.6974744427565298
101.113853761920467
102.001999935767643
98.3745378781987654
100.194977100828652
101.396603483308482
103.007821138554732
106.397401552528123
111.715427882689468
119.465676209106562
129.342102580245239
143.409621153371546
161.689377787198367
194.430847743646297
302.453517014739134
1066.91173534632048
1721.40256203419904
23.4406976117173578
23.0406943296191074
52.2356397349272257
113.050965340661762
81.4396388703568306
41.6758689808971781
31.1886506236172245
29.2401428699562302
29.0342289346825631
29.2697955219015142
28.1056343023776947
24.2729725064315254
27.1870052221575982
42.6017735254546253
71.3132890476356778
127.801335174935261
143.914048858442953
134.795568582245693
123.679301223967713
108.836958326609874
92.9270422770967883
87.5363875183437727
88.6832998350866433
90.3987892392890586
93.6211249143991751
95.5887486823422137
95.9554930823005208
97.5024984918228341
101.125451179967314
107.345064333893262
115.619468463181292
124.648591889749895
136.08645081659887
155.969617678601594
187.704432654244982
254.573064492193737
934.251619141859123
1581.10740904121667
23.6582439601742571
19.8146348414084414
46.0699917197809086
78.7377642642768905
58.6253978976093819
30.4368569396055477
23.4470960219817783
23.4069637149394119
26.4960502564236151
28.7119837044171682
27.0080453069434263
22.3467454224914412
21.6771084059031658
34.5578956166894642
74.0133045160143439
118.761005800463408
127.461905341878904
106.491924497260953
97.7624808822455265
88.4146811862987789
72.9548609511010113
78.063392254735632
83.1998931958847123
87.8301411979095406
90.1629583299920654
91.6021590013102127
92.8789064188057694
94.3184939287072837
97.6682744242757082
105.278879622835248
116.078656257155558
124.541614942081054
131.89378316063636
147.552522738540887
182.023448068524942
244.748899045682606
705.216011386764421
1436.8215861893093
23.1364655949763218
16.9568233669236612
46.35098190014876
57.2002150445628956
33.9870117858531771
22.4685962685248946
19.5084082764304725
22.4566447911270402
25.4966662466628726
28.0925319953416235
26.6074916884452968
22.2710362185729593
20.2609782574224333
32.6079753830038968
76.193457827946375
95.9037397933857392
100.448058282604251
70.4637560021464964
59.2103972674501691
58.8153324939943474
65.8959201951646776
75.4303843456758329
83.2094135639167263
87.4800199899471238
89.4410923646333913
90.0479827427421071
91.3550292453824824
92.4418222383399097
96.0213727576994813
107.538379469315146
115.557467359562807
122.817042286986606
132.183982005218155
142.727692206754739
179.834137436572803
255.521163755601748
473.887127550228229
1337.56588885104634
22.462390295489314
13.8964338976699064
47.9209723718111462
55.1936877612513612
26.5462528157640811
17.1607506046689267
17.6356951369532133
21.0365270694895941
23.573488688925341
26.2349465412243354
29.1707740858646645
26.1186224131047275
33.0372283435162188
51.6651571964255396
64.7612470410486907
73.014735899468107
42.1911260518085527
42.4889798049148979
47.9564139112319552
55.9998643925549473
64.9939869131152506
74.6980785344828746
82.1435040398776835
86.3335772510876183
87.9296986170473929
88.4421095173524634
88.0590789515813555
89.6455132078495893
98.2972685080113138
104.298808703911476
112.63128880139881
117.873230444044523
129.479308685878948
167.798382722235687
293.243089978560874
323.408751109785555
526.933294304643027
1304.02007224495424
21.7211394314682344
13.5605153705129418
46.9370512435744587
32.5420289012756783
16.3424183478839105
13.4266721482649096
15.7336830736238724
17.7862257982748417
21.4230871648662138
28.8352961873550342
35.999542519633394
41.1508341127460469
42.3184298291612464
45.8959542919572741
35.4387723830347809
21.744576843302692
28.1504213210052718
37.0298447619115976
45.8326931602417815
54.7268556901589065
63.9522971403979597
73.1546317768939076
80.817161535259828
85.3599247974237016
86.5984616685549611
86.1982005092761341
85.3380693962783567
86.0482850911757282
85.9140238624635089
89.487382818343022
96.8936742112355063
107.130971646054547
118.418563476403506
178.996275859983484
541.657361151377927
414.105057670448218
909.427974874572669
1394.30439383322482
25.226343259364743
16.113539728954926
50.7598541536955352
24.4248566569823353
11.4008035301972335
10.7150816079049811
12.8825707528150133
15.3315173816881423
17.8497467450963931
23.5668326588629924
30.8002234039863012
34.5290726359431943
34.9063755283043662
17.8474748385551756
12.0569788899271355
16.4545919077349936
24.771914064782159
34.4693621670144097
43.8527741849175214
52.4965473106017058
61.5879172756551938
71.2355535230267378
31.6340983098371851
32.6082972574090846
55.355663670182885
18.7500942822995249
8.52245238677745753
8.97953344240155893
10.4576336851682044
13.0107794661349914
15.0671389751018463
16.8861308293394501
20.8648934341520231
25.3059048371885993
15.4655246067885663
8.72620485148513936
10.968170038556794
15.7548045118143474
24.0694694317556142
33.0814263229411125
41.5082634145844551
49.3504375526179828
57.9581858749334202
67.9308219407746918
36.8329735489987016
67.4167298230827186
63.6122689870414533
16.3398482115790529
7.0445731153573421
7.52598821467198942
8.97149766810422022
10.9097075931660612
12.9861172052206371
14.9749836911793892
15.8178505742258171
13.9926664379238588
11.2198441601886323
10.2894019551277793
11.9241387962327927
16.8131387305203113
24.1127719622033396
31.3941626659300717
37.617719872008557
44.2231956228606364
53.1728413392339689
64.393039045233067
42.2598796160956169
81.4555220400624194
70.4308280977979706
12.4659852096709027
6.42270306438529026
6.73837203894142434
7.6114307083344892
9.57193484458679222
11.1682184017508472
13.3120287549153211
14.4236945535057863
13.2088536335974975
11.7518577312064192
12.3462794748799158
13.8322270207425184
18.6882214871749426
24.6400191092985921
29.6109391033259364
32.8271471413718672
38.758211937520052
48.7455271606930083
81.188299923221777
12.4264721745589277
13.2074540851637394
12.0497510825631533
11.0735858181757365
12.7929032132537284
14.9610474324042482
21.0201711234672075
26.0121027013169872
28.3599537643451143
28.8285044788252698
11.4790051451923354
11.15390114643556
13.8356330798931442
18.2818708208508767
24.0311859910899557
28.6331628956224407
31.3583913220423938
28.8442167423883653
20.603850212031233
24.6766890845907589
29.5724970703673904
36.6847304579192368
121.228143563347913
168.307425050552268
268.731445532834641
353.389501016129543
344.172281366363734
296.290982865805631
259.198671969241218
244.271979614477829
240.795925615362648
241.346712579602524
243.31823383101019
249.097563481355706
261.27735265621385
285.221694651974929
316.476520149034457
350.492072356628626
377.337164672409813
396.497692354790729
404.793362542329248
405.915178888678838
395.128334595511433
375.146580869852016
357.194581097224614
351.884030207382125
351.348007209133925
346.241746325497843
335.99137010380872
323.730872742117811
325.641106805244988
328.757299811368
337.563684370245426
350.21694379368148
398.74755219539378
528.612551337959189
847.315348838845352
1347.52045755048084
1740.95886958684946
1823.37873800603666
54.135001851368969
79.9393459507433874
158.058004125882491
288.609335363895525
296.655876479345636
248.33155833216486
205.610389739514687
188.96203890380005
186.762362154665908
188.330581536750685
193.776583870372264
208.600557534904254
227.275078358024246
265.460820918651677
304.597495147671225
345.382956383963176
372.075449121395252
390.103177147131817
395.564017616629712
396.312735446690226
384.836913757747197
355.475297723870028
327.648973060603282
323.692412694286702
334.485740807596699
327.19238775381524
309.141899931483692
272.250206351215922
293.270001813869328
288.996119436349261
309.308791602524934
286.632989831516056
303.837604383434211
369.91696582973151
642.967254805318362
1152.85808882872766
1691.3319316406596
1853.22447664331594
48.4805122665124202
36.7396396108966314
80.9026469258934355
141.03966646597425
114.61933699321601
74.2016162387550793
50.6055182505777665
42.8562977803760461
45.699930862047168
47.386142382170128
44.6753091265863773
43.6116602880904765
50.0751334488770468
68.2079700599369403
102.626139987561032
152.210835912446527
168.200592102937833
204.609042027628277
229.587178292584497
235.364476364897229
204.873691788262732
168.233512508303647
132.797090851761141
140.794403523202391
133.097185674866552
133.787489308358573
127.186950628160488
121.810485764066655
120.043373771584399
121.745663847248281
126.740541396713652
138.082264812784501
149.859388495497996
187.182036279807335
326.686944150004933
734.652520223772513
1503.95538098961129
1880.92657276828186
39.2400906664078519
29.6782626761493056
59.9039800379503049
127.640938538681652
96.1873234081048025
58.180713321358688
39.3149499855270577
35.7761206221959824
40.9719682694665153
45.9225612291183936
42.1726664919344856
35.7699938286863599
42.6292929037381185
60.9015928880008417
86.7134662225724639
114.645877275987061
142.039323381993114
148.217655160270567
144.499333928280322
134.972001822027494
118.258399711892196
109.255713371604429
109.379232495199716
112.233482873589452
113.510242290293974
113.699915054807178
110.870356753550922
108.852237364925045
107.678183327414999
110.749726613493451
117.527511393254471
129.071471537915613
145.173268317905666
173.673116023238293
226.125341621802335
471.46665174830315
1277.52750613603007
1819.09650105387709
32.9225582629127658
23.5185918256477535
46.3208807030412615
94.3420226610810175
71.8592150507685545
40.0353338789295776
31.3339286370496062
28.1514975240039398
29.576489955750926
31.5910952339745954
31.4438342002913629
31.2018009337362372
33.4511682554048591
62.1138598393017602
89.5805539493572525
119.466250339377851
142.241437121479294
144.501325626491308
136.315350718960133
126.446136144989183
108.180569001869401
99.4914959255777234
98.9484368114101471
102.189330795915367
103.530857249163262
100.745625742500479
98.2607636725826978
98.0141099301198864
98.9650815493681222
102.141764231469878
108.722165933480682
117.722139085893971
134.26000598567316
165.21943100099881
218.65989397121507
349.606565276021001
1143.04165859230557
1709.37878216468721
22.835445766779479
18.826489090483296
27.5634814873710816
59.6359793521468262
52.2835076960631397
29.8425710175333911
23.2730424393697319
25.0399971519902955
28.8421145992817074
31.8463413829088431
30.4522741562866095
26.3868855750591145
30.0080252590107044
62.7440580324298907
98.3311174059609385
125.752437874008947
138.37568373645783
134.923122681679104
129.88281418221456
122.677637132535537
101.261109190314713
84.8569149021636093
89.2457359695487327
92.3580614895168424
93.7616564704689068
92.9516995373909367
92.0779842036293417
92.2215715465919601
93.4798343317725227
97.5629556702893979
105.785755115439727
113.572339963577264
124.159618260631234
148.925863168155558
211.868451002572698
343.203502494570444
967.097075308986859
1593.97008831800645
21.8676576769776574
14.3970331770139381
20.2145203798858475
28.4225971784262015
37.2630699825628824
22.3894668959227303
20.0053153278475904
24.1628413811365519
28.0506345752576607
31.1556755887633692
35.3791897841408485
42.8381668430448173
46.5596350700699233
62.5845562233648138
88.8381153607427194
107.737003277208402
115.08353223664551
113.950675453216917
112.801751635729232
87.9331773976513631
70.2192592965699447
78.8682545708309988
86.219834002450753
90.7774787303282551
91.9247573795644115
91.0229913836941193
89.6670662025464935
90.0715427103412623
91.0422317072793277
94.8782343693405323
107.970554740671474
112.549468645606837
117.802882276444862
149.736557762637858
210.828044183200547
354.280887152228672
678.249353261953388
1520.928157178643
22.0475814605607212
11.3202353621730438
34.2259606486158461
26.9344103387185285
22.7376343812058614
17.1416159757177766
18.3271194069633516
21.7818546486500431
25.4797750114906272
40.6917811045640079
39.9449456072727358
45.0193075103586082
50.2544770737609738
59.4405331174783456
74.3173810490287821
84.9963729904532102
91.1007382940894104
74.405762518177184
57.1887036459995599
57.7233492420255558
66.2568246505777978
77.2788638864538484
85.6490480743712084
90.1194733469339297
91.4552953840237279
90.2893181850885611
88.8551169542121784
88.8438062287798829
90.3394173328218955
96.3976862226405586
105.641043522416112
106.931040848170667
111.07626161901463
161.04036738574996
439.285673602189945
449.902631726156585
743.170029783611312
1493.92056090887831
22.8146156866882812
11.1159261157738385
43.7125149310339793
46.0338130682569684
16.5044685303619758
13.6262655724880783
15.5936412898431467
19.0058019088354335
23.5068445506591672
36.8197354226174554
43.6722404908546054
41.2015036504606655
47.0830769586192375
54.1062896079212123
59.4359359099223354
43.8148043990684855
34.4380328130225379
37.9359637643786911
45.6777938031050752
54.6088737059435942
64.5332397201186296
75.8601477933786157
84.596388583424357
89.5722933137373758
90.7681053831381206
89.266903309904805
87.288900535720245
87.2316959653092283
87.3970075402593096
88.5578842739458736
93.0258118661167686
97.3612278196844869
103.918831285271821
154.352238796837639
632.80705551906965
552.406345611517622
1013.46908417070176
1512.53598936624485
25.4488900732640815
14.2833830417370411
52.8993432182885215
38.4391203137056578
11.5071633775715743
11.36205784465416
13.5269245949199686
16.5638193951283554
19.7769157370419393
26.624115194850468
26.9545801057807068
18.9097465440103321
14.0402281175576125
14.1361366264246886
13.7437852099137352
13.8495183091386913
23.2650283894793368
34.0137961531327448
42.129407195905813
51.7672348708154644
62.0453961997030632
73.149418389087586
82.3159642523757356
31.9500901761712548
20.8556374301683327
56.4127944697362551
23.1478756745056913
9.19302641230620843
9.71348832934072171
11.4638544032562582
15.676385678095011
17.8259251135507206
18.7751407377650779
20.105584696817651
17.901245864676163
13.9105220114909027
11.6563486078495124
11.169991696875087
15.083111142561453
21.621053591215567
29.9329676836021648
38.6454125405965527
47.864963170056555
57.6504287682177861
68.2799194250326451
38.8321369936508347
55.3493838308348884
65.9354982333788371
21.2079489076548597
7.59180583017713051
8.51735039741490674
9.95635968230406476
15.8348465816093888
19.5286840312845875
19.5346402640050201
19.2578109214537356
17.7334654034951527
14.7273455268065785
13.4617166025870301
14.0520016114018791
16.6482616537235124
22.9784941880938298
29.2651956552970525
35.2368569092719639
43.594349411844675
52.9449134414443563
64.9302200110168855
44.709994051386353
88.9701095572002032
81.1115993865475957
17.2740862830640687
6.97591671122971402
7.67491112855367774
9.19031989118388815
15.9632821529642221
23.7148994489740481
25.9695027906429345
18.0084639676947944
17.1382143808068754
15.5217447921268974
15.180844341252385
16.5836668278226469
19.0260655724371794
24.2150447969385318
27.9968835863060335
32.6337685806127524
40.6593746570498666
48.1804171532890351
61.8092130450724753
24.314561315568362
17.559175585703489
16.1950503746933556
16.2889316821193511
16.6548776457544392
18.4421443846035373
20.6326007554945221
23.5746195876593987
26.606934997921968
30.3752529104189861
17.6461304392204745
18.4861995885560262
25.8071417364093421
34.6737882779078816
32.7894816275380094
28.3687689822811713
27.0978320486476498
29.614544670386806
39.0189801276733661
42.5961017267968316
47.8097634452226004
53.7155712790879463
131.605136188579934
137.862111517951121
184.825571320712697
287.945033972208876
297.708565709836535
249.550289602975084
213.22447984277963
203.095136253481456
202.077452960938274
201.926202730147793
203.391854094408814
209.010019683532391
222.551449257154616
246.701307737416158
283.165446132470947
320.548234194119402
350.215785764641851
371.958169706133049
387.477367222249541
397.09921270645026
396.672483543394378
390.763236257670826
385.068230396283582
383.04897836141663
375.405671985266736
363.138512637233134
350.319417749775937
347.868966495610323
346.962398885513778
349.589566864751134
352.176595857834059
377.108412872861493
454.273942913066492
645.489307907587431
1022.61252072647198
1521.59446202327945
1813.68433339911462
1850.8065623892694
75.0979627361633959
65.6455523725028627
91.0545176323586674
209.523869539666663
213.498159994627116
166.622496448753566
128.859375769291461
121.280656215221427
121.430889062285274
120.876794699675116
120.879884252866702
129.394861365451078
151.175276703231077
187.199726032331398
250.716878318273558
306.141193837606068
341.075152693571169
362.762514720362446
376.651228783482622
384.841286570652244
375.761785982066499
364.29474043417099
357.950879994455931
364.130917011937242
351.820141196634097
324.980396269072344
298.051142167012244
313.435692533442023
309.078869155776488
321.460994476748283
289.216093618153366
289.838784717751366
333.046207797763714
477.587471990287838
819.206575620489957
1377.17568605301494
1785.19190345936954
1885.53748268094819
72.8104421011772871
63.9593417717084094
80.2985667050682252
121.917535153200689
110.891494132811999
71.1549596019868744
47.9805049687274376
42.0495811351561812
42.2628483521666638
42.2061959065500147
44.268081458311606
44.8038378851758168
47.3210305385966095
64.6337215948694137
82.6036751130023106
107.087700329453241
130.012092690256992
150.812326142479662
164.667943378945495
173.377123903022039
173.888817035213094
175.698134316013181
163.540314125840297
170.768435264591631
170.484230292831114
161.974653514772001
150.870993862495169
142.350815601862564
137.854331784532718
136.284055466642172
136.851907258206722
142.6167548694917
160.361918271058556
234.690663664799473
442.751918283734085
1063.45976404304133
1685.04030659404748
1942.49213363602394
75.0813197143620243
76.6606052585895128
88.6304674079041632
116.382160484446374
92.4530061142872057
56.7442306769781339
40.9480158479717034
38.0212156411822804
37.3197414242415775
37.1822926096073658
36.8681705392927341
36.8978100671395239
39.93914000027371
58.7797682078208723
81.1454650587696449
104.738065003353654
129.288596598703606
145.192765950257524
150.646651344120272
151.77605405572433
146.426661413239145
145.103270383943737
148.522478210910009
149.9420566294975
148.827135692592179
141.002636511701411
134.303473921437728
128.694486217335395
123.14507489607783
122.527851488529308
127.348711570148751
138.528687331506603
159.758904021841232
205.255339104307097
305.413248150129618
800.167993527678277
1538.31123925995666
1934.46145046728816
87.3402268381756812
57.6782211696782383
62.5086122129316095
63.9772751701258855
75.8053059686498756
44.8835017223431123
31.1888460441203712
28.7058090518213049
30.8675492735059365
33.5444768971935048
34.5373490232735563
33.1487910633158904
35.8212484649158327
46.2083180944900533
71.4842791174054071
109.29499519586264
126.017261435498924
139.315289641379309
147.381538963303399
153.677060594387683
151.813592915890467
135.27783605994037
134.752160697520509
133.144050297929823
125.723563931898383
119.31352263061207
110.897716320639773
107.012968682019363
105.797967664737158
105.046650492824838
107.501810070497243
115.976299991492297
142.470305730079787
194.092257533807327
293.034471154999551
538.921698052070383
1423.4636391427141
1858.15700891049687
67.4250610316173464
30.5384624601513792
23.5898690062828358
27.4711715708554394
45.9998121915722962
28.9341685768465737
23.2314764105457385
25.5201984094791072
30.3648739052049272
33.7128842208924908
34.31754350462856
36.5321428631792742
40.4969219024311613
50.8448652568554778
77.3712067265788477
107.591283781440694
133.386178155114919
143.896718884102853
153.325476552664981
160.422035895441212
157.815191144850729
117.448043756949559
109.507453946823546
106.626134486083757
104.619788388566207
101.807255797792962
98.116030499572048
95.5610213269984712
94.7454426364299422
95.0186763289276399
97.7136942674525244
102.163692760445471
119.042888411436991
166.927626373707824
288.0549103778053
532.029443946669176
1316.69159579935194
1780.61115083176946
27.9423006297074785
23.7721813534127122
16.3451513496911147
17.9191656679757081
29.8433031529820632
22.2376168194402339
20.2750150008403267
24.7152228972255124
29.2465501292623671
32.9945089618520484
49.2624148587811348
54.6032361970397915
59.9075156276856617
71.0002071243648487
89.0499689988788958
109.032386727445612
125.76889181839455
136.249021200048929
147.968399303137517
152.269048984575448
132.569340576178803
93.4229388744371789
95.0209761646164708
96.8407774596335287
97.3259148772154106
95.4617031976591619
92.9617644034561295
90.4358402845017082
89.6435692381884621
90.9217600957874765
93.9680360679733155
97.9165262372077763
105.973873592604349
145.508476195920593
372.132960004146526
559.884238458978984
959.624705472683786
1723.79199203736653
26.0993342505180088
19.0543791574284214
15.6644705292406776
24.2749641219873205
23.9430756021883973
17.391244859664603
18.3210709691099645
22.4770970285895366
26.9876372409958165
36.0291790868746986
52.4539184405932062
55.1002966063199509
61.3717602255082326
72.5106629426128961
85.6996743142621398
98.7840339336392645
114.125933547730497
129.787070656401994
141.008843762850034
133.350749377972164
77.9450260015095608
81.7857454360200364
89.4584488741490418
94.0697733577071347
95.3544099301596191
94.0253638630365884
91.4118868210114357
88.8813619534695931
87.7946805501001819
88.9156061069077879
93.5420571583538418
95.076409832910926
100.12970821755782
116.252846504374162
645.208666327640003
724.222667950184473
1037.41933858502898
1619.7805997158157
26.2876571638509908
17.1522389194775151
31.743199169733824
47.4349922947394234
22.6538853554881321
13.8987756545835506
15.9955802416526733
19.6961288126866236
22.7812085607999499
26.6908464340059979
41.2313484624863023
54.2318654931041948
58.8561911875549626
67.363795903361364
76.0587011085263924
90.727276759211378
108.252478586001033
123.318627132836042
123.816921588522248
69.3320962534855738
64.5869655940292802
78.0267370308664852
87.6724033511923011
93.4637599648612536
94.9736989548728019
93.0703867262990912
90.0736259578967093
88.0911587185331086
87.1799820140873294
88.7480048632264698
90.6231551464829437
91.8213622460487215
95.2589111612153232
103.123555369326326
678.052953386298896
818.777616938544384
1253.77125269960243
1584.22332088193025
28.7675000433273453
19.0968774394410268
62.7726019436584011
60.9854260229837735
17.6908547962737046
11.9972005801087409
14.1546371084577238
17.5010387203163837
20.3326669213024118
36.9535034450108881
35.6286233570652939
22.6588750575860765
20.5773123665163773
31.7338929014256976
70.1607151988360584
88.5570761267803022
102.975031029176861
118.935380540234249
71.5552934139797969
58.720076419268409
63.3335039751202515
75.6699509913692481
85.6616612448442112
46.2098532079189823
25.2714036312003998
65.2325192650731651
39.9858239002359639
9.9665206347785773
10.6079717759195908
12.6945803903635248
21.7537746062324722
32.4833593853613962
35.9735414587838349
32.3745875418629581
19.3564266464907355
17.3499248235546197
13.7331232922075834
12.0832574887204398
35.6986892358144416
95.5170754676928766
104.114074649397253
64.2752047398209214
57.0783278991493148
62.8105152032776743
73.6437195762279231
45.4944285305123231
47.1722833357286433
71.030134599850328
19.4826629871230423
8.61074159488787494
9.58385620828425111
11.7654391865915695
25.5015007869556918
27.5443405649381425
32.1392776917112215
25.3145101240012522
21.417654098173962
18.1025931071195814
15.7849334910675392
12.5399156036745563
9.01160220259295386
26.5604000219439911
91.9594559208473896
111.742426722492823
104.339286413774275
73.7970740964757539
79.5704281031803049
47.3627090853639174
93.8513715130479795
86.0602111652123938
13.8399465431209361
7.58263855714303858
8.88271171530802306
10.9699617841990165
23.4050377821090123
24.5119405195241811
27.551444881148889
20.2463790926507841
19.9759654440849097
18.7145467254726796
17.8230147345818253
14.3225231916311184
10.2123279925984214
24.5986728196018802
85.6595555075205084
99.9441533125009727
126.760813332081625
136.886494571376545
108.569272538189153
25.0397945261563812
19.9191503827361593
19.7899621813722639
19.4476946040641252
19.2375041576354455
17.9509532889314478
14.7729344570546264
17.3131697018216961
50.6336927339917224
97.7134219170128944
18.2000714790466631
19.7186707018948262
28.4708492502149433
29.5421718785837299
20.989960258154607
10.9876156632867943
9.74625687140859398
64.8833799370412123
34.8199916652489208
33.4229133227168234
15.2280294675436778
11.3934711104122393
153.972195021485305
125.807378393039514
157.242411481516712
220.701895750682695
242.806437203670413
210.061637594114671
182.203094732337092
175.371492303671545
176.599181108357016
177.626609549360268
178.132936220674452
179.966043898079505
184.31152629945899
203.653068635266123
232.912613982589193
272.60530239692622
317.226588883914019
356.536363636431645
385.7105659371868
407.348085319687414
424.500211812407599
433.47161598003504
434.854310662752312
423.563120685520801
408.077655261448456
395.731165071421799
390.379774928299696
386.817630863065119
385.72520214968614
384.771238852706915
402.83104789980564
457.203419507501224
584.399455481565724
837.316905829925076
1237.77029911192949
1657.430606556866
1852.0570214483887
1898.31449522598177
121.633880413152738
89.4865304957447876
94.1653877377293753
136.804866196750424
162.143652932222466
126.32126563540352
97.9367054137407678
91.5041932490943566
90.1812290595764381
90.0730773968122094
88.2450662334090197
87.0200999608963457
85.2688116369414928
113.454210539796165
147.350655491006989
208.817834998380079
278.050299020293266
336.625338632757405
367.826257917350063
386.711241578169336
406.965681737081411
409.256010121897418
413.097795980363969
391.77202642981598
364.555593565632932
344.464304007810995
349.196739268718773
341.116307177284682
340.248234793700078
310.108324353522562
312.511678392816407
345.294018759022777
451.122040272104471
675.511050912126507
1066.03703991922998
1577.51295336735325
1840.34788089866834
1925.4746320342233
132.980900893086385
96.3108132188949071
95.5492966454703492
129.996053952201009
124.796111840639654
87.9526172603891467
65.1587168053351746
58.0374439760667258
56.6638635583921157
50.0668216560403607
46.7376462926217897
45.5085314616759646
50.469534766992993
53.3116689671477388
75.7060455414076188
103.45199503423828
127.023425448189656
144.595604300369303
166.44984316529434
186.84316202056516
206.646847734831425
222.096526657722706
227.165538007401295
217.969236671009156
205.117821649738602
192.01993956713207
180.583930373088322