/*--------------------------------*- C++ -*----------------------------------*\
| =========                 |                                                 |
| \\      /  F ield         | OpenFOAM: The Open Source CFD Toolbox           |
|  \\    /   O peration     | Version:  2206                                  |
|   \\  /    A nd           | Website:  www.openfoam.com                      |
|    \\/     M anipulation  |                                                 |
\*---------------------------------------------------------------------------*/
FoamFile
{
    version     2.0;
    format      ascii;
    arch        "LSB;label=32;scalar=64";
    class       volScalarField;
    location    "0.960000000000000631";
    object      rAU;
}
// * * * * * * * * * * * * * * * * * * * * * * * * * * * * * * * * * * * * * //

dimensions      [-1 3 1 0 0 0 0];

internalField   nonuniform List<scalar> 
7236
(
1.77571987710450231e-05
1.17235542126180344e-05
1.04872221757779208e-05
9.92807319159129392e-06
9.56388854155898062e-06
9.26701882084201135e-06
9.04510804182255948e-06
8.86232615995973869e-06
8.71592275301393084e-06
8.5889592542967157e-06
8.48443892198804326e-06
8.39515069118843483e-06
8.32803171424340613e-06
8.28021728518934306e-06
8.24194925991861643e-06
8.19785350950063768e-06
8.14443520559878286e-06
8.08493298932025766e-06
8.05150023584837975e-06
8.02657444306251027e-06
8.00716850036099427e-06
7.98729708438325082e-06
7.97579659937383544e-06
7.96917278830918295e-06
7.95866042845014184e-06
7.93461323810060313e-06
7.91631415585143722e-06
7.90729752318044522e-06
7.91217186974904876e-06
7.90294634164019135e-06
7.90815066347030256e-06
7.92262685028937097e-06
8.01895659759278987e-06
8.14669746686053824e-06
8.59098476793174122e-06
1.00172954967592867e-05
1.47865424710660671e-05
2.65571686416581299e-05
2.89350356920309246e-05
1.65475317942568402e-05
1.05738021565772395e-05
1.01099932327016014e-05
1.0713437530494188e-05
1.03122427437342665e-05
1.0261347453388227e-05
1.02667802239167612e-05
1.02651857424230707e-05
1.00204725996566194e-05
9.68517692893885406e-06
9.24206101838196256e-06
8.84105824570264261e-06
8.56154185271807799e-06
8.32464002686619879e-06
8.18403682506215949e-06
8.07297847916911352e-06
7.98718712219348438e-06
8.01495397908752513e-06
8.09965257295681778e-06
8.20099159875855118e-06
8.27480124817545804e-06
8.48096737035062484e-06
8.63971010093189575e-06
8.64846150434792342e-06
8.67155306057946084e-06
9.17464703465528115e-06
9.75955651867445903e-06
9.85867207116983027e-06
9.54851909733345089e-06
9.93232160761431138e-06
1.03000871189721142e-05
1.07755536372003251e-05
1.01633150706594283e-05
8.55046833136837899e-06
7.60563166603293175e-06
8.55876204286952449e-06
1.49528879814589122e-05
4.1644848502624922e-05
2.57952278623864635e-05
2.16499953025491276e-05
2.2760065204821098e-05
3.47803680767327442e-05
5.97493056431381859e-05
8.02253015441983146e-05
8.92921463684234019e-05
9.51778324666849415e-05
9.59956335273284351e-05
8.69888464290623258e-05
6.51877906596220547e-05
4.94663294237266568e-05
3.38441809221807233e-05
2.22731978707461976e-05
1.72075104306094545e-05
1.51292216397456263e-05
1.52892946902457661e-05
1.89976905626629148e-05
2.14890855515903045e-05
2.74438910201319931e-05
3.52055994739131699e-05
4.22614302983005997e-05
4.42322012686750452e-05
4.73001762108609774e-05
5.27446365314581325e-05
8.13811503208939962e-05
9.88733104163016315e-05
0.000104193219795826474
0.000112982368398092682
0.000120200351168738424
0.000121950058096634582
0.0001249959277845106
9.92059137366232128e-05
4.61488903584656178e-05
1.39853758997256725e-05
7.9033403503710964e-06
1.09078280658589181e-05
8.36589257239567235e-05
7.07232548353219597e-05
7.93947618307765834e-05
0.000136877944496797786
0.000155623124961415941
0.000169680811774455532
0.000193932795397921395
0.000185853085505085743
0.000164178317497305803
0.000160061019431373392
0.000180259124172884591
0.000190156077872597639
0.000166605764029356012
0.000150657034550562963
0.000147380189199207992
0.000144910835430316282
0.000152875076655808561
0.000209837433264153982
0.000249093852263211266
0.000219118567293669016
0.000198012699918767381
0.000191389741220229705
0.000182590529850211014
0.000170166878955692948
0.000160521941992925317
0.000152592854059683495
0.000164217439038695132
0.000178550635147808266
0.00018775969124656036
0.00019844842488707387
0.000201828827561669372
0.000186622300430845135
0.000152434780888915255
0.000116250128794849697
6.92218174146608814e-05
3.37879320560840264e-05
8.96594819487386622e-06
9.33233572923648811e-06
0.000335878840158409001
0.000188313003374527828
0.000211759573364962147
0.000123304487853866676
0.000197819297057688572
0.000286825461882807818
0.000407291545963565048
0.000569289506634018867
0.000784782268711439095
0.000800362704541133867
0.000528824866826313206
0.000365464171417762441
0.000306602566989873024
0.000260594007100353243
0.000246152469918876568
0.000197233973825760997
0.000200442097803861665
0.000212900652456480687
0.000168962741694759279
0.000164543126516450704
0.000188526363359292013
0.000238867028310850682
0.000284342827864351652
0.000344342174260550194
0.000389544285657264467
0.000388163356374183002
0.000386035365055478264
0.000384404917287397164
0.000388575274815252097
0.000397280335556351278
0.000398847234159498782
0.000356444659036069401
0.000256388773373414109
0.000152943403981142595
8.12018172826444172e-05
3.9280417867535743e-05
1.05267567948404408e-05
8.64546609526900157e-06
0.000634309043829034695
0.000341119593490891873
0.000302366939889303524
0.000113873248565478149
0.000222430586903699193
0.000425759507051204681
0.000737386704269755826
0.00123986661198220737
0.00145227159410421308
0.00144376905397014424
0.00125994233524066813
0.000919191687197907603
0.000598047150930703254
0.000371304898795982608
0.000262229489775587436
0.000196902429223251823
0.000156328776994098169
0.000181891852121887236
0.000161099193186159097
0.000165311878647705581
0.000233245495900266442
0.000305710304694664517
0.000413024047162728484
0.000551546859780307043
0.000731187416371016337
0.000776072722385379317
0.000707384274996135918
0.000659366082273788357
0.000618351547210897528
0.000595840072903441897
0.000631107858827456417
0.000711924079001998908
0.000570626360992724829
0.000226781418613029829
9.10925536160213134e-05
4.12557431968715071e-05
1.51369327921116375e-05
8.53087368383941671e-06
0.000571827584974400854
0.00049544951433887869
0.000270358490107583697
0.000107222712810384717
0.000290527820119931227
0.000657969938900134724
0.00169030763203105558
0.00270608854951873666
0.00211751609498097735
0.00114984888499426838
0.000921771326420421666
0.000734000761736744813
0.000539676342329434766
0.000334976769528354842
0.000184724677632203105
0.000142460204989978593
0.000141898528569180994
0.000213534015953103075
0.000249114056878620128
0.000329256049484376767
0.000426354633893310283
0.000582111700854970153
0.000808447585786804487
0.00115568615016251497
0.00152064418931542708
0.00155598160374749482
0.00129290267896950894
0.00108726245690178623
0.000774814422604653934
0.000579303336865005379
0.000571067219426501138
0.00062681836612077076
0.00063251740245604145
0.000265437365818666741
8.09471420942938738e-05
3.67285644057566737e-05
1.88203938573977653e-05
8.53140727198578962e-06
0.000507412943384482132
0.000627496273614349558
0.000194862602859784736
0.000108773882378455943
0.000363290272903879453
0.00117088557003645921
0.00385988201467245056
0.0030398856855328297
0.00172574232231521418
0.00112654120739441219
0.00083149743762691436
0.000557831910189723998
0.000329326833822544387
0.000208496668574518384
0.000155081863257992136
0.000144020847505171206
0.000228151429569515679
0.000392348685333244573
0.000548492931175775518
0.000688099054065071281
0.000831183175469426085
0.000966020938869861139
0.00109107131897226905
0.00129355388080179285
0.00162354318178704058
0.00165913297472766643
0.00126921827628015968
0.000847035019775507617
0.000639097860498783052
0.000542515935661378379
0.000481672278497560888
0.000518994289649332024
0.000491837167795775932
0.000168001859296696874
3.9318631453309602e-05
2.60642449839580396e-05
1.5210680685357758e-05
8.40056327953837666e-06
0.000436641093920460313
0.000887745777878272977
0.000154462381472331601
0.000134193032678524553
0.000537011549670013064
0.00221605066984688695
0.00415791922353886574
0.00260259630667186237
0.00164032640658841019
0.00115558542482645851
0.000785330812442014262
0.000449591106912760219
0.000286585584418113954
0.000205941309910206288
0.00019635761931397817
0.000273025416948347358
0.000484510819197682136
0.000874813810280619187
0.000951339557267525142
0.000856679859999269662
0.000819652196368127845
0.000810357313261862462
0.000840780728810261338
0.000991274701283198717
0.00134563676405579269
0.00212409739337197879
0.00353311759137780275
0.00281131668685862673
0.00183060285071354406
0.00128793751852225254
0.000808613955711279123
0.000581198140012648828
0.000465529824727107253
0.000125433884903566265
2.46831134303022237e-05
1.90043759596009989e-05
1.10520005383396605e-05
8.32738852478166273e-06
0.000390464131989838473
0.000572784332948530518
0.000136648373478558447
0.000188573678897407758
0.000883075895472137072
0.00547950257937934119
0.00382366242483336881
0.00208730524848756453
0.00163532320614008107
0.00130624698702568477
0.000869481152484485832
0.000510054252101097179
0.00033462787160975729
0.000317292128894374826
0.000386726827439918392
0.000529723655114701483
0.000745335766933626488
0.000846884643714511495
0.000792700078764344679
0.000772860400036658526
0.00076350591793219731
0.000750975804274292211
0.00039134883862392743
0.000308344500792920371
0.000133164392714926809
0.000343817582964674206
0.00191321039078062448
0.00707117471581876142
0.00323093138612072896
0.00184838941310168782
0.00156410477181011752
0.00139254587867343156
0.00103519031868267645
0.000646306314152850247
0.000509030184524429533
0.000497005349025789948
0.000588633502340877202
0.000662453808500187719
0.00071202129880727316
0.000707994413278489648
0.000684535330018873236
0.000695890462038304108
0.000722119973787682559
0.000681696187976606584
0.000421829481540813385
0.00018082840888402268
0.000136994101793625405
0.000542492069398092954
0.00371757928224054034
0.00560254875824477052
0.00282201197135898427
0.00171966979817036666
0.00149352154137697172
0.0012647902764184643
0.00105898059237988381
0.000837060476748376927
0.000682938187661289516
0.000622778467775923078
0.000661311149059472378
0.000660089474027963897
0.000622204927675406119
0.000568244014541478023
0.000530532347145062271
0.00052412110752171788
0.00057839382723223851
0.000588054819545490355
0.000471545467079718407
0.000158985994533999666
0.000163546695543891291
0.00120619352279468703
0.00899521431607535477
0.00453246238891198781
0.00258937034950122366
0.00165056921472295616
0.00142292320162437733
0.00118328289860566136
0.00105543547399761283
0.00091709513191459615
0.00078428276182763209
0.000661783494285029454
0.000628301477102753735
0.000575117331005668719
0.000496477831161851093
0.00043186649670489503
0.000395344666278909487
0.00039206119656496908
0.000456211384242090443
0.000407318486653354434
0.0011065209103943111
0.00109123729555638351
0.000977398285904458944
0.000820321462121050243
0.000664094207329525457
0.000585132177635398938
0.000496787025713238666
0.000414817419412807974
0.000354035055143051957
0.000340238754440480389
0.000966455733261385925
0.000755039118439780979
0.000641911420774717478
0.000549670567942053779
0.000449123855834780814
0.000373986052161351932
0.000342341685136841813
0.000345472997357989045
0.000582274708831071884
0.000493392160259126114
0.000380726695043452548
0.000343307954462490975
3.48111798298738679e-05
1.75720251370387726e-05
1.1761802653461638e-05
1.05052428309570197e-05
9.85332444575697875e-06
9.45430940667179864e-06
9.18890533359660765e-06
8.98359836857146672e-06
8.80995837457109875e-06
8.64448996202590629e-06
8.50285486226445671e-06
8.38264014050833362e-06
8.29417951637371597e-06
8.2244710246346061e-06
8.17361934951931565e-06
8.12322965259143312e-06
8.07326761089341678e-06
8.01812240393909653e-06
7.97107199529284042e-06
7.92691180935705258e-06
7.89946526842414681e-06
7.89455931897814073e-06
7.90110888286050783e-06
7.89741731466307676e-06
7.87857664013321394e-06
7.86022419477638196e-06
7.8486195604805916e-06
7.853319111928904e-06
7.84263146470009125e-06
7.83624094709651265e-06
7.82635990525761223e-06
7.87152591737022014e-06
7.96657348599462372e-06
8.15256151569898338e-06
8.78750626953999697e-06
1.07078094150449827e-05
1.67639432791256485e-05
2.82683695342356336e-05
0.000209058653433419003
4.90832357502701873e-05
2.35802061599403878e-05
1.54225734357648951e-05
1.38847978691212657e-05
1.4539362736400625e-05
1.50450425503609152e-05
1.51584231793816984e-05
1.49349178028290334e-05
1.42772580067864159e-05
1.33906660384158112e-05
1.19967200857462866e-05
1.07675217765957039e-05
9.61119010283392794e-06
8.93163825379326829e-06
8.58634308398888382e-06
8.39557534596997677e-06
8.23381149653089742e-06
8.13188158036203428e-06
8.13507536738345049e-06
8.25094596732565838e-06
8.58990726281877169e-06
8.84265310372458235e-06
8.83338211071830903e-06
8.80331500883129283e-06
9.19042508416276846e-06
9.73404740722645851e-06
9.91967010831202964e-06
9.53411679826070156e-06
9.8368872733976105e-06
1.0156242952001142e-05
1.06901597600463491e-05
1.0718760104259358e-05
9.98080868163433604e-06
8.24255805404870795e-06
7.60178162879035676e-06
9.19114107293702246e-06
1.69050427086856294e-05
0.00023704470997504203
0.000126705895353403195
7.5544314012363089e-05
8.87052828351330932e-05
0.000102704607532049893
0.000120483725052026845
0.000153310110329024326
0.000178003706043780227
0.000189012416670388499
0.000198777440832411507
0.000214541578709919481
0.000220920783400916612
0.000216350413585790778
0.000192239116850920433
0.000125558215392617892
6.96389060029205134e-05
5.24591168936916193e-05
3.58450727622634113e-05
2.84097372806250085e-05
2.74114150943445939e-05
3.60709215885207462e-05
4.98317355741618339e-05
6.28364518227204791e-05
6.86103292305829769e-05
7.86489813716557701e-05
9.11000520693778674e-05
9.76897842914260534e-05
9.88999011146046632e-05
9.89879874621749821e-05
9.90244426504685723e-05
9.71451166774672136e-05
9.57714274304348386e-05
9.50812370894382443e-05
6.61795583780583812e-05
3.02943962061792288e-05
1.11657702837137894e-05
7.9615495100429261e-06
1.18814845228801901e-05
0.000246625413352062096
0.000183102145559873789
0.000153272207088276844
0.000118968582711924574
0.000154755062883392088
0.000177693381546475981
0.000260865262918798756
0.00030176022016287072
0.000243950770783622902
0.00023543221017346551
0.000285494342822031899
0.000290420527048956237
0.000246604013799444808
0.000229808774922374959
0.000244857902284607344
0.000279295909015036137
0.000263454201591862061
0.000296848985988830514
0.000271771512190513767
0.000195381238361260802
0.000165216351495743466
0.000163908764285986946
0.00016255277810653645
0.000152556035412109993
0.000145536084152189974
0.000145405847068083815
0.000159920844159357271
0.000169020850816583261
0.000169964120110555576
0.000164509638915869396
0.000153030801260787717
0.000133289758980550613
0.000105260897133356581
7.83472116409210975e-05
4.84702930042840452e-05
2.27342348728369755e-05
8.61138578004361619e-06
9.9294354705155054e-06
0.000309416944438276954
0.000286159549336691338
0.000228718716941893481
0.000104159858820731141
0.000213289579775604096
0.000314380503904805261
0.000453693863265011092
0.000664828954388412495
0.000846864094884291737
0.000939095319761953711
0.000733433178619466897
0.000412334704830117976
0.0002885887968740831
0.000230374266003572888
0.000287751267942058342
0.000428675862677852979
0.000292074826985914938
0.000184235573325731142
0.000138106943784588196
0.000124147112284641562
0.000135723582838768894
0.000180617105961613069
0.000242714990251402356
0.000302759930319247738
0.000362326327806504055
0.000372789518322589274
0.000367164755321427159
0.000348815501537592964
0.00034009482499937219
0.0003277106731845451
0.000301975731206235217
0.000252603685238516598
0.00016712246777789261
9.67602557405584658e-05
5.4321142156916437e-05
2.77207539780015868e-05
9.74556287996873892e-06
9.02006666787038706e-06
0.000335507267157679034
0.000424227314500750369
0.000351401065927350105
0.00010114747656259612
0.00023186424472742916
0.000461166768696711152
0.000864078255703602501
0.00144046647241237989
0.0016883808884015038
0.00163547428620368861
0.00127593902816300776
0.00116953303215695825
0.000810751176746077806
0.000352018859277424174
0.000261229162269521417
0.000194574208063639001
0.000143300158979306485
0.00012206295177873731
0.000104159959198771833
9.82521134427186051e-05
0.000124955524394396178
0.000203187174137913092
0.000302558142559452062
0.000428819848658057662
0.000589640552866774604
0.000686826081618915701
0.000653548553493408439
0.000611724793625583341
0.000576407754142083768
0.000550987584421653936
0.000524375206974184421
0.000516742624114785725
0.000312309084920709117
0.000139509208355067258
5.7972529821530588e-05
2.87539161730773453e-05
1.24623586515771381e-05
8.68142266017828185e-06
0.000322583895944118467
0.000486028429638556776
0.000484113739713634521
0.000105511376105592389
0.000285075630466750181
0.000680101560246455794
0.00176311361777260582
0.00224227751553436822
0.00123149177948016979
0.000821849793087101889
0.00060142413129308462
0.000366878793171426549
0.00026364138380385177
0.00018781616247250216
0.000148173319356392357
0.000141192398904750865
0.000116823085291287816
0.00010691596719708493
0.000101721454346410088
0.000123588384666512344
0.000195654292433310552
0.000326642180009383844
0.000562712113444099101
0.000874128366460454704
0.0012665431359093083
0.00152687102651344006
0.00140446358145446888
0.00122587105077735467
0.0010904382412423295
0.000832228718209246702
0.000647184573764732424
0.000642434437168129275
0.000463303783152506908
0.000149015895613459625
5.22299189125293722e-05
2.593783635168896e-05
1.51050986005418296e-05
8.56649610835698873e-06
0.00032490843770476783
0.00052608066532290425
0.000331059982816170871
0.000114683205452225477
0.000391771564507500329
0.00112878571834948188
0.00337987301087724033
0.00164800652332695798
0.000965391103618030945
0.000667578505212636534
0.000508623685778920019
0.000312304477550708244
0.000227025798576201994
0.000173265190725166484
0.000148274331010537851
0.000134013715171997055
0.000119416608501074029
0.000128637303780762395
0.00016259974761876535
0.000246099310252787602
0.0003883158230470896
0.000648053391660171956
0.00108189909460296185
0.00141044283113260808
0.0018652753314406796
0.00245519195173256538
0.00247277673989034332
0.00200257942491471538
0.00147943601488991004
0.000890533383651574912
0.000666556959155056492
0.000643640826688600398
0.000454912180196338778
0.00014130356545596814
2.44352689925446954e-05
1.89984785072714346e-05
1.25719674169317723e-05
8.37360221647349921e-06
0.000322371425620801197
0.000706121863005199405
0.000184367798089264304
0.000120363183754499761
0.000463702035616180713
0.00213761782357999031
0.00316258109881579564
0.00144432824877533533
0.00106040012838901163
0.000826703029060420549
0.000559508160675620497
0.000323497201140195221
0.000232319530077841602
0.000189330917117495884
0.000163727988626899569
0.000164196542782648795
0.000182278174671497093
0.000244030164049467268
0.000361492427134083353
0.000518398301108297576
0.000739929512579100431
0.000950667074374571155
0.00105722212633368941
0.00104387817858739925
0.00118713877961015607
0.00173026826116908124
0.00299227358010152383
0.00270872469721674313
0.00199845410744951563
0.0017844605580661511
0.00119312544176858391
0.000789803453420568507
0.00044134303479105634
0.000127060207882678485
1.99024454235729919e-05
1.44370491795056818e-05
9.55406480784299478e-06
8.36375630773160213e-06
0.000312314429191111204
0.000863117528478711581
0.00014649674116709783
0.000155650160867854399
0.000747917104214774033
0.00452921180271889483
0.00230964877927820542
0.00137822273274452426
0.00112995203811868815
0.0010563528061308372
0.000852699147690996859
0.00072184208552666094
0.000575399521600219164
0.000447694870085481094
0.000362800216762610447
0.000409554809035757132
0.000455419517028226261
0.000550378813287325419
0.000645511342178584167
0.000735543271710124846
0.000824119274006869171
0.000936035487101876296
0.00087047190483535567
0.000320014680840444111
0.000521894035864038696
0.000136942469390883236
0.000271442995034165625
0.00155182752611456422
0.00401877155619907549
0.00202879940027683899
0.00133537585860881596
0.00104780613047993684
0.00110487774680234413
0.000994984077493607641
0.00105969829816109258
0.000838768013349565746
0.000692090927647495083
0.000665294204640160263
0.000666624297435159069
0.000643012762929790187
0.000587082854993280982
0.000578889618166525421
0.000587444374291201232
0.000634249294613743915
0.000761078622591286461
0.000333772621656866584
0.000248532064143844572
0.000133025799177210352
0.000390390333215162827
0.0028734324184418584
0.00305957485784308933
0.00193032507049041395
0.00131627171938915213
0.000931479382649246738
0.000884307956392954174
0.00102130835461451751
0.00101870756155514612
0.000856371156939860932
0.0007100355958252055
0.000656504426107861155
0.000606947386491738395
0.000537652157451498137
0.000490521118580486306
0.000465109369285413238
0.000455565446890985107
0.000491482167901917746
0.000596737607672889183
0.00038960853451483463
0.000167440655286321037
0.000143182551017822569
0.000788273059467170588
0.00605608565051326837
0.00278422895547932297
0.00198936163799731279
0.00134327873680704642
0.000884158365531727947
0.00073969470819432539
0.000895495692206564045
0.000973846016252652978
0.000808359212880535713
0.000674572632691420541
0.000578992602171290874
0.000504686443610239538
0.000444056889315774144
0.000413515740649199185
0.000387521456778256053
0.000370339544074451148
0.000393756008299047636
0.000478254461977249158
0.000751770947383909949
0.000758207950859819267
0.000801230366945903673
0.000711068963099637181
0.000569540563859889768
0.000453139509352290244
0.000395989873854881271
0.000390152875975345701
0.000368908881443830183
0.000344498087207364154
0.000666702781662484659
0.000605307323144642904
0.000454240606465889458
0.000357897954040086114
0.000317136519686716655
0.000308298708570856159
0.000328772954624805599
0.000327676368166952977
0.000389123312457112763
0.000322637860660896793
0.000277438492765560312
0.000263073276717825418
6.00362780224501064e-05
2.61987772087582267e-05
1.53678127106536615e-05
1.17831013403087919e-05
1.06785089248479885e-05
1.00991352026847254e-05
9.72731130863848323e-06
9.45173404184821773e-06
9.22667416798760071e-06
9.00452685814931894e-06
8.78179535581907209e-06
8.56987811273016708e-06
8.37936022688357915e-06
8.25771857725615345e-06
8.15548415301477871e-06
8.07325488575527555e-06
8.01420031363161642e-06
7.96647720847651045e-06
7.92558611329699845e-06
7.89063828396257709e-06
7.8721930383017658e-06
7.8666866217695854e-06
7.86405735522361777e-06
7.84677913077901904e-06
7.82847052305601048e-06
7.81492902748993219e-06
7.81066135800126656e-06
7.78819565334821062e-06
7.77212055397994513e-06
7.76188003786083246e-06
7.78711277619514636e-06
7.85265488647119537e-06
7.95717865668828997e-06
8.28570456076400398e-06
9.19741243222955314e-06
1.19834567837246826e-05
1.86869351468791736e-05
2.56900041031121165e-05
0.000188083124514354741
0.000144250033913543045
7.63497272073927026e-05
3.03733317125108007e-05
2.74027806561196694e-05
2.70359163548948925e-05
2.69913487208457107e-05
2.59685545945811011e-05
2.55046875215407652e-05
2.48745187443379778e-05
2.32104538016997225e-05
2.06684956865535498e-05
1.72313035416582747e-05
1.38439851484032104e-05
1.11846361037087487e-05
9.7364401879638615e-06
9.03730066607888031e-06
8.7279576840963673e-06
8.56028611813800438e-06
8.4966039365867126e-06
8.65324476651195982e-06
8.84382443696201434e-06
8.94085022211212967e-06
9.14947410027268012e-06
9.69237952732765405e-06
1.01646023792209311e-05
1.0155319899749184e-05
9.65233389603788189e-06
9.80793662445484697e-06
1.01646475758037643e-05
1.08114626661824234e-05
1.0714114087132656e-05
1.01058061385952379e-05
9.25113759976119881e-06
7.93379510853746845e-06
7.78331326135190684e-06
1.03307580426404428e-05
2.01292429043552906e-05
0.000203928113544196618
0.000154501212430169948
0.000128123819776979948
0.000112083837756635308
0.000132992680201814514
0.000171263462436343887
0.00019518963972563075
0.000208985381619221269
0.000228588439288281479
0.000247255855684775955
0.000229497799303284803
0.000217148024217584334
0.00021384876291315541
0.000209602564714972568
0.000241728670996162957
0.000231041897744031592
0.000174164122499946799
0.000110903337525342438
8.4997574911690465e-05
7.76401317602641258e-05
7.54552431620681465e-05
7.125365884380604e-05
7.51104098232270758e-05
9.15585175804533972e-05
9.62151777976104285e-05
9.169180526788189e-05
8.71035413976217168e-05
8.33663578025599746e-05
8.04765038465719471e-05
7.71413516909861467e-05
7.52111234373504378e-05
7.22305796861729289e-05
6.20520086179488108e-05
4.24802143494191277e-05
2.00779862364316305e-05
8.98808975282142593e-06
8.49128510763035238e-06
1.3888809594215064e-05
0.000192010385637495813
0.000161355710979945507
0.000138688990706036642
8.99375157909899458e-05
0.000157200553672727755
0.000229743852122508377
0.000294299110803876473
0.000323975240881870495
0.000411763372661821969
0.000501630578308845778
0.0004900959347426204
0.000358525903343851707
0.000296656013205267785
0.000260581435792600754
0.000288089558283976936
0.000328376815459385687
0.000276505348388175753
0.000262553381905024103
0.000293816512160404602
0.000222402668637382349
0.000172586685189377069
0.000149963857810127239
0.000143740077742413313
0.000133907868872692033
0.000125415225162513747
0.000122302476278910512
0.000124466126052460242
0.000126656896150405566
0.00012376850798842331
0.000112189853946854871
9.69333977697843025e-05
8.1197629045385268e-05
6.72285463818002375e-05
5.08395211183549625e-05
3.22380414452924616e-05
1.34559346765393086e-05
8.42483603006790392e-06
1.11740372887179712e-05
0.000157919706222844572
0.0002000756163614536
0.00018633174491851354
9.88217389031924244e-05
0.00016691871909959449
0.000251714612211398001
0.000433446493158256782
0.000599407595773129116
0.000789463689193373825
0.000868912980746375826
0.000780516547518485498
0.000650836074615166816
0.000543720808958548618
0.000516847675947289535
0.000440350083604589936
0.000485652988278300875
0.000451055520580951783
0.000243525273589943774
0.000157934457368635298
0.000120579372137401256
0.000117960310452223352
0.000146019369672798448
0.000186238459445610763
0.000205998717409869048
0.00022188943908520029
0.000225471554724268239
0.000229257752674383043
0.000224870689111787876
0.000216627542845787416
0.00020189756963536116
0.00017270935430917735
0.000134637881484395166
9.52436963100232405e-05
5.95933450226349571e-05
3.4848582352110425e-05
1.96994166074737748e-05
9.12645785302303262e-06
9.89592366412099597e-06
0.000204093148137336462
0.000317603884784595431
0.00035087660288366765
0.000116223874259761036
0.000237418166750280585
0.000395200731762479994
0.00079565214656731329
0.00133423829857370175
0.0015059329759460967
0.0015872556961460762
0.00107965939727185361
0.000672250337673102692
0.000490469253913137907
0.000363394320402200116
0.00026024333393799017
0.000189230931318637257
0.000142276769517394051
0.000105877889828416059
8.75771196954956672e-05
7.77034687733815874e-05
8.39282764371612885e-05
0.000131203727801844654
0.00019072463641890618
0.000259410634494989926
0.000325616745860385316
0.000368624635318637881
0.00040793329154205116
0.00041414063948879505
0.000406309393759302117
0.00039386721896491261
0.000364805311697077655
0.000322183450588842146
0.000175325905677134572
8.28196631219109734e-05
3.53741155361042133e-05
2.02378619248986344e-05
1.04657275876004886e-05
9.26089695588721513e-06
0.000268111614086960395
0.00036307363362602014
0.000428388012721901798
0.000132726663756877752
0.000310755803343119364
0.000646903724702970373
0.00157690649515632012
0.00176825663919506185
0.00097373764197248604
0.000727492503407641791
0.000400174564949221025
0.000239756109237311457
0.000176353657641545574
0.000141582290678819408
0.000120943373027061575
0.000104194078090238308
8.96086099089283205e-05
7.91075763733061383e-05
7.17272914991897489e-05
6.93040548186405251e-05
8.04829473062895973e-05
0.000159073040392316607
0.000277898936252399557
0.00044222906895048967
0.000614005818895797893
0.000768517803884810635
0.000923862747891561844
0.000903266830999692135
0.0008492697911812306
0.000807117973011023523
0.000774009720551119512
0.000941248828777071383
0.000432762026665696399
0.000116473484176485805
2.90631219990390951e-05
1.87448095462899133e-05
1.27305358854397354e-05
8.89742535642239988e-06
0.000261519441243314118
0.0004340113509298648
0.000648820788629483588
0.000131332339151616251
0.000339165328485283566
0.000955796200910536981
0.00252497218424865399
0.00118446081263784918
0.000702676456326138503
0.000558054439045752981
0.000360087070722247919
0.000214427081313978336
0.00015141506503493787
0.000119227756844918404
0.000104106705412588486
9.26778925416302246e-05
8.28871300316650494e-05
7.53963567373968057e-05
7.15479935851413249e-05
7.44934407392993113e-05
0.000110911721945932692
0.000233094196462781361
0.00049410017609061651
0.000893586453608615329
0.00125103203142174304
0.00161600124896285938
0.00197696867457243432
0.00206116850999750901
0.00187861873561752076
0.00144289741676859669
0.00122667299700142786
0.00122294375108218472
0.000616845044718888837
0.0001723765178718858
1.80030312305935137e-05
1.28082130337763241e-05
1.05326520081371934e-05
8.73975508447166931e-06
0.000261906224140099882
0.000498725862613819235
0.000357098308126275825
0.000117426577775420684
0.000362331505235923598
0.00159876282584843553
0.00220658484310112509
0.000972227691923182907
0.000741784274371168144
0.000837743280917011826
0.00058492871478698521
0.000257585677171995298
0.000172304556331860051
0.000133458670474236876