/*--------------------------------*- C++ -*----------------------------------*\
| =========                 |                                                 |
| \\      /  F ield         | OpenFOAM: The Open Source CFD Toolbox           |
|  \\    /   O peration     | Version:  2206                                  |
|   \\  /    A nd           | Website:  www.openfoam.com                      |
|    \\/     M anipulation  |                                                 |
\*---------------------------------------------------------------------------*/
FoamFile
{
    version     2.0;
    format      ascii;
    arch        "LSB;label=32;scalar=64";
    class       volVectorField;
    location    "0.960000000000000631";
    object      U;
}
// * * * * * * * * * * * * * * * * * * * * * * * * * * * * * * * * * * * * * //

dimensions      [0 1 -1 0 0 0 0];

internalField   nonuniform List<vector> 
7236
(
(0.449242900399313194 -0.151963875016941835 0.34484152340060803)
(0.77900547688804278 -0.150463783381993343 0.603199221990207035)
(0.911541432751046488 -0.10291263187534247 0.604536004705260921)
(1.037308166303059 -0.076411716912524727 0.589484286760448284)
(1.15395915337838595 -0.0528138409358804434 0.584932156062295761)
(1.24547051358682848 -0.0386664464078107506 0.591958122894880034)
(1.31257153155479789 -0.0274970070548423429 0.604180772852588088)
(1.36185101575036738 -0.019619743754787429 0.616413045865688569)
(1.3993348487660402 -0.0135911879041043428 0.628396249488340608)
(1.42849255184107848 -0.00975969806746881247 0.642792506393849217)
(1.45032068422540461 -0.00669699439678181352 0.65992687574884934)
(1.46535730162314093 -0.00518287843317658502 0.677640097780818906)
(1.4746519303379515 -0.00469360662464412756 0.693886693263634391)
(1.47959953126675181 -0.00625257117545570222 0.706620059342957241)
(1.48320412867317275 -0.0094272052086620383 0.714919851274913642)
(1.49055002142303272 -0.01450197160640114 0.717997346389086188)
(1.5065394947703985 -0.0206457393473287974 0.715575576760411836)
(1.53391061678848284 -0.0257670795983103787 0.706968544766215845)
(1.56925701523394734 -0.0247623084491211919 0.692521998826734264)
(1.60640528519308767 -0.0229931230429025121 0.674888383147377202)
(1.64270978537613832 -0.020081698877486516 0.657954283086919722)
(1.67641538754441299 -0.017782652824547978 0.644823148863342577)
(1.70634329069177348 -0.0153465256742012571 0.634884840697143904)
(1.73264109236144126 -0.0128397072936377518 0.625198935068645989)
(1.75717307353486918 -0.0114156827690493935 0.615781647032316859)
(1.7825437446707979 -0.0122788784962865449 0.608401861116991793)
(1.80900374131753616 -0.0120258208726070851 0.603842572250454679)
(1.83364640260393963 -0.0104414787833826874 0.601177464391608241)
(1.85393191119851264 -0.00759421390053537614 0.596203930507115398)
(1.87221618983856541 -0.00835519486963406249 0.590241660935825418)
(1.88953287097273659 -0.0072438482992150683 0.584676150906050296)
(1.90211144438167823 -0.00551825422438836401 0.578281401229495673)
(1.89585659194633371 0.00423942833399015666 0.566532519428466386)
(1.83137302333509377 0.0354599053151128524 0.540032327931308509)
(1.63874487782412026 0.11240623332205199 0.48179842033725484)
(1.20225289362507981 0.229096205530562147 0.365633191513472622)
(0.418462682441192724 0.206793193839754308 0.165248188815472902)
(-0.265699220818890747 -0.0225379059987864741 0.0300247797990958847)
(0.4496951459808472 -0.283618519252933687 0.32105771132969585)
(0.78097290564025712 -0.285915548808841347 0.518616221203621941)
(0.941367726886033651 -0.274228756690203357 0.612336133625601575)
(1.02401198524971737 -0.24856618938406258 0.649457427577629476)
(1.10545734237308024 -0.1955381556434512 0.652842734371647637)
(1.19946349518136874 -0.153142765670636311 0.653914896981251159)
(1.278660778848421 -0.12353836841234489 0.648478587984364419)
(1.34113792549732747 -0.103261043801160732 0.639236751030098915)
(1.39449654215048691 -0.0856833368228218512 0.634300033610261105)
(1.44177862159661974 -0.0711992934863179966 0.638341718031914751)
(1.47842849524956477 -0.0584074852755656834 0.652221919543975015)
(1.50143286346435301 -0.049561524500194909 0.671783635227121145)
(1.51052851701971247 -0.0408599819029892564 0.692369762770757236)
(1.50780668146576269 -0.0356389696234095041 0.711773683823378689)
(1.50304575753426906 -0.0366212593579353998 0.729525527438444121)
(1.50558416335422152 -0.0471106545743875949 0.737197673164096345)
(1.52141203198327379 -0.064349651453640716 0.732821050399008911)
(1.55394157979420755 -0.0835709656399926115 0.715862219280785528)
(1.59946906935228861 -0.0889950000002726754 0.689059943663933416)
(1.64698175311259609 -0.0911212777913422284 0.656432837660753998)
(1.69345843181834743 -0.0879780129747542022 0.628053429637790095)
(1.73660282001205446 -0.084285675518442349 0.612604584411269304)
(1.77502762896718513 -0.0788707017426648477 0.601383589604529423)
(1.80794588348508545 -0.0748315412381570927 0.588015092814591411)
(1.83735414508249173 -0.0730673163211641996 0.572441593060580622)
(1.8670961466251168 -0.0747884711473499469 0.555144847119738993)
(1.89742583709770196 -0.074062521113409191 0.539902493258186622)
(1.92493464352581678 -0.0718892600221929245 0.529079309685756005)
(1.94886815123878576 -0.0666941404210734529 0.518092644860585261)
(1.96987072721494871 -0.0660344847801400264 0.507650692714861629)
(1.98762693508107713 -0.0635372441846597247 0.500498989511808157)
(2.00829541888117413 -0.0605989817044139817 0.494673000286104003)
(2.02141172767390565 -0.0451435929398142782 0.492785165202565489)
(1.99957396453302749 -0.000199678685099610731 0.490395936539245458)
(1.91768336001988171 0.114520370501562524 0.469324792328691176)
(1.66089562056518192 0.38656085067446444 0.437376730555708082)
(0.995314995364785737 0.521720154312644624 0.320384617607943567)
(0.170531544564902993 0.244756201472405038 0.201588129345958572)
(0.431017193792067765 -0.233343681181305745 0.210012331264279095)
(0.802020795156391242 -0.391542684306010247 0.496260229315143575)
(0.771343064640448994 -0.365853309617065248 0.703878076438614553)
(0.632014815537140895 -0.290891129143190375 0.681455179015717061)
(0.772013167564121527 -0.194785793835949239 0.504423492892298708)
(1.04951046088103483 -0.109562181152101576 0.360701609210093699)
(1.24147530093353908 -0.0534115971737337825 0.296114096084305056)
(1.35978727763884377 -0.0235120769197464143 0.229687772243162197)
(1.44239518883466022 0.00103421332440191763 0.165553010968568531)
(1.51091341218750497 0.0171224805012574616 0.134690596266762885)
(1.5666612072284829 0.0328629333096469994 0.134816473521167823)
(1.60729615895339983 0.0324813366622594413 0.179349626080056029)
(1.6079513589810206 0.0300541227485277389 0.283704115076821972)
(1.58695233638269739 0.0109785041593394306 0.379987789431258882)
(1.58463946723603644 -0.0211386335928563096 0.444812762106479131)
(1.58490141759195957 -0.0597513872528110598 0.479350808304864873)
(1.59527029278935562 -0.0961799741580845191 0.453212485335615034)
(1.63004744794193757 -0.131407059814328236 0.402726298361048618)
(1.66808950295782843 -0.137155623009860256 0.32660568576276644)
(1.70944357219723475 -0.13639201089905037 0.216642046977704311)
(1.75151404528665022 -0.12187465610689549 0.0782520589164377167)
(1.78410077312868598 -0.100817766467795278 -0.0928738285052758128)
(1.82595034741149509 -0.0818005828525650847 -0.249068511804560244)
(1.87414804185120909 -0.0694364471757383528 -0.361021911617086411)
(1.89192756586689903 -0.0568769233461720036 -0.497965881679227063)
(1.92018844060198712 -0.0467922650311039384 -0.643609495914453711)
(1.92354214785969346 -0.0147375788593107071 -0.907031461417835971)
(1.92400609562537617 -0.00255232973297952375 -1.11735062750509551)
(1.92261850340639917 -0.00666384697852870009 -1.1580663430911462)
(1.88497796603668166 -0.0148789957400284195 -1.1654450485548733)
(1.82789867265945816 -0.0111055002707468754 -1.1283317487566269)
(1.76469228307162229 -0.0128788657340086488 -1.06941875532760067)
(1.66581113342032161 0.0212098330157568411 -1.05065194155589015)
(1.57577032105243475 0.0939553138627088613 -0.649917315188033529)
(1.58662679636601123 0.304598181419751701 0.0136587697546085157)
(1.51605811979997251 0.660191959050069999 0.319698969602034866)
(1.11898018370628538 0.854575456394637722 0.329294821396906079)
(0.342856772535671761 0.525463494118667773 0.267044127744718807)
(0.31514715706826868 -0.202581701817953957 0.0849878664581090737)
(0.67717965499627164 -0.417699968253965492 0.505817431646042537)
(0.239154393354520878 -0.265758490476799836 0.858003153514482086)
(0.0395821064159796315 -0.205035023543691824 0.237676008990457099)
(0.748162421454841353 -0.249532249625648017 -0.211305403722660295)
(1.34359010347313457 -0.160117128838419359 -0.34521876722517697)
(1.62733004740347775 -0.0550926869448105927 -0.360133914027506219)
(1.75001629309425177 -0.00609622858130899614 -0.37480607029755969)
(1.80701873156025439 0.0164718491935358091 -0.389532981191913152)
(1.84635572975294493 0.0418667140618489558 -0.407190439020784944)
(1.88547009704456658 0.0959467712387295085 -0.44507755316578701)
(1.91225968698497639 0.165647621578968285 -0.478905481364730823)
(1.86116624836257971 0.266179269766047999 -0.457661830337727282)
(1.74259107591277251 0.274897640354076822 -0.432803722213123021)
(1.54877647079094438 0.231704882201746287 -0.458935554807277157)
(1.36178573631721922 0.0971815530627961333 -0.52775217404112007)
(1.06741783731304718 -0.0638399813218026024 -0.680917210315287957)
(0.693829536866838459 -0.125172560189562937 -0.954699859588092781)
(0.376184115502726901 -0.0313371080127390345 -1.3649614515941193)
(0.120222770499067322 -0.0510594854282592769 -1.90447226319772023)
(0.192502611246910871 -0.0383530814068888948 -2.17922653357669782)
(0.348687985261987243 -0.00160458005502858714 -2.36010743744243312)
(0.518727085197940863 0.0303012788988447739 -2.43388280591039585)
(0.680751906063168377 0.0801130175520071014 -2.45428392973287179)
(0.829684770393535609 0.122239803502165151 -2.38625066895292992)
(0.940265978583828765 0.147525069087643956 -2.26338635735121274)
(1.01885317921728769 0.163902694778057745 -2.10865864930939262)
(1.06552105610838521 0.110483920442931094 -1.95410189178170945)
(1.09157412572056667 0.0712987353620798681 -1.79029342068791597)
(1.11093336792872632 0.0637550820172572974 -1.63250164792614072)
(1.12394071647254634 0.0700582158649033782 -1.48237591685773329)
(1.1191229785828134 0.0773680438798444448 -1.36362858845200119)
(1.07801205869308214 0.0661823969407044355 -1.34426255587728516)
(1.002852871410292 0.0612927156548707108 -1.4561146954081261)
(0.892033507160987504 0.304638538230624922 -1.17216187443538589)
(0.987103583621570024 0.856621612718575398 -0.162628264011820345)
(0.958513940337187176 1.12819992191050367 0.250497996771333664)
(0.337811158843594028 0.880336140083965324 0.257168452421781102)
(0.153538421195572788 -0.097311600742030574 -0.0286876421100175638)
(0.504543372346878183 -0.32293511905215444 0.664603870307633238)
(-0.392666968214701206 -0.0963988128742399308 1.0025046296761575)
(0.350842352656392298 -0.742994882177477778 0.0672671880469480205)
(0.955190406660411218 -0.673759027200801608 -0.210871707203045211)
(1.38819601417842087 -0.42561268751237824 -0.288891233995004604)
(1.53706728655905733 -0.225725564125962119 -0.305433238802056972)
(1.52615552315206759 -0.101467999126655148 -0.320163187120680259)
(1.44191150502636112 -0.0279384328685661973 -0.365829142357414261)
(1.41378905858426518 -0.0156987363783316798 -0.465057826420919862)
(1.53736159810430073 0.00564397715725369759 -0.511529207095011818)
(1.64160981100725722 0.064940785042007329 -0.511746116036306264)
(1.62400520634757228 0.175810298518737695 -0.523260843454191882)
(1.47069702945535963 0.258072804272901801 -0.573207545331783863)
(1.13628488280528983 0.2002155594022825 -0.751979241277717647)
(0.903543151013731394 0.00904695998814415009 -0.742633358309161551)
(0.193830087450744398 -0.0204288757326852727 -0.977813469336996977)
(-0.753132535339423592 -0.0356997940100143574 -1.68314666412916547)
(-0.877688965491523532 -0.222964682549037313 -2.07221306824222706)
(-0.748850720598872366 -0.331879123060453529 -2.27959273324016243)
(-0.579345033373292018 -0.310956331608862324 -2.44451827048875847)
(-0.417233056589287166 -0.227670774689817612 -2.56946855312902356)
(-0.256131626162049875 -0.199649876598246373 -2.4993487648718129)
(-0.0689962306244070317 -0.166738563812393381 -2.3746335856828904)
(0.119886210854010106 -0.114734311671362194 -2.20268156016680861)
(0.303915564090782853 -0.0628927707465099656 -2.03395822215679223)
(0.452839749872746555 -0.0218024224142583829 -1.81831132113815874)
(0.547245811053327924 -0.0180792185413452197 -1.60332072143968052)
(0.609257349227943945 -0.0113328503168561578 -1.40402245344370114)
(0.656777929005181171 0.0165864108439553112 -1.20520568304432296)
(0.685939205251023809 0.0527827354549532252 -1.01411510133009797)
(0.70892267510584317 0.108488277557070398 -0.893916649560829502)
(0.685018839374449851 0.190972596709419989 -0.908610079069668064)
(0.668462378641919819 0.188706649636487256 -1.29148622738810825)
(0.461641833050758232 0.275025089234682274 -1.70233454037615828)
(0.431777519919412656 0.886260755327145988 -0.749885443198334722)
(0.688588901431597789 1.27083726329877522 0.115686293120834199)
(0.262073241461149409 1.13406153281514088 0.224682588682814988)
(0.0492193628694460594 0.101271648286798896 -0.00301796971981360684)
(0.317411346307343911 -0.12717746580496106 0.885222601412196441)
(-0.407073373175655395 -0.151451330542232837 0.946636247299124767)
(0.527408620440918186 -1.13824629410124611 -0.0870182008969288545)
(0.81145767846050576 -0.921120747755392544 -0.277623952075039537)
(1.08997304304055787 -0.515417553840056053 -0.288094206267898667)
(1.16175947318108719 -0.244189040040963562 -0.270039928393978113)
(1.04699299102068433 -0.0680622268461354568 -0.312429098552951312)
(0.840248725260474227 0.0117467300753516732 -0.426177063741970175)
(0.806544188686402097 0.013089806380795696 -0.700632934767219773)
(0.65075704523950717 0.00295726976448170559 -0.90953003411565847)
(0.69424237807293987 0.0896373599149521832 -0.85180039752082104)
(0.825227297624720024 0.259673523688741859 -0.7367189568100736)
(0.915633169839953021 0.346071490266364412 -0.681599767980441418)
(0.61358017668215481 0.306077664502360791 -0.76546172702893589)
(-0.280039779468121974 0.244120927369123275 -1.0731367605294122)
(-0.992528195708776484 0.21928357918665492 -1.52708921403329034)
(-1.39236009824852469 0.004584869356720922 -1.85845756485193903)
(-1.32926235266928727 -0.307993033075408262 -1.83688176794036129)
(-1.27626388109369637 -0.39950803470317553 -1.85282392353307568)
(-1.17578584158234456 -0.335567315760987028 -1.90317425672456619)
(-0.986695710057684972 -0.271234965298705999 -1.91313736484364671)
(-0.756572326919467519 -0.270472122082275446 -1.79972477041646917)
(-0.452703551451379638 -0.25030305529089425 -1.63202460733715049)
(-0.113391590246999352 -0.220287240739317103 -1.4871131113772833)
(0.185758367065224445 -0.170294199623585218 -1.37470158389261243)
(0.39367521109472503 -0.110071340622210814 -1.25030553334917638)
(0.497747446942521099 -0.0776435445963572224 -1.12089483118288036)
(0.555759024177204686 -0.0486034837605781311 -0.973891896338340279)
(0.56694390425783503 0.0105083776568144077 -0.76762248183923476)
(0.520729569244023915 0.0954668581163695129 -0.517377669462991796)
(0.408242013087004141 0.186361228231024384 -0.265814063770942688)
(0.280749765170496379 0.313732716055028282 -0.237470619976815428)
(0.344972583349151152 0.348313677003290634 -0.950189295298129677)
(0.170558595166376059 0.333060909101749347 -1.83653927958316099)
(0.00882708178611663064 0.877004024518744263 -1.14502014990807632)
(0.394191999443974872 1.34501115796943727 -0.0200577261636526102)
(0.167968363910195484 1.28170584554969968 0.188530875233347051)
(-0.0884597680270957643 0.277090680566889458 -0.0903741818952758513)
(0.182160443743028561 0.0300502266156474941 0.998399191745751535)
(0.127817381443803363 -0.480528684637453962 0.202270026711271228)
(0.593523349275820289 -1.33796579019759276 -0.265311840134166976)
(0.701705852288802778 -1.07141391877838199 -0.302004688665120313)
(0.829226165742795951 -0.549280238555846512 -0.210861914134935491)
(0.786887616396191536 -0.147138939375237365 -0.169438047973288403)
(0.487986117054189927 0.104752267390463422 -0.296320320994154784)
(0.060981435250729743 0.225726138469584559 -0.656798869561360021)
(-0.413948823600702287 0.142206444246170405 -0.923959935054745829)
(-0.732790546278832555 0.0660564613722721544 -0.965545946839637015)
(-0.821541863137668638 0.12226722180372826 -0.899789473341710888)
(-0.705772081010806795 0.301532731626869666 -0.82089273171044097)
(-0.544809200067727373 0.477540287236987826 -0.86427607476254964)
(-0.698857278544030014 0.538153755591594951 -1.02718039317184262)
(-1.12685550236051091 0.533839815433947651 -1.26920587794002393)
(-1.54599284003883164 0.305371035222205878 -1.44416935106352184)
(-1.74569694539350495 -0.0361836658807622724 -1.38490074659696316)
(-1.87243305635959145 -0.288816107991090754 -1.26610189884920166)
(-1.99640113338553693 -0.374148573207510549 -1.17107577630684134)
(-1.88995839245951291 -0.367173314590106825 -1.12333980347363793)
(-1.5963373901325888 -0.351303270796127054 -1.0295759170718537)
(-1.12833373812780424 -0.392323525763715764 -0.815195350360066406)
(-0.575780298637166621 -0.392249199165698836 -0.62941156621165173)
(-0.00103599497309325717 -0.292404587959288254 -0.496127487085608831)
(0.437786579411700183 -0.131655397902160021 -0.420647650448335353)
(0.711299549559816113 0.000543655676938037402 -0.376420054529863601)
(0.816585624481000361 0.0815172927116754736 -0.359132371136781869)
(0.879089613135526138 0.109532319298415615 -0.293928762720577053)
(0.885775880373375735 0.152634978653783088 -0.186941594282798162)
(0.794780109456803774 0.261486708595443262 -0.0391817919163431061)
(0.589647457801211083 0.388013514143321803 0.165337824312044301)
(0.0028977894338473309 0.50420553999000739 0.28016945604032284)
(0.0606620104312051156 0.499075322906206043 -0.794432388628677266)
(-0.101867090191400181 0.371214650644421162 -1.89840913026403135)
(-0.301253298078414389 0.873700647906006322 -1.32104687534283638)
(0.132224547649357621 1.34576376008421961 -0.133972922033158526)
(0.0861286895861006208 1.35989472880395712 0.148458548439837412)
(-0.132687384230528671 0.460900291508420323 -0.226909331188507923)
(-0.056172081814294221 0.032156886707234586 0.932635414776657568)
(0.438616604372894903 -0.795190005108610154 -0.219719565791715699)
(0.642676962809049179 -1.45070370555692607 -0.376085826262191503)
(0.622155626931898853 -1.15306049814621425 -0.278218022585100033)
(0.590388876473244117 -0.466597106894895641 -0.0974223175558886628)
(0.436174837130408777 0.105341074982146843 -0.0357598311432117538)
(-0.0105740519127424659 0.433152001968463207 -0.340908640964749488)
(-0.395667496905251936 0.511582050513889941 -0.702131322462860696)
(-0.794375469120977673 0.338452209486086564 -0.834691290296996513)
(-1.13535965457009747 0.144224289155549995 -0.771382672176454065)
(-1.38652603462330881 0.186051081619871023 -0.785449475218318649)
(-1.51276720301684442 0.39250397550505961 -0.85450243183637109)
(-1.53408254717039427 0.559119066198617176 -0.958298653522557609)
(-1.59030521362681165 0.6239264103118628 -1.08817250278344191)
(-1.78171469345404399 0.527392887849478686 -1.15719979274849871)
(-2.09626879184822235 0.277738508218584701 -1.05760988022890112)
(-2.32580623092166627 0.0309196239814761298 -0.836272569068933991)
(-2.53436361373013375 -0.176926336198595852 -0.539233944276065191)
(-2.53652057596010927 -0.312889330265216037 -0.258169175787851313)
(-2.21498945034051031 -0.410970126501936983 -0.0680020267401506701)
(-1.7132261756411491 -0.509015400177837418 0.0916378362660147661)
(-1.13631693853502647 -0.623044016667878786 0.260519943916884988)
(-0.609765888735419814 -0.639630245335013448 0.341663892551586412)
(-0.00456969718736549568 -0.506246545080241028 0.331811287349880746)
(0.584932107790698597 -0.289577117129417416 0.293561847506497497)
(1.01194803844903114 -0.13065915566993741 0.275158034154174613)
(1.23267953289124965 -0.0264107942834029968 0.264135149008823344)
(1.34339480198472416 0.0543166091449781424 0.243919837997465222)
(1.36683877475041626 0.151434468076719508 0.227053140624994515)
(1.22638405882493529 0.322531477397784427 0.245500611286410764)
(0.925477281720702871 0.536404964123455286 0.394011470953230414)
(0.104848301600658972 0.686643204064660839 0.595466231242546495)
(-0.107632046439959189 0.600828181121259464 -0.805756280952477755)
(-0.238174961832927246 0.409581426779446867 -1.82938177030441751)
(-0.500480623439572447 0.880714820099457563 -1.34098468351432554)
(-0.0440610106088681341 1.33010660667977043 -0.197075359599912708)
(0.0277841814607502277 1.38407658509069331 0.112807349262467715)
(-0.125708287014259457 0.591149576835647395 -0.427120897692295443)
(-0.0320154155785779618 -0.0758081378637768255 0.321963305808287137)
(0.580466307415443028 -1.07697898259120217 -0.4473596900677973)
(0.645665545309392575 -1.4981488139108361 -0.399832572936382802)
(0.508744921478544776 -1.12646449759750045 -0.215610879543151085)
(0.354847757077417392 -0.307112701304209423 0.0248762581204160713)
(0.156425395105712739 0.424727126489729434 0.144208156591035697)
(-0.202559963421935552 0.774767148782472326 -0.268815818450370003)
(-0.518576062171562602 0.829364387327747754 -0.574231084401130687)
(-0.871788631755581522 0.531480645890136438 -0.631214261524994935)
(-1.25466312196735741 0.251348452479018047 -0.589949163246484942)
(-1.62677958580373017 0.277546455321756369 -0.677412946019225193)
(-1.86200945756238845 0.415392389286868169 -0.770065705914230736)
(-1.99770117971283634 0.523909366451567937 -0.841241648344572601)
(-2.18228238509101935 0.567047981544141821 -0.864893795369364282)
(-2.45693635210468697 0.51648119940389603 -0.730986638449509396)
(-2.81547499402777834 0.373179220388136446 -0.342538515537949839)
(-2.95555565000181364 0.140537148159055159 0.140012308252170509)
(-2.74138294414582795 -0.165968431705361658 0.518090313600079511)
(-2.52143534180178053 -0.371183783756977581 0.699274279560392231)
(-2.31309300907569071 -0.496130649958203607 0.757982672761318477)
(-2.04999112765492697 -0.597560061726389535 0.750065474255661058)
(-1.71261787410553779 -0.700287268876131574 0.758512806984962817)
(-1.36619062782075007 -0.753090875184304287 0.752932626923677573)
(-0.801130457467101431 -0.665495033260306124 0.686633476815740718)
(-0.143455588308355531 -0.408738355843917933 0.573674611810882085)
(0.445676971186323101 -0.0890994720744548163 0.377762058833972125)
(0.848069149462588157 0.0812524187092377725 0.397434177772210351)
(1.08209972823501377 0.173651079776358575 0.435536862437522987)
(1.12214830049401759 0.309725405250373287 0.400806542119080511)
(1.06524163228244362 0.529016883360865275 0.439189651702683537)
(0.887284595580508761 0.779184147453970355 0.582034848763673951)
(0.161843683609989936 0.889455697743366858 0.810548933145888051)
(-0.171460431247229123 0.646936768416600749 -0.848500301912395449)
(-0.296758150497906215 0.436640471320905166 -1.6901700777432429)
(-0.605114642168907979 0.886584557396657424 -1.25808214750703162)
(-0.146460954398433263 1.29280245535981653 -0.204451105285810397)
(-0.0112098323044375371 1.37338304539330269 0.0861255614931196734)
(-0.0971075905356875296 0.60996954467904585 -0.654504517885271087)
(0.240883055090263504 -0.176787780723336174 -0.515792423625655139)
(0.680660703232130238 -1.23019225612876082 -0.549606879382780189)
(0.630086061705689038 -1.47954542476964845 -0.388169212723506907)
(0.366634183751539111 -1.02054568765837672 -0.156413993570169663)
(0.105424772343550743 0.0121550286112555028 0.116618821578803988)
(-0.0730207893347750714 0.790220796735985664 0.181590702660094555)
(-0.320559687583399922 1.1370728480697474 -0.240276681788680779)
(-0.555479312957244509 1.14393732099839318 -0.464669720987786472)
(-0.848160645757223164 0.711458890150520995 -0.443389394871217368)
(-1.34238683562735961 0.392876046725400829 -0.455567023531480708)
(-1.80750753561414923 0.399551236560670375 -0.512873037719409841)
(-2.14901995560552805 0.493674561360196607 -0.523610543935943085)
(-2.4897706265039834 0.556911003408683714 -0.465986872917051098)
(-2.81530627390510757 0.568513469885927103 -0.290035850246155524)
(-3.04872055152740451 0.500914955207811041 0.104351371403964485)
(-3.14249218894640281 0.25817093998991536 0.620083626474023375)
(-2.91385970615948953 -0.0270518630224708678 0.979635622521158433)
(-2.87371528911538299 -0.180364495059402774 1.17163342794702419)
(-2.91284920182344642 -0.250415322033072818 1.18686743283799179)
(-2.91227155598404641 -0.325851400049437856 1.09385200298802787)
(-2.79894359948311644 -0.456848066693154309 0.966199060399111742)
(-0.0490210162383021009 0.5241938786273036 -0.783965203064209915)
(0.438118659834061841 -0.350117052344044 -0.784994938020024957)
(0.740065048130394976 -1.28451764960039316 -0.556851328910453747)
(0.572189827634036252 -1.37651130341694183 -0.368874476095932158)
(0.186097533594593745 -0.791594138975875938 -0.126763040125606463)
(-0.107298968876896661 0.34924464094256813 0.124385908481252777)
(-0.256140911838242669 1.11615898984473993 0.0813532422420165796)
(-0.420227048094023115 1.47087613447931065 -0.276296090995686139)
(-0.553029634704866657 1.40554967731141423 -0.40084212135159536)
(-0.840789955645202425 0.928102789018285246 -0.321945409932912985)
(-1.36464564658671339 0.637225533441484582 -0.354126146698457545)
(-1.87204565350886809 0.579881878687424579 -0.290146201353320421)
(-2.24889710163091561 0.603195181626545729 -0.17696282109451808)
(-2.62148802462942676 0.573988499591819967 0.0287335623589065337)
(-2.95821640775776551 0.470114016738844342 0.385402278731755088)
(-3.01201321773128416 0.295542586888424719 0.820787712212763365)
(-2.99336725158449202 0.0976337342730339425 1.21327662382458268)
(-3.08256382206149881 0.0479965860428984911 1.4083858763381929)
(-3.28165139730250255 0.108594348071113012 1.45801883099776908)
(-3.36408269020566442 0.115556864127646486 1.20184097552041913)
(-3.15996208777858278 -0.0242822836893288874 0.839523335358557166)
(-2.87012216914984242 -0.243252838960422713 0.610095095210894445)
(-0.00328692456692873669 0.388149473436949055 -0.840504164818156263)
(0.619622242448801708 -0.507013729709942851 -0.784738150634425091)
(0.756797503795885285 -1.27296180645628043 -0.522716158035038791)
(0.463647536996571741 -1.30236622234854482 -0.347476730974512593)
(-0.0033211993965122609 -0.56847526914599833 -0.10244536318290548)
(-0.311328727546313355 0.637734341304276309 0.0412269336194958438)
(-0.405222993799346842 1.36746833010035407 -0.0639016061587096701)
(-0.510907887042917785 1.72178580775155399 -0.338937865867605104)
(-0.575120037786668092 1.60981221909735095 -0.386611247824266202)
(-0.843021733448157229 1.12758811959262051 -0.322289793109107936)
(-1.32421877286307321 0.864778020917932211 -0.280005185788698596)
(-1.74654973921301471 0.719688460919923445 -0.129392420919449164)
(-2.07470516806104532 0.630477954439389476 0.0453223896342320673)
(-2.35225315071540786 0.519352540555098496 0.311587522887104174)
(-2.68745181563644975 0.319349089735163683 0.737595219702422256)
(-2.79693767487071421 0.152029287706189065 1.14694523896643674)
(-2.95461417203318488 0.15334912258310035 1.39515309663937348)
(-3.18288775890202214 0.341737459679819888 1.44877906858421657)
(-3.2493353625148047 0.479477969922329939 1.20524618322183685)
(-3.10026126405596791 0.375172291570102345 0.762317330957948069)
(-2.82620155317497002 0.122432565250210817 0.427573050664955046)
(-2.49517392381265557 -0.172940539023204609 0.222504116760541992)
(0.0465879218118049471 0.237938972808131588 -0.941688734336873057)
(0.693436408004765692 -0.738219803179181788 -0.668933152460918223)
(0.706478037983317209 -1.20929593762490839 -0.487002585934085575)
(0.176651694066470577 -1.1757888286739715 -0.316579483126048833)
(-0.309920126511998295 -0.12343210827839296 -0.083807738252413555)
(-0.461077093105239699 0.838475847958872533 -0.0933321626229016571)
(-0.532483780140419638 1.55611123149438102 -0.200870725913085746)
(-0.572109121669041709 1.88489432834650184 -0.395387128811899136)
(-0.595251432943785241 1.75525301881159446 -0.39072065285000307)
(-0.820977480934610537 1.31335252492644639 -0.330353581586325051)
(-1.22135372265289721 1.04969359190738909 -0.236866050024146985)
(-1.53603690072646493 0.806357607463484949 -0.0507097160137591207)
(-1.81024637176048997 0.614214789933198779 0.145820768763049474)
(-2.08464014794068708 0.452549897875710261 0.44846434718792072)
(-2.44263620644974111 0.275543516937892974 0.899509072832311851)
(-2.68869848569420133 0.206656870988222496 1.23341600395778306)
(-2.92570352952931323 0.378721355429840589 1.33249436556421208)
(-3.02721088783875514 0.626120812628288337 1.18475299759327402)
(-2.94324406376784919 0.67054701605185385 0.783125308870825543)
(-2.73050000504555568 0.467006787697387682 0.420911569444807732)
(-2.44774182110973637 0.108412861434796004 0.196899908916942035)
(-2.14921345587127588 -0.257250886035317261 0.05358288217067321)
(-0.754447849864048892 1.4675806378069145 -0.34150408482813388)
(-1.07824373698179676 1.19216073047724991 -0.227564635551513406)
(-1.32393202505585306 0.874782668916433304 -0.0317581371479947333)
(-1.59629472089343216 0.613896915666663823 0.183533348201878221)
(-1.8963745438852242 0.438921497106450231 0.513926435887383182)
(-2.23095911682845305 0.30729447649605024 0.920929387983581593)
(-2.49574275249858157 0.348539686660100989 1.15696872283567842)
(-2.69736606895546682 0.584861010369764567 1.12215212716844048)
(-2.73368287637637009 0.796920312655843954 0.836920683527021647)
(-2.64729203373057365 0.827536903482471664 0.474395836894259459)
(-1.12190409459583895 0.927887675702017467 -0.059174323773096088)
(-1.32200045856957793 0.666864245055395655 0.123214192523092764)