/*--------------------------------*- C++ -*----------------------------------*\
| =========                 |                                                 |
| \\      /  F ield         | OpenFOAM: The Open Source CFD Toolbox           |
|  \\    /   O peration     | Version:  2206                                  |
|   \\  /    A nd           | Website:  www.openfoam.com                      |
|    \\/     M anipulation  |                                                 |
\*---------------------------------------------------------------------------*/
FoamFile
{
    version     2.0;
    format      ascii;
    arch        "LSB;label=32;scalar=64";
    class       surfaceVectorField;
    location    "0.960000000000000631";
    object      Uf;
}
// * * * * * * * * * * * * * * * * * * * * * * * * * * * * * * * * * * * * * //

dimensions      [0 1 -1 0 0 0 0];

internalField   nonuniform List<vector> 
20390
(
(0.578774978831297471 -0.151213829199467575 0.474020372695407533)
(0.449469023190080197 -0.238512921804665934 0.33294961736515194)
(0.253867065425803062 -0.171930679075853882 0.243887234346497922)
(0.699615031729020065 -0.0978027795065564975 0.345636370086891576)
(0.836982000381622071 -0.126688207628667893 0.603867613347733978)
(0.779989191264149895 -0.199357929670907597 0.560907721596914488)
(0.626091176299413354 -0.159551798362328912 0.619695421085607379)
(0.899489970977217612 -0.0980675937955665655 0.479186574269226395)
(0.97435716056156163 -0.0896621743939336607 0.597010145732854602)
(0.926454579818540069 -0.167533422636496343 0.608436069165431248)
(0.824133243215286804 -0.120059362182707088 0.696484229978862501)
(0.992773107260069732 -0.0673702840955996834 0.498792524006483662)
(1.10306536896840823 -0.0646127789242025297 0.587208221411371967)
(1.03066007577638818 -0.148796466547884587 0.619470857169038935)
(0.967176254952335612 -0.0946353883350058017 0.682352354647934756)
(1.09126567743557623 -0.0512820486496987152 0.513467628408614596)
(1.20311619097458578 -0.0457401436718455623 0.588445139478587897)
(1.12970824787573321 -0.113270103908668443 0.618887445216971699)
(1.09755528149259152 -0.0716113486988961823 0.661557750139133649)
(1.18937328120446506 -0.0390579333783539762 0.535068366796228156)
(1.28044201550827164 -0.033081726731326519 0.598069447873734061)
(1.22246700438409861 -0.0868966663334336115 0.622936509938065597)
(1.2017297313134323 -0.054707570877899514 0.651901759592545149)
(1.2709396170626166 -0.0303473173130894246 0.555434234738601318)
(1.33613951477819182 -0.0235583754048149033 0.610296909359138273)
(1.29561615520160944 -0.0661309786015883277 0.626329680418476253)
(1.27788636779275255 -0.040873539264783848 0.650978718362176245)
(1.33242773565271544 -0.0219309966512308725 0.574414226120288918)
(1.37988769737195072 -0.0166054658294459249 0.622404647677014533)
(1.35149447062384742 -0.0541395489015604539 0.627824898447893798)
(1.33354069903622774 -0.0302833739202312338 0.654927214883726072)
(1.37726068856306183 -0.0148584183295020923 0.590396259335081441)
(1.41339223589581731 -0.0116754429857865594 0.635594377941094968)
(1.39691569545826355 -0.0439226114758326305 0.631348141549300856)
(1.37746781741529878 -0.0220246205243385083 0.660726208524870851)
(1.40981829530796943 -0.0100109629640649043 0.606385496749556552)
(1.43978777940222935 -0.00822834623212529911 0.651359691071349278)
(1.43513558671884911 -0.0360625347665251006 0.640567112212881984)
(1.41297277419531753 -0.016084654573551023 0.669937902518205175)
(1.43389518383516856 -0.00781931488166052145 0.624208376386772623)
(1.45782043214053614 -0.00593993641497920621 0.668783486764834012)
(1.46437458973748469 -0.0281337749405998101 0.656074397646412177)
(1.44008260309751823 -0.0111048823515925762 0.682313692481930634)
(1.45187201484949635 -0.00718586444519809294 0.644078841115528489)
(1.47039842849138847 -0.00493824252891035542 0.685763395522226649)
(1.48339508254374697 -0.0232928581494673652 0.67471186650396997)
(1.45892535615497643 -0.0080016150446916099 0.696694524543369553)
(1.46495402651223583 -0.00774870826726838449 0.662686875262032182)
(1.47710664803914349 -0.00547308890004991489 0.700253376303295871)
(1.49259022367883198 -0.0196892718739457122 0.693128228017195869)
(1.47045057996375617 -0.00605540301831516536 0.711074827804514698)
(1.47399618526047682 -0.00876736041147677635 0.678404553869326188)
(1.48108709827180829 -0.00783988819205890496 0.710769955308935497)
(1.49370310636625714 -0.0188830732341078653 0.709196871583167909)
(1.47651238476846336 -0.00649898948285202501 0.723330072035985205)
(1.48026501562570134 -0.0109346883740219069 0.689544352093164892)
(1.48575865462569978 -0.0119645884075315623 0.716458598831999915)
(1.49312494310372079 -0.0216802133834525027 0.722222689356678882)
(1.48080437938250187 -0.00856374953226370257 0.733250739322904077)
(1.48631651815335064 -0.0138793783552184705 0.694561766230800126)
(1.49764833992859048 -0.0175738554768649496 0.716786461574749012)
(1.49806709238862701 -0.0299993305494364974 0.727597509776591211)
(1.48803498229017905 -0.0127402007438210344 0.740220610867455164)
(1.49663328353173375 -0.0178938477502253133 0.692111420895486273)
(1.51928636590734878 -0.0232064094728196071 0.71127206076331384)
(1.51397576337683626 -0.0414371356958274373 0.724198313579710429)
(1.50244644815615258 -0.0177302404127981234 0.743580993323188499)
(1.51510280385110274 -0.0216408652925290726 0.682344475715893628)
(1.55312451589144129 -0.0252646940237157835 0.699745271796475055)
(1.54392609829134519 -0.052768723500330024 0.711415382023500631)
(1.52660714315875623 -0.0227834106663243573 0.739899875568157728)
(1.54330592687230594 -0.0245034752770077226 0.668200342939617276)
(1.58805888527041472 -0.0238777157460118503 0.683705190987055733)
(1.58436304229311786 -0.0539674663956254616 0.69079097124533384)
(1.55902097024674213 -0.0240604783863240732 0.726889682781006075)
(1.57790679239363985 -0.0231469448996701674 0.65388897256923062)
(1.62511371111711811 -0.0215374109601945279 0.666421333117148573)
(1.62669351915284199 -0.0541462210223534121 0.665660610404065545)
(1.59590884790456666 -0.0242246157946076762 0.709907481156950571)
(1.61365259004033312 -0.0209848845061404547 0.638669775413854723)
(1.65983054817071474 -0.0189321758510172557 0.651388715975131261)
(1.66808410859724288 -0.0513778668884849465 0.643003856362354909)
(1.63444119160546686 -0.0222690472789130386 0.692880560001558843)
(1.64807500411340291 -0.0181890877654840681 0.624841554025078572)
(1.69173811379002381 -0.0165645892493746366 0.639853994780243296)
(1.70650910377823362 -0.048235342550720671 0.628713866637305996)
(1.67069173356996226 -0.019077016274143984 0.678702738594609389)
(1.68007324278715986 -0.0162769897192217329 0.614139471112915669)
(1.71934867547899972 -0.0140931164839195044 0.630041887882894946)
(1.74068545982947942 -0.0436789384284097665 0.618134215150836663)
(1.70167235496622604 -0.0152947408120558195 0.665910705027033201)
(1.70948984006457794 -0.0145701288279082436 0.606163272701135458)
(1.74464634635482141 -0.0121276950313435727 0.620490291050481479)
(1.77029348792326324 -0.0401808203876883735 0.606607013941618756)
(1.72832318824212816 -0.0127897968267570456 0.653044254862439888)
(1.73628538213176431 -0.0125550528703912354 0.59798015667176363)
(1.76909434667859289 -0.0118472806326679718 0.612091754074654326)
(1.79726360930868045 -0.0387051218173346603 0.594111620046448796)
(1.75399195163829047 -0.0120222190992027664 0.642109012154513881)
(1.76104592692811335 -0.0110529507863062447 0.589146866635714916)
(1.796164077315199 -0.0121523496844468202 0.606122216683723236)
(1.82481994564795724 -0.040645267035805982 0.581773354118365393)
(1.78060077294941155 -0.0121648123818779066 0.635281356147809118)
(1.78535923634692306 -0.0112941147536201394 0.581060724926219296)
(1.82191549858902713 -0.0112336498279948724 0.60251001832103146)
(1.85321478920761895 -0.0390824983554515989 0.571872532754320706)
(1.80738087783584112 -0.0110960229499663318 0.629540399747617885)
(1.81009576291169516 -0.0118135157581156607 0.577127068209303817)
(1.84442481592038354 -0.00901784634195904392 0.598690697449361875)
(1.8792905230648782 -0.0355664678219715438 0.565128387038682067)
(1.83105461653504498 -0.00807902819255787788 0.624291645637253922)
(1.83445526775285983 -0.0121401012907243096 0.575668085431840115)
(1.86205435456860013 -0.00797470438508472018 0.593222795721470408)
(1.9014000312186492 -0.0309440317876252674 0.557148287683850274)
(1.8510761023648783 -0.00633020870692945197 0.616290630254412108)
(1.85634222749966482 -0.0105334055712653744 0.572032015292463836)
(1.88166604882264576 -0.0077995215844245654 0.587458905920937857)
(1.92104345852675706 -0.0333007210756918193 0.548946176825343524)
(1.86950975860266144 -0.0058481430549258244 0.611767170060389165)
(1.87522512903470462 -0.00971148225518946549 0.564777504656282292)
(1.89657373076635771 -0.00638105126180171876 0.581478776067773095)
(1.93857990302690686 -0.0297811731933908357 0.542587570208929226)
(1.88635601165699796 -0.00489450435115131553 0.60511724323325633)
(1.89259540825829897 -0.00953940949533678938 0.560462648934685781)
(1.90386104307759951 -0.000639412945198843683 0.572406960328980974)
(1.95520343163142618 -0.0263557073134652979 0.53647720075779981)
(1.89622284041404798 -0.00167207493430038029 0.598850278130565572)
(1.90627076077778312 -0.00780809570859445669 0.553426141276532335)
(1.87433710181696056 0.0198496668245517829 0.553282423679887225)
(1.95863415981011957 -0.00435835123865600804 0.529658842315515965)
(1.88340520725788241 0.0108160703915660579 0.582901066096937259)
(1.90385124515455972 -0.000625896939071356401 0.544660467659943803)
(1.74295968498360199 0.0739330693185817345 0.51091537413428223)
(1.91547349393406052 0.051904374924573754 0.515214132235277011)
(1.80558640299932405 0.0467975273145644979 0.550141992076940811)
(1.84884789612338918 0.0283647505846093863 0.522573363569705074)
(1.39578577586298147 0.170751219426305584 0.423715805925364786)
(1.77821411892200132 0.170791746119870747 0.475561606332973008)
(1.5917041000249943 0.128440448728451007 0.478473817061459361)
(1.67186792210026502 0.0996740294787712838 0.472883362885372083)
(0.73461527637859636 0.217944699685158033 0.265440690164471638)
(1.43157425709513109 0.347579065128085674 0.40150496103459038)
(1.12405626912021406 0.234623307335795145 0.337784599443611278)
(1.25864616150849251 0.226854200182585536 0.371772243896375476)
(0.0833814502306039346 0.0921276439204826436 0.0976364843072838051)
(0.706888838902989036 0.354800427798601103 0.242816403211708165)
(0.340118760416715404 0.192628741137082782 0.125002325165197936)
(0.481508678034129611 0.215051108785037609 0.18336941089323619)
(-0.0475838381269939603 0.068069731100186312 0.115806454572527182)
(-0.291595916012040268 -0.0438095717100352097 -0.0037659702681744579)
(-0.237500045099741014 -0.0086009544555664761 0.0489920987850223713)
(0.6054296244291687 -0.284767034030887489 0.419836966266658451)
(0.440356169886457482 -0.244338039098411897 0.265535021296987528)
(0.0686601301095339789 -0.0848259902379017994 -0.258474606816315899)
(0.689073054153525932 -0.222320877381354726 0.33530478513266454)
(0.854159508797599165 -0.280072152749522296 0.565476177414611536)
(0.791496850398324181 -0.333006134800873932 0.507438225259382758)
(0.611569810432455507 -0.252405944900841783 0.477317969519239715)
(0.905035723791722702 -0.235612818255971912 0.458751409650775765)
(0.972824876322422871 -0.261397473037132955 0.63089678060161547)
(0.856355395763241378 -0.320930431790314552 0.658107105032108008)
(0.78535679129815128 -0.267107624672047739 0.720549243253288285)
(1.02365862279816788 -0.213015949424363776 0.532420598132526179)
(1.07202876193911467 -0.222052172513757085 0.651150080974638557)
(0.828013400393429411 -0.280140276998175952 0.665456303296673268)
(0.861073267305657586 -0.246397628046584355 0.734648711607123528)
(1.09995125550601669 -0.191452014800352899 0.571164987710796601)
(1.15796225541589926 -0.174340460657043866 0.653378815676449398)
(0.938735254968600885 -0.207945611299323735 0.578633113631973117)
(0.97710575015154455 -0.204340182756777206 0.69655697527234961)
(1.17606019997220645 -0.161945715999795625 0.59313940921486652)
(1.24095096005591365 -0.138340567041490836 0.651196742482807789)
(1.12448697803120168 -0.153148224790995824 0.50730825309567229)
(1.11605922669058399 -0.164043046077019999 0.654930318486521279)
(1.2506226955541877 -0.134299626390190774 0.605415799510215402)
(1.30811340272630772 -0.113399706106752748 0.643857669507231667)
(1.26006803989098004 -0.11268049797909499 0.472296342034334793)
(1.23355626289113962 -0.133264689982496465 0.63506851511442941)
(1.31373932809630412 -0.110305585752625709 0.609131786992249569)
(1.36664691824560447 -0.0944721903119914164 0.63676839232018001)
(1.35046260156808562 -0.0922754418182637898 0.434462261636630487)
(1.31931118028916949 -0.111471799428510057 0.626221415264231474)
(1.36621891854801247 -0.0895291770548660437 0.608483049896948458)
(1.41750098877010222 -0.0784413151545698684 0.636320875821087983)
(1.41844586549257357 -0.0738312023165058617 0.399926522289414832)
(1.3873702511747894 -0.0944898307981552055 0.623261777682903362)
(1.41037392533638029 -0.0716437657141803796 0.61429867270637506)
(1.46095610995886815 -0.0648033893809417949 0.645281818787944994)
(1.47634601689206235 -0.057288774815088879 0.386516157149339068)
(1.44295003869599614 -0.0809869618022115573 0.627711157158532096)
(1.44627128175332942 -0.0581420626546549218 0.628713923993509338)
(1.48962131272471554 -0.0539845048878803274 0.662002777385548025)
(1.52254485123902383 -0.0375341997099915489 0.393519196532571502)
(1.484529014703728 -0.0683022683193741514 0.639666920222373259)
(1.47309473817005876 -0.0487762005351037933 0.649531487813335917)
(1.50689536745879971 -0.0452107532015920202 0.682076698998939301)
(1.55436451120887642 -0.0264918547925558738 0.425566630653588462)
(1.51224723960407648 -0.0583192983476195428 0.659189357351403493)
(1.49028733941650882 -0.0434258643922908472 0.670065583344158222)
(1.50888265273635902 -0.0382494757631993906 0.702071723297067907)
(1.55923993800036653 -0.0159123247522882649 0.48803693892378941)
(1.52529807982859666 -0.0494069244560637194 0.680948834619206189)
(1.49755599254668104 -0.0390611309702466186 0.690489970588648694)
(1.50524113269079662 -0.036130114490672452 0.720649605630911405)
(1.54737950892423015 -0.0170419642392793912 0.545880736627318841)
(1.52571861104673023 -0.0437752990988577659 0.703739335790329434)
(1.49804177346906053 -0.0381758493132777141 0.703779698477375537)
(1.50299964108132111 -0.0418659569661615008 0.733361600301270178)
(1.54384261238515275 -0.0280365638396665728 0.587169144772461626)
(1.51920020474789474 -0.0418752045954494737 0.725981869279015646)
(1.49860525949316781 -0.0426920675335901376 0.711027100788289679)
(1.51213032714925766 -0.0557301530140140999 0.735009361781552628)
(1.54524279047309054 -0.0514687819016838577 0.608274240734480554)
(1.51584947933871361 -0.0464834562323323264 0.741526047614746608)
(1.50694200312170934 -0.0545189404856919677 0.707717110880099254)
(1.53655040524471453 -0.0739603085468168581 0.724341634839896997)
(1.55834116238631459 -0.0836249191072404308 0.593016767867312056)
(1.52381956281605624 -0.0564604628683941789 0.7518211051161936)
(1.52634024402872681 -0.0678109700963960282 0.691864978221259141)
(1.57991201273385484 -0.0862829828201326365 0.702461081472359528)
(1.59199451386807267 -0.113747408206268025 0.559294258820917101)
(1.54822492958889013 -0.0717307770258365368 0.748203871824079103)
(1.56137619902609659 -0.0813648162558901628 0.669607721103332443)
(1.62206528699732222 -0.090058138895807438 0.672746390662343985)
(1.63377928615505841 -0.115335596530791243 0.507832814713350178)
(1.5879088848998566 -0.0815923695081158945 0.727439921486195407)
(1.60694323055022448 -0.0854648857404118056 0.646856712979672621)
(1.67116736031684088 -0.0895496453830481876 0.642243133649271769)
(1.67821266265491542 -0.119195019936226138 0.436537442319228919)
(1.63520148162360224 -0.0888391240777923474 0.700473646222642521)
(1.65388374546293071 -0.0861301181422378104 0.61947795312297782)
(1.71531522053313412 -0.0861318442465982548 0.620329007024529644)
(1.72248623855249883 -0.110666693909412722 0.353152744277114017)
(1.68545588787218614 -0.0890224047092026127 0.671936519837744495)
(1.69912287564375797 -0.0830996603417846341 0.597506555769281023)
(1.75624870717556569 -0.0815781886305535775 0.606994087007899363)
(1.76035179657037011 -0.100531232799565051 0.259865377952997134)
(1.73191845697780078 -0.0844046424010752028 0.648335406594627739)
(1.74063516810586294 -0.0807871615450555525 0.584676860935324449)
(1.79141099953886318 -0.0768511214904109563 0.594699341209560361)
(1.80048898818934022 -0.0875079535058726488 0.176157538899984423)
(1.77103615728761876 -0.0771551334689746376 0.628189693413265027)
(1.77867439690591023 -0.0781622865755008112 0.575693934416115272)
(1.82218198194892733 -0.0739494287796606392 0.580228342937585961)
(1.84104696266814716 -0.0770738119196781174 0.113496590598752722)
(1.80357987828545974 -0.0731663586374482616 0.608091166984125353)
(1.8126494383539935 -0.0752961662488983302 0.565076221143801405)
(1.8509576808615229 -0.0739278937342570525 0.563793220090159863)
(1.86464085547469538 -0.0731548394353023629 0.0372378556906769465)
(1.83336741409296788 -0.0721879474999972265 0.590480426879452125)
(1.84288613219199471 -0.0727854394361079488 0.550357255175771165)
(1.88345638956091599 -0.0744254961303795481 0.547523670188962863)
(1.89364229361355196 -0.0775155514258360628 -0.04423232439735858)
(1.86323399186008754 -0.0731805902880648257 0.57531820164806291)
(1.87161140159089578 -0.0723415797387524651 0.534076714996075563)
(1.91179117045276237 -0.0729758905678010578 0.534490901471971314)
(1.9104839924786976 -0.0720830502325290057 -0.183564484079824508)
(1.89367966523650511 -0.072109162528714521 0.559671414562505576)
(1.89989139418659403 -0.0722779708517815311 0.522005200831240357)
(1.93729978330247099 -0.0692917002216331956 0.523585977273170577)
(1.92447036957559647 -0.066292230055411433 -0.294135658909669417)
(1.92103215032070129 -0.0682374463797277842 0.547878557134801603)
(1.9269204867314822 -0.0722698598469843356 0.511935607283694138)
(1.95798490098087408 -0.0663643126006067258 0.512871668787723389)
(1.93574332732259258 -0.0587131983103050398 -0.319986849115280192)
(1.9446056141628163 -0.0648773554585932166 0.535108169093031383)
(1.95285676817354603 -0.0686303888686597835 0.500254747305023617)
(1.97971098436034398 -0.0647858644823998686 0.504074841113334893)
(1.92742434662581519 -0.0636467095144133549 -0.328897177920004502)
(1.9650849998256934 -0.0628059740493573104 0.527112569820365251)
(1.97424491820635484 -0.0665449156382701412 0.48814659006102018)
(1.99700427365213651 -0.0620681129445368254 0.497585994898956052)
(1.90776280387026742 -0.0563552899816780542 -0.313916379622410591)
(1.98295556407525853 -0.0610478280832327663 0.51717719452467581)
(1.9930123337286314 -0.0652313280644671867 0.481322288507694429)
(2.01849720855044179 -0.0528712873221139912 0.493729082744334746)
(1.88649385097639821 -0.0580203714105623561 -0.28737287752074836)
(2.0031128575731465 -0.0553448720909060776 0.514584530105017812)
(2.01266485704304632 -0.0623434789277591342 0.472748289521642218)
(2.02214570662335946 -0.0226716358124569445 0.491590550870905474)
(1.84361143054711363 -0.0266654091617031901 -0.278933388176662578)
(2.01080126932588188 -0.0366069281947504557 0.513105141891517347)
(2.02871162613922218 -0.0501635418284064813 0.472139745891477669)
(1.97534921828165988 0.0571603459082280219 0.479860364433968789)
(1.78767214279273134 0.0584646725670690329 -0.0797606893243935078)
(1.98192736243868239 0.017846539189989713 0.506033715318647603)
(2.01307329263617341 -0.0104995551364814033 0.472357888552708327)
(1.77554802825819946 0.25054061058801369 0.453350761442199657)
(1.75215507819294625 0.261555668829901111 0.241491781041649534)
(1.88104833707990027 0.147447960043765203 0.476840878921997169)
(1.94029774859762161 0.0938287435504054496 0.458567504138581661)
(1.26987369631249636 0.454140502493553588 0.378880674081826074)
(1.58847687018257733 0.601629342777274867 0.378537850078871529)
(1.60454578469649012 0.417858506771390303 0.430631059843537833)
(1.6999605698939031 0.356227801281849887 0.433057311611780349)
(0.568718143408457055 0.383238177892520626 0.260986373476949474)
(1.05714758953553578 0.727670214790789638 0.324839719502424851)
(0.909198597055743463 0.51382520754099803 0.286986452865989061)
(1.06427616415526538 0.518988341028165046 0.331570617721957894)
(0.256694158550287321 0.373357737644140764 0.234316128545338676)
(0.13323874271920802 0.220389708164700937 0.171375641505288279)
(0.210664634423443131 0.258999018870939568 0.213233815851331165)
(0.626204910124173786 -0.3124431827436569 0.353136280289709392)
(0.373082175430168139 -0.231273584369074414 0.147500098861194029)
(0.001924991033489587 -0.0264149853705918647 -0.342521179257774699)
(0.674759533219872365 -0.249261787789458067 0.309812620819343243)
(0.783028105868790347 -0.37869799696153772 0.600069152876879119)
(0.739600225076331386 -0.412329104641715127 0.501038830480593056)
(0.567484979762372332 -0.354764876003821394 0.484139384510453241)
(0.910551417798794782 -0.353370720117001325 0.482316656918928888)
(0.668328543796076868 -0.328372219380128116 0.692666627727165918)
(0.505248728997485297 -0.335740221212417866 0.780940614976548209)
(0.446595500583928384 -0.301826371424629647 0.761311320664715074)
(0.920107896960783878 -0.320135465164648192 0.616992225790509052)
(0.709854207676048898 -0.242838461489569918 0.592939335954007829)
(0.335798460976560742 -0.290717572025853188 0.459565594003087385)
(0.346278417750052303 -0.230546362237047914 0.597919216010354138)
(0.8506930699054982 -0.264346978564741764 0.618290303222913118)
(0.93700697520596743 -0.152173987494024943 0.432562551051196231)
(0.760087794509481385 -0.218363279699905405 0.146559044584819026)
(0.651787935888070935 -0.17521159930901567 0.322461478773020671)
(0.928653195131111997 -0.199695855500359787 0.528778825094077698)
(1.15180975076906278 -0.0814868891629180747 0.328407852647199683)
(1.19655028217708459 -0.101730248408538837 0.00774142099245855864)
(1.06675462068145155 -0.123608544284786154 0.119626674920429749)
(1.10309113302384776 -0.139761301307412683 0.437265207809370782)
(1.29287940766881304 -0.0384618370467399925 0.262900934163733557)
(1.43440267416850831 -0.0128147163669614164 -0.0320099089716004981)
(1.34645776819132146 -0.0653926036122447762 0.0426637834002290758)
(1.25166578076622703 -0.0938747765666836098 0.383464795208618148)
(1.39256489949980433 -0.0112389317976721945 0.197620391605865225)
(1.55490178536654766 0.0288935268909402548 -0.0725591490271985107)
(1.51205635009679407 -0.0247761160369145451 -0.000169064625086071574)
(1.35490915686177904 -0.060538774139362754 0.341854275920933703)
(1.47301602286609978 0.00907834691282975725 0.150121803617665639)
(1.62470696019745731 0.0575878971265852274 -0.111989985111672463)
(1.61696500909016105 0.00208423774739181214 -0.0282677459930613661)
(1.42463855675304885 -0.0344793288207259907 0.315021707426840658)
(1.54274943045030266 0.0249927069054522652 0.134753534893965354)
(1.67863457097022484 0.0806002168665617968 -0.136249921377010891)
(1.69975736909280428 0.0160868739278394561 -0.0380039940681295499)
(1.47863736634812404 -0.0194052530781537134 0.30750781594727461)
(1.5870385747480682 0.0326721349859532204 0.157083049800612023)
(1.72606565213652496 0.116551111077568256 -0.15513053982230976)
(1.7752198552726155 0.0341398434153747585 -0.0364447078791049067)
(1.52387269689401927 -0.00906663097727131335 0.316015739441402654)
(1.61230785213671757 0.0312677297053935849 0.231526870578439237)
(1.75977792296918789 0.137460279822671394 -0.149777927642336994)
(1.79811146840603886 0.0471138150041800069 -0.00817512639148997716)
(1.56096819738151793 -0.0105303242253347792 0.344998978718477123)
(1.59446381481267863 0.0205163134539335414 0.331845952254040677)
(1.73455880367180026 0.178192923189035762 -0.0869788576304528771)
(1.76810011427460445 0.0549851955791525807 0.0363952985699116174)
(1.57416826791312614 -0.0167663478897942184 0.406761857019179052)
(1.58592264764014579 -0.00508006471675843865 0.412400275768869007)
(1.66477170614773495 0.163100237743950799 -0.0264079663909320729)
(1.67965186305424319 0.0421905624866737647 0.102596366432278013)
(1.57655347851374361 -0.0333055717546057034 0.454339150581979434)
(1.58152071113138137 -0.0404450104228335425 0.462081785205671836)
(1.56670796901349041 0.106596366642541268 -0.00706139635039898517)
(1.59451371705541489 0.00994572575893257552 0.215699322634261503)
(1.58548261351931918 -0.0570943131159561829 0.480562699194896747)
(1.58582258179952884 -0.0779656807054476125 0.466281646820240148)
(1.47334357695458951 0.00644493343668480281 -0.0242006828681271512)
(1.56380610078709048 -0.033264403054394584 0.365306598443655539)
(1.59155892807437205 -0.0859440411243281022 0.485435447547986842)
(1.61121072168581958 -0.113793516986206489 0.427969391848331715)
(1.33134406505120073 -0.0890272246376209581 -0.113852362489837655)
(1.56655397156616139 -0.0686705422490774819 0.432520075624183042)
(1.60600685416032407 -0.110818582721248768 0.447103275373460951)
(1.65561397817017775 -0.134281341412094329 0.364665992061907251)
(1.16193849240438718 -0.150769079817308471 -0.27598678061352333)
(1.60438471870847943 -0.104181735879028528 0.421108796735406243)
(1.63844901652063313 -0.134498691817635158 0.391468548809813466)
(1.68487633232372502 -0.136773816954455257 0.271623866370235389)
(1.02213680923027805 -0.139249662909757599 -0.519177882915676125)
(1.64884569114467827 -0.122197164385105958 0.344320908272536197)
(1.68012035925824077 -0.139065732080754068 0.325754996552945819)
(1.73387441092944861 -0.129133333502972875 0.147447052947070389)
(0.914833171348151675 -0.138139797254003438 -0.843915108110007139)
(1.6864336904533983 -0.132324878023938941 0.218108335301547329)
(1.72400314379626618 -0.136347071188548885 0.229216548936935882)
(1.76896772834920091 -0.111346211287345481 -0.00731088479441828476)
(0.972008328266780186 -0.0856606045441931779 -1.05048723733013061)
(1.71880514382624638 -0.123700062882641487 0.0320351762465725387)
(1.76616427171510471 -0.123869782394664715 0.117140387720519767)
(1.80536439874082122 -0.091309174660180431 -0.170971170154915947)
(1.06639437919533608 -0.033924276922136419 -1.22649063297385519)
(1.7518121658700434 -0.100580139759217077 -0.182051386414922717)
(1.80150261721631777 -0.109328239795186091 -0.0124408921314490498)
(1.85102554004787256 -0.0756185150141518297 -0.305045211710822328)
(1.17233871630471898 -0.00693710024672134287 -1.34147565885747633)
(1.79753524931472808 -0.0752004523537727343 -0.354687733241726977)
(1.83339358041598421 -0.0961751465310269615 -0.147884929249370439)
(1.88141622901384076 -0.0631566852609552337 -0.429493896648156126)
(1.27744997395718807 0.0210483461900596233 -1.40765292067498038)
(1.83628195188342125 -0.0537674835883417759 -0.497988404643808058)
(1.87312407961058813 -0.0857069218460416865 -0.271353782780481723)
(1.90087782469386513 -0.0518345941886377906 -0.570787688796842385)
(1.36080616813021704 0.0539084758340858949 -1.44210827531607921)
(1.8501134857088497 -0.0285548766091996628 -0.674339083608695211)
(1.89987217326996616 -0.0750718949880392339 -0.400751097108565213)
(1.92584193784759705 -0.0307649219452073228 -0.775320478666144841)
(1.43022720959290894 0.0882961615099237263 -1.45349792663283139)
(1.86129299548997995 -0.00879351311879687098 -0.878918018166429338)
(1.9273805198878502 -0.0663613003190205997 -0.522330856430739954)
(1.92733796112987332 -0.00864495429614504235 -1.0121910444614648)
(1.47119766353849002 0.1252465566918744 -1.50784505536361513)
(1.87090244375100512 0.00267599873323454834 -1.1034947422497674)
(1.93394515780742804 -0.0432835858211511743 -0.707339489133801846)
(1.92292997775208319 -0.0046080883557541117 -1.13770848529812074)
(1.49476357586688091 0.0945599768992235884 -1.53572625964340226)
(1.88099364989859597 0.00393323137583190697 -1.22019741714022945)
(1.93488191487920091 -0.0329513843194722683 -0.902901725077382311)
(1.90438593961171243 -0.010771421359278591 -1.16175569582300975)
(1.50709631456348303 0.0601091618075202463 -1.47417988188953109)
(1.87707992246950739 -0.0038939584926854418 -1.22625082006838837)
(1.93906182482701706 -0.0231423485924654171 -1.00715144374792676)
(1.85547120952890254 -0.0129922480053875633 -1.14688839865574943)
(1.49795566698270388 0.0524941393333428347 -1.3989733482405069)
(1.8520619660876112 -0.0055461208551447639 -1.21000947439569462)
(1.91457336295484448 -0.0221224478073879793 -1.02664225891676808)
(1.7983738782603258 -0.0119921830023776987 -1.09887525204211411)
(1.47591969456600225 0.0526681932237501038 -1.30535383280718009)
(1.8108190569147653 -0.00581682675194124255 -1.16492650013686161)
(1.86566219257870447 -0.0232252789681430261 -1.00397658105511822)
(1.71607250189633809 0.00416548364087455242 -1.06003534844174507)
(1.44190763082721718 0.0525657819968392004 -1.21652367188980115)
(1.76381957380481724 0.00171598375256817696 -1.11806897359315949)
(1.78555936727002051 -0.0199858997290472823 -0.979197945932744118)
(1.66522314415413275 0.0575825734392321278 -0.850284628371963835)
(1.37191159605670143 0.0455232398646490261 -1.19745724871658799)
(1.66712086890263977 0.0351556954143443512 -1.061863929172288)
(1.68045046205837312 0.00696312604272332665 -0.968335344124961472)
(1.61470073740101494 0.199276747641231461 -0.318129272716712819)
(1.2893115962313626 0.0465204644398007905 -1.05301600529808104)
(1.58139264040764815 0.131176477320791351 -0.588328542408532051)
(1.57036919207898196 0.0700982159640010927 -0.66273947634731567)
(1.54046550014008266 0.482395070234909074 0.166678869678320324)
(1.23933015176350003 0.280264921575794357 -0.579251552340387721)
(1.5680377596835513 0.350607066224130404 0.0398467838654420134)
(1.5988972078244672 0.268112793091736745 0.00302983009952934468)