/*--------------------------------*- C++ -*----------------------------------*\
| =========                 |                                                 |
| \\      /  F ield         | OpenFOAM: The Open Source CFD Toolbox           |
|  \\    /   O peration     | Version:  2206                                  |
|   \\  /    A nd           | Website:  www.openfoam.com                      |
|    \\/     M anipulation  |                                                 |
\*---------------------------------------------------------------------------*/
FoamFile
{
    version     2.0;
    format      ascii;
    arch        "LSB;label=32;scalar=64";
    class       volVectorField;
    location    "0.840000000000000524";
    object      faceForces;
}
// * * * * * * * * * * * * * * * * * * * * * * * * * * * * * * * * * * * * * //

dimensions      [1 1 -2 0 0 0 0];

internalField   uniform (0 0 0);

boundaryField
{
    inlet
    {
        type            calculated;
        value           nonuniform List<vector> 0();
    }
    outlet
    {
        type            calculated;
        value           uniform (0 0 0);
    }
    top
    {
        type            calculated;
        value           nonuniform List<vector> 0();
    }
    bottom
    {
        type            calculated;
        value           uniform (0 0 0);
    }
    left
    {
        type            calculated;
        value           uniform (0 0 0);
    }
    symmetry
    {
        type            symmetryPlane;
    }
    interface
    {
        type            calculated;
        value           nonuniform List<vector> 
104
(
(-0.0477117074272569233 1.06536546714094021e-05 5.10736711481914051e-06)
(-0.0191605266075040824 -3.59964771210123238e-06 3.43561067136913065e-06)
(-0.0175719737604942937 -4.49260744797398836e-06 3.52191942428932766e-06)
(-0.0162236220146035719 -2.72560437641886202e-06 2.47294309358857102e-06)
(-0.0139734823986948989 -3.13961277602045516e-06 3.11560066911348597e-06)
(-0.0123590664261706354 -1.4246734880776616e-07 4.36433131674151948e-08)
(-0.0125392928996132958 -8.41789401374759054e-08 -6.55123801370672685e-08)
(-0.0124898449986083019 6.26035541408236473e-09 -2.94896464529067537e-07)
(-0.0126606035409134281 1.00233700386770616e-07 -3.34697811417618583e-07)
(-0.0128266669295182042 1.29674617370158733e-07 -2.99570909296103333e-07)
(-0.0131911581101679803 1.15868281003993895e-07 -2.63910947981612063e-07)
(-0.0136174250110709313 1.11048068243308492e-07 -2.41957623784084354e-07)
(-0.0133897460599898249 1.40907722678487424e-07 -2.80752776801775746e-07)
(-0.0344216182632000045 -1.63495285627287367e-06 3.34387231538427081e-06)
(-0.0199381313022584279 -9.51587094711298915e-08 -9.59273239411922296e-08)
(-0.0184806279620328244 5.38544848867222931e-08 -3.70914125427624119e-07)
(-0.0172794135051700139 3.96139982194682674e-08 -3.96909769980664923e-07)
(-0.0161276629895889187 3.19011392639763194e-08 -4.52035461957741492e-07)
(-0.015156916054443163 7.06062523108385573e-08 -4.13503886823860301e-07)
(-0.0142723519752388089 1.34688179865408965e-07 -3.7023955516708364e-07)
(-0.0133873414997909956 2.01875823052673664e-07 -3.57823886903716258e-07)
(-0.0132018344655535254 2.02198562125400656e-07 -3.14418993329684155e-07)
(-0.0134327337533967119 2.03736349019080252e-07 -3.12293427902005375e-07)
(-0.0137479397402310421 1.84211695391960566e-07 -3.00488136462713374e-07)
(-0.0143686970783970889 1.40737066448357673e-07 -2.77210736463768169e-07)
(-0.0150221985440694185 1.09519306486815128e-07 -3.0298323521709641e-07)
(-0.0294043588607564785 -4.15984218599385467e-06 2.73703859431564708e-06)
(-0.0209215984922993883 5.97644565490498052e-08 -3.62369805006738639e-07)
(-0.0195787003261515789 -3.51470881098514567e-08 -3.97224236148633497e-07)
(-0.0183202474061958838 -8.94839499523434644e-08 -2.95013915382664981e-07)
(-0.0176114317095607577 -1.24735758370948188e-08 -2.30847983325858599e-07)
(-0.0171041737281096354 6.92387623135775915e-08 -1.97445005130545006e-07)
(-0.0165833891356305455 1.53584816045390672e-07 -2.12158676648121715e-07)
(-0.0160397035586160724 2.33158546058689561e-07 -2.3135291292804595e-07)
(-0.0155062680327889731 2.87881502298412728e-07 -2.78793942091572179e-07)
(-0.0152060510850993147 2.99903439560572241e-07 -2.92618274820902955e-07)
(-0.0150510745274535142 2.63135828147759358e-07 -2.86514896269171309e-07)
(-0.0152540606226496418 2.02947191769249623e-07 -2.68756296811669311e-07)
(-0.0158609180053988601 1.52837540512145218e-07 -2.38588611517676744e-07)
(-0.0303244195778533468 -1.10866931976664428e-06 3.72197158282968629e-06)
(-0.0224161092480670149 7.08478092178254318e-09 -2.8860764060977574e-07)
(-0.0220038215780660185 -1.45262017476530654e-07 -3.36830116369023168e-07)
(-0.022393329893788505 -1.23602657486983433e-07 -2.65805712747323384e-07)
(-0.0225897464749985448 3.85841442432562053e-08 -2.80916033051442547e-07)
(-0.0221283241972322874 1.77456010468302686e-07 -2.39878249946517075e-07)
(-0.0210768006422006673 2.38392310291062326e-07 -1.84610598351911917e-07)
(-0.0197173919628883428 2.85260461997547982e-07 -1.71784456279912266e-07)
(-0.0181712085887491791 3.54718838778275004e-07 -1.984335128795238e-07)
(-0.0170932324703483643 4.6227629311844838e-07 -2.74970437609988054e-07)
(-0.0164956432606058433 3.29711815358973594e-07 -2.38965446951852877e-07)
(-0.0166327081107622218 2.53252694638757074e-07 -2.13548233819954123e-07)
(-0.0172635573841921734 1.77643657558096588e-07 -1.83637161525486264e-07)
(-0.0351940571827537504 -1.13014128826769401e-06 3.93414986258319318e-06)
(-0.0262878479420897496 4.36276017464900377e-08 -2.09021172909832848e-09)
(-0.0259645429099154938 -5.3216241602824686e-11 -3.27659937109944606e-07)
(-0.0264988076248043845 4.57495059355367998e-08 -3.08982838594492485e-07)
(-0.0258292634057060641 2.30769344614885513e-07 -2.84999004028733486e-07)
(-0.0241639732194149706 3.80578916990760749e-07 -2.56742360654844605e-07)
(-0.0221376062330192018 3.77022194443826936e-07 -1.85783826064144583e-07)
(-0.020173472033447222 3.20659363013249587e-07 -1.29692538348180027e-07)
(-0.0186094264440985063 3.82219142472589965e-07 -1.50062284739600723e-07)
(-0.0177162531662632336 4.25107256701138059e-07 -1.81864610725858196e-07)
(-0.0172394814046820215 3.20437918780458481e-07 -1.76392782659312513e-07)
(-0.0172654534758443952 2.55792159093733235e-07 -1.50399230268812083e-07)
(-0.0175652342365837273 1.86769575585075665e-07 -1.12586297500497639e-07)
(-0.0420081371304702744 -1.32325159022075144e-06 3.38322717890497231e-06)
(-0.0327565011719272228 6.01704224037658203e-07 6.4265242241849219e-07)
(-0.0300297694962122531 3.13951197776978852e-07 -4.12161399417082304e-07)
(-0.0289955411932556265 3.47052280648576343e-07 -4.12726406701319884e-07)
(-0.0273933208510688427 4.25281406716767775e-07 -3.13220063180973101e-07)
(-0.0253341696897114096 5.15709193784817836e-07 -3.03990739773788147e-07)
(-0.0224354886729976888 1.69137944559734044e-06 -8.97400630511834837e-07)
(-0.0194535271332186635 1.36599893669369741e-06 -6.56948543934879712e-07)
(-0.0179670908308747282 3.64839414300006174e-07 -1.73496851264940706e-07)
(-0.017424453102924637 3.06970339084026212e-07 -1.67817715355685572e-07)
(-0.0169486420062655643 2.58918593436923493e-07 -1.53631214846467913e-07)
(-0.0166952899461935353 2.18340195819601786e-07 -1.44148900107065743e-07)
(-0.0163838062080755575 2.20631828345702811e-07 -5.67123084523495123e-08)
(-0.0452357612535619416 6.56202997298478455e-08 -3.01692626645115586e-07)
(-0.0395252355487535484 5.26766321171143847e-07 -1.09315276914004933e-06)
(-0.0347115218421976193 9.06556391818361435e-07 -1.70138189026968923e-06)
(-0.0306513724105920149 1.60269307231638331e-06 -1.48803420035849098e-06)
(-0.0274186630477902676 1.2360538048571671e-06 -7.12638243462283676e-07)
(-0.0242007834398762535 1.9326084661023249e-06 -9.20530226892774286e-07)
(-0.0207334347388256658 1.99807371126503916e-06 -8.30863748824870708e-07)
(-0.0183373678395429111 1.3953751491595994e-06 -5.48050002252161491e-07)
(-0.0173802641559308337 3.9694185074448065e-07 -1.60281051704296782e-07)
(-0.0170593985403258985 3.61119088519771677e-07 -1.33163124239015928e-07)
(-0.0170485453068742188 2.78386669862851692e-07 -1.05734674611706001e-07)
(-0.0172263069412922354 2.72729551120207309e-07 -1.48362100646801672e-07)
(-0.0165339116151203003 4.815135712484019e-07 4.26598449087061203e-08)
(-0.0519908925156788299 -1.42438759024911679e-06 -7.01453365225903795e-07)
(-0.0505264820411433016 -1.05942578560860354e-07 -3.29939216435359917e-07)
(-0.0476310372726263531 1.55944026387340499e-06 -2.01342155055364201e-07)
(-0.0407679544274791097 2.57231163797406766e-06 -1.9061846607600734e-08)
(-0.0325050483162467041 2.75962235044229963e-06 6.41376611796055836e-08)
(-0.0258212278660987886 2.6906926577006401e-06 9.08039776581320728e-08)
(-0.0215412015544599635 2.45725649653208017e-06 1.08994434461941543e-07)
(-0.0190820344223896869 1.71230635394713145e-06 8.88630730126864292e-08)
(-0.0178574334100876156 7.42486272740949538e-07 4.22560045682950699e-08)
(-0.0177395715168447883 5.64848291312712203e-07 2.5825413650556221e-08)
(-0.018517720526241066 4.11990238296575869e-07 -6.29937725099945542e-10)
(-0.0195846770022960991 2.40068888746023734e-07 -3.94135757534584299e-08)
(-0.0180913451037505342 7.16770225707100194e-07 4.7813911742259811e-08)
)
;
    }
    procBoundary3to0
    {
        type            processor;
        value           uniform (0 0 0);
    }
    procBoundary3to1
    {
        type            processor;
        value           uniform (0 0 0);
    }
    procBoundary3to2
    {
        type            processor;
        value           uniform (0 0 0);
    }
}


// ************************************************************************* //
