/*--------------------------------*- C++ -*----------------------------------*\
| =========                 |                                                 |
| \\      /  F ield         | OpenFOAM: The Open Source CFD Toolbox           |
|  \\    /   O peration     | Version:  2206                                  |
|   \\  /    A nd           | Website:  www.openfoam.com                      |
|    \\/     M anipulation  |                                                 |
\*---------------------------------------------------------------------------*/
FoamFile
{
    version     2.0;
    format      ascii;
    arch        "LSB;label=32;scalar=64";
    class       volScalarField;
    location    "0.840000000000000524";
    object      p_rgh;
}
// * * * * * * * * * * * * * * * * * * * * * * * * * * * * * * * * * * * * * //

dimensions      [1 -1 -2 0 0 0 0];

internalField   nonuniform List<scalar> 
7236
(
203.552517148461504
388.968269773843303
477.595887215019047
466.640006748951066
429.745940224842855
407.932817044883052
375.887159059932173
336.884193454635408
311.317508374906879
299.112744454409778
300.466392382834783
306.863942485591053
315.338457088388623
330.904546359652556
352.87929074830879
370.851706257531873
375.922106556075278
376.023204081607105
372.438347791120123
365.787386938249824
354.432586654996328
337.17579319662957
324.240165039780493
320.057301940490618
319.937798638657512
304.739436247926278
290.196832625312823
291.349831274680866
295.134745633450734
295.236010140366943
292.940121698053474
303.716185862902591
334.149907934718044
409.144319190927376
617.379499019784589
1102.99757784841518
1747.37269898775594
2055.86142710557942
137.179645100373619
327.261285652330741
410.685150834145247
422.275015719267515
370.680400631300529
384.360191763054956
349.631573965889515
296.548191552149262
275.957524205845345
262.811460191265382
273.93043012497543
285.116419468176503
305.493012479976244
326.643615454723658
355.232110771194584
371.918859646679607
372.11720719500056
372.696335180972653
369.233319268510513
363.761673207851118
350.555383174441602
325.820304983364338
313.150263717717962
312.853785793735085
319.086415555074836
286.987550789710326
263.279350566884148
280.894899536146283
286.450907162508202
273.570342084712593
260.545420832386128
278.27433875458712
298.587275775945045
315.161860455627732
432.024982114843226
853.738929054279311
1612.09309782847777
2089.45603098480797
138.515156740725047
162.969411522725153
280.732512637677473
290.913580722775293
176.83525848514779
172.160657221120204
151.142078157249387
117.498307542237811
91.9586340830997244
79.0771228061160656
91.3980561121183115
107.193751340354993
91.1064478507707349
177.503060905734259
304.312238110645922
334.219250267077314
280.675289656248992
274.515322092568454
256.088979111222727
250.137500380779159
237.189257061762788
159.982598182199325
124.282683781754343
144.511261005277419
210.255174342460407
82.073879382057612
55.0067576319961447
74.7436503852567
80.3937418473704071
127.322748270866697
63.4987268448221798
78.9195393537208787
87.8638904212482146
121.70104876169377
123.126032808363078
376.088451439118387
1248.45269458178495
2000.13916697747186
97.3881813034308266
142.273642711333679
82.7674209413628432
119.554880042087561
150.952188456642915
153.348099050159163
136.68190232266349
106.846170526691736
80.4573283413479743
65.6742734563698463
53.5238530863086055
45.1556377857432452
37.5400986238056902
39.5220869139253494
42.1129161860146439
50.3069803947395613
57.5228713725370966
60.8520582787832609
60.7620639658487462
57.6922189843166393
53.1260495332006997
46.6714250008850584
42.7922768458305498
42.1981718947017512
42.0395085209221051
43.3779240383891462
44.0519008615612648
45.4413034405746785
48.1280782844964889
50.8704354103094261
55.5886491501441924
60.5707129160227709
66.063457351671957
71.8215490025672665
89.4498893261973222
163.502112029959164
901.129256929946223
1763.64278766367124
135.851409387071158
44.9393687498024121
69.0846546542848472
112.967570183947643
138.09892828893561
139.184515495083843
120.277127297242046
90.0809162804982435
70.2577976995189459
58.1214795608624613
48.9899609441797992
44.9476004127122479
43.4144592452296223
44.2608258731301163
51.7451745354273243
54.0273642500391347
60.7836568194936717
63.9615214030133146
64.7648817127933256
63.6711262958209829
61.1700063539276329
40.9993544348318579
39.4354943457760285
40.0565494056717384
41.1311998548635387
41.9956287008943505
43.390458598412053
45.2458135031012105
47.4753302673514881
50.689868390893615
55.2637103265589005
60.6526892670623567
66.3051674717563202
72.2012065137061967
79.842824186778671
108.943818765562895
649.297381655000777
1513.32019138885221
28.6296265588333441
34.4173547126847055
53.3305351182927154
100.756500573958604
139.422534343253858
126.332793497183957
96.8519506050391215
60.6667947448073832
45.7362696495819421
50.4426248601422031
46.5133776798769603
45.677088957636677
47.6339751144803998
50.893457525030783
55.3168718368755421
58.4549651613325736
58.8772899874684086
63.0873514188928155
62.6916509939676558
55.0511562112834696
44.8478659408310989
36.8050974874039696
37.2567977489458357
38.1584321142143921
39.7291630317060793
43.0952645298313755
47.6014540622769857
49.5400932006692898
52.2235591637787877
52.6878428781162498
55.1424248605755309
61.0096942436126781
67.6931690939133688
74.0487191352044647
77.8945109295813012
87.9024714388483943
622.173099847873459
1298.67968553072114
31.105837021526586
29.0578012810982784
42.7357808208288787
104.570765486056104
123.332247104974542
104.152674466815284
65.9664589025928763
28.5910555717513191
15.4028719328351293
13.9228767855892297
13.7199529965331521
16.2986229029686882
25.7219333727015886
48.5069272754935881
52.4274823986946643
53.1869570744171014
38.1616331433791913
36.3475358699991347
37.9148124025144853
37.8296826402064923
35.984882056358714
35.0793562103552077
35.4300242512109307
37.6752838872205515
47.0377840855411904
48.5859642886893823
49.229869505091294
49.9257315289201671
51.1504150985843324
54.228085373540857
59.5498549487591333
65.324807841951241
69.4465741599035198
75.3947122372581902
75.6983860022529882
79.4354860552669493
286.717066903867533
1121.30541458705534
32.802065361941338
26.3640301257895935
41.8615602280372983
97.3086544492221606
104.954300518811721
79.2854894290258727
26.8409857836308632
14.3378530462070799
11.3730886092754826
10.6626811394570638
11.6029690133741976
13.1388809947858238
15.8059534033615581
19.7231185336806227
24.3053174781557786
28.8473732939524297
33.3214543983186715
35.6961502026777282
35.5928534168564852
34.7073891081429835
33.9110109458758799
33.5771176517701662
34.4369670352722537
46.5662703374630595
46.8683414221861128
46.4227445539155994
46.807836171867919
47.2929542206016507
47.7079792356926689
49.4592171315740572
53.8262084957099773
60.7425665360235527
67.2916668881001669
74.4303846578630868
66.2899821626313326
79.1093080865676654
147.957178321233187
1035.48209373459986
33.9654625867916096
26.7526580972257939
79.2966077400063085
104.583163647211293
98.1338283014153916
22.0801114762735793
13.3150984003249526
9.77405958593313784
8.43121877276941234
8.9072125204905408
10.2318565194361497
12.0992903966318295
14.7190955233667431
19.0953194687779764
24.0842647047951388
28.9091973175426169
32.8502609043721634
34.4550125595091359
33.6234963945950724
32.7868722879953012
32.1113325482454499
36.8178782905480517
43.4336459362594596
43.668150449211673
41.8550885429163984
39.3020744218771938
36.7085386269109506
35.4713651551013385
32.3987449466107407
33.3334146157735063
38.961961287797287
48.3151975725602156
57.0856703129434138
71.1638770710156905
61.7789627306329976
84.7598042824182443
161.539281035602528
993.873623922428237
35.8151524269179546
29.0316485421303589
108.671626441519436
108.955291104047234
48.6534595481077901
12.6978301264330788
8.93147007869468013
6.79566126685482885
6.44707235576804827
7.15082262680077996
8.64050808337951537
10.6811125463679026
13.1272636679162726
26.3783108958698094
32.5288250127303584
27.9346575437477433
32.1304907051994491
32.8889003101952824
31.6671241802103971
31.5618709754286684
37.1135229982791515
34.3581740243150904
38.121560124568596
38.6831437073368605
127.458103923274351
116.490322408351133
15.6331247172004311
8.5838891992099029
6.12242030710323526
4.83147280043544836
4.65795939722498797
5.42012926584967136
6.94485997300022895
8.97732958047253504
11.7707980951349107
22.5832799578116905
27.8513812523495545
26.2371367604264378
30.6342690397467194
31.5372143441419688
34.5766551262790571
38.1059881060768859
26.5656186723653569
24.7727246976391768
41.1868219106196491
109.121352327524008
148.632970067994393
84.9949054498575123
8.76847563823230658
6.11352185380135627
4.20619014732288843
3.27442223125976062
3.24012916235266335
3.98609630090506739
5.39813166911713616
7.25977126633848169
10.1467477444102858
16.1426062575799811
22.423233890729005
23.7837751790586971
28.5649323905073658
33.6812525883356884
42.1445501249680277
25.5851556353814473
23.5924074593225406
24.3036523245410905
43.0060148759173728
177.983357494295859
160.358087475522211
20.1684215874201733
6.23798341266239298
4.31474004652223631
2.86208646499751573
2.2321353814670748
2.32289771321422389
2.92759348919657469
4.06535499860933136
6.24083273305516428
7.61876366325935628
11.8493972838233645
18.3810354068878503
21.2296138737822346
26.355662343538885
41.5309452534951831
39.9571232769452322
24.5959753848268434
23.5860955784710917
23.7883632410550696
2.21025175583186551
3.09289706478388648
4.39758703484381019
7.06884468289888979
11.2775655403315014
14.8968014259241226
18.7553386613639219
23.7247766401659383
42.0637765899515017
50.1195317600782886
3.54112770821012512
4.95075378217655526
6.694121445966557
11.2303308816802527
17.5837826744352483
25.4102101550074515
41.0269383892516402
48.2411364082473071
5.67008892084074834
9.73401346022309077
14.9930284341291635
32.7060730780531799
137.43672469561912
238.829691130594142
351.712595671610131
393.680191487320315
400.489870201163058
393.228267418002019
355.962408983120383
313.583880119842718
284.209326407123115
269.851993853754152
269.043583037362509
274.395772736493825
283.45992615733951
293.917932358663279
304.335524276115393
318.40871827277806
337.009634544254084
354.023866244775775
362.657263352800442
359.81347684398969
343.965077729160726
328.355860896050046
321.438185292342382
318.018993214338991
303.228615418658933
288.241664524849739
288.77259545143238
291.562321831070335
289.709401335273924
284.967534241825604
292.430915100802451
309.646767647196214
340.878647374285947
427.723713908129128
677.619500885217008
1202.62956591470174
1832.4548329935908
2092.2752742352327
54.5647637240019137
115.823043317972335
202.317661565197341
296.90208191494321
353.253461173147741
357.203301254784549
289.13660437337802
245.322355124947762
219.855198822871841
207.805312830380814
220.904190709066683
237.56195758288365
263.013249891455303
276.381934334042285
291.299441382342934
309.999557073657854
335.050624070384572
354.247077570591443
363.116473407698834
357.175798361232808
333.270414240448702
317.926769909363884
314.575946307482241
317.706389599373097
286.825786635976328
261.630248785877995
279.09072090484915
281.582770991415828
265.849466406920271
250.16499574578512
269.062439369553829
287.215787203780053
281.478870138867933
309.884593491416183
478.706338036400211
943.159287778689986
1710.77313316312302
2125.45788267735088
48.6092413685322811
92.8839744916630394
99.056043931641895
121.187799242712501
168.035916097112818
180.216541639887453
154.327106967205935
115.627172151954611
89.9049470236390249
77.7343551637999468
71.3370298157686165
68.759812505748414
75.6876658856745337
110.801793489422437
94.6116099042319689
123.37994105851466
221.495817170580438
253.233486294072264
253.72558763126321
250.007983244209044
168.152896889125316
139.676934463755458
152.021567078084985
188.053825831439895
90.7579233653306972
54.9342085638119144
71.4277039190612015
77.1065437898298995
115.805010768015549
58.1761100861045506
71.7100061622432889
81.5878007645717815
112.901910770775771
97.1133934894407957
153.107230751850778
448.719962128834993
1374.44089803323141
2056.23381373258417
44.4211143455478208
36.0493661348852044
70.6269158743915995
113.512338253055944
151.017377495365224
163.514219527741091
143.5771719021227
103.083314006933449
80.0212628179616985
69.2476114248700014
62.8173923413697963
58.0910423526706978
53.146898714553771
45.673219832819548
39.9598947723539695
45.6084505310504014
46.8489909589448033
57.637856443185477
64.4524345485414898
63.4677906712808735
56.5189851450325094
48.3671976286973191
42.5768627484872368
39.946011098912976
41.0871902714066124
42.1839353564656676
43.2375040249950473
45.4523918014140094
48.1822196506287668
52.744532254684195
57.5578845788003335
64.1575857755077834
72.2280476790784007
85.3344122601721864
110.719591180688681
204.386793865648002
1004.12923969221526
1852.13675271063721
41.5979436409210805
36.9333071894777518
59.9274134669259553
110.71398780143106
140.753682056418
151.66163924472022
129.533389453771207
100.280883057057608
78.5027315363809919
66.5956390821341415
55.8031642615093304
51.6121093124982977
50.2373550710711925
48.3729491414794808
48.71347115167233
52.6597544234859782
58.9837028671153902
69.3579991426566806
71.7300658388261638
63.8417775838205301
49.8299708830139494
42.9106939625724877
39.1952580106033537
38.4681169909662657
39.6246276526259393
41.0355346007973836
43.1462847522843091
45.2379982620181664
48.2911410622639821
52.2053484085383346
57.1424343664989962
63.4673077147191833
71.7626086119554145
83.6135556383589318
98.7888313309081951
141.8529030415433
725.263385038079491
1631.3129086547026
36.9194225179286661
35.6963049517571918
48.8892200066336855
111.280492721552662
139.736954759706293
132.452646850849618
105.019285790569484
73.6563929407235207
63.0076413486449738
55.7783339049953852
52.4509803491646949
49.8029065546890237
50.7808952051346907
53.1076003416264939
55.757143024899527
59.9380513749289818
64.6576045501759182
66.0272699478447009
66.4972646754671786
52.5745506883602971
44.4684659410972003
41.0910458133465681
38.420904730998295
37.5787221515818715
38.5572183837782916
40.733194399318954
43.224621259582733
46.9562399031997089
48.1553607240896469
51.7894361429024386
56.9274068535294262
63.2438510775499267
71.6143769588066874
83.413147129522045
95.6589503315374543
119.66097108902143
752.32719569700248
1444.91144949612908
33.3001131843483051
32.4136024246598069
37.4948537328936808
92.0253050797222301
124.511314404106059
110.97655861990502
74.4865799213160216
29.2668512608041986
20.0480496835161865
18.258386205174606
17.0378641230733443
20.8465819076569652
35.4524845228338421
52.2280553381127106
56.8236123449767092
62.5218265563685875
62.6523156443498053
42.9851392618666281
47.4003883626473907
46.1471878685404207
41.7048722955259095
38.5281905468308778
37.14913874609136
37.1023792326089392
38.5366227482874137
46.4172695560702451
47.9588073121573828
49.3574461347165965
51.9668701601589689
55.6743628856097033
59.4021462754199092
62.9611728098625463
70.2188131997783245
80.4400166865435438
85.5402397044070142
116.426416970643842
616.063098085341721
1256.55220160034651
35.2498094655539447
28.3074037530655254
39.7857109936177906
83.156364334599715
106.985682319374902
87.9160737238607197
30.2787439256591497
14.9995113744864845
11.7105303833988188
11.3722787496580011
12.5971653577616927
14.1916316510655545
16.8147592157978529
19.5132110249317137
25.5797637036339403
31.3011829647124422
37.0774514861512969
42.0808790213239448
43.3842509435965056
42.0091452902706095
38.3666141156367857
35.9640413936354761
35.8706671823372432
37.9319131901558606
43.9664186662693837
44.350765627565174
44.3591561504246386
45.5423769423863405
48.4508927928923896
50.9476311376170088
55.8627978160560801
62.1879859121883172
68.0978267726588626
78.2160079087922924
80.9736760705402929
120.048978236002029
257.65264226970487
1179.42976937454841
35.8592008033133283
27.2928395402196138
87.4108724186142609
96.7888258597708813
102.218398875380373
24.6890506054560497
13.9322015761907974
9.79785609191720219
8.67202957470914626
9.3255026111006174
11.3712649466613911
13.389003121958158
16.7747277024970352
20.7482120779933901
26.2781684291567537
32.3432943578360792
36.4522862662428651
40.6991328671802535
40.7549719713299652
38.8549788221390457
35.9520027130819315
35.5656168135540298
40.0107088233619166
37.6895837353934766
34.3743171107250305
33.1236979679508536
34.3686456094801542
36.9008501799915862
37.026089882934663
39.5007417348723564
49.4842774685706104
53.0055748603612713
60.8239613955274976
75.050819567300735
69.7350101576975874
136.22889264800466
291.034668969004429
1258.99742407152416
38.1822645778460554
31.1001651940478645
117.248126493849099
110.319985804228153
71.0388973455282411
13.05083145420984
8.97489390859620784
6.73195204317373452
6.5026571203149528
7.65025021329315713
9.69522138532020605
11.883894249561342
16.1472802675694318
18.2696102824545292
22.6773047582359766
30.0718713182251172
34.6289314246024489
37.9542316199826075
39.8357966909461041
39.0631431525642299
39.9497636338491517
30.9969185460449026
28.8093121786224664
40.7430849197846001
40.4308920769840796
134.218621475959111
123.295005476109282
16.5922220149486606
8.3326195363727944
5.93597409885969007
4.62816902753659676
4.77769077410719589
6.07980427420666203
8.08980722846512279
10.6983357197992444
14.9159658649743641
18.3890756118177521
22.6208093534545789
25.6750786639034985
32.1040950351516301
40.7511179984913312
54.0369464054944046
53.7199734128957118
32.7156047160053376
26.2878360072422872
44.0178668072379935
110.08911149504948
154.955802626239461
114.655642680157044
7.98854112565731977
5.58348618315816125
3.89261104562782156
3.10764618355454925
3.52327046650811848
4.62960820113388927
6.40095937005866222
11.4907271204011732
13.4027772801616329
15.9702959080379827
20.5183989933800781
23.267551539272862
28.4353176923869988
48.691638623928128
55.109218116936411
57.9032107801742626
28.8018061919478079
24.133654150365718
48.1284357372793465
192.432235743705576
175.835695667601129
19.6482098793156332
5.001244624373272
3.84147861311807404
2.57927033240233428
2.15217999399709958
2.61125482000606857
3.47283709703895749
5.36679894104643473
9.8879193211269012
12.4430182770744437
14.6009346540734164
17.8460397380225295
20.3554737885292703
24.5763479604931057
47.4323952522263497
53.854362059741959
60.5292886786672426
35.3357289362314759
24.2331394936170703
2.72958665426384028
4.18051749021503039
7.12268046198354376
10.6453893514855764
13.5685548615681544
13.7442320303811609
16.5238871220963048
21.7559819119355886
44.5652792590121081
51.6399547727485668
3.95356737845057893
6.3130072730625697
10.3677576305029451
10.3020066555227867
13.8415391020365632
29.3509926852904144
41.5570289077146171
49.5013029502478403
5.49624433865649031
9.8969613022829126
15.2982380190304781
26.304194923807934
111.800098575798231
158.679815840597684
220.634054300036496
307.417888096550485
358.839787964882703
368.625323877263668
336.391833982814092
290.495085163008639
255.376269894331699
239.867896418339001
233.693925672846916
240.613315547342239
252.257946265903797
265.866172262743817
277.632372369387667
288.83952331462001
299.470888987738192
314.024796482223053
330.750731703195129
339.489310934536093
335.384800439486241
326.993421979104312
321.780543915197086
303.977082593440286
287.859635787367949
287.995773440005848
290.737737744495746
288.649021205810698
282.258700201404963
286.878197548602202
299.492293461042266
318.282513061176076
359.437924949587398
475.331004991390671
785.268968920734665
1354.66490028338103
1938.52763792978567
2137.55528907652797
62.1550531760162954
64.2092030281620652
106.653690706749529
214.905761917690739
281.002034396761132
290.700538690871326
249.647528001817079
204.589833515391604
167.417642321938786
158.874615167381421
146.41819242051406
174.146874865505254
202.402004009107941
233.5486282731882
258.724908222357101
273.701723725486659
283.454471991543699
302.385355024902367
324.910378375439223
331.708809503289103
325.825768159149902
316.992322997736721
315.495976170824747
285.030639041420045
259.222815114052935
275.43950881917425
279.786770160523531
264.430454564902675
246.687258740453814
260.239648743966484
276.817674530451484
278.055723130371462
277.537215198833167
324.073883366088637
557.313757875301917
1099.8684936590364
1844.71575135918965
2171.77267130283781
58.821832640748724
55.8580053500436691
79.1766584749959605
115.587680970400598
161.502437850704268
176.299245417579698
153.181476643846594
114.787436482979288
88.3244018884701063
72.7782653720534398
64.7803468634568702
61.3823700456647501
61.6205201436678252
62.6623289795664817
62.7823215614601153
94.9887495953571204
91.8571730463122975
123.987702943800045
189.395944729633385
197.559566713042528
161.814738130569367
141.73563722960094
177.586612788415266
76.1624687117302557
55.0977931730703006
69.7334525452078537
74.593152480137789
109.850805312002194
55.9358228450295414
66.0622654509760423
76.6007533610525968
97.7368302920861396
93.0905499495053306
120.999867570475246
220.805051994320962
628.134559787939111
1544.81535247656757
2133.88130293093673
56.4584445294776529
54.9315065513667307
71.4370871645894852
105.323264027057888
148.534420559767824
169.421387640688323
146.321065467185576
105.766992562072375
79.9069457126039424
65.15496784950966
60.1942234258088575
54.8785609658019311
53.6585642517894215
52.6197316863472224
51.2669241240492681
48.7531511207673063
47.7962145992494456
55.7943983920072881
63.9985050910526354
59.3229486778224526
53.6879548926744476
47.3479341294204872
41.5006518901249066
40.0730766944123289
39.944503837883218
41.0968607720249608
43.1187992134529168
45.8792473785746751
50.224776011825206
54.840239763792809
61.555570812378555
71.476183968708014
87.2671941075132054
108.864112825800518
147.992842838155667
290.704330558193703
1181.47633817894007
1975.99477904824653
53.4152368472621077
52.4571764938896123
62.2941689181004534
105.739991619911436
143.11116877397555
159.837902435594316
134.067747538179162
101.903636839406246
80.4632297082036132
68.0629376699877469
62.8529577851247794
59.3266557169288902
50.4133535067294218
49.9052480249468715
50.9300682516216128
52.4461752030778428
55.3754868349880169
74.6647895999394819
76.783422123449256
62.3124764739454307
48.7514544030835566
44.1098334436277781
38.5338532513221423
37.4285816915031049
38.4062306075947717
40.4207548315116583
42.9770952752294519
45.8298989649384438
49.2582205227021603
53.5853502763503329
59.5863737706957934
68.7505012525729882
84.037975989653475
106.773772084243248
138.57118938012303
222.529334825691961
910.376552175144639
1793.12904375321909
48.3527878732341847
47.4414048515292492
46.7716926130339772
105.41983306907288
137.05797016744026
137.918854477836248
111.233284154060399
82.3590895260328608
66.0425127042337721
59.7934277685863762
55.7797855118321451
51.9229721749403907
49.6432123049581406
50.5747201424059512
54.1592451246739088
58.4448725279876413
64.9651849927970204
77.5519309725715402
78.4714868706993514
57.6076411085714426
50.092488142454215
42.5442165358587232
37.2982668737353293
36.3776329606909385
37.7456014259198227
39.8373389857835676
42.424692077127844
45.3191084332961367
48.6460915197493193
52.5559303666309745
57.8321941763704146
65.730576705486186
79.990018008296218
105.949977647903509
140.261739034778657
208.623218007140622
1009.24502450129751
1629.64481631576723
44.3643206033149724
40.3235614727969747
36.2774137410367103
87.3063529939041416
125.010171779019686
115.948091359051048
86.8090089844604904
48.5186436170672977
25.6069226796117491
21.8252759840039197
19.6778607049856724
22.639342720142281
26.7379816051867714
36.5794752102769465
52.0917198054602153
53.4242373964323178
54.2994757311632625
57.5841359104178778
57.6300489290615943
55.6307524678609013
47.7198239406377454
40.5206284837966422
36.5915013791939927
36.1242069481979229
37.628827323088025
39.6401667853660058
42.0201942342658796
47.129197499416307
49.3578902611847568
52.0689932802100657
56.674170887889268
62.7376124204533596
73.1643210429909061
106.512033581104774
121.805453338463195
213.771188310292786
946.753333249356729
1490.73089989404161
43.4919674277271398
36.7687314843928164
45.5303133974954193
75.3069685198489367
108.139770227312169
94.2025211687701187
26.490544824533572
16.1176423801724376
12.6818251415259216
12.5215221075276268
13.634916685871719
13.8977866035181581
15.5345562669980239
21.2156080360264774
21.7267679132155607
28.7694664887791092
46.3313472253515855
47.1989576647554685
52.4022096566557849
52.0144376945896809
45.5764366768048603
39.4673785343211563
36.3365845420905416
35.9126306265583892
36.8745355431461874
38.2927312099242201
42.2989482184633587
48.285267472266753
56.4235208153709991
55.4724981334229241
57.9170077237962175
58.2682611304393916
66.8433491371400095
91.834119291671044
98.5439410965598483
209.655102704812094
590.71900451511749
1437.25152902177365
45.3522915689562325
33.615120877283502
62.6250829883812585
91.0899454812105631
103.81146669598786
27.818396773748951
15.5139394787769902
10.499292467907047
9.47741261074130037
10.9567178648033767
15.4168442843172997
15.5640872571907618
14.3515425415154603
12.6077244115290323
16.4534276119774496
25.4700271372779987
36.7386001240870783
45.2784233970031806
48.8918288043822926
48.7300137969560296
43.118958132813745
38.6360294838850535
35.5604055740938279
34.9356121377059523
33.0662562621559175
33.852027229406346
35.3489766966600101
42.8272310693472775
48.4408654529308436
50.5777939520162718
48.9672301427745964
50.1831246029756102
61.3442671944363767
82.4166935542146888
108.756064026208463
222.361206890396346
515.341832007419612
1429.49945747474112
46.1071725455913182
37.304334454817166
125.761950214561367
111.284103083610404
93.4518372608519314
14.0359894606498585
9.76421109282913058
7.14088396292780647
7.02606110282273022
9.29580059815073589
13.9288667367173211
13.9389824584050235
11.8162879936205343
10.9597177751980652
16.0708481911466166
23.6606125342124223
33.1060549432933087
43.244884443556046
58.5999286860638904
61.382042618011404
49.2438659884465153
36.0772199398487956
31.4388516665021811
47.3992013201796496
45.4929940522448533
141.25634949539716
126.411344838776472
19.7968215196038599
8.45911551616595681
6.33279879366111764
4.80840024472354344
5.08373516285043259
6.75960970549817741
11.4880028370099669
12.1226333433094702
11.3371896832512551
10.1833981965367997
14.9780289571602001
21.5036558890481331
28.6074659891217422
52.5870243056808846
58.1786502255575613
62.2535260459776438
64.7764874305198504
36.3843070255626131
48.9788587893245548
91.8373636715868713
163.853941051486828
142.607737484617701
8.46963311266057772
5.52012979915929236
4.07094194433233358
3.19041919142615393
3.709750764870551
5.11274407107944651
9.76858685067882959
10.48671702226242
10.1551089326898403
10.7561017210862229
14.3371114914991118
18.5964712826037584
27.4258541674802672
51.4754396444614741
57.0042853789076389
63.2622021780038395
68.7578559536345324
53.3006559630403487
52.4683649671929899
205.086590841136626
185.054684921203574
40.4199814807853031
3.36364382986273203
3.7910409548028654
2.64266922562583373
2.19434913275933496
2.73189468884044473
3.60865360864147178
8.06740296234585053
9.00112260026994271
9.05626154077400969
9.20954476870065797
12.3984641994921372
15.3349589876791903
26.2941280901220082
47.9901322263174777
55.5957850533100384
65.0098734770413103
74.0127009090988537
77.6739106645150912
2.78741384801534409
4.77463136980466984
6.78722596519768828
6.52104568676737273
5.0581454557278267
9.00586375435164577
11.9993894771887
27.3243578525367354
45.0727091471117092
53.5323945926942528
3.08752996182775741
3.06343601989791203
4.25927992781613529
7.12045979538187268
10.7782798363023851
25.9962286274738865
26.5410503356832379
52.0412447736126467
3.61777157868754884
6.44261719306057756
10.7499686684432927
8.68585649444685437
117.544528371935414
119.908235789255031
149.318168117601914
213.056575529262432
300.34327496690463
344.503259016135132
323.809362097312771
272.645118491237156
232.185447800245953
214.499160201284127
210.284679923087339
209.561368041120346
214.416255224191218
230.515528127885972
250.315507667172085
267.176794885635957
280.354290801888908
294.073730964361232
303.235246576275244
310.944195657703176
316.955900971866583
318.234958434708062
314.339911426675144
300.425607404522452
295.035994209899911
295.928650835360429
292.929219716419539
287.992082824188628
291.062072992788273
301.05814417246404
311.422511368031678
341.335678605244766
414.362119459576604
586.665304955821171
968.611797990923719
1562.49104354186579
2050.63271958471205
2188.87622575758633
74.4242442769989054
71.272013562901364
74.9671762675430102
109.981789051511896
197.99250201995514
250.498564529892832
240.82519046125816
190.510615156953861
146.718991582368943
128.250861679465658
125.92190286513663
123.395832069043209
128.616850926967913
163.757460428168287
205.290488830501033
235.781464056229083
258.085255745120435
279.546669185027326
286.230672201796551
294.264392352422817
299.391894298249895
299.61126378897859
294.624791372489199
266.960278665518786
269.423845057839856
274.417197089399792
256.227087157351718
243.424922269481925
253.309674792659166
267.842984635862081
253.361137662651089
261.601106670758838
296.840956569416335
401.539373456314593
731.176533011528136
1351.84644674855872
2001.23023027402996
2229.22963988016954
76.5517171273287715
73.5910972171412396
79.7844191349203697
108.022346976135083
154.546727159022225
180.876261775885013
161.551066405640654
117.710640768545261
81.1436748908020462
62.6910932440989868
57.9801871516321938
52.6388073514197856
50.3133821002942412
50.418531083104817
54.3581843259827195
59.296930365059076
61.7448899801242064
86.3697920381638085
76.4527751699128544
87.2394816574264951
124.541339456220484
132.265774032981881
112.675352483037528
68.3082425180012365
64.130810408525349
68.490393447672588
95.85499325523854
59.4964955623245615