/*--------------------------------*- C++ -*----------------------------------*\
| =========                 |                                                 |
| \\      /  F ield         | OpenFOAM: The Open Source CFD Toolbox           |
|  \\    /   O peration     | Version:  2206                                  |
|   \\  /    A nd           | Website:  www.openfoam.com                      |
|    \\/     M anipulation  |                                                 |
\*---------------------------------------------------------------------------*/
FoamFile
{
    version     2.0;
    format      ascii;
    arch        "LSB;label=32;scalar=64";
    class       volScalarField;
    location    "0.840000000000000524";
    object      rAU;
}
// * * * * * * * * * * * * * * * * * * * * * * * * * * * * * * * * * * * * * //

dimensions      [-1 3 1 0 0 0 0];

internalField   nonuniform List<scalar> 
7236
(
1.48696786159761226e-05
1.04414080270886929e-05
9.56693440043217918e-06
9.12134975452831232e-06
8.8645179204054122e-06
8.62485157535047724e-06
8.42378279154896001e-06
8.26611082698263999e-06
8.12611029620250618e-06
8.00740657150942001e-06
7.90438319423389787e-06
7.81234108304312223e-06
7.73558095594999631e-06
7.66304109136579481e-06
7.58756025003336591e-06
7.51812753108330409e-06
7.47459568609284688e-06
7.44361500374863194e-06
7.41805471744062498e-06
7.39190117529511733e-06
7.36336133037862521e-06
7.34432101127236198e-06
7.33171261769844893e-06
7.31719960010887109e-06
7.28738439432965572e-06
7.27054620994612258e-06
7.27027035667609505e-06
7.26139278973937807e-06
7.25237629759299432e-06
7.24381260370331526e-06
7.24909782498530887e-06
7.2596473043429505e-06
7.30866862453925983e-06
7.45228284515405424e-06
7.69219038311560239e-06
8.53734056869911322e-06
1.13404582145702907e-05
1.96653385522980214e-05
1.8282527935403397e-05
9.8923077823727722e-06
8.9774992250339339e-06
8.63192685681427258e-06
9.31658742405771004e-06
9.70005478668024685e-06
1.02729946391084137e-05
1.0515620632738678e-05
1.01175227413206023e-05
9.53731532823445603e-06
8.93948580959633259e-06
8.25286863372703658e-06
7.85325837475323065e-06
7.69734916888712686e-06
7.54427760291566865e-06
7.43608853076723519e-06
7.40468127649761054e-06
7.38804938272981038e-06
7.38204139329408002e-06
7.37959829983629967e-06
7.40237393751846999e-06
7.45988830100926585e-06
7.48915631491604574e-06
7.55857632890086998e-06
7.61112276090056314e-06
7.762012732192304e-06
7.82991605733161287e-06
7.82379509948317688e-06
7.99853477761582175e-06
8.2364572503602308e-06
8.16958445459283352e-06
8.06680677035246417e-06
8.23500809925927486e-06
8.4533488048958369e-06
7.64601879558223841e-06
6.92272183249322582e-06
7.28500404073683731e-06
1.13822615540721142e-05
2.19294831412138576e-05
1.45747160956503638e-05
1.31526361032810297e-05
1.63183734169136237e-05
3.35344255605913652e-05
5.94976387929131747e-05
8.04292894634942561e-05
9.5543530554785899e-05
9.40112984758893408e-05
8.45990717905312098e-05
5.539389617672177e-05
3.47067405211778278e-05
1.94366980639139291e-05
1.21159675975357964e-05
9.94793813226824085e-06
1.01326655979838102e-05
1.10289077425241092e-05
1.14822763953018802e-05
1.21405225818925378e-05
1.31474284113281409e-05
1.55403089613752999e-05
1.84438768576663845e-05
1.82599897492172653e-05
1.91627535814644593e-05
2.4483994480024093e-05
4.01994655399533541e-05
4.44673136917468943e-05
3.26851049754728026e-05
3.98932549293603083e-05
4.62084433677308165e-05
6.6030947650815502e-05
4.87393680445885212e-05
6.04843728325757786e-05
7.33853101027804661e-05
4.71477026342572491e-05
1.50813883050725903e-05
7.51556839775017146e-06
8.89277755762802455e-06
3.2305061570381304e-05
2.41247409868473928e-05
5.05172351155797129e-05
0.000119352885908719124
0.000241548670480487901
0.00014420714774599229
0.000114422592494078861
0.00012528330242868622
0.000141635680989641883
0.000140147986440248467
0.000122645358946997507
0.000113573992377378344
0.000114654980174804484
0.000124298681590569448
0.000130166227453720572
0.000136168339164343408
0.000145023609552960797
0.000144966734172045648
0.000148465218826178798
0.000154077665222555421
0.000168128613737389469
0.000195435244795177254
0.000227040793269440446
0.000261138045239127608
0.000294156612490421886
0.000352741987999257659
0.000418052395717018698
0.000464175845763017015
0.000523696656747214373
0.000581954240669019522
0.000665886421690761818
0.000713083026679730246
0.000684892884633413711
0.000425073060738268731
0.000171303926660467933
4.36700713561459814e-05
8.9845197695771989e-06
7.85138754244890357e-06
5.12148103993876664e-05
8.4990767469558619e-05
0.000181222166528552565
0.000299145498847612533
0.000161524004068531503
0.000115725554553857459
0.000102230991025505192
0.000122582086232862959
0.00013937975922290489
0.000150508375376846349
0.000157631342963735708
0.000156821416753899099
0.000154293991718675478
0.000154967704344771034
0.000147165466509777631
0.000142944699485898639
0.000134162413918613395
0.000131737595707364611
0.000139438419535706226
0.000150904336015341626
0.000190664946305407843
0.000301627188243108551
0.000359856672543887313
0.000417820668205838542
0.000480149303441812665
0.000588400965211330232
0.000693700761760678952
0.00074495900137884648
0.000803838713718691539
0.000893044585038162294
0.00100282333681351947
0.00103588898996608415
0.000856055970837476697
0.000456843689699377054
0.000207711465533839739
7.50849113437899719e-05
1.10933291502165908e-05
7.38422488280613715e-06
0.000311525671353342218
0.000273017062279027332
0.000415287537397086924
0.000205039157209267617
9.59881682348696962e-05
9.10906772587506377e-05
9.32374985018735578e-05
0.000120551513825989222
0.000138816715565103855
0.000148457055273966832
0.000162178918705038332
0.000161463894939403409
0.000155656310824936402
0.000146394065576278262
0.000137943090734651093
0.000133914142995216314
0.000136751545393120239
0.000150788910004340471
0.00016875331812728225
0.000208983331877257705
0.00028617524777260284
0.000459669085071183882
0.000555171619206530804
0.000581897016264032278
0.000568150390124097537
0.000516906645841555394
0.00048430165793155079
0.000496340429616244768
0.000525716111464550446
0.000668656754480732342
0.000793360272031676163
0.000873180492185074474
0.000786218045753956925
0.000439892458299931909
0.000194306353085553355
8.41463421620243035e-05
1.32542773210178467e-05
7.14691687173193306e-06
0.000845531319129491773
0.000666046462091911718
0.000636033562285164759
0.000104538387386970925
7.83808724824345171e-05
9.06006500949480952e-05
0.000123233801460448969
0.000214754303759861554
0.000304811745767796251
0.000454343880611280683
0.000511294691846696063
0.000403855268575053095
0.000259164339054670124
0.000202897213683909521
0.000206213923572985057
0.000228901671657709914
0.000301372231590775312
0.000456617629222979475
0.000650762768661887112
0.000964300225655269176
0.00115777461716217714
0.00118639199311050829
0.000886958125497144768
0.000588720406479966048
0.000446424777316571035
0.000400760486590529647
0.000387556734403098882
0.000393733254135154387
0.000418149897170370314
0.000473074132121985476
0.000481785088376252642
0.000556997568372281471
0.000681820396587252053
0.000430390453951671884
0.000171309624992815147
8.51930769594624529e-05
2.26842817260270168e-05
7.19560189629210977e-06
0.000735939007206478919
0.00108064599546699581
0.000424025162291374966
7.52557314100930783e-05
7.70267872700755238e-05
0.000110027893869274696
0.000226374381566255369
0.000514249290846434328
0.000881101096288744359
0.00125411936465604011
0.00163511318381584329
0.00182779285403228409
0.00182979255978293637
0.00189104428558040517
0.00202373296314328896
0.00211749315117222212
0.0019084468848596433
0.00185313556408302975
0.0017956302508858608
0.00155761996616913352
0.00140577761086900141
0.00119602618477752552
0.000705690433728176016
0.000455774650639472845
0.000417300349335788059
0.00040409835516007662
0.00040258832229936412
0.00041271025429990226
0.000445617866555030463
0.000496888539746063074
0.00048848857963760563
0.000530541445139175996
0.000645168281871054817
0.00042323686855933189
0.000144082897007008189
7.86186357101582595e-05
2.83675391426262493e-05
7.33139724101077454e-06
0.000647101139949634316
0.00118184449071469873
0.000133607096214895097
6.52101090200574477e-05
8.26725285504162138e-05
0.00020289508312733767
0.000541787998789553947
0.00099510758267830888
0.00153412718246182835
0.00213552597023607691
0.00254577937764084283
0.00236668067634824902
0.00191816497558598394
0.00167995055838400932
0.00192722892995918129
0.00223506008288056057
0.00219338070915002514
0.00179834947754325329
0.00191270913550799682
0.00144963910553715276
0.0011090223685931279
0.000648244460811967438
0.000517464268549300993
0.000495549848064169639
0.00056332582146982591
0.000639214028801258507
0.000763155696220645975
0.000935808622126855236
0.0015837452461111871
0.00189181011425039306
0.0012552092940473884
0.000892863056124481832
0.000752974030351225335
0.000394505724395869479
9.78980264759837354e-05
6.4548503930428005e-05
2.52830452111668941e-05
7.29520281445193304e-06
0.000625870658855765026
0.000841986268785132144
8.22467806152459035e-05
6.49022896876029357e-05
0.000117241600500669058
0.000410819469637621474
0.000905478668891107358
0.00155999356264901849
0.00229115597459054413
0.0029616282222160264
0.00277138594479039296
0.00233144033199462119
0.00185796649990709896
0.000993503558012499453
0.0011259953724345195
0.002115831706806846
0.0018854651534096936
0.00196101364481356686
0.00170197144681661673
0.00107462653799511631
0.000785653745482586558
0.000830092678814542385
0.000649684691688740337
0.000310950195658323198
6.73869063883097931e-05
7.07816270926071563e-05
0.000231859188662434339
0.000717058711602640221
0.00141324675729395102
0.00235651675207264235
0.0035889313854974088
0.00379356034640519323
0.00307120149507416132
0.00240502138591014089
0.00185021140055830684
0.00126095017896372713
0.00119902825485115384
0.00178603329818219662
0.00186942719405852305
0.00281935544190661802
0.00132056742297463419
0.00113220257807741982
0.00187977145337281967
0.00440638031265535093
0.000714845889713904307
0.000122603182084791165
6.01113977772530858e-05
9.24372208808564209e-05
0.000422285644317739245
0.00110498892545305653
0.00212347361418711118
0.00366738481532827764
0.00580176435181942347
0.00457182683157615882
0.00352616590369099047
0.00267170142891841626
0.00208414617223838354
0.00171253566626862279
0.00149450523810496319
0.00158859484112316767
0.00184756154129302966
0.00231565355259258842
0.000966844937640021955
0.00130144714431533492
0.00269472252091619655
0.0059976704766584359
0.000738420811207467242
7.83783219705881038e-05
6.15796603360822023e-05
0.000182717945906798139
0.000766716840769760856
0.00168283497371442075
0.00321329511610238738
0.00588063361505886117
0.00876947620730597101
0.00577644606987062249
0.00414019634071235553
0.00297083886471547019
0.00244485786659383178
0.0020441083276914883
0.00181741062600223528
0.00148471511118242498
0.00135917806910602142
0.00115998376355746363
0.000718548133468215815
0.00111624012467486018
0.00254308858328734224
0.00425438282428098561
0.00722893652770549046
0.00484688012648769925
0.00359118109301973529
0.00272972944744870501
0.00226475894470613446
0.00187072209471670042
0.00122624040817231146
0.00104026895283092203
0.000870308710518804467
0.000478214557515437922
0.00395155918110592225
0.00316039040607201662
0.00273165216926001507
0.00182742549294361359
0.00108599125666994606
0.000824447758651954805
0.000738861936020865145
0.000440218201702454305
0.00289736214959512243
0.00195066572774599983
0.00108690746324171497
0.000877530693215898268
2.84765823490230787e-05
1.41046780116900089e-05
1.04044908899535426e-05
9.50910049399880021e-06
9.05137204935355494e-06
8.72721084230584687e-06
8.51470474244887032e-06
8.33698847531917957e-06
8.17477181217281917e-06
8.0345398040703917e-06
7.89864734698801192e-06
7.78438315564356923e-06
7.68674766893585467e-06
7.60340900099920448e-06
7.53141958140491075e-06
7.4646512204220159e-06
7.400693679603692e-06
7.34653169208405454e-06
7.30720992427917708e-06
7.27627243081088185e-06
7.25712410317347004e-06
7.2456040651178396e-06
7.23159374703512541e-06
7.20803643050497359e-06
7.19477221207570412e-06
7.19681732539975669e-06
7.1913816731006887e-06
7.18368779206881731e-06
7.17555772044680766e-06
7.17927335460387915e-06
7.1826279829197894e-06
7.19566275464238617e-06
7.26178652963586364e-06
7.38886043321138431e-06
7.69276440703298729e-06
8.67515377986778918e-06
1.18545628888460267e-05
2.06835846929597133e-05
0.000292455783392297271
2.97487972176319027e-05
1.55186699582398245e-05
1.16863115425227277e-05
1.0946207876621007e-05
1.17072179514192668e-05
1.3393603567429504e-05
1.37103112950409776e-05
1.32838056890170385e-05
1.26961330894552281e-05
1.10976729842144534e-05
9.76004362660527133e-06
8.84151530035508382e-06
8.21618041954374477e-06
7.74146082595383702e-06
7.53902258795557009e-06
7.40808990036786181e-06
7.31640811748219432e-06
7.29274309604834538e-06
7.32225642352604152e-06
7.38224542219397652e-06
7.41977418047838433e-06
7.4666038483787747e-06
7.5439997181482487e-06
7.7368809448875693e-06
7.79242770063161069e-06
7.82576911930311243e-06
8.0599942556673179e-06
8.3036576713031913e-06
8.22833750453403495e-06
8.14709232196592745e-06
8.37914421270589336e-06
8.63420176652374685e-06
8.45133419877653317e-06
7.52083060696680797e-06
6.86660520338432422e-06
7.40280561966068637e-06
1.17615650979187285e-05
0.000526860775894447196
4.88879097125499815e-05
3.85401911072890042e-05
4.93522352413696081e-05
6.94877392620425261e-05
0.00011155233993161971
0.000125339359069757625
0.000130511473841319519
0.000144528138280237923
0.000156639392241156631
0.000158495885873245345
0.000126983256249012434
7.17111934188374836e-05
3.93272455031660529e-05
2.65961219163286705e-05
1.69697456493755128e-05
1.30181971015688712e-05
1.24657493944021341e-05
1.37764336547577991e-05
1.58451237231934995e-05
1.87185550983552577e-05
1.87555973146300416e-05
1.91810752167490261e-05
2.53944578896358597e-05
3.94674541975778163e-05
4.51378327857905484e-05
3.46633001443188057e-05
4.18347220216273884e-05
5.05673696961341174e-05
7.47799299629159294e-05
5.72378917915150045e-05
7.03575150364701279e-05
8.86855814621651011e-05
0.000106861589032697054
4.33049018928572828e-05
1.369850916704595e-05
7.26299138919112765e-06
9.05967368070856178e-06
0.000560082748711356634
0.000150053607525228239
0.000146426352065239928
0.00020439390368314663
0.000208231687422008713
0.000131401339428700571
0.000111728859181791412
0.000124432748104343505
0.000132848830761304908
0.000139912383913957846
0.00014935585072184797
0.000146190997751939779
0.000128447018553782194
0.000118994001537490519
0.000119705231469285003
0.000126716549841577377
0.000123779262125797327
0.00012585684449078238
0.000130589849253363047
0.000141163421882776059
0.000164068877771730127
0.000190374761093072508
0.000221846701356133777
0.000261020770468712909
0.000315429833851670158
0.000371796034666240936
0.000419707348909745346
0.000481811037709397628
0.000530170291898026855
0.000600906604028833579
0.000619939093010334367
0.000608664136000125087
0.000465345941120221072
0.000274756471678410709
0.000132732360740457216
3.92553148329018576e-05
8.50704471492724297e-06
7.93411459919525306e-06
0.000572478895611437731
0.000311247549673597068
0.000308834845446305756
0.000291916813463303148
0.000128622668435814108
9.95723206290460741e-05
9.56686537990843086e-05
0.000109416963931921476
0.000122917537581603123
0.000137594699884334459
0.000156398516030217555
0.000158509517475953862
0.000153377666260407094
0.000152318839018720251
0.000156292092006944774
0.000148694133614238593
0.000129704870136593438
0.00012552210625162708
0.000134969540079210441
0.00016057429623354751
0.000233042854136801607
0.000306445680871103012
0.000380447345282797699
0.00046821840448585053
0.000564376764845873164
0.000675275658245271145
0.000789756934869585681
0.000865233184692698284
0.000930352103179201795
0.000975379639040012273
0.000916962994792828632
0.000750777713569576255
0.000505960535400707019
0.000286283923162863234
0.000145261539222493741
5.78299258249194328e-05
9.93201061282223172e-06
7.41213204176291349e-06
0.000515139914258619836
0.000569981348246737982
0.000322737564607201619
0.000139212201116254423
8.12618226219457342e-05
8.25912631338088595e-05
8.72507558190067532e-05
0.000107547931069847054
0.000123443831846288673
0.000138892996402294574
0.000151324338379137498
0.00016119079700262383
0.000160564183864040207
0.000156779435160166837
0.000151986404570425532
0.000140567807847525011
0.000133476788899241337
0.000146614207550076154
0.000184381226530259972
0.000277313682895421424
0.000403971022026393715
0.000539721847511634607
0.000702166409638762309
0.000798482756159972083
0.000762704454922797574
0.00078184592417734173
0.000760130419161369054
0.000746762156258243747
0.00088326867885996866
0.000935178785935310915
0.000940679374406183069
0.00079585614066104678
0.000493676671444239694
0.000279144530538582517
0.000141153583547405474
6.08315939291417763e-05
1.09124062151648429e-05
7.1219554583818244e-06
0.000492209011761774134
0.000590396973749750405
0.000423882054563110911
8.90306435168318965e-05
7.14054472779001269e-05
8.28381750051438218e-05
0.000109631530451919377
0.000177942010837954311
0.000238222658428232764
0.000307618767246452957
0.000341642273955824409
0.000311376518588186752
0.000223210725749965928
0.000191156377638750807
0.000189567704383637677
0.000189205521119982739
0.000213197438290880354
0.000382127168968656567
0.000597735809872994685
0.000921279708770214069
0.000986209424714767089
0.000969812894918203579
0.000966482443080447177
0.000864054413072965757
0.000651701096459983637
0.000520086252057457596
0.000497870090570022377
0.000496693890642783357
0.000525063789989838503
0.000518603721245346617
0.000575267472301999342
0.000659527140578894692
0.000552865292087872159
0.000299623116578150725
0.000126437674019915479
5.82358421586647249e-05
1.67428879705635137e-05
7.0882305462169063e-06
0.0004446121747720698
0.000703859867627952703
0.000419974496758235445
7.04220491320070135e-05
7.03783609488628763e-05
9.62274441297120099e-05
0.000190585348767769391
0.000401958942510298055
0.000707562552597744594
0.00106247673279260494
0.00135068017087736796
0.00141315939580293945
0.00123923380623601215
0.0011512752201280022
0.0010803856372296279
0.00110833926551073998
0.00125765448098592576
0.00169764744110598382
0.00111489579576796701
0.000916385447979135045
0.000903418482552102568
0.000947930730712606131
0.000901354257930878089
0.000685069259513619859
0.000559368005342639608
0.000540488320517208795
0.000543238983965129135
0.000554887786553240618
0.000564554788607922009
0.000517491470793771612
0.000495889593493662752
0.000543801708051636101
0.000557616111131810821
0.000304754896517281436
9.4951564113129533e-05
4.80640893226805718e-05
2.32952086414774467e-05
7.02918143065673784e-06
0.000456731292006382387
0.000839596062258183163
0.000135874410510020041
6.01231520400624249e-05
7.40917738913645719e-05
0.000163704658147361727
0.000448899804532477747
0.000903253028569216132
0.00153668923094418168
0.00225487290555849039
0.00214067331234891285
0.00160070700244108492
0.00115632253349787846
0.00103888372590193773
0.0011383249410048511
0.00138516299730386699
0.00170891921200246955
0.00172312541337486737
0.000920747099346784894
0.000773251227947877452
0.000833725050694721754
0.000862218203350210467
0.000760614785988730975
0.000807948510348882902
0.00103625794514062837
0.00125655857777858719
0.00126611541806710714
0.00127360411988640073
0.00136773837458940535
0.00108873671356311233
0.000749971624722170147
0.000704238772189864177
0.000616231380480931445
0.00028695959042775572
6.69133647186435254e-05
3.64658526626350483e-05
1.93148911210207868e-05
6.96188729500397806e-06
0.000472301179165214623
0.000854234807699788177
8.02737218467216196e-05
5.89858061777214071e-05
9.50823804477233148e-05
0.000336117860919769482
0.000811490811141205091
0.00159840149459320054
0.0028387807163333654
0.00354074726317541756
0.00239661509728472623
0.0016553383506315866
0.00115649353723007377
0.00101602568052094216
0.00123190356410794776
0.00165147635053052976
0.00166926713950622005
0.00138860554189617507
0.000765266121407462765
0.000651038686112925314
0.000704111820456869647
0.000939229319162430075
0.00147785983360741529
0.000492991718613995807
0.000387076180200334233
6.49770692884461674e-05
6.33108430088897341e-05
0.000185698534503436205
0.000614974063480353363
0.00135266361647409794
0.00267158422741334452
0.00500382938184717324
0.0039040377963479346
0.00252924072061755378
0.00164099724031983234
0.0012849023315755592
0.00118272237246482589
0.00140541650544714642
0.0015682708081427505
0.0013838378056712224
0.000949467476640138662
0.000483407674216628858
0.000421949572836868402
0.000583444878991063007
0.00104726783491456256
0.000548053673780248668
0.00012127143174072501
5.640038943090422e-05
7.63374144515623684e-05
0.000338718033359331687
0.000987812192683859775
0.00212846883417646109
0.00445879681312814392
0.00735711182183847266
0.00444333658108247379
0.00273011232535660779
0.00163279729090596865
0.00135371511153192922
0.00129672163952543459
0.00157370178037505087
0.00131920798796735677
0.00123662976906919716
0.00065383200311127038
0.000345225700210023592
0.000314939920567560577
0.000528559426284046425
0.00133973289336803206
0.000679659429527160143
7.32366487067296246e-05
5.58777726066783824e-05
0.000148346154061705686
0.000656826447331588549
0.00156568662703623993
0.00331678043524648216
0.00749775429898984127
0.00874330515118632197
0.00515581515862476459
0.00300221904740990845
0.00184853354238831403
0.00145706971124500762
0.00139961791857558921
0.00173905790585046085
0.00114410882278202591
0.00103219684638957581
0.000548837391021077324
0.000305130331449483935
0.000268633667651264625
0.000414286680964277355
0.00117662418570033166
0.00576065592260906114
0.00356998744505459577
0.00248743839024751943
0.00181221168641601516
0.00163276632281604702
0.00179539607229929621
0.00103686215806305412
0.000950743311535929528
0.000524544154235123965
0.000294926429451766075
0.00320530124225199735
0.0026888712714835789
0.00235544600429563955
0.00183495841952184091
0.00102658418566783059
0.000976121513755779497
0.000550167885699159582
0.000310214629702476152
0.00318661693289484576
0.00184464227905804367
0.00114692084975817577
0.00137595376918186259
5.15597374388294553e-05
1.97275156525439688e-05
1.28245733132206411e-05
1.04010734512008228e-05
9.56644066285283419e-06
9.11885933231093343e-06
8.81450915136082323e-06
8.58454132547659708e-06
8.38404865912834171e-06
8.19474177361227723e-06
8.0159484920075834e-06
7.85772776389046814e-06
7.72115976832378389e-06
7.60673285992963669e-06
7.51586345688492232e-06
7.4392941096727108e-06
7.37679391673927489e-06
7.32036962385478485e-06
7.26252020925868499e-06
7.21298679396874826e-06
7.18262799115619717e-06
7.16497855065800518e-06
7.14472489950337831e-06
7.13445801878893582e-06
7.13603840600042154e-06
7.130889181120212e-06
7.12424465133027995e-06
7.11783631813967794e-06
7.12167973696305201e-06
7.12275713889003932e-06
7.12990280219728066e-06
7.1599743121820647e-06
7.26673242075926392e-06
7.37813445337040589e-06
7.79319526072121504e-06
9.03665736300778237e-06
1.29103456484970223e-05
2.27407498089446451e-05
0.000602302378274114812
0.000122472542829605609
4.00114434076656535e-05
1.96982406557487978e-05
1.62673784034609621e-05
1.70317002782633488e-05
1.82788387471425813e-05
1.93697413820159697e-05
1.93239827605565016e-05
1.80892929410624995e-05
1.61234580826464658e-05
1.32583587768679415e-05
1.11417366754431699e-05
9.54732629067085382e-06
8.64323071216284136e-06
8.14133586968800577e-06
7.75324880524079416e-06
7.49569722868983017e-06
7.35917224630008609e-06
7.32761895552782285e-06
7.36390214815134412e-06
7.38665037565410597e-06
7.53008239309379036e-06
7.73204313611387218e-06
7.80317544748052822e-06
7.80115625048369082e-06
8.01908534816012799e-06
8.29690691830278381e-06
8.27568432526092005e-06
8.16299316654014742e-06
8.41473851843046071e-06
8.79962884269157764e-06
8.95846850565024291e-06
8.54589989704968837e-06
7.42257136962550895e-06
6.85536306536379197e-06
7.72321701405476249e-06
1.26727676520648514e-05
0.000550563944345509458
0.000215077586410655048
0.000123327528702674882
0.000108195231720951323
0.000167087305692976989
0.000209159250902229055
0.000145356617388329746
0.000130956968671610803
0.000133226881457955822
0.000137354437115739451
0.000146053822813030647
0.000155774057867222288
0.000157679825562289841
0.000134293429539680419
8.98917444297422799e-05
4.61690764748021019e-05
3.29525178281826219e-05
2.16565358572945015e-05
1.8000230147435188e-05
1.81610586633918232e-05
1.91714842050632551e-05
2.15391488080268765e-05
2.81516006263062036e-05
4.4060676648090269e-05
4.79327708171310384e-05
3.585782149589211e-05
4.37158901249529166e-05
5.27956015026701127e-05
7.95505174258330511e-05
6.90467712179636798e-05
8.29370023275491461e-05
0.000108658464086971464
0.000179401626608149874
0.000113428390794899017
3.55236721904486058e-05
1.16644770572277773e-05
7.19097816367751703e-06
9.50457384202147165e-06
0.000492070983683755053
0.000273592895287889687
0.000221356919843043585
0.000242734832264501792
0.000196352818338139419
0.000143921082354832731
0.000122571610052491057
0.000125150480865164263
0.000133110395522623609
0.000141254910747466131
0.000151854003799389609
0.000162783321145761463
0.000166124053313953076
0.000156759498134324392
0.000139503662487569654
0.000128825553540577796
0.000129361514353114202
0.000136041408674156277
0.00012319929263037536
0.000140859271779085634
0.000164016272012927736
0.000196188277248670202
0.000238944837771121866
0.0002929221905602002
0.000342924044692671098
0.000380384027536685926
0.000433191986257723094
0.000466544220363367145
0.000514927934523374035
0.000517894461503429085
0.000470637265278141834
0.00040180686756230335
0.000307214355444544013
0.00020139781365764828
0.000102742202067739765
3.32019251304110558e-05
8.15121856137176687e-06
8.19773029858477872e-06
0.0004774969832255311
0.000376275999942395837
0.00024803198561538706
0.000274605391364879663
0.000114689124347904165
9.25927523326277793e-05
9.39601407339066264e-05
0.000102361830430239566
0.000111825582804453725
0.000121342573665648681
0.000131338644255125236
0.000149957504059677963
0.000168643200052395552
0.000168217428174829921
0.000163320874119202234
0.00016276617669661839
0.000163073784757252822
0.000141606582058669748
0.000134493115810167271
0.000176082269692645263
0.000245312945481015174
0.000317084099859975515
0.000419725187259819546
0.000534433855764307681
0.000641059841677928013
0.00071020531698311835
0.000755239327447985065
0.000773034659684536949
0.000748411031004330872
0.000672779621406824845
0.000561199070939536761
0.000425020532701592493
0.000289401957653407152
0.000187866038145195546
0.000102517559540902579
4.19254624528743981e-05
9.1066902728532695e-06
7.56913571523846957e-06
0.000427497483980395735
0.000371363601667499231
0.000280196107971902441
0.000150612440303445072
7.81744850792117301e-05
7.78966007373927609e-05
8.97558469537737807e-05
0.000105757613733964621
0.00011947000011747052
0.000131185329850457602
0.00014168996232452995
0.000150068006875147967
0.000156942905645395079
0.000163799754143287784
0.000164662838434504269
0.000163273453964540106
0.00016112389505875622
0.00014864948483074984
0.00016545595434328572
0.000295623910054603736
0.000430284220608873145
0.000610256647865172852
0.000779672341084060327
0.000914119641797005319
0.000980640484644351197
0.000985738928870131745
0.00101530781405021874
0.000998458992926930158
0.000941120463492565551
0.00082937798683907374
0.000636223478422403904
0.000434913806155461818
0.000273297660910918261
0.00017803573000002126
0.000102428640439474703
4.25176332530519176e-05
9.47667220833889897e-06
7.17030486268516394e-06
0.000393630299651357828
0.000411258788757100499
0.000347708088672281823
9.16831633244044798e-05
6.72981643991534483e-05
7.70506977457053189e-05
0.000100747048875102536
0.000149118277202635443
0.000204413569550112581
0.000234690613244202182
0.000255979629844555183
0.000246218338177374646
0.000224150590299614447
0.000205065253149602371
0.000204191869500373906
0.000247167962495137262
0.0002946684331779308
0.000315867494652605771
0.000519977965482323998
0.000831837530923423807
0.000838735604047537641
0.000812514128438526382
0.000836628316837452284
0.00088463978296779986
0.000932119586121095476
0.000930469991066907968
0.000783918615013291689
0.000617975863513186619
0.000603866249215809768
0.000622340266256693649
0.00061332533850240044
0.00050618356008003552
0.000322662874108936473
0.000189506184597488918
9.14497412578044709e-05
3.57186636445459192e-05
1.21046673850314394e-05
6.9952805101756742e-06
0.000353739617241017191
0.000443439577684416858
0.000401345264872483647
7.15359597717478749e-05
6.58108232098158884e-05
8.64626975417654781e-05
0.000167731663715199944
0.000348000311772657877
0.000607273538074758982
0.000826893943142543541
0.000970528122261195216
0.000974704396629550883
0.000865586011993011079
0.000784735760073758436
0.000813556204763774514
0.000757804705367390091
0.000946692748692798251
0.00166658372013650568
0.000895703777382879395
0.00062505371567101657
0.000529821107026018779
0.000581346108413708729
0.000700327247926119134
0.000762652754852948108
0.000769824384325783011
0.000732336740907403778
0.000610082344769986395
0.000542058837574511368
0.000515558849875352981
0.000539125811344700733
0.000566891953507622174
0.000560117785875393357
0.000376798357508035999
0.000225427098959275448
7.40788904233012315e-05
2.89423504588926039e-05
1.55769331425224279e-05
6.88796535292412697e-06
0.000362306842841178046
0.000536886080462530609
0.000213710922668087019
5.9413846645346328e-05
6.82568981712397397e-05
0.000136038730248772802
0.000372886377280889209
0.000769647596628320464
0.00122654739786323924
0.00148451368121257378
0.00123949936816710252
0.0010189311089363899
0.000991348878667106274
0.00111701056173500474
0.00135732816422322431
0.00180640157959070661
0.00158160965311975