/*--------------------------------*- C++ -*----------------------------------*\
| =========                 |                                                 |
| \\      /  F ield         | OpenFOAM: The Open Source CFD Toolbox           |
|  \\    /   O peration     | Version:  2206                                  |
|   \\  /    A nd           | Website:  www.openfoam.com                      |
|    \\/     M anipulation  |                                                 |
\*---------------------------------------------------------------------------*/
FoamFile
{
    version     2.0;
    format      ascii;
    arch        "LSB;label=32;scalar=64";
    class       volVectorField;
    location    "0.900000000000000577";
    object      faceForces;
}
// * * * * * * * * * * * * * * * * * * * * * * * * * * * * * * * * * * * * * //

dimensions      [1 1 -2 0 0 0 0];

internalField   uniform (0 0 0);

boundaryField
{
    inlet
    {
        type            calculated;
        value           nonuniform List<vector> 0();
    }
    outlet
    {
        type            calculated;
        value           nonuniform List<vector> 0();
    }
    top
    {
        type            calculated;
        value           uniform (0 0 0);
    }
    bottom
    {
        type            calculated;
        value           nonuniform List<vector> 0();
    }
    left
    {
        type            calculated;
        value           uniform (0 0 0);
    }
    symmetry
    {
        type            symmetryPlane;
    }
    interface
    {
        type            calculated;
        value           nonuniform List<vector> 
67
(
(-2.44989228481794012e-07 -1.54865395643261418e-06 -0.0109192478390798004)
(1.6414745525558084e-07 -2.63209971875370538e-06 -0.00906165946125885892)
(1.12584680051018061e-08 -7.70372034637440099e-07 -0.0113312566762903879)
(7.0003593957892902e-07 -3.48032706392653839e-06 -0.000807627975336150166)
(5.61165972103670945e-07 -3.20629197369531125e-06 -0.00283927803258500174)
(2.42089433384660558e-07 -1.75022701819632673e-06 -0.00754275122556275109)
(4.00870195293084631e-08 -3.33624240928922207e-07 -0.009328501196090409)
(6.42710180112700996e-07 -3.61432076626225877e-06 -0.000158439214633199741)
(3.95622607932314314e-07 -2.28824742998086453e-06 -0.00349427954379905948)
(9.01027743434467241e-08 -4.38143690430994474e-07 -0.00829392383535060111)
(8.04495252799608862e-08 -2.77591258447021952e-07 -0.00875140850435209006)
(-0.00472434443411815213 2.54209959996001169e-07 -4.40498373915888819e-07)
(-0.00220736367972601197 -5.68610893975791012e-08 -8.87739974500494026e-07)
(0.0018505921136743942 -1.7920099949539969e-06 -1.38043164105136816e-06)
(-0.00739029186517066016 2.28227391271669153e-07 -4.79344846515652012e-07)
(-0.00448971921072698413 -3.4274016390604517e-07 -1.05197409826910989e-06)
(0.00063613205218842543 -1.84951510459819519e-06 -1.31935407536124344e-06)
(-0.00914079278176544059 1.97428023549019536e-07 -3.06084697739525663e-07)
(-0.00727488894470400532 3.15606349462043869e-07 -6.4614935139887303e-07)
(-0.00164283256443566129 -1.50228307853709726e-06 -8.14961297081304925e-07)
(-0.00958466242768759788 2.36093118423689453e-07 -9.16781229592005984e-08)
(-0.0079597696495404234 2.73637035959469952e-07 -2.96177662543540074e-07)
(-0.00224022334701266465 -1.62748742136203595e-06 -7.21194003855862872e-07)
(-0.00765489318842970789 2.52690339970666174e-07 1.04138809418477487e-07)
(-0.00546459729778443672 7.48570316734661553e-08 2.48002101210693742e-09)
(-0.000563880929513255864 -1.87378699005483605e-06 -4.23400040545527631e-07)
(-0.00519611687937435347 4.55254192896049807e-07 4.29984961428188852e-07)
(-0.00214153621478292569 -4.83777337293276247e-07 3.74058883670653398e-07)
(0.00230975815248940031 -2.17091657639361349e-06 -1.12131375054799257e-07)
(-0.00351122325075845301 -7.9759698832845447e-07 5.94696052142874523e-07)
(0.00230958801343465314 -2.31907674419051961e-06 2.58085594684343549e-07)
(0.00711747611953825882 -2.73084615283815762e-06 3.70216982514582362e-08)
(-0.00272969293150124737 -2.24461261312036421e-06 1.73353744014755926e-07)
(0.0052725748040142531 -3.1093562201670072e-06 1.23661738164946288e-07)
(0.00931131212513226954 -2.31557634284248719e-06 3.71245883751695842e-08)
(-8.61283912364295844e-07 -0.0200520073256884347 -1.52315321893250323e-06)
(-8.73673201295097787e-07 -0.0241036310561083614 -1.23024123376868204e-06)
(-9.51451951505080237e-07 -0.0248349638021277581 -1.06205890117130803e-06)
(-9.70600556214492434e-07 -0.0246592003396040038 -8.34158337558847089e-07)
(-9.31425548763252938e-07 -0.0244798405003057266 -6.70446748124118101e-07)
(-9.2912634779726679e-07 -0.0243608841425543808 -4.82266340822907121e-07)
(-9.3853706092180146e-07 -0.0242719250804286114 -3.07304415819744279e-07)
(-1.01210582016842081e-06 -0.0241513388409030361 -9.71921190998773565e-08)
(-2.57250246822840412e-07 -0.0222159060432503934 -1.51564036981518234e-06)
(-5.20558403325627233e-07 -0.0252322653886921482 -1.35768557639782906e-06)
(-5.07289390393882122e-07 -0.025463718735045323 -1.1538236065906591e-06)
(-5.70920780961281072e-07 -0.0252877783111353852 -9.14443104104046309e-07)
(-6.17787039566872069e-07 -0.0254769158666783326 -7.55467510732489418e-07)
(-6.44226450163835474e-07 -0.0253522013556334268 -5.35721995670587057e-07)
(-6.52770168860416401e-07 -0.0250918562007475011 -3.6255201647865433e-07)
(-5.53916606303978734e-07 -0.0247020629420856251 -1.09862780846323761e-07)
(3.83193134389443057e-07 -0.0230942396630136743 -1.59713487589573174e-06)
(4.53517561746421891e-07 -0.0257127036036110743 -1.28709977266625573e-06)
(4.43809930390256784e-07 -0.0257728608876780022 -1.2007760827068048e-06)
(4.48243106197420761e-07 -0.0256998934656075088 -9.12308136717680649e-07)
(4.27235004951325403e-07 -0.0258676259125935268 -7.59186806822562766e-07)
(4.02981611238181582e-07 -0.0255856294540186234 -5.3134730847211698e-07)
(4.08311724416403609e-07 -0.0249019451093750142 -3.12114343146547538e-07)
(4.83833092468401813e-07 -0.0243982566504571848 -8.18176802388123789e-08)
(8.57705832426790935e-07 -0.0193393318241287075 -1.53322334159939107e-06)
(5.96955860980525694e-07 -0.0238695295856380246 -1.37324225298782147e-06)
(6.35881339959097405e-07 -0.0245559551946177325 -1.0983479628761595e-06)
(6.43647286795297205e-07 -0.0242584965632274066 -8.68714618662969747e-07)
(6.28351892070723194e-07 -0.0238998768307101955 -7.2513917193741502e-07)
(6.55551572675021628e-07 -0.023205777861632252 -5.62186969975453992e-07)
(7.39275780314004621e-07 -0.0223766213591166489 -4.05184056623890033e-07)
(7.74897879522446553e-07 -0.0217414433650615878 -1.3881546868474336e-07)
)
;
    }
    procBoundary1to0
    {
        type            processor;
        value           uniform (0 0 0);
    }
    procBoundary1to2
    {
        type            processor;
        value           uniform (0 0 0);
    }
    procBoundary1to3
    {
        type            processor;
        value           uniform (0 0 0);
    }
}


// ************************************************************************* //
