/*--------------------------------*- C++ -*----------------------------------*\
| =========                 |                                                 |
| \\      /  F ield         | OpenFOAM: The Open Source CFD Toolbox           |
|  \\    /   O peration     | Version:  2206                                  |
|   \\  /    A nd           | Website:  www.openfoam.com                      |
|    \\/     M anipulation  |                                                 |
\*---------------------------------------------------------------------------*/
FoamFile
{
    version     2.0;
    format      ascii;
    arch        "LSB;label=32;scalar=64";
    class       surfaceScalarField;
    location    "0.119999999999999996";
    object      alphaPhi0.water;
}
// * * * * * * * * * * * * * * * * * * * * * * * * * * * * * * * * * * * * * //

dimensions      [0 3 -1 0 0 0 0];

oriented        oriented;

internalField   nonuniform List<scalar> 
20390
(
7.38584322332903848e-07
-2.16372949585239138e-10
-1.72327277150979003e-09
-7.36755613592514484e-07
9.94729700011447582e-07
-7.02950721438135323e-10
-8.77540712616337526e-09
-2.58692676975825328e-07
1.62497258347862769e-06
-8.05136618295994508e-09
2.19094568253028043e-08
-6.21606017858054351e-07
2.02527427322815178e-06
-2.68460630312886737e-08
1.23111308746776647e-07
-5.54163944681426671e-07
2.85489925367110179e-06
-8.01674394673879464e-08
1.58610812484319248e-07
-1.18112334769198769e-06
3.58484270219020767e-06
-1.32151397156346758e-07
1.63449994344830795e-07
-1.57443202935154996e-06
4.03602707549408622e-06
-1.5987614922043194e-07
1.28857283296467958e-07
-1.53279551760008801e-06
3.88641574147204299e-06
-1.68269718439537592e-07
1.10366093627673559e-07
-1.30579688136044732e-06
3.49893390601725114e-06
-1.32462239894275183e-07
6.40236761304451061e-08
-1.07056426715394363e-06
2.95435748300053455e-06
-9.48663984822628789e-08
6.9683421354442996e-08
-9.36981271380794376e-07
2.42023401982435786e-06
-4.44793075594544084e-08
7.01818293595071214e-08
-8.25131827921865119e-07
1.83624799069842198e-06
7.96528466123090358e-09
7.46240931269280595e-08
-6.36541358971885032e-07
1.2938347954416899e-06
3.76866489377289659e-08
7.29708564585870448e-08
-5.15856052235148351e-07
8.65807997629377702e-07
5.4439577525743309e-08
6.25677700985615554e-08
-4.25246621615743346e-07
5.11323330270977286e-07
6.06528003245431318e-08
5.44499514638655321e-08
-3.06457352740291055e-07
2.32027999302982773e-07
5.6080067430843138e-08
4.44114660835724489e-08
-1.94409717778556194e-07
9.29094780946763022e-08
4.29287577636964448e-08
3.35829487908662325e-08
-8.41785161321618561e-08
3.68657461307005578e-08
2.7059944017230302e-08
1.98709250845954624e-08
-5.27020730582358224e-08
1.25464923492133141e-08
1.31319140665925926e-08
9.58000568796515298e-09
-3.02242327374135971e-08
3.58772517086730194e-09
4.97869790990386649e-09
3.60883170954211231e-09
-1.34166429852183708e-08
8.63447336177758026e-10
1.43613136116154122e-09
1.10929539024130143e-09
-4.81242458301110984e-09
1.76936796656578848e-10
3.56826935791135899e-10
2.90217637437952178e-10
-1.35208575410735491e-09
3.28883527058388333e-11
7.19750684166605061e-11
6.70233037015874976e-11
-3.15417161210215019e-10
5.39802102934863089e-12
1.35206755956792346e-11
1.29752915681560726e-11
-6.25195381873010903e-11
7.82249992320126344e-13
2.20874289359287728e-12
2.16192928233036013e-12
-1.06421453231657835e-11
1.046705754314223e-13
3.14562124186681468e-13
3.03922776826115574e-13
-1.56085192762368368e-12
1.46724782703178534e-14
3.79424727659273527e-14
3.48639005936588464e-14
-1.92354783058430245e-13
2.30339306734459084e-15
3.89027583932483578e-15
3.6230868497703508e-15
-1.9473791021553665e-14
4.09562621216710676e-16
3.91336329409066352e-16
3.71845960305938211e-16
-1.75788913957048674e-15
3.65216205732196732e-17
3.68241310395501731e-17
3.08260631625877924e-17
-1.61376336945277661e-16
2.15559611540748228e-18
2.80753302284262418e-18
1.95791606291918689e-18
-1.1164261394545445e-17
1.0899205533814098e-19
1.82846734579206674e-19
1.0820935792569083e-19
-6.43579542291383348e-19
4.44343078375944802e-21
1.01269944182114426e-20
5.09528419440532514e-21
-3.15999643687418172e-20
1.39115389534596003e-22
4.66258712833589647e-22
2.00380705715654289e-22
-1.29474090121781257e-21
3.09452634197470849e-24
1.72003778780840628e-23
6.38327752374767403e-24
-4.29378427135327815e-23
4.21541873101422783e-26
4.77797662712318061e-25
1.56169183492140323e-25
-1.09295528534705572e-24
1.11254287032236523e-27
8.89985212539297515e-27
2.63717938894219779e-27
-1.9189477174631196e-26
9.77036261498473018e-29
3.11611052590571349e-29
-2.4575071554443187e-28
-7.34449265265187503e-10
1.18202119153391033e-10
-3.07864105299549133e-10
1.00768683497775311e-09
-1.85466144842066274e-09
-7.41304072365058935e-11
-1.08343928495677377e-09
8.02797116568536511e-09
-1.71272978047283669e-09
-1.66358166154754957e-09
-8.51509363919091509e-10
6.25174631826060646e-09
9.79187644640962628e-10
-7.97076599003878887e-09
2.11551077524320655e-11
-5.41475977567201968e-09
2.24890504422842122e-08
-2.05256842990735361e-08
2.26142054976437016e-09
-6.05711440621293371e-08
4.52188946857374415e-08
-2.46205416076417678e-08
8.92183340845759941e-09
-9.2689716238126472e-08
6.06427031443633229e-08
-2.15337400127680317e-08
1.79515279875455048e-08
-9.40234043051556008e-08
7.31140251183832307e-08
-2.20071962739739411e-08
2.29942176511783234e-08
-9.15668473847872714e-08
9.00113230097525569e-08
-2.16733715684301664e-08
2.46403710621264555e-08
-8.02746532562715199e-08
1.14968789181393447e-07
-1.95024935143334105e-08
2.64346914953827447e-08
-7.7866390338679231e-08
1.62048850252773805e-07
-1.34075497728725808e-08
3.24635746798746565e-08
-8.56215317813043983e-08
2.10246714337726765e-07
-3.79910570924514997e-09
3.61095061651700534e-08
-1.09011053279278836e-07
2.41903828126773811e-07
-2.4657504748629877e-09
4.06809835250729149e-08
-1.16256603639075595e-07
2.47008084882014797e-07
-1.00345144157387623e-09
4.09993843139998239e-08
-1.2416938534873016e-07
2.21912063090364783e-07
4.7244679991540913e-09
3.90945240307537819e-08
-1.19816795756939523e-07
1.72759894359298412e-07
1.15857131677830984e-08
3.35897774961761345e-08
-1.06082143133214538e-07
1.0604306932711399e-07
2.36946099542274078e-08
2.27773107755810783e-08
-7.67828884860105619e-08
4.38207910633418802e-08
1.8551318391033353e-08
1.26757517734308271e-08
-5.1961798222780545e-08
1.21095008442646914e-08
1.10281312698739978e-08
5.23092054322849202e-09
-2.81397034722368795e-08
2.48966564560881618e-09
5.08829366399903009e-09
1.71488615722146156e-09
-1.14221102519439431e-08
6.47863071782707087e-10
1.59588809012278186e-09
7.1236535486719272e-10
-3.50551856377360489e-09
1.5098735081039732e-10
4.5492597502637792e-10
2.23304792920569221e-10
-1.10753709346145033e-09
2.87565721542698931e-11
1.01517032291086713e-10
5.73459715567388566e-11
-2.68192127297660659e-10
4.83715049239621667e-12
2.10668338144464016e-11
1.18406638917155519e-11
-5.67094675186180036e-11
7.2454493830451098e-13
3.59674130558988445e-12
2.04677332984710196e-12
-9.96883348102626606e-12
1.01538285526945152e-13
5.33253990469439412e-13
2.95507534381248395e-13
-1.49558136932616579e-12
1.50936374055648364e-14
6.68897465306893123e-14
3.49899963540745108e-14
-1.87621759158920767e-13
2.42774470512653785e-15
7.68026894607163268e-15
3.69186736249635138e-15
-1.95669315882813947e-14
4.28510904972028047e-16
7.98666396686198741e-16
3.84909795317664834e-16
-1.79873931531139164e-15
3.86085513035673925e-17
7.62354063007853328e-17
3.22585109635686629e-17
-1.67440377270132831e-16
2.31784396155829791e-18
5.89596164218310509e-18
2.07830554372193462e-18
-1.1731162269215419e-17
1.19098085195915031e-19
3.89659219099580464e-19
1.16531470260693322e-19
-6.86023751145701451e-19
4.93988804610378407e-21
2.19153165356834605e-20
5.57115230273271601e-21
-3.41937903034767299e-20
1.57630195295366631e-22
1.02558339492192689e-21
2.22664651786708565e-22
-1.42354958674157539e-21
3.58459290444819e-24
3.8509362054435002e-23
7.21853970172030936e-24
-4.80327706690326938e-23
5.0124268638469225e-26
1.0929198026338077e-24
1.80127982606013383e-25
-1.24669415932916418e-24
1.365077379327514e-27
2.09115930569989198e-26
3.11209176166347964e-27
-2.23874219747866639e-26
2.33449172512363883e-28
3.79300814261853662e-29
-2.95377176228677703e-28
-5.53905080984374404e-10
1.77322299193374694e-10
-3.32258157049460115e-10
1.22289703754909159e-09
-1.25027569523655081e-09
-1.31237125899032072e-11
-6.48239470811466811e-10
3.47929060087959085e-09
-1.57610668608989966e-09
-7.26347159293614375e-10
-7.49364735515144599e-10
4.20835813361260532e-09
-4.27590189922721135e-09
-1.84025432276399583e-09
-4.67103027069462276e-10
1.53756177776476017e-09
-3.93364831865452448e-09
-5.08317889792493376e-09
-1.22811811313223473e-10
-5.13104129542952074e-09
-3.72041018056817129e-09
-4.94689254512775818e-09
3.33973876637780731e-10
-6.8226388980064608e-09
-3.57949938737716606e-09
-3.8414697944601691e-09
5.94407804543177989e-10
-9.35432172717358513e-09
-3.35756270044568219e-09
-3.79357266405301793e-09
1.09816968726628823e-09
-1.16008478907167921e-08
-2.2204442485540597e-09
-4.23780550502626092e-09
1.539110104233587e-09
-1.48835327906321558e-08
4.20805121284559527e-10
-4.22889683056047265e-09
2.57051630711223786e-09
-1.85154977401853131e-08
4.72841721432013508e-09
-2.27770874031049357e-09
4.26908742595834105e-09
-2.00242266769544493e-08
9.54190206486850837e-09
-1.49581357687658395e-10
6.48772638459944918e-09
-1.73798569302830225e-08
1.50597354085522325e-08
6.30043938797275049e-11
9.11784043817627925e-09
-2.21502696184514577e-08
2.08858713633154113e-08
1.16556851833382432e-09
1.2248938701976834e-08
-3.33493384089279705e-08
2.56495094735198464e-08
3.21192222688578702e-09
1.4202762850878472e-08
-4.05863914003357023e-08
2.78352152529282069e-08
5.59092412260315446e-09
1.48110025447521803e-08
-4.03156706114447181e-08
2.27715130840768285e-08
5.89613748063856752e-09
1.24278490397900067e-08
-3.33556626860711994e-08
1.42886386189262237e-08
3.19612712909134172e-09
8.21230839067891532e-09
-2.28164401454176124e-08
7.48512397538531554e-09
9.16040149757639512e-10
4.74503186960649649e-09
-1.4681527129621462e-08
2.23087089475273062e-09
8.7740692827907839e-10
1.64501593526614635e-09
-7.26767803079333443e-09
4.05792381530933217e-10
7.59632213831783817e-10
3.93198809921928388e-10
-2.40239544284512189e-09
3.7749340289362447e-11
2.12578282762363497e-10
9.14249896317629382e-11
-5.98380801407016336e-10
4.34184856963450882e-12
4.26896573441598797e-11
2.20478238358914264e-11
-1.24025823427584661e-10
8.80576642363801754e-13
9.45391988905761997e-12
5.20960815871731619e-12
-2.69213980566514434e-11
1.53595096843211928e-13
1.82184790174699976e-12
9.56117666575377144e-13
-4.91636641506392056e-12
3.02215505839905677e-14
2.9649224855914141e-13
1.47342449976064099e-13
-7.7003705748468423e-13
6.99507807268117533e-15
4.04833196080486943e-14
1.94843667279064867e-14
-9.96327784559460332e-14
2.13358947608360707e-15
5.04605598716407318e-15
2.37052729245277877e-15
-1.12460731485638672e-14
3.04561305419619792e-16
6.12326065474170634e-16
2.64181442239393659e-16
-1.15841537196907634e-15
2.39792829050092746e-17
5.51540993666857466e-17
2.0202798386740938e-17
-1.0959258218118618e-16
1.47895666824190161e-18
4.26081417759095831e-18
1.31753390220691008e-18
-7.4339934109747619e-18
7.64547662571711879e-20
2.83681070222702206e-19
7.4357686031152457e-20
-4.37663393912951428e-19
3.1837319096001283e-21
1.60799858156697278e-20
3.57471501753835499e-21
-2.19307740280372318e-20
1.01882233232844151e-22
7.57926997961707234e-22
1.43582766641345369e-22
-9.1732307889289155e-22
2.31995660611832763e-24
2.86381987634965523e-23
4.67466765026159556e-24
-3.10770853298468801e-23
3.24301754077521473e-26
8.16743011514367258e-25
1.1702234505090942e-25
-8.09038031943859351e-25
7.40514462227396007e-28
1.56934756943497518e-26
2.02606315988087081e-27
-1.45569741240838901e-26
1.73701261527032676e-28
2.29676733475893938e-29
-1.80720851157176736e-28
-5.81286870118775982e-10
2.07699212615618703e-10
-3.43697942308865545e-10
1.70275701638183216e-09
-1.23434925898488519e-09
7.35107730022797618e-12
-5.02402423459119466e-10
2.88671878726135091e-09
-1.89969072547205988e-09
-4.10680085064060422e-10
-5.88034059147631507e-10
4.56421837838404312e-09
-2.74239126071854234e-09
-9.78014309670120357e-10
-3.14989303129307026e-10
6.49417971117210242e-11
-2.63625334672225598e-09
-1.18013541154776726e-09
-2.1797130886645815e-11
4.52101896080568093e-10
-2.34937347375854541e-09
-1.11231353057168734e-09
-7.42597093657786116e-11
2.47457997507637063e-10
-2.23649864364513807e-09
-9.09619662237734636e-10
-4.64127892793958379e-11
-6.15413266586050183e-10
-2.3876130672755111e-09
-9.29966018984911971e-10
2.29653144888666778e-11
-1.26255425386015461e-09
-2.79994441372612373e-09
-9.75148706926910629e-10
2.17135882952076303e-10
-1.90096805500678911e-09
-2.9661320893609099e-09
-7.10248638757828296e-10
4.49990612333439535e-10
-3.02126335922120867e-09
-2.80595340932345591e-09
-2.3609075028660282e-13
8.75992219573156664e-10
-3.81066196996768416e-09
-2.42180732537631704e-09
5.43293104388208502e-11
1.5549005048544143e-09
-4.87902670149860605e-09
-1.92754732381476806e-09
2.92738532861644596e-10
2.45984001353733315e-09
-7.94529464466617708e-09
-8.79982390523696309e-10
8.61900340342453556e-10
3.59384805050810991e-09
-1.2524819188673037e-08
1.01071813771439139e-09
1.84743588948708751e-09
4.6499706528654248e-09
-1.60484215169946304e-08
3.43484993854768935e-09
2.94027947449722426e-09
5.41976199747944266e-09
-1.77095455663559259e-08
4.58109222767800699e-09
3.37536397014628433e-09
5.04246192124533473e-09
-1.58249937327895759e-08
3.56782098271055342e-09
2.43395485852381637e-09
3.27804911403751017e-09
-1.08694771535447422e-08
2.01113842391362075e-09
9.95704162816860496e-10
1.6096906403382445e-09
-5.94091562508776226e-09
8.51782473711704755e-10
2.66509934810683548e-10
6.99346697126410795e-10
-2.72362735593759468e-09
2.47298085331364742e-10
9.67609455313941185e-11
2.3960867132591498e-10
-1.01826119112540516e-09
3.53431724565183821e-11
5.2330111276316053e-11
5.1569759831089835e-11
-2.98270014772346308e-10
4.47851971945906324e-12
1.73867033968457254e-11
1.12837188695634759e-11
-6.16624544501159961e-11
6.91921751536670897e-13
4.49574429634990928e-12
2.5685307462033466e-12
-1.2924990188571053e-11
1.0325626687094458e-13
9.49028036546594094e-13
4.71536091793269925e-13
-2.3988393379285332e-12
2.01736508458067229e-14
1.65928327802595729e-13
7.27563472992431183e-14
-3.79197192359045854e-13
4.33572275631639475e-15
2.53930838177586566e-14
1.00255475606232185e-14
-4.96218713616774386e-14
1.40983580895707304e-15
3.40925889801639654e-15
1.32893589669013627e-15
-5.73416541122407772e-15
1.77297797577049123e-16
4.00205416746689886e-16
1.42958310507442265e-16
-6.5522849782658405e-16
1.28109511883687181e-17
3.62757043891510101e-17
1.07345602036069866e-17
-5.803251074719095e-17
8.02309788472162421e-19
2.82198366225529726e-18
7.07889333281800242e-19
-3.99679749181631446e-18
4.17976830272808745e-20
1.89398589512963576e-19
4.02787677684354969e-20
-2.37233698930781427e-19
1.75150812096379371e-21
1.0815853912561687e-20
1.95043666344965094e-21
-1.19715964924980021e-20
5.63685084621122695e-23
5.13279459884401964e-22
7.88650323112587101e-23
-5.03986173664545884e-22
1.29024320723445038e-24
1.95159757725506889e-23
2.58352793364192212e-24
-1.71760160628993368e-23
1.81207793710603923e-26
5.59773279858307639e-25
6.50420588491185968e-26
-4.49595816648466643e-25
3.99955734004936826e-28
1.08057848646724897e-26
1.13191722441247573e-27
-8.12968845581882457e-27
1.20595044024007887e-28
1.26992495341761879e-29
-1.00131505716141525e-28
-3.97568544519623529e-10
1.28174264321880185e-10
-2.68603088097989994e-10
1.79931528969019052e-09
-8.72892273946235255e-10
-6.1453544331011262e-12
-3.71388473574935595e-10
1.92199272377208423e-09
-1.17217781690947289e-09
-1.77023337593033524e-10
-3.61679519512188502e-10
1.82177398483727463e-09
-1.20562858794091112e-09
-4.21330206245347828e-10
-1.2072822529422624e-10
1.03981331160630373e-11
-1.22433876658920474e-09
-3.64861552322093931e-10
-1.44560055330260282e-11
4.74165993742879414e-10
-1.10789996967119461e-09
-3.58527671977099765e-10
-4.92498192654996217e-11
4.1761855567657297e-10
-1.08455789319960609e-09
-3.12089986235665085e-10
-5.49095684228060195e-11
2.49072896271130641e-10
-1.24214677346974658e-09
-2.78933374905518374e-10
-8.55879920018775476e-11
1.39351751406053164e-10
-1.45760659064654939e-09
-2.01566161835972155e-10
-8.19532815375141752e-11
-6.43881101108761985e-11
-1.60917263805500381e-09
6.76394280124817996e-12
-2.26149867631029461e-11
-3.0626638005444319e-10
-1.67314951065337078e-09
6.17660603390726396e-11
1.12922507621769141e-10
-3.21569214931706082e-10
-1.65308247462173259e-09
1.32401662714474016e-10
3.65884360240907219e-10
-1.26803558342945738e-09
-1.61539863292044007e-09
2.6062645722502505e-10
7.0023714877800957e-10
-2.485618087750335e-09
-1.37795594595738928e-09
4.96016858285297067e-10
1.09121944311582731e-09
-3.94195197710867346e-09
-8.81980222215168521e-10
9.19892934564062747e-10
1.52590786361052854e-09
-5.52960518335186067e-09
-2.72139571364839597e-11
1.37376394448191974e-09
1.88583175338544555e-09
-6.50093822501961115e-09
7.79599994484191216e-10
1.55883617719960558e-09
1.86608400032563688e-09
-6.17085948921136221e-09
9.93428940080566755e-10
1.14715502909605205e-09
1.35099777530132153e-09
-4.46231923957693835e-09
6.84399958967374154e-10
5.72050260043927762e-10
6.93391186841535888e-10
-2.5957648846480428e-09
3.03750298682493917e-10
2.02520055492133821e-10
2.5414114399392343e-10
-1.14133922374562555e-09
9.48471076020091037e-11
5.68761784615360911e-11
8.54239194211476558e-11
-3.95873295540548773e-10
1.86134236838536927e-11
2.17985078258963105e-11
2.27119502353710569e-11
-1.15407942716266943e-10
2.53207359887240802e-12
7.6343426168526723e-12
5.07429323541681957e-12
-2.63257769119957825e-11
3.49739840306381873e-13
2.04967594276682888e-12
1.11212606563383209e-12
-5.60372502079253405e-12
5.30461239710262204e-14
4.61813571329639348e-13
2.06432386596305786e-13
-1.0529852351206271e-12
1.24372510676806319e-14
8.77867667122352727e-14
3.41993354639337639e-14
-1.67528837796475768e-13
4.42416262735600331e-15
1.45795334934609819e-14
5.28892662395873077e-15
-2.33749609661993665e-14
8.39738580193392577e-16
2.1848152433624308e-15
7.24442814389946725e-16
-2.99252855549293394e-15
8.44944662030389898e-17
2.35083410695046158e-16
6.81926297491357112e-17
-3.51644278194064525e-16
6.28578258991712176e-18
2.12262490391617311e-17
5.21586191139013357e-18
-2.82400955096756528e-17
3.97967993187241986e-19
1.66119712497255023e-18
3.47272849352496736e-19
-1.96400480761604289e-18
2.08811739224018729e-20
1.12256150619675733e-19
1.9915447707479174e-20
-1.17470582307992455e-19
8.80455630153562106e-22
6.45204732935210234e-21
9.71320732282694994e-22
-5.96900838091844325e-21
2.85003168656159572e-23
3.08052695582439837e-22
3.95412003957578503e-23
-2.52917456107489022e-22
6.55975550004514332e-25
1.17807359324428617e-23
1.30367302820757483e-24
-8.67265033771958734e-24
9.26158218542732978e-27
3.39800094823589162e-25
3.30224748008002343e-26
-2.28347257029604487e-25
1.86751818841885037e-28
6.5962527175075185e-27
5.78054421018332687e-28
-4.15221418440599552e-27
7.26836020429585623e-29
6.29059823341352793e-30
-4.98811771954410686e-29
-3.06827162908381901e-10
3.93728108438840214e-11
-1.80951504069962518e-10
1.32376116780340723e-09
-5.23097375761202902e-10
-2.10881010429742405e-11
-2.67257599591423417e-10
1.08997812025939505e-09
-7.09013925565026009e-10
-8.90746383424111668e-11
-1.95284451137365038e-10
1.48369963831088789e-09
-6.64139563187320717e-10
-1.91518359944310593e-10
-5.49690465697488393e-11
8.12877712933556724e-11
-6.42393128273397862e-10
-1.62686191720052956e-10
-1.49362769905379215e-11
3.22071859317801938e-10
-6.60623469771632689e-10
-1.48710649106362841e-10
-3.58619407236396831e-11
3.07671004276439334e-10
-6.94113747321352552e-10
-1.16664078730778428e-10
-6.12574109501370375e-11
2.31538737414504028e-10
-7.29613856581483134e-10
-7.95635936519354018e-11
-7.05991259374317418e-11
1.38051946126264755e-10
-7.5394567776610255e-10
-3.56157276764234369e-12
-6.3485284845582651e-11
4.83756954845633543e-11
-7.8458595572912626e-10
4.13921451117612024e-11
-4.496694609280672e-11
8.15801121396804108e-11
-8.06083970633275287e-10
8.63559572916244752e-11
1.69490558909906248e-12
-1.03001135277121734e-10
-7.88359039309866381e-10
1.27133097853905916e-10
9.36160375295108954e-11
-4.4671300549708121e-10
-7.56540361145405376e-10
1.92716988601126059e-10
2.19061598589227345e-10
-8.95708012804410209e-10
-6.80516236006615239e-10
2.86700736197528676e-10
3.67349219558891533e-10
-1.42363191311638249e-09
-5.1473917265979631e-10
4.57127361396229618e-10
5.45426073394132794e-10
-2.06927904753952213e-09
-1.80846678800909624e-10
6.24201596288459894e-10
7.04129818591737572e-10
-2.51993454492294594e-09
1.75987066130464455e-10
6.82016587732741468e-10
7.16785611657453278e-10
-2.46260403031061844e-09
3.16990411388056243e-10
5.0171097433765727e-10
5.17526922364761824e-10
-1.81865838800306406e-09
2.51396090684052036e-10
2.56786278078566839e-10
2.68434020475730794e-10
-1.03324550159114326e-09
1.21926243671978933e-10
9.65741457421521752e-11
1.05428037605016743e-10
-4.6360066572799302e-10
3.9393213906258025e-11
3.21219758180632832e-11
3.16906630270285634e-11
-1.64289793906382186e-10
8.41636565881635181e-12
1.04880532137513588e-11
8.82047874435440193e-12
-4.71041500351322498e-11
1.2629642006784641e-12
3.34324657601580643e-12
2.12655295214621032e-12
-1.1059912444329124e-11
1.74276405254724424e-13
9.14361849772620864e-13
4.63245982453309969e-13
-2.3388497117997893e-12
3.0439414230897415e-14
2.18807393140924018e-13
8.88534230546016358e-14
-4.3871534414544692e-13
8.76126797148732392e-15
4.5568488509942373e-14
1.554555479304969e-14
-7.15113615854557626e-14
2.84587936528272156e-15
8.31316392474845322e-15
2.66886004152464107e-15
-1.05648386080740554e-14
4.25598199810085565e-16
1.17246136586960227e-15
3.41340947691653824e-16
-1.48778455902160487e-15
3.80390908304580784e-17
1.23588879391966877e-16
3.04357659289698924e-17
-1.57471391197954575e-16
2.87388856155279845e-18
1.11928088518631953e-17
2.35552875519534483e-18
-1.27903854476460391e-17
1.83518783076555358e-19
8.81897950726558903e-19
1.58208222702151306e-19
-8.96923002299483278e-19
9.69296422887268374e-21
5.99914329258852392e-20
9.14244689116219849e-21
-5.40387227220553783e-20
4.11140859401509418e-22
3.4693040932325392e-21
4.49066501759364145e-22
-2.76434966242454183e-21
1.33831584696392719e-23
1.66591357400129407e-22
1.84037659056927772e-23
-1.17874756575844176e-22
3.09676202969551318e-25
6.40533542909125574e-24
6.10653434283690084e-25
-4.06642698831838373e-24
4.39451561004716701e-27
1.85705736756728594e-25
1.55621757797922561e-26
-1.07683572291322769e-25
7.98032730039110681e-29
3.62315267311610523e-27
2.73991844203633306e-28
-1.96884534738094114e-27
3.9363747054965345e-29
2.88389922825430034e-30
-2.30103738743661035e-29
-2.8584120008150535e-10
-1.41042760725679241e-12
-1.3633392852746193e-10
9.30458186505302235e-10
-5.07802132102459874e-10
-4.6904010108935553e-11
-2.78838177045931185e-10
1.56384288824454066e-09
-4.72242524721471841e-10
-6.51711200956834645e-11
-1.15616748327361788e-10
7.50662937679598981e-10
-4.80355443180730041e-10
-1.0378624905251626e-10
-2.28244795353672277e-11
7.91128293726031548e-11
-4.83331567173399345e-10
-8.47902647095620396e-11
-1.5593681585490561e-11
2.06770916189297581e-10
-4.57776267523630807e-10
-6.75319938710611532e-11
-3.57351755231372057e-11
1.79257530959586863e-10
-4.34918418355851432e-10
-4.42406491308213672e-11
-4.28095384183391084e-11
1.05932210159082909e-10
-4.19866581793039279e-10
-1.12142561995106117e-11
-3.62188589659595783e-11
6.07048436551169431e-11
-4.16585923437994937e-10
2.08498024491172837e-11
-3.17076770804406742e-11
5.86894725041170029e-11
-4.11792968843330992e-10
5.05582286735109363e-11
-2.33922428340121595e-11
1.37755701438265897e-11
-3.92940402437222651e-10
7.39459740358240579e-11
-4.82076286235755347e-12
-6.63881118564920335e-11
-3.64899141059553789e-10
9.3863737741826577e-11
3.029446470588861e-11
-1.99507460316048366e-10
-3.30932799249848387e-10
1.21997248865930644e-10
7.68593136606805073e-11
-3.65539957023304424e-10
-2.87952282867349004e-10
1.58222020743719692e-10
1.33025293608418814e-10
-5.61202337670409346e-10
-2.14007059849553374e-10
2.21445046401697664e-10
2.0245704370456923e-10
-8.10581483287445693e-10
-7.86412052003510965e-11
2.77306179843870372e-10
2.64336451887971552e-10
-9.90480946082694271e-10
6.36684934593222538e-11
2.88221620012036815e-10
2.7176252527132742e-10
-9.7145941986689648e-10
1.22077534535305867e-10
2.09302461576119156e-10
1.98530464066910376e-10
-7.22952225057330602e-10
9.74553955854760752e-11
1.08825250067227617e-10
1.04930065712010613e-10
-4.13559424118534356e-10
4.86785885975300578e-11
4.18876061222283089e-11
4.0724449447382882e-11
-1.83186081524799514e-10
1.63262188204284515e-11
1.41064300004065376e-11
1.27076487059103205e-11
-6.58593605481405886e-11
3.69278544684815132e-12
4.62104982649308633e-12
3.52597109397864657e-12
-1.9003940663695307e-11
5.94924643751601661e-13
1.45310654747519444e-12
8.62561045216311637e-13
-4.49697122300191723e-12
9.02494254101595721e-14
4.13102166497872208e-13
1.9361278731119205e-13
-9.43322585672584293e-13
1.86565573138369966e-14
1.07478641732861763e-13
3.83694219463469775e-14
-1.77088443806120868e-13
7.25214310165745965e-15
2.45772600385343616e-14
7.79975683706567107e-15
-3.0212669965940896e-14
1.55151885799787972e-15
4.52210204875949757e-15
1.3158575621421505e-15
-4.96452455122814404e-15
1.80825406688148346e-16
5.70561872105345712e-16
1.4240739871137634e-16
-6.93741325383203844e-16
1.62172827735724422e-17
5.97680081222246607e-17
1.28053634414437006e-17
-6.66825765759367766e-17
1.23794561642488036e-18
5.44333975456352452e-18
1.00072824124144327e-18
-5.45376002025608499e-18
7.9626987407867799e-20
4.3177529603204096e-19
6.77609900923994512e-20
-3.85341190921512723e-19
4.23149483929905985e-21
2.95560823391358334e-20
3.9446133923223851e-21
-2.33767000381500881e-20
1.80495416211069335e-22
1.71908788426236286e-21
1.95094635538429911e-22
-1.20354936143545506e-21
5.90652591070966517e-24
8.29912111380284852e-23
8.04790208259238865e-24
-5.16348483154231334e-23
1.37362832472028892e-25
3.20709690717658611e-24
2.68706541632378516e-25
-1.79169310629569555e-24
1.95869109437011528e-27
9.34290610226012216e-26
6.88849133381057983e-27
-4.77092271490209647e-26
3.15618608225978091e-29
1.83141185156693375e-27
1.21964048031887614e-28
-8.76902355430687044e-28
1.95767097870713644e-29
1.23996927078288608e-30
-9.951098061152218e-30
-2.77881843618702908e-10
-1.98819132579531973e-11
-1.2527691532618654e-10
8.96307778384930904e-10
-3.28036229879235243e-10
-3.996654961121835e-11
-1.86649260622237991e-10
1.17860972704719162e-09
-3.68580576833078725e-10
-4.47073238418804125e-11
-7.65023865053097874e-11
4.52962238818680626e-10
-3.55939920209221138e-10
-6.2625140160898449e-11
-5.45491641793515853e-12
6.06695616756843518e-11
-3.32748473172148957e-10
-4.8050679519177497e-11
-1.62287091103213591e-11
1.60088183973986538e-10
-3.08269452120762456e-10
-3.4268617613829043e-11
-2.83789219931338172e-11
9.73298135290940106e-11
-2.8689387908480783e-10
-1.41466847833183552e-11
-2.14940910091446411e-11
4.55998758620701296e-11
-2.62593647157438746e-10
9.16347324199204247e-12
-1.57929019640032899e-11
1.41117963987237702e-11
-2.35137387030964471e-10
2.90906677038222117e-11
-1.17313967238482225e-11
-7.57406335644708533e-12
-2.12312310794109819e-10
4.4734072346621462e-11
-7.94588557939733056e-12
-2.07352843984250249e-11
-1.88665231937191575e-10
5.46399055157979204e-11
-3.45905097494843616e-13
-5.11068095896694691e-11
-1.65321608096481728e-10
6.33908931819994243e-11
1.28857159543810787e-11
-1.00120630768399737e-10
-1.41031533945844663e-10
7.18609902908603175e-11
3.00009652861546489e-11
-1.60888323464200623e-10
-1.16444620854434629e-10
8.41612157255921513e-11
5.09444680598213543e-11
-2.33763294250592432e-10
-8.03769459642206573e-11
1.04574065612917874e-10
7.71340914054266144e-11
-3.27953331867680803e-10
-2.52204437412838497e-11
1.20754581570948491e-10
9.95763299552823265e-11
-3.92548996785982333e-10
2.86621813515747985e-11
1.1875773090166371e-10
1.01812262213699806e-10
-3.79880232331799426e-10
4.89512641690822141e-11
8.4813121847476847e-11
7.429413899910852e-11
-2.81124360465581804e-10
3.80697351388996834e-11
4.45404664053286134e-11
3.96945386042010082e-11
-1.60661682226377871e-10
1.89101405002609362e-11
1.76299436449784898e-11
1.56694124646092837e-11
-7.08517004272254532e-11
6.49401037597169642e-12
5.99332739182123875e-12
4.85728960471580349e-12
-2.54272557893901861e-11
1.55113877184529318e-12
1.98128570321080563e-12
1.37295323419867247e-12
-7.38208560552890428e-12
2.73652589303946953e-13
6.46776560247485038e-13
3.4478988241225815e-13
-1.76793307597814196e-12
5.01341765730802501e-14
1.95582498964097106e-13
8.09704079101750437e-14
-3.72226056425119816e-13
1.52504815429047024e-14
5.5553734795322519e-14
1.82523468435142379e-14
-7.24362324182930928e-14
4.21917621268575973e-15
1.3160376141103264e-14
3.75123833496726631e-15
-1.36342081197997452e-14
6.73604484024552903e-16
2.1037483108770897e-15
5.33735545827507679e-16
-2.34612853402555246e-15
7.27731204606370117e-17
2.57384137489462246e-16
5.63869073334196987e-17
-2.8028305883078708e-16
6.57885676232291525e-18
2.70099567534847001e-17
5.11549893441196344e-18
-2.67950772805259827e-17
5.06235822692768618e-19
2.47583322391213403e-18
4.03216734828299334e-19
-2.20678102117712634e-18
3.27708834012919126e-20
1.97650308434097125e-19
2.75106668900471667e-20
-1.57012305527190469e-19
1.75139616142896227e-21
1.36091320766905757e-20
1.61281067055135643e-21
-9.5870137737652198e-21
7.51004865734473508e-23
7.95820158175828877e-22
8.03000708428129483e-23
-4.9661797396916954e-22
2.46983715904866038e-24
3.86117256005192486e-23
3.33357207304245603e-24
-2.14308435234532015e-23
5.77115187036722329e-26
1.49914699580281786e-24
1.11978793708095334e-25