/*--------------------------------*- C++ -*----------------------------------*\
| =========                 |                                                 |
| \\      /  F ield         | OpenFOAM: The Open Source CFD Toolbox           |
|  \\    /   O peration     | Version:  2206                                  |
|   \\  /    A nd           | Website:  www.openfoam.com                      |
|    \\/     M anipulation  |                                                 |
\*---------------------------------------------------------------------------*/
FoamFile
{
    version     2.0;
    format      ascii;
    arch        "LSB;label=32;scalar=64";
    class       volVectorField;
    location    "0.119999999999999996";
    object      faceForces;
}
// * * * * * * * * * * * * * * * * * * * * * * * * * * * * * * * * * * * * * //

dimensions      [1 1 -2 0 0 0 0];

internalField   uniform (0 0 0);

boundaryField
{
    inlet
    {
        type            calculated;
        value           nonuniform List<vector> 0();
    }
    outlet
    {
        type            calculated;
        value           uniform (0 0 0);
    }
    top
    {
        type            calculated;
        value           nonuniform List<vector> 0();
    }
    bottom
    {
        type            calculated;
        value           uniform (0 0 0);
    }
    left
    {
        type            calculated;
        value           uniform (0 0 0);
    }
    symmetry
    {
        type            symmetryPlane;
    }
    interface
    {
        type            calculated;
        value           nonuniform List<vector> 
104
(
(0.000345795992960460578 9.49788417913796395e-10 -7.77434398256666183e-09)
(0.000390188311447937832 -1.7302084044157768e-09 -9.72893548258350864e-09)
(0.000441427747823116244 -4.38113344121099621e-10 -1.15880633391724213e-08)
(0.000491553976911946779 -6.34921183695906979e-10 -1.12545955774689755e-08)
(0.000537072674732103398 -1.0619010465245731e-09 -1.07631142650805012e-08)
(0.000576708362465410871 -1.41600529679859152e-09 -1.02262793940019031e-08)
(0.000611009162078804944 -1.66436102387130042e-09 -9.59959362338054565e-09)
(0.000640807389200226158 -1.91248678452734437e-09 -8.70231828380863565e-09)
(0.000667577795376271825 -2.00715354076253365e-09 -7.63204480355900365e-09)
(0.000692519237860778655 -1.93603568299348315e-09 -6.50908653039371518e-09)
(0.000715850817808414927 -1.80545859001796141e-09 -5.19193642735301313e-09)
(0.000738414886671789764 -1.48713570677304602e-09 -3.75856273298650568e-09)
(0.000761261008477354291 -1.02419097848391316e-09 -2.39213590993213412e-09)
(0.0002674637620160128 -9.95216831046755029e-10 -7.58423617242035525e-09)
(0.000309617482745641408 -1.25460988150844786e-10 -6.22299609573715709e-09)
(0.00035364356080573833 -5.50104369682222084e-11 -5.79734686028585223e-09)
(0.000396208770520902398 -1.73225686127640156e-10 -5.65903153623103331e-09)
(0.000436382291839534334 -2.86979906147448109e-10 -5.40714622081243529e-09)
(0.000474311311788634562 -3.70923131617310184e-10 -5.10368397298092691e-09)
(0.0005099073555713421 -4.67608679079913474e-10 -4.79343459585272225e-09)
(0.000543548871903414086 -4.89870920301685021e-10 -4.38908243605387576e-09)
(0.000575817693245596297 -4.36207202066660223e-10 -3.82616202515152106e-09)
(0.000607301801860393275 -2.9017253371598187e-10 -3.14432129419010646e-09)
(0.000638582640091177062 -4.05025564533330304e-11 -2.37206313393035185e-09)
(0.000670409944739100059 3.27060404269174349e-10 -1.54332805358520352e-09)
(0.000703854657276022631 8.76776638414879448e-10 -7.15079061406295266e-10)
(0.000223049055805952346 -1.25350123863716783e-09 -2.85157929978870496e-09)
(0.000261380253157167885 1.55080761354828309e-11 -2.8331184047809829e-09)
(0.000299922973831739199 7.77678372903978762e-11 -2.86201281192584235e-09)
(0.000338381084338832099 1.57992372374495619e-10 -2.81680844520597037e-09)
(0.000376358816581770928 1.94399126201848815e-10 -2.69367958384422174e-09)
(0.000413672835444397872 2.49543644088014249e-10 -2.54469409852523612e-09)
(0.000450296905084248095 3.4704902062594177e-10 -2.32100991513605153e-09)
(0.000486351978896234463 4.70607176806138549e-10 -2.00802243380733134e-09)
(0.000522122748904330883 6.32876850166499897e-10 -1.63131464228922898e-09)
(0.000558033842392121433 8.67621711020619607e-10 -1.19460126339619723e-09)
(0.000594643999433447953 1.21057386442929939e-09 -7.17828186469170243e-10)
(0.000632715874803002338 1.68328478473070651e-09 -1.99342019713617648e-10)
(0.000673274985195412953 2.32287369687464302e-09 3.59184171313681317e-10)
(0.000185762743678851967 -6.43836163214278771e-10 -1.35616742220346105e-09)
(0.000224003947548902964 1.7659204693947714e-10 -1.31627359520146794e-09)
(0.000262235271350419929 2.84681060085997222e-10 -1.27371806476664427e-09)
(0.000300358799767115408 3.97191635129466478e-10 -1.23274065852093207e-09)
(0.000338325579546649763 5.13829771648887442e-10 -1.15305569538734107e-09)
(0.000376140975032939438 6.5075264327039558e-10 -1.02438882040035121e-09)
(0.000413878570683921083 8.10246169787057725e-10 -8.62627679989812291e-10)
(0.000451697493645417981 1.00580682277303777e-09 -6.69177473669278443e-10)
(0.000489848331688487524 1.25070897529794529e-09 -4.40682452585168623e-10)
(0.000528684676033465721 1.5621134974168452e-09 -1.81681768537457449e-10)
(0.000568667065102753072 1.95980916840680165e-09 9.95659199071574503e-11)
(0.000610458493351114222 2.47486817581714732e-09 3.94378772991160924e-10)
(0.000655044574495215206 3.11846566748929491e-09 6.94619914122827755e-10)
(0.00015906361427287381 -3.64102900944882218e-10 -6.2441032837251836e-10)
(0.000197374434252845649 2.21556224673728838e-10 -5.92669637560854819e-10)
(0.000235711945472664563 3.77638659119000926e-10 -5.6560582988172197e-10)
(0.000274074169791228785 5.32870309273161438e-10 -5.20338977429226767e-10)
(0.000312493148787165048 6.96708599797578703e-10 -4.57489801518790332e-10)
(0.000351026055646816741 8.78946032783091818e-10 -3.72896552695992249e-10)
(0.000389771698053995757 1.08541612444962397e-09 -2.69721472379181244e-10)
(0.000428901137484630267 1.32572660972775783e-09 -1.50100126646970875e-10)
(0.000468656162568209782 1.6098203845222367e-09 -1.60242326857733568e-11)
(0.000509349073099947514 1.95152894441355287e-09 1.29611403875130199e-10)
(0.000551407860273614241 2.36688770885212334e-09 2.82918689899905404e-10)
(0.000595428977809248886 2.8786314195145907e-09 4.35986795739825276e-10)
(0.000642309186128994791 3.52210810296289702e-09 5.85377699662329974e-10)
(0.000140788037354426824 -2.28667267435585765e-10 -2.76788716008891665e-10)
(0.000179190821202600899 2.5455142992445905e-10 -2.39007905192050099e-10)
(0.000217708057222583385 4.36538547465457368e-10 -2.28213433580365754e-10)
(0.000256360489243622955 6.22111361608906507e-10 -2.01793425257028011e-10)
(0.000295202065170541649 8.16126322381783751e-10 -1.62568391993338291e-10)
(0.000334314470379492678 1.02558437460734009e-09 -1.12069939904567499e-10)
(0.00037381153666843505 1.25645190483479946e-09 -5.19082610071735649e-11)
(0.000413852844341457138 1.51645695869873535e-09 1.55385030027559079e-11)
(0.000454653140577821206 1.81497154912648742e-09 8.79004235233533286e-11)
(0.000496499007801522304 2.15971546688770228e-09 1.61378058294279293e-10)
(0.000539780042132858846 2.57146482063165093e-09 2.31257872230351497e-10)
(0.000585027548479732885 3.07470439299379169e-09 2.9113887608672672e-10)
(0.000633029828546397087 3.68791844040004677e-09 3.32281341250830042e-10)
(0.000129387845411680833 -1.59655023870528053e-10 -1.06105679736051445e-10)
(0.000167862274498657352 2.77220899034791458e-10 -7.72402960952969315e-11)
(0.000206523206495282476 4.73912301152447033e-10 -7.43947188205931892e-11)
(0.000245396869941527337 6.74186959082569669e-10 -6.05860061798309933e-11)
(0.00028454109034433859 8.82718415935502705e-10 -3.97347546323241693e-11)
(0.000324040795592571527 1.10467347711692077e-09 -1.40504882203724795e-11)
(0.000364008015218609388 1.34450042359793961e-09 1.50980011598021318e-11)
(0.000404591955204533082 1.60831891577180636e-09 4.57340042618187013e-11)
(0.000445989777703055209 1.90024738700632468e-09 7.44506140093235706e-11)
(0.000488464586331896207 2.23553909864588635e-09 9.55119720039990589e-11)
(0.000532368454503867779 2.62848105928542118e-09 9.94266948026471373e-11)
(0.000578189864276852129 3.09728643479162545e-09 7.5114414691376001e-11)
(0.000626676188552052174 3.64833050598501084e-09 -5.16976567592801629e-12)
(0.000123916096051869946 -1.28826861143739847e-10 -2.57999402158219409e-11)
(0.000162427165831443773 2.85656117135855084e-10 -1.62016801805738703e-11)
(0.000201162459315095625 4.87861210715937354e-10 -1.52611060060318199e-11)
(0.000240148533809839138 6.93743994515616306e-10 -1.07745160720846106e-11)
(0.000279443005914973576 9.06433200219762169e-10 -4.24823988005057015e-12)
(0.000319129366801155286 1.13064397702528159e-09 3.4893672566739094e-12)
(0.000359314404819327862 1.36919672701228949e-09 1.17844957520093454e-11)
(0.000400136678030653858 1.62404580807201254e-09 1.97775493445388574e-11)
(0.000441774271040469286 1.89882769930984293e-09 2.50140653382391707e-11)
(0.000484453431154374171 2.19763343323731957e-09 2.40110021555997944e-11)
(0.000528459455634089381 2.5202020887571922e-09 1.0816213605365909e-11)
(0.000574163963817507072 2.84981273033332077e-09 -2.46534230089007981e-11)
(0.000622112220796755522 3.14393968951522405e-09 -1.06121551012310142e-10)
)
;
    }
    procBoundary3to0
    {
        type            processor;
        value           uniform (0 0 0);
    }
    procBoundary3to1
    {
        type            processor;
        value           uniform (0 0 0);
    }
    procBoundary3to2
    {
        type            processor;
        value           uniform (0 0 0);
    }
}


// ************************************************************************* //
