/*--------------------------------*- C++ -*----------------------------------*\
| =========                 |                                                 |
| \\      /  F ield         | OpenFOAM: The Open Source CFD Toolbox           |
|  \\    /   O peration     | Version:  2206                                  |
|   \\  /    A nd           | Website:  www.openfoam.com                      |
|    \\/     M anipulation  |                                                 |
\*---------------------------------------------------------------------------*/
FoamFile
{
    version     2.0;
    format      ascii;
    arch        "LSB;label=32;scalar=64";
    class       surfaceVectorField;
    location    "0.119999999999999996";
    object      Uf;
}
// * * * * * * * * * * * * * * * * * * * * * * * * * * * * * * * * * * * * * //

dimensions      [0 1 -1 0 0 0 0];

internalField   nonuniform List<vector> 
20390
(
(0.581377132030968746 -0.0207716779536433957 0.102027020905099339)
(0.210314694566164473 -0.084458641291606032 -0.0887295884089627229)
(0.198831737147518617 -0.00588239562832402335 -0.318680611380767198)
(1.06351640231451583 -0.0149962181749590858 0.0937791653898065042)
(0.785607237122365132 -0.0172846937246813881 0.170036231394360415)
(0.281927995367682538 -0.0214711064280939321 -0.057826055986681224)
(0.281498897862072994 -0.00871229145474670084 -0.0689819794599952352)
(1.18821506608899075 -0.0145956992376575934 0.0923222097508197004)
(0.934616010486159832 -0.0141601815772366933 0.247946664381523213)
(0.390535589626092305 -0.0215027202399140915 0.0376716525956626302)
(0.426480194013934555 -0.0135124114548976926 0.0835043378462903274)
(1.31205609416204716 -0.0108708813436356987 0.189521085497634356)
(1.07388897746462275 -0.0149347436622362488 0.316022313222447448)
(0.48510594057552664 -0.0523688580448364721 0.147666051871311238)
(0.595092926595272909 -0.0138981545179678884 0.204363734302971056)
(1.41717459325238959 -0.0101059283539987246 0.238901293359442518)
(1.22432409534183972 -0.018142848752370027 0.368131106714064682)
(0.618051302403266223 -0.0708887643563809594 0.249507810288085469)
(0.756483952325568421 -0.0133773052532593015 0.29239076267872105)
(1.53407694062040134 -0.0123016713117435478 0.301050205290354367)
(1.36112475648936759 -0.0210847351529160031 0.401177034117857712)
(0.739806061324040365 -0.0816260954630691898 0.296710063804386248)
(0.905839714241547966 -0.013293188926077823 0.371101273545526911)
(1.64917239726409481 -0.0163218818549065794 0.34465145391173907)
(1.45979024040827587 -0.0226085628477990658 0.422118935280319407)
(0.826609256494131084 -0.0708599792090891523 0.323872086892951883)
(1.01586940227627354 -0.0115487799300975271 0.418621227845390131)
(1.74091870179217256 -0.0193284900210949767 0.375567881057101871)
(1.53421891086571205 -0.0233152510824251626 0.435763930737101957)
(0.886091564022169487 -0.0641734438270251534 0.337083634457562342)
(1.09351018504404296 -0.00896743369406259247 0.448965237494214686)
(1.80798791277707949 -0.0214908556734750567 0.395046670859726945)
(1.58569208971235565 -0.0228812396463975477 0.446468770041098806)
(0.951569585785191241 -0.0485015162014989371 0.344688005870681935)
(1.14072298582045728 -0.00571112125393134946 0.457220278019903836)
(1.85738388326110515 -0.02255867906910888 0.411691201479111257)
(1.62303255232399968 -0.0203482887403444342 0.456892524738290562)
(1.02197309064197994 -0.0355641036248813061 0.357653628074718233)
(1.17103157002205172 -0.00259658321865573281 0.460959828964806417)
(1.88791766326033983 -0.0221374616030420995 0.427173297470987368)
(1.63885295415345245 -0.016048214423172457 0.46877993519068617)
(1.08748687686794243 -0.0166058399609802128 0.378707255137934407)
(1.18600793209486 0.00109380286897071922 0.461614729011666558)
(1.90034567000233179 -0.0193801782075910707 0.444223043719892741)
(1.62547627886233648 -0.0102564840640297847 0.481920966384583149)
(1.13251030063522196 0.0051683484724596232 0.404340989883798962)
(1.1804456180994003 0.00494757002869185714 0.464868307771171385)
(1.89109275574227498 -0.0156783974451518184 0.46182635303978864)
(1.56875226174024496 0.0009235184107578287 0.495526900760392019)
(1.16172846116997519 0.0320241387866290472 0.431449921570841555)
(1.14940474052409747 0.0106304317570223086 0.472158287621174233)
(1.8491105289524894 -0.00858935762368806706 0.479480414592120929)
(1.45403692899008097 0.0193338412850849219 0.509268926794224752)
(1.15547425653050628 0.0621893116793116874 0.456724866656556427)
(1.08186703603485768 0.021286413602737659 0.485439453224121797)
(1.75661901544050725 0.00660825996200098062 0.495101130707407244)
(1.27359838461018526 0.0412299480737757171 0.520133501672912724)
(1.1053142427942142 0.0939409190790650994 0.480562979573379179)
(0.973091170306597197 0.036227685196883852 0.501318002365234272)
(1.60684554425009929 0.0271241300327078674 0.50876011428242407)
(1.03059136053360501 0.0605756752332867743 0.52084282137453497)
(1.00280919217241982 0.122265689428769808 0.498837696578577794)
(0.819685162768858833 0.0517216498648654724 0.512342077519390759)
(1.39521515458001688 0.048589904584476068 0.513866142510035928)
(0.763600024714583547 0.0660152097369428731 0.50278733708950174)
(0.836156585925254658 0.135415542151892415 0.501268143052463921)
(0.62250633405704181 0.0613545975373518682 0.503815388541378084)
(1.12512983421233992 0.0642408841143090742 0.507656106045720978)
(0.541106056816668457 0.055433825227683392 0.461982161783942691)
(0.644777195706114914 0.119159405143758848 0.479647437394153942)
(0.442749044166493355 0.0540338551028437183 0.469400532422659555)
(0.856462072217614279 0.0628459782370069803 0.48522723227179354)
(0.386446161731892279 0.0404865414994832681 0.401006373173621478)
(0.476972733977591656 0.0931797019409121713 0.435374702567210559)
(0.320435519755582821 0.0393779528217926209 0.411270723057472254)
(0.625296128087636349 0.0527833759411705378 0.442971874904248553)
(0.290504418472437465 0.0278621938174306791 0.327809031556307084)
(0.35159005850419639 0.0686065529908225502 0.369763212066777258)
(0.247830043167720226 0.0271214610081925121 0.33909205501004408)
(0.444138021825234486 0.041094590508036502 0.380364142908322378)
(0.235367987604027634 0.0185670633944640603 0.254709924896233175)
(0.271983938959874882 0.0473558995358628609 0.294915467104408913)
(0.208613994528041802 0.0183837233812814034 0.266271730082769553)
(0.322604713954191769 0.028951048499116696 0.305846994877826683)
(0.202150633700958093 0.0127128129637819956 0.1924358801726202)
(0.223699538805982562 0.0316635150474600044 0.224540818792394625)
(0.185985845201182054 0.01271138751177338 0.203475132748117293)
(0.253765763062446137 0.0184608094055191616 0.233584244651811879)
(0.177277561487292845 0.0094795438232279667 0.145124436101312371)
(0.192365978737080862 0.0224432624497472172 0.168086485854470391)
(0.167863306784850452 0.00956172977725515405 0.154696345509552885)
(0.214133663945438341 0.0122143984568223538 0.174708972424059306)
(0.155663020889809739 0.00749284543774306894 0.110879575273866826)
(0.167724508255479771 0.0171013203199938228 0.126950634995724565)
(0.150320992693139033 0.00761961286787339511 0.118809379588483532)
(0.184234824849464379 0.00909116524034199458 0.131396359324193079)
(0.136657007073528486 0.00606304992143605684 0.0858453549536326022)
(0.14691159321487543 0.0135323861710358699 0.0974391070046660007)
(0.133954253003478185 0.00619757400862002827 0.0923206281401494633)
(0.159238395710887826 0.00720225302547930837 0.100377888801518864)
(0.120026917190152599 0.00500610851449427748 0.0670648362151144706)
(0.128956910077681425 0.0109960787967692732 0.0757084510657644594)
(0.119077294543604342 0.00513027085841986571 0.0723369722770025453)
(0.138112085124702189 0.00582551131558383187 0.0776972074890377035)
(0.105339743783017734 0.00423242287218800022 0.0527452275211995891)
(0.113250589089064838 0.00917203993579149973 0.0593178646404392898)
(0.105599552549995118 0.00434114939413724442 0.0570208721230006099)
(0.120051223319724953 0.00481002278697562416 0.0606758541789046424)
(0.0921795285683160853 0.00366032214013026951 0.0417352404993111617)
(0.0993101566800325963 0.0078421076813166013 0.0467864811893742641)
(0.0933028454496551418 0.0037554865323064868 0.0451879828814233109)
(0.104373985234605199 0.00407122977782116337 0.0477103092550706168)
(0.0802380788709745885 0.00322965209515373337 0.0332266238469212591)
(0.0867329277174823943 0.00685229757348934827 0.0371315050137774119)
(0.0819814499625773768 0.00331227954657298523 0.036000254185142723)
(0.0905172367168897291 0.00352817593033967567 0.0377622023513228336)
(0.0692849701300021076 0.00290173994586116497 0.0266333882825277729)
(0.0752548212430554642 0.00610295384752845751 0.0296592071537149019)
(0.0714759121994354985 0.00297127875224604708 0.0288441534183287371)
(0.0780852887402178619 0.00312256401604749361 0.0300962265576605291)
(0.0591294798974074387 0.00265025210703421533 0.0215250959854149347)
(0.0646622554530036225 0.00553021794982608891 0.0238675497909213996)
(0.0616547510281851771 0.0027073817189668674 0.0232707513501450823)
(0.0667733422091299211 0.00281571417880307996 0.0241753062881584178)
(0.0496154190740243362 0.00245670474113817913 0.0175823364096672416)
(0.0547839730009049147 0.00508978007740999282 0.019386051574216679)
(0.0523972475355492309 0.00250260657031801904 0.0189416408869123309)
(0.0563466421270112858 0.00258162513720046425 0.0196069892319112038)
(0.0406132219955335841 0.00230824721369134829 0.0145676139926559593)
(0.0454794645086157648 0.0047509557797308739 0.0159397582273136974)
(0.0435999479881068533 0.00234392458259693797 0.0156026233603103141)
(0.0466190163738208069 0.00240266739577305087 0.0161024307275850417)
(0.0320129685612878107 0.0021959582809524072 0.012304748377945712)
(0.0366305676226489074 0.00449257969928876667 0.0133244067637987174)
(0.0351728400452867088 0.00222213224597966148 0.013063062218601389)
(0.0374386267748423873 0.00226680831118834846 0.0134483393156683388)
(0.0237193851198372573 0.00210956814055443835 0.0106646144417424406)
(0.0281355823696976988 0.00429993154322655564 0.0113891538609765496)
(0.0270361744957283816 0.00213074873716419906 0.0111810972974632841)
(0.0286783169133766891 0.00216576636213825077 0.0114880103022881649)
(0.0156586601280283393 0.00204008008546306251 0.00955499184863041473)
(0.019907751146423406 0.00415748561817267086 0.010024769344854188)
(0.019121123715110027 0.00205725167198951868 0.00985343457197680565)
(0.0202320319932546774 0.00208556271057321356 0.010108499438454625)
(0.00777269198847067334 0.00199587318815264278 0.00890506505401776095)
(0.0118572171866922378 0.00405431182920500295 0.00915499746392340122)
(0.0113748520332944969 0.00199719565584614931 0.0090074737281726075)
(0.0120159316308788774 0.00202103472602442645 0.00923103969540731151)
(0.0039238628966883262 0.00399006721898017506 0.00871328053811352456)
(0.00376368305283587574 0.00197226464707737654 0.00857985319144164912)
(0.00397305575948713081 0.00199388802611053699 0.00878823227096518257)
(-0.117313744376807375 -0.0266997056620487186 -0.248582665300743383)
(-0.0783243659442751927 0.0508445180098182278 -0.409584023047476431)
(-0.0884677894855417785 -0.000805751035172240504 -0.348378709095535311)
(0.1686493603456371 -0.0126891034536692239 -0.195017563035614072)
(-0.113391265990366683 -0.0268054732237962591 -0.190190634785379231)
(-0.169547850361841029 -0.0123181059260925613 -0.260908023777459974)
(-0.162152986638091606 -0.0046391971631452875 -0.211667244143399463)
(0.00512663762691914753 -0.0207906774276037688 -0.189374410827676615)
(-0.0544862225546952975 -0.0607499149732042484 -0.0626089599145498998)
(-0.138356988335847336 -0.0431991218590597401 -0.135281929132722162)
(-0.153068838005048308 -0.0241824607433195962 -0.0897622892447144105)
(0.0605589118047321143 -0.0781480685585879131 -0.0741953009689715753)
(0.0240940241950310212 -0.0990667631854456193 0.081151548936948717)
(-0.0882506035774330011 -0.0857420387820819613 0.000126870387829793735)
(-0.115891791574956576 -0.0512928520556238735 0.00398699692614598936)
(0.287387443832805844 -0.0993488388623892382 0.0157975887742019955)
(0.130756728705722497 -0.115693938502852769 0.178086767378407174)
(-0.0185346559776783104 -0.0987028323804730601 0.106672951975246122)
(-0.0329978860701861457 -0.063220379199662044 0.0904898720295438802)
(0.447395961905999617 -0.106857410654306706 0.141517729473677384)
(0.203648156871213321 -0.110862024714208085 0.219405116579480336)
(0.0331822100835441058 -0.0928988937278881904 0.149528724593529366)
(0.0667833968090823515 -0.0641879961283342709 0.149717774990467123)
(0.540952791162184421 -0.105512399410637156 0.200065011593175357)
(0.253115656714371529 -0.0948391594772447916 0.238836786070194707)
(0.0650975019149924589 -0.0775217319700635815 0.174263685296703497)
(0.148476488212134744 -0.0475953327041800656 0.19349322952898429)
(0.575989985139871097 -0.0921123832090756239 0.229641499427070267)
(0.306572525363125847 -0.0776344553446288027 0.246007709591142293)
(0.0929248227238004404 -0.0721586552448034019 0.189077424741593614)
(0.209154482088976856 -0.0309452902125761133 0.208475975707904077)
(0.603743804752278068 -0.0774080470974738838 0.245967583474485635)
(0.388741262350144001 -0.0581788910778345408 0.255872863904301473)
(0.138284419485990906 -0.0660788428894943519 0.202071234728362414)
(0.274710194220065484 -0.0133677620248930287 0.21110711935027146)
(0.667923726119538097 -0.0599869604213969301 0.258134848645088621)
(0.486197499971941893 -0.0346610848917069461 0.279468358474362133)
(0.205537733698071906 -0.0546073879118900776 0.225926653473150107)
(0.347453645595432459 0.00300538313003505817 0.221569685904243779)
(0.759137762460220133 -0.0406092776946658102 0.280948186284418144)
(0.579499655628930355 -0.00651290379089093652 0.314268309831046977)
(0.287579249015675609 -0.030627600685774449 0.259345260815498635)
(0.41640889551752891 0.0215766128836495062 0.249441379999131935)
(0.852025405591356311 -0.0180751589097589184 0.314695284811573883)
(0.667624489052429437 0.0247067431435739303 0.353869945070057756)
(0.361156591220221701 -0.00666176794027248127 0.29850972664086739)
(0.470735193200039204 0.0416252350834464754 0.288438592887755474)
(0.927769133427910009 0.00669551357939010203 0.35289293396660959)
(0.747088520299558523 0.0595620577142045998 0.392647887467005852)
(0.427832161309605996 0.0244786533173640478 0.338232572241937812)
(0.521391445612870985 0.0636206749196259053 0.329073416791752893)
(1.00083024183567093 0.0360805215122887088 0.393438171120387259)
(0.805012009954376495 0.0969500585726216918 0.428018919435710909)
(0.482805161931981863 0.06430263642832168 0.374725448038481235)
(0.561281652805253994 0.089065977423719217 0.367712963403235116)
(1.05296382166416524 0.0703587836051364629 0.429858226683318634)
(0.830090182872290194 0.135804876295315569 0.459267174479044193)
(0.530796358338619378 0.111273420383516425 0.407635806005159085)
(0.589078506465728235 0.116627433929082827 0.404811398204314499)
(1.07508641780509961 0.104481151385489329 0.464552744555333963)
(0.803189039431678631 0.164709409525620243 0.479263018256506745)
(0.564626136797201195 0.161951276780913977 0.435118168038000908)
(0.593544468621616028 0.144406304320965406 0.439361311894512441)
(1.05592835874575086 0.140589535636463814 0.49183243270410959)
(0.715995185383338728 0.169784894973792511 0.478128243357115901)
(0.564581147519077953 0.196230871785510075 0.448124485870692091)
(0.553422926261567638 0.155483079611313607 0.460459280472129473)
(0.977276533365014854 0.162260194787637313 0.494898889826052624)
(0.584089564213134738 0.152584989550445971 0.453039978177421809)
(0.508789262507118423 0.197808607883944193 0.43771372880235454)
(0.469583916282549363 0.143745046763278456 0.451881354197416374)
(0.836933682570809578 0.163861482372878453 0.477276497068301997)
(0.44720300601365448 0.12350974130095338 0.404131541460366839)
(0.4208729424783198 0.175777354839586564 0.404316452316732078)
(0.373461552941492303 0.117576729694886722 0.411592853259157676)
(0.664123481029360252 0.150212861648383683 0.439902341982748968)
(0.337962094916610833 0.092167665222710124 0.336869647614878753)
(0.333359620983761817 0.140805424324617068 0.34977079830723079)
(0.292334747598732347 0.0888480425454817035 0.347961450166216379)
(0.497024845861215314 0.125859534714920368 0.383117436854934101)
(0.263171794793758962 0.0643493747683558798 0.264746361000570363)
(0.266991347476100149 0.103429168497080226 0.284296479046397543)
(0.236540691912935142 0.0633848399333376555 0.276768086729528184)
(0.366424201461243604 0.0941979502460852797 0.314122449661989545)
(0.21507305886067013 0.043944487069673896 0.200191424474244789)
(0.22156830811679093 0.071467581917542336 0.219782473536193512)
(0.199284170735870736 0.0441026719778137982 0.211566044380626872)
(0.279150711633645965 0.0634828275623050692 0.243072941520553393)
(0.18287627889303798 0.0312535768774905437 0.149912684748882419)
(0.190323893448192505 0.0495612273566076733 0.166032792105078181)
(0.173745784929858954 0.0317307625262040899 0.159682638094615859)
(0.224918940405503448 0.0419804503649269037 0.181718634202661433)
(0.15870955082401289 0.02359878534824187 0.113510166726523615)
(0.166202479296026717 0.0361287856618379422 0.12585783463922387)
(0.153593459111083908 0.024113430552355701 0.121570449176637507)
(0.188801402358485027 0.0296287050134562968 0.1354546456069875)
(0.138833896888132885 0.0186476319245070972 0.0873022031167979551)
(0.145998447787507341 0.0278005101512985055 0.0967217088712337553)
(0.136260400959772793 0.0191204438011398428 0.0938713332002564377)
(0.161832059673430451 0.0224481513818788579 0.102527140029757213)
(0.121796881812491709 0.0152430317969828276 0.0679614794910892855)
(0.128501202284062227 0.0223155453643989442 0.0752322346487787341)
(0.120923466992334055 0.0156571498411012811 0.0732966503623252302)
(0.14006059671542509 0.017800920435862129 0.078893542641846448)
(0.106866912209889295 0.0128227424716745361 0.0533591183086138052)
(0.113083680143909182 0.0185155785255710498 0.0590162712129087899)
(0.107166737508042398 0.0131774276807046613 0.0576773769826405408)
(0.121710082408271927 0.0145929818313594167 0.061430013558927167)
(0.0935468559970921154 0.0110597069964041839 0.0421827457038405559)
(0.0993161793892023137 0.0157900410789969664 0.0466011263626387798)
(0.0946876325679029407 0.011359429528954329 0.0456651042467680415)
(0.105848108870549351 0.0123124736805015067 0.0482375734790586597)
(0.0814753803377629982 0.00974694898997840314 0.0335640883205709853)
(0.0868489179686493112 0.0137846248949577681 0.0370196301977415987)
(0.083236050443714904 0.00999893978818957273 0.0363597101748652993)
(0.0918474303662386582 0.0106538857090889734 0.0381507553105446401)
(0.0703977243857831642 0.00875236168071975504 0.0268933686621085251)
(0.0754304781214444053 0.0122767698930167316 0.0295932464144895296)
(0.0726145093681444115 0.0089625926328094109 0.0291216233650786437)
(0.0792819276550980195 0.00942162115567194564 0.0303904166905357986)
(0.0601204556436509621 0.00799081644245721798 0.0217285053797231613)
(0.0648644209452362286 0.0111264869119930311 0.023829966693379577)
(0.0626779082243109353 0.00816344775797091943 0.0234878791732135786)
(0.0678419271004097879 0.00849161665956179451 0.0244026889925288704)
(0.0504877712225676456 0.00740507214710493539 0.0177434733918630724)
(0.0549910581964885292 0.0102420469841711295 0.0193659740714995712)
(0.0533061018142654414 0.00754384071601303316 0.0191135040130498632)
(0.0572915782564579201 0.00778290492923114016 0.0197855860302462092)
(0.041370470001518625 0.00695594793908045107 0.0146965509984564348)
(0.0456773293293703322 0.00956135904079288834 0.0159303532677827868)
(0.0443964869321251607 0.0070638279099278934 0.0157399592884078995)
(0.0474444691393339918 0.00724141720329308548 0.0162444400972410127)
(0.032658976850400312 0.00661644488052341023 0.0124088122468296157)
(0.0368100640167809481 0.00904182447624995653 0.0133212871964343126)
(0.0358597216069777291 0.00669551635545639554 0.0131736768543004885)
(0.03814880020590522 0.00683053924769295041 0.0135623480487684495)
(0.0242578083298111251 0.00636764800758005817 0.0107493087640883091)
(0.0282910756626034397 0.00865415378808668916 0.0113894719802054116)
(0.0276164128280692867 0.00641941440767470652 0.0112708549895953452)
(0.0292773613616621568 0.0065252441299197628 0.0115803228942658598)
(0.016068526286692645 0.00619508392530674929 0.00962477496014716404)
(0.0200350411929068987 0.00837940015082635874 0.0100266191442561388)
(0.0195970344207397618 0.0062214216746553537 0.00992684234081422923)
(0.0207230542506659961 0.00630789257106896539 0.0101838655012534366)
(0.00799665748683658049 0.00607927300043620625 0.00896321294801915788)
(0.0119489609126771125 0.00820150351931162036 0.00915735909599797379)
(0.0117049921663057235 0.00608954338910809752 0.00906849880246241372)
(0.0123565355523674782 0.00616395154938225581 0.00929359607739137228)
(0.00396010809506227961 0.00809202816315629514 0.00871447209853878565)
(0.00387643177396532895 0.00599870449050281685 0.00863089708677677349)
(0.00408949561245810795 0.00606691772194095213 0.00884032752155138914)
(-0.161332602343887938 0.0282534123109059107 -0.421909381524195215)
(-0.080905125959837218 0.0888233152207568433 -0.623964669343678446)
(-0.091549570287583773 0.0575088145042821006 -0.3794739112542167)
(-0.176428513369751239 0.115306306104022163 -0.464847207770521575)
(-0.192619449739286464 -0.0297038602478957303 -0.20599931812480321)
(-0.243734588981391442 -0.00691220543428800512 -0.271324236267033947)
(-0.205683244061202808 -0.000815819345301570503 -0.222047636971905549)
(-0.127200948345910753 0.00279828856557649309 -0.242503358468803332)
(-0.165338252177995082 -0.0665930184233043537 -0.072546098830343117)
(-0.227955236333099664 -0.0455439544789059542 -0.126359348651318426)
(-0.210259834809095159 -0.0271491152955863624 -0.114665697164532787)
(-0.0136998696782452412 -0.105870686322016475 -0.0920752066725131491)
(-0.140463383616563908 -0.0916530908374579012 0.0256482734261265534)
(-0.203091002031512979 -0.0728210550466849293 -0.0203317756311506871)
(-0.194435362091426617 -0.0503765546804764916 -0.0351315387451600625)
(0.00220006786558695887 -0.140076290509485724 0.0155530850539460502)
(-0.117529890325760916 -0.0917901689649922442 0.0781149091903683979)
(-0.179102209064938955 -0.0777164318984386038 0.0483685665769835668)
(-0.176864855680501476 -0.0591077808300313201 0.0282143746925293919)
(-0.000893528753889027039 -0.140873431185019576 0.0931087475604297499)
(-0.107226350270763202 -0.0776794097886140539 0.104387293310752235)
(-0.167799314795635091 -0.07098858979203794 0.0824714866811754044)
(-0.160527472505636426 -0.0519590162546266776 0.0684235548362843032)
(0.00840079690630226444 -0.118715250318721863 0.12254484973307668)
(-0.0930741444248699562 -0.0693052501220299128 0.124504323968102459)
(-0.160570617300413915 -0.0593862267667171692 0.104638050091399176)
(-0.147263716781359993 -0.0361032734556128582 0.0937200708313447456)
(0.0265350564631119668 -0.0994449646366842299 0.144145084365741472)
(-0.0740981434514913218 -0.0683555107460848965 0.145140949878813763)
(-0.144184034787467497 -0.0543008323706079127 0.122577418862792498)
(-0.126587165160509801 -0.0293694327344133435 0.109976761145782725)
(0.0624268020881327407 -0.0984447137709865 0.164683890943359335)
(-0.0421472713557400694 -0.0606422838412226384 0.172125024297211104)
(-0.125652867132305501 -0.0487695195297085382 0.1449657614317649)
(-0.104656588222950486 -0.0232242411667260493 0.12584448001912743)
(0.106438647668742586 -0.0952813327893488465 0.192438432568685758)
(0.00703993108954795773 -0.0418993197112594237 0.205803555814286554)
(-0.0953730707011747059 -0.0389031245040628929 0.176489961139095625)
(-0.0717631574881503476 -0.0106660344004823431 0.148014023611481582)
(0.163656866827607245 -0.0786343438362853697 0.228616607918254222)
(0.0673691764513727337 -0.0169797229933020787 0.243586677625318909)
(-0.0497538233748601594 -0.0168533388454293123 0.210017644773889567)
(-0.0217182045346668642 0.00949130852628315112 0.179974989977873451)
(0.23270972296196557 -0.0531085733148644185 0.267835780036479787)
(0.118355491149432404 0.0138493120250292243 0.282872353812747834)
(-0.00337585100370078883 0.011881036136665921 0.245326634039999492)
(0.0277807799809139735 0.0317631025597921723 0.218556484890182756)
(0.296250181126809953 -0.0238275460359821008 0.306604325872501582)
(0.160207405518800056 0.0524214724161429224 0.320310132813413251)
(0.0347038757949421628 0.0460603727164489996 0.279216300934510775)
(0.0647548455375030751 0.0594376788129951442 0.257106141005383593)
(0.347930124123985329 0.0132556051417549378 0.34210280653820524)
(0.205751800253189676 0.0967537551830997128 0.354342334607929299)
(0.0716263485187241394 0.083652640585049523 0.313762632038210754)
(0.0976265249450778 0.0894193665748655026 0.29283660566177383)
(0.392953730746487151 0.0608036803063460932 0.377068886084404031)
(0.260877517808169868 0.144948946548006302 0.383486799564115632)
(0.115724627142142392 0.124195395105752393 0.343022363258709384)
(0.139635211479662763 0.12348203694339302 0.326021301652828221)
(0.435639714909846931 0.111216125773228508 0.406984953059568999)
(0.31935239546686639 0.18947793703627791 0.403979635652186142)
(0.172302749082219098 0.169427685097225444 0.365967228146685641)
(0.193446896716404804 0.160282334600345411 0.356981729723234165)
(0.473920627841751152 0.163227361517254421 0.430408010153617793)
(0.3554317020834033 0.212812726794974344 0.407709971315930508)
(0.231614571650435391 0.207292099885524772 0.377908189285245111)
(0.245252736060617871 0.189192886978744784 0.379580407652171326)
(0.500002578150602783 0.205045232545396305 0.437783232392279176)
(0.348934338303448777 0.207654492189109308 0.388990202941664642)
(0.2617067283731907 0.221953534816989428 0.370903678781013102)
(0.263941337701796952 0.190217480314975596 0.379434048108823141)
(0.482408686683636401 0.221753271071173458 0.421228033261998647)
(0.311924211854519629 0.181644372857920317 0.349955709163596529)
(0.261059152351391377 0.210754977041619135 0.344004566556396552)
(0.252776048840266387 0.170058744774691545 0.352190399710181512)
(0.428583416423627184 0.215774734071477875 0.385136174387388897)
(0.267559259956647699 0.143822843244684834 0.297197629738748692)
(0.242295652597983135 0.178351587752262897 0.302110649944215603)
(0.228001692590639377 0.137797856237757532 0.305602558609116726)
(0.359923974783973977 0.18807949151002934 0.336329491228148703)
(0.229105646030187016 0.105237728515987505 0.239332591582020637)
(0.219404957986234411 0.137597493841979807 0.2514752837916851)
(0.203476649264321796 0.103425222155463653 0.249943069477218199)
(0.296432317877162455 0.146456515288314715 0.279824866249113791)
(0.198617294160947866 0.0740379654603064014 0.185623841167027293)
(0.197905273496556344 0.0995105873041008115 0.200066247953324394)
(0.182745135178565804 0.0743174998006816551 0.195981013403674048)
(0.246824225794806451 0.103691776017962242 0.221576891497988676)
(0.174073709463540616 0.0528350252731594611 0.141977941995419799)
(0.177834699143644165 0.0711565967094828361 0.155236231177392242)
(0.164672088027793179 0.0537130978824733318 0.151057038867475901)
(0.20960926976391353 0.0709575846517800923 0.169701770537724478)
(0.153397660779129363 0.0394969229787576342 0.109069376783933997)
(0.158892290943012937 0.052603804418679373 0.119975800870329788)
(0.148046618565265048 0.0404048366331156567 0.116691086031761301)
(0.180554251133205307 0.050101413820818369 0.12896179230974042)
(0.135403378050649253 0.0310012701771289478 0.0846517404032142567)
(0.141368994579326335 0.0407579706866143254 0.0933187211573328346)
(0.132654637083802707 0.031810219686605995 0.0909425320996316566)
(0.156811738405906953 0.0374968324184480062 0.0988591132225633551)
(0.119482224631685757 0.025304995817487283 0.0662870263705983009)
(0.12541503358057024 0.0328943922262733418 0.0731265345475723555)
(0.11848705897138459 0.0260024836916734059 0.0714390632510602391)
(0.136779609236268779 0.0295494222120188214 0.0766713016036993933)
(0.10523146989971266 0.0213013847064061138 0.0522582792669337645)
(0.110939910505123446 0.0274198459571510372 0.0576490401853587756)
(0.10545781640077273 0.0218948349069340402 0.0564533068111659417)
(0.119473089463379673 0.0242109389429918005 0.0600072517001956005)
(0.0923381248406804356 0.0183920515796978795 0.0414380108565398225)
(0.0977623685002403375 0.0234680450821313294 0.0456839418613166903)
(0.0934348444522175442 0.0188917432717502741 0.0448348341606033193)
(0.104253127278778279 0.0204515807517571882 0.0472946102688026754)
(0.0805547634951431779 0.0162261661840981744 0.033048788291660039)
(0.0856901324820659172 0.020540899329764023 0.0363890095821401693)
(0.0822805461402517091 0.0166444868735370205 0.0357829666339206515)
(0.0906700870427458866 0.017719838008331476 0.0375102758757677804)
(0.0696808634124078258 0.0145844843018373693 0.026529844445760481)
(0.0745479628881491885 0.0183299728048583049 0.0291507566502657717)
(0.0718683387311523647 0.0149325682990798011 0.0287140315810347976)
(0.0783884056474273422 0.0156885777896207217 0.0299454698234625401)
(0.059551846229837592 0.0133258806476053739 0.021467435385155987)
(0.0641816717877517207 0.0166373248065191277 0.0235136344326070321)
(0.0620844412238867188 0.0136118410690686375 0.0231949976027151471)
(0.0671482134636768313 0.0141533332742909291 0.0240872304544171682)
(0.0500298671078590676 0.0123564673378732254 0.0175528539474192093)
(0.0544570857283046134 0.0153319897542635118 0.0191358000328505778)
(0.0528269663334184625 0.0125866021556330331 0.0188997298692950635)
(0.0567428620092345487 0.0129816089718756411 0.0195578256456629199)
(0.0409974079898907801 0.0116122826051729931 0.0145550894657606768)
(0.0452573368628750444 0.014324981958398068 0.0157598579843707051)
(0.0440050494141790427 0.011791371503993054 0.0155815520147290741)
(0.0470039748269813068 0.0120851827032614403 0.0160771642628535945)