/*--------------------------------*- C++ -*----------------------------------*\
| =========                 |                                                 |
| \\      /  F ield         | OpenFOAM: The Open Source CFD Toolbox           |
|  \\    /   O peration     | Version:  2206                                  |
|   \\  /    A nd           | Website:  www.openfoam.com                      |
|    \\/     M anipulation  |                                                 |
\*---------------------------------------------------------------------------*/
FoamFile
{
    version     2.0;
    format      ascii;
    arch        "LSB;label=32;scalar=64";
    class       volVectorField;
    location    "0.660000000000000364";
    object      faceForces;
}
// * * * * * * * * * * * * * * * * * * * * * * * * * * * * * * * * * * * * * //

dimensions      [1 1 -2 0 0 0 0];

internalField   uniform (0 0 0);

boundaryField
{
    inlet
    {
        type            calculated;
        value           uniform (0 0 0);
    }
    outlet
    {
        type            calculated;
        value           nonuniform List<vector> 0();
    }
    top
    {
        type            calculated;
        value           uniform (0 0 0);
    }
    bottom
    {
        type            calculated;
        value           uniform (0 0 0);
    }
    left
    {
        type            calculated;
        value           uniform (0 0 0);
    }
    symmetry
    {
        type            symmetryPlane;
    }
    interface
    {
        type            calculated;
        value           nonuniform List<vector> 
181
(
(0.456589007391467572 -4.32576421062592911e-06 -1.45541008950064371e-05)
(0.419961919317218213 1.26242936816951956e-07 -1.51096568753205205e-05)
(0.38386333425900232 6.39391431366127066e-08 -1.49659079624331727e-05)
(0.348497704814927423 -2.56485435253495362e-07 -1.49347533577923746e-05)
(0.314146643768116907 -4.26714460885651634e-07 -1.4423039161711904e-05)
(0.281092246276414104 -5.80027800009672693e-07 -1.39652998236678997e-05)
(0.248977389178438591 -8.26987405986594681e-07 -1.35069800666367527e-05)
(0.217814399227229588 -1.10825718009216305e-06 -1.30543676784028156e-05)
(0.187547863926125796 -1.43169214227722654e-06 -1.27468125226316028e-05)
(0.158175856791077651 -1.80998733702399215e-06 -1.24839456880331865e-05)
(0.129784455199848825 -2.2320502531373151e-06 -1.21645804718011165e-05)
(0.102343123979547743 -2.62055068702526011e-06 -1.19186371888116171e-05)
(0.075979429806397783 -2.78308283490785528e-06 -1.16881638846524839e-05)
(0.0499145789094850023 -3.19792414825678126e-06 -1.13122026977324741e-05)
(0.0252232520717136782 -4.28607093468145172e-06 -1.08000346492408349e-05)
(0.00896840514866438683 -4.99372869528925979e-06 -9.05671266588093515e-06)
(0.489224901490265096 -1.89818731563895944e-06 -9.72302716354426301e-06)
(0.452204448039240037 2.1222788922308371e-07 -1.03753966447949911e-05)
(0.41532632780951384 2.81635598254456737e-07 -1.03047003935414699e-05)
(0.378748697753451991 1.88070498250786096e-07 -1.02767350164349753e-05)
(0.342821003771275001 1.13630890018555426e-07 -1.00538502474882671e-05)
(0.307977958469222046 4.85024850818256646e-08 -9.87053069870443745e-06)
(0.273984733582541273 -7.19331818297231088e-08 -9.70980950414044859e-06)
(0.240778390792080993 -2.40995402121191089e-07 -9.51886353857711755e-06)
(0.20852694352334844 -4.36601445562974234e-07 -9.31158156183986477e-06)
(0.17741549214170052 -6.91540179305419459e-07 -9.10284847196097802e-06)
(0.147439781001645953 -1.03445925291280866e-06 -8.89966954908154648e-06)
(0.118529025220538695 -1.44882475190946658e-06 -8.712633379914247e-06)
(0.0905051423417723433 -1.85217181126298335e-06 -8.68205132271147261e-06)
(0.0626943177484351605 -2.35204875052872698e-06 -8.62780044578951732e-06)
(0.0359606949018261707 -3.38018878102411176e-06 -8.31926793821051105e-06)
(0.0161312818214567402 -4.37456339044696148e-06 -7.55635974760607661e-06)
(0.504145854455398168 -2.43753247102262394e-06 -7.88463373489754115e-06)
(0.467057532807460818 4.15738820666224391e-07 -8.52149256883282376e-06)
(0.429968869092403727 6.87509034610707403e-07 -8.49344186333795492e-06)
(0.393211866489097284 6.7578247995715975e-07 -8.37305525801100427e-06)
(0.357002952785414385 6.62774646877471358e-07 -8.3533362653459781e-06)
(0.321435254868884357 5.90219621482912861e-07 -8.22700568169729778e-06)
(0.286632943836642617 4.71447087453762191e-07 -8.096055609302487e-06)
(0.25265471662065736 2.9557298652941801e-07 -7.97279748653835012e-06)
(0.219612371963159275 6.84831205725433879e-08 -7.84012171941685988e-06)
(0.187639509094801954 -2.05976543258700593e-07 -7.7140857820608075e-06)
(0.15687143129043768 -5.26502181599862202e-07 -7.59698411383081114e-06)
(0.127301130817675051 -9.45165122512425577e-07 -7.49634159280484797e-06)
(0.0987700759527876115 -1.37415658148408743e-06 -7.40979640411666763e-06)
(0.0706324620696818783 -1.99703036796061016e-06 -7.31680654655090155e-06)
(0.0435201195427831894 -3.04340990943437141e-06 -7.07522738492465913e-06)
(0.0225931658349947384 -3.88922013672271324e-06 -6.60985345198565226e-06)
(0.509930308778760999 -1.00330052597109838e-06 -4.9239758176241782e-06)
(0.472722840655384613 4.47488414842072467e-07 -5.67965765030176599e-06)
(0.435680873578549732 6.96278107082418424e-07 -5.55665706587643694e-06)
(0.399020133859953552 7.93657495244857525e-07 -5.49440356937282578e-06)
(0.362850306323098726 8.35946895407106141e-07 -5.49211559369241939e-06)
(0.327242613298845242 8.07874953303294455e-07 -5.50849600507721603e-06)
(0.292304288141225277 7.17195106952900126e-07 -5.47924002591230765e-06)
(0.258197697844512797 5.78013075161731528e-07 -5.43227452892006031e-06)
(0.225023231586026662 3.85224856015098935e-07 -5.39076677780719041e-06)
(0.192871001150051402 1.34564747876016161e-07 -5.3570808240013898e-06)
(0.161836117842630023 -1.91709767725949047e-07 -5.33822346937696724e-06)
(0.132003905252908282 -6.30502380130847524e-07 -5.32126511782813286e-06)
(0.103265698682660209 -1.09512679501606483e-06 -5.33273217591238845e-06)
(0.0749929466943048684 -1.71749998606698233e-06 -5.2814605205557435e-06)
(0.047461029936297465 -2.70364368830153178e-06 -5.14568946830670898e-06)
(0.0260511211881652577 -3.54500616140476332e-06 -4.94340377736591613e-06)
(0.513042536718339548 -6.31636244705315538e-07 -4.04410205811374764e-06)
(0.475957543774174208 4.92846574530093265e-07 -4.44811578065057963e-06)
(0.438966674199705142 7.93868258584139737e-07 -4.47630715616808685e-06)
(0.402331536752085106 8.91592115870188023e-07 -4.47535325922945733e-06)
(0.366186157651783917 9.51113494129540051e-07 -4.4802992629321176e-06)
(0.330598084555974892 9.59932204828493561e-07 -4.492677465225753e-06)
(0.295674149080583148 8.948928021638484e-07 -4.49500842310323374e-06)
(0.261558989001238251 7.65651288875071581e-07 -4.48897160425344119e-06)
(0.228379973081731719 5.71966101458921336e-07 -4.4888381215367036e-06)
(0.196256320356115455 3.08614526509319232e-07 -4.494726764983177e-06)
(0.165241750070884291 -3.87660491736725222e-08 -4.4707926731988533e-06)
(0.13521162828183439 -4.7020026059647706e-07 -4.47058801564862761e-06)
(0.106264159093076543 -9.72642539631972399e-07 -4.40963318794119537e-06)
(0.0777968881480211594 -1.58430893909303804e-06 -4.37573743470453526e-06)
(0.0498582808086207308 -2.48876332899130485e-06 -4.32798875350712209e-06)
(0.0283130424690629171 -3.41553521940568105e-06 -4.22691531775771301e-06)
(0.514386334150061519 -2.83727372938121556e-07 -2.19654306221785919e-06)
(0.47736688450159237 5.36793359915834403e-07 -2.78980493829065965e-06)
(0.44035259145945288 8.49242009205415953e-07 -2.79301578363427178e-06)
(0.403702992759893631 9.77329257184606048e-07 -2.73845635532645188e-06)
(0.367630333622838756 1.05142252584584994e-06 -2.72864128926475261e-06)
(0.332137491002549468 1.0641270149186471e-06 -2.74391081049096077e-06)
(0.297308873265108631 1.00464371773279993e-06 -2.75990083130403293e-06)
(0.26329055556208858 8.79606549309064483e-07 -2.77500745718622226e-06)
(0.230223735982695354 6.90633950280147379e-07 -2.79730114198549075e-06)
(0.19821925247059069 4.29623236724184521e-07 -2.81845697432710949e-06)
(0.167267409152882268 5.38960703450827885e-08 -2.78381229476258869e-06)
(0.137138671655637062 -4.4276985448850591e-07 -2.78116780060886277e-06)
(0.108093490618878893 -9.60863537904485454e-07 -2.71756278122137123e-06)
(0.0795740570506575096 -1.63732359719982452e-06 -2.68157247246310633e-06)
(0.0517074962707806049 -2.67267587667243362e-06 -2.62259694675120031e-06)
(0.0306606833187457843 -3.41951443400102543e-06 -2.60243619207632726e-06)
(0.515340382284269594 -2.13348172372825682e-07 -1.32952860930386677e-06)
(0.478250175289713919 5.98804376606585473e-07 -1.68178887480151702e-06)
(0.441253846509207237 9.18753766898978613e-07 -1.67090837043466093e-06)
(0.404732844192088492 1.0822247860437229e-06 -1.66083356649390559e-06)
(0.368756861212153342 1.16325665848168186e-06 -1.6780284213520353e-06)
(0.333324331333328339 1.17893916475003225e-06 -1.70066000612458759e-06)
(0.298560746923080989 1.13043646785101003e-06 -1.72002443171036762e-06)
(0.26464359866188919 1.00718313362419635e-06 -1.74035731747671899e-06)
(0.231716820915421201 8.07091354806544823e-07 -1.76715632185285699e-06)
(0.199893703408110218 4.89998054854772183e-07 -1.78118566260991123e-06)
(0.168711088654081104 6.8319463220694742e-08 -1.79511858003052901e-06)
(0.138411823852890248 -4.57426183494221607e-07 -1.70585641534609112e-06)
(0.109666403146532282 -8.980257678410278e-07 -1.68919893900101827e-06)
(0.081209267934499979 -1.54045495492568353e-06 -1.66440390817674114e-06)
(0.0534199676102055515 -2.45777575191379462e-06 -1.58018059308526883e-06)
(0.0324330561415192009 -3.37735993059732061e-06 -1.44779061661975133e-06)
(0.51568420651575364 -1.96131728559006347e-07 -4.2287020452699518e-07)
(0.478554532328759108 6.29663671475804681e-07 -5.34870668473254313e-07)
(0.441561572577234274 9.78195984449737915e-07 -5.2862519335006921e-07)
(0.405111473407456624 1.14955895635599519e-06 -5.28656372039944636e-07)
(0.369185111359484175 1.23410624449169898e-06 -5.35092534594366926e-07)
(0.33379510488329045 1.23819696116440269e-06 -5.43479239691880691e-07)
(0.299080577353287025 1.18353436539459603e-06 -5.50889486516886259e-07)
(0.265231641835798782 1.05120249990474475e-06 -5.59118731753024515e-07)
(0.232373915494835687 8.2164441664971098e-07 -5.69924628202841749e-07)
(0.200572899328453624 4.77603986554666233e-07 -5.73621865943884719e-07)
(0.169326050833416786 4.95388651443756519e-08 -5.71365169789060754e-07)
(0.139030912506123677 -4.56635386487133501e-07 -5.42690595227723946e-07)
(0.110384668661455063 -8.87920622761726518e-07 -5.3905136877598725e-07)
(0.0820416958218400799 -1.57631501938423575e-06 -5.31092676494487769e-07)
(0.0543514810998146844 -2.53620292488940617e-06 -5.27904384533904325e-07)
(0.0337226269533862852 -3.06769268084039263e-06 -5.36401326652873413e-07)
(2.02663280311006809e-05 1.11073276910456772e-05 0.191206079984785032)
(1.9469250292560379e-05 -8.69168041993122818e-07 0.155120784395369554)
(1.88419044814265485e-05 -2.40951857786971937e-06 0.124067901404348951)
(1.80241940691770652e-05 -3.84885323924920387e-06 0.09783442934690674)
(1.61986102928353717e-05 -5.77419313491766829e-06 0.0773005507003968612)
(1.32504124987722124e-05 -8.12974986416596414e-06 0.0601137587912273369)
(1.03173731604192582e-05 -1.02925307966708336e-05 0.0431235344901307327)
(8.10090512112764878e-06 -1.1502489251909525e-05 0.0273012959135780185)
(6.27873096720603559e-06 -1.21102863919360123e-05 0.0138710973934746025)
(4.44805284604995215e-06 -1.10304567612031463e-05 0.00363538924046925187)
(2.75371742590165428e-06 -9.23607156598613656e-06 -0.00131444982213338294)
(1.70593637802244053e-06 -7.93437833934109857e-06 -0.0029453100429859963)
(2.32015442324676503e-06 -6.92209514188629232e-06 -0.00661586516886120656)
(4.69074177621936858e-06 -7.10428843096718167e-06 -0.0244141013077157354)
(5.44408095023072567e-06 -8.55641581913532181e-06 -0.0503601820926404542)
(1.61539196111149692e-05 6.20365079376724426e-06 0.222297719832407814)
(1.53613586609756214e-05 -2.66175653339172378e-06 0.1890094513394871)
(1.43698290727294881e-05 -5.43464606429475883e-06 0.156991966573644726)
(1.24139277838188415e-05 -8.8363223718913865e-06 0.123848324846207378)
(8.18546806201806234e-06 -1.03783832723952509e-05 0.0915934332234971393)
(3.20504160232198745e-06 -7.4352634924398692e-06 0.0665545266948703723)
(8.06281086625929515e-07 -4.75066748234394841e-06 0.0503621395576717146)
(-2.78193404369195395e-07 -3.488176223383402e-06 0.0387258663438045866)
(-7.92182154131201031e-07 -2.32342222531110049e-06 0.0295828121212923859)
(-9.01628688078953172e-07 -1.59751586741354289e-06 0.0220301951738621597)
(-6.95227988882602421e-07 -1.0929060690305936e-06 0.0144230597588325543)
(-5.647553709775446e-07 -4.45979817568047186e-07 0.00765339249018988019)
(-1.04576405212633078e-06 7.6426188187669163e-07 0.00177796059208280561)
(-1.10798593499737863e-07 6.95802612906699876e-07 -0.00723459256573278416)
(1.50229859103808717e-05 1.45641790776290076e-06 0.251034707100047993)
(1.35640364186433213e-05 -4.35927783321955293e-06 0.212900110392036573)
(1.20798419237180854e-05 -7.88293090065475331e-06 0.170718487740811192)
(8.45398653245099987e-06 -8.20635008497084003e-06 0.13033559369382694)
(6.32485367118640693e-06 -7.08499913998299643e-06 0.0982908459149903352)
(2.38125513622205971e-06 -2.97368518229265437e-06 0.0766726004829705321)
(1.54706863120605877e-06 -2.85021073523485674e-06 0.0612804967970058609)
(9.34031703060680478e-07 -2.78411455568278026e-06 0.0466772985653339592)
(2.71479878693644678e-07 -1.46022556493174979e-06 0.0350293109552029455)
(1.85294768851933746e-07 -5.8887826642251573e-07 0.0265352803118935054)
(1.84854183433030795e-08 -1.71099895030456161e-07 0.018600947539737428)
(1.75075730457332443e-08 3.42995439208676903e-07 0.010862814603963494)
(1.83842453777570728e-05 -2.0996430580082339e-06 0.211300309243406342)
(1.76680792931438292e-05 -6.22434202681187986e-06 0.172458952416014416)
(1.87244016202722518e-05 -8.91126725295140088e-06 0.134329936708726394)
(1.48047580087961401e-05 -7.22679107922852476e-06 0.102982660865093931)
(6.62602367436896403e-06 -3.31789543828385196e-06 0.0826368162639227188)
(5.56176513327880883e-06 -3.59369883411168956e-06 0.067155550443387807)
(3.17747798701238145e-06 -2.66368483141808672e-06 0.051824045681365824)
(9.95766212923070988e-07 -7.53421452577421042e-07 0.0402766957458499941)
(6.53850349493339719e-07 -3.68912632398519583e-07 0.0310141575651860721)
(3.44398089248998295e-07 -9.90376714540432375e-08 0.0232629493520426153)
(2.14791341161460177e-07 6.15464495461627563e-08 0.0179102338052858044)
(1.06135532996618716e-07 3.9135787769181271e-08 0.0142475644664893375)
)
;
    }
    procBoundary0to1
    {
        type            processor;
        value           uniform (0 0 0);
    }
    procBoundary0to3
    {
        type            processor;
        value           uniform (0 0 0);
    }
}


// ************************************************************************* //
