/*--------------------------------*- C++ -*----------------------------------*\
| =========                 |                                                 |
| \\      /  F ield         | OpenFOAM: The Open Source CFD Toolbox           |
|  \\    /   O peration     | Version:  2206                                  |
|   \\  /    A nd           | Website:  www.openfoam.com                      |
|    \\/     M anipulation  |                                                 |
\*---------------------------------------------------------------------------*/
FoamFile
{
    version     2.0;
    format      ascii;
    arch        "LSB;label=32;scalar=64";
    class       surfaceVectorField;
    location    "0.660000000000000364";
    object      Uf;
}
// * * * * * * * * * * * * * * * * * * * * * * * * * * * * * * * * * * * * * //

dimensions      [0 1 -1 0 0 0 0];

internalField   nonuniform List<vector> 
20789
(
(0.0188452799431232144 -0.00635186432686632527 -0.0351505399125223855)
(0.00959812407007049756 -0.0092802736648343008 -0.0331145181688874135)
(0.00784900119919319794 -0.00361160302561732783 -0.0318079609592214277)
(0.00847389674048326311 -0.00332945991312425839 -0.0336171483393776019)
(0.0583348281443821226 -0.0101779927753653156 -0.0385659201214161862)
(0.040158036593513538 -0.0188028238743897166 -0.0370282685761385288)
(0.0366820494010879489 -0.0091330536698456307 -0.0358026129578315061)
(0.0383035997181555704 -0.00871195723523631588 -0.0383064318817171318)
(0.104217707684808022 -0.0115337608796833649 -0.0416066812203646011)
(0.0808637896748792273 -0.0216296810527410038 -0.0394891088203771015)
(0.0759849450619832084 -0.0111947829163054156 -0.0381241361522023856)
(0.0785316347942940918 -0.0108215359363867253 -0.0405987065600821664)
(0.149848813218004695 -0.0111575358891694461 -0.0461637506235874004)
(0.126457445073398261 -0.0213791646649493308 -0.0430553286197167123)
(0.125935105124492491 -0.0117565573478837036 -0.041932368533707888)
(0.129740622202256989 -0.0115673297457253924 -0.0441297037138496523)
(0.188485602939151758 -0.00930945197625845239 -0.0527662985014136707)
(0.166270420171798439 -0.0180885729436185833 -0.0483481533821314285)
(0.168275930203185042 -0.0103407619687397798 -0.0475016049269616422)
(0.174338335738833838 -0.010371893768409567 -0.0493349298127193012)
(0.218511602131713528 -0.00706485358202760955 -0.0621197505063376537)
(0.198725957802109388 -0.0141221144102919097 -0.05609050810763231)
(0.200182091145515662 -0.00799646589326887848 -0.0554150195910407331)
(0.209083260921156644 -0.00817363728099842687 -0.0569694720923234477)
(0.241272605354532599 -0.00513590933234059875 -0.0752323012954213)
(0.225309270373037829 -0.0107784249556412883 -0.0670401250729415199)
(0.224906163477260168 -0.00585766930886034726 -0.0663474285798170832)
(0.237314766930843135 -0.00608496193485671098 -0.0676722855830805547)
(0.257594958158928022 -0.00361627095996402493 -0.0928078880646225485)
(0.245825325600411537 -0.00805441661909281868 -0.0822587702407345106)
(0.24267744953762313 -0.00419247467560867823 -0.0814030934312400256)
(0.259308917550286677 -0.00441467653255260203 -0.0830031843375742817)
(0.268638809895237973 -0.00257112331721550628 -0.116034787653264915)
(0.260575339134100969 -0.00581529743099618718 -0.10218018737941359)
(0.254116797871752176 -0.00291078967400818563 -0.100837799823284155)
(0.275836014253246498 -0.00305071628983275348 -0.102651655987808427)
(0.275191105807782277 -0.00204715063110445664 -0.145499309232071911)
(0.270431579030572189 -0.00461569598480887459 -0.128442349095748448)
(0.260254999517362973 -0.00219493239155565912 -0.126467194153483564)
(0.28787344752623073 -0.00226429203504800464 -0.129874341981489699)
(0.280238415688342124 -0.00230169646717732872 -0.183754220584031736)
(0.277142108360262485 -0.00428397870089494877 -0.160928153703106591)
(0.26271409814925456 -0.00197529654188364394 -0.15781147700782594)
(0.297963709125555365 -0.00188997255146640029 -0.161892951216817071)
(0.283250117740769525 -0.00332234275106611581 -0.230540527790586425)
(0.282403140485947279 -0.00606569890835901258 -0.204121889779041193)
(0.262806555821553323 -0.00275864183922181318 -0.199158283318820101)
(0.307196147303563816 -0.00273466244906617846 -0.208612617939422151)
(0.293849677016442989 -0.00532200644448513772 -0.298482310791169825)
(0.288926635815913491 -0.00874454879391994844 -0.254840115008408363)
(0.262568053708573057 -0.00394630225667770996 -0.248101897416926648)
(0.32662101784080072 -0.00342663810648267649 -0.256169156968687306)
(0.282306044892999208 -0.00903785328457340498 -0.383127618365078804)
(0.294396300965481528 -0.014138807130410427 -0.338362207615417632)
(0.261018661338375479 -0.00675336678176201386 -0.319185754513847453)
(0.327989281141154998 -0.00749526605622771302 -0.357724360642522499)
(0.279687681709753277 -0.00675090155180183265 -0.588032569152321272)
(0.310143554361253904 -0.0233039455345466599 -0.426803145216565039)
(0.25973816861054777 -0.0125216676414971941 -0.39561828623027101)
(0.444947798015494222 -0.0133469758042760508 -0.444553596012904118)
(0.164220430696919772 -0.00508184367524610638 -0.760146241633859354)
(0.172710046558898878 -0.000565567608639410031 -0.573140531450272772)
(0.369172352699729867 -0.00542450796036457548 -0.831915474944462607)
(0.0237536311749744281 -0.0213932429131310671 -0.0349922468325035638)
(0.0127083351242131375 -0.0209125824035679628 -0.0333426624460307283)
(0.0108597041927522443 -0.0140008608056697396 -0.0318552999520825622)
(0.0114374218545399576 -0.013027362023863686 -0.0340055539452812985)
(0.0641424763248421848 -0.0306013392870614874 -0.0379514572750994372)
(0.0459342321340948864 -0.0381967246163316121 -0.0369999576648098599)
(0.0421747444507715938 -0.0288875662325131198 -0.0347756352832170601)
(0.0437031799661867643 -0.0276126250497536752 -0.0376622106533563636)
(0.105836437068295569 -0.03160463001758132 -0.0409377562197292127)
(0.0866715861656015829 -0.0416149077290112121 -0.0395680521562220555)
(0.0831306530877665012 -0.0320778369800271412 -0.0372724408414337807)
(0.0856818959526002288 -0.031025012579290967 -0.0401815633167083852)
(0.143480045770120773 -0.0287004660779672204 -0.0452397313782607405)
(0.126511841851646212 -0.0393784406098908329 -0.0429024421710675202)
(0.122904906390811128 -0.0306251220444724408 -0.0409021919151262431)
(0.126866134872655578 -0.0300768825693414933 -0.0434397371006672722)
(0.177350648550618217 -0.0237189158909388298 -0.0516723629883500749)
(0.162317515229938591 -0.0341586902903912443 -0.047977069424863926)
(0.158060038110094586 -0.0260854945157643278 -0.0463724522665451278)
(0.163928452889199716 -0.02606670240087159 -0.048405486870748804)
(0.206615006549546926 -0.0185382446222499588 -0.0610108826742361901)
(0.193714365312969067 -0.0279138084200565295 -0.0555907636428884452)
(0.188422295640139903 -0.0206194399737456811 -0.0542815950665797783)
(0.196811435451281769 -0.0209417780872119159 -0.0558522498209054891)
(0.230358221930682727 -0.0140984450598023361 -0.0740665940182547583)
(0.22033732201888559 -0.0219843265290713304 -0.0665543904511753104)
(0.213620515696255286 -0.015843232740942903 -0.0653227725658696995)
(0.225231115305733143 -0.0162796447728862752 -0.0666295440613863393)
(0.248389825606789932 -0.0104820194202739705 -0.0916310695555255239)
(0.241507955634483934 -0.0167501090029093039 -0.0816899003242012589)
(0.232978225992689081 -0.0119668928267371646 -0.0802382008346177872)
(0.248524180494203828 -0.0123406292200706879 -0.0816015501561796197)
(0.261218379152935554 -0.0079487561536827657 -0.114587748821897123)
(0.257060505655981542 -0.0124467514752261959 -0.101762848443088277)
(0.246420512599651809 -0.00892471001641137809 -0.0997397034427164458)
(0.26672003557200985 -0.00902909912377740723 -0.10159950837082414)
(0.269637716589325616 -0.00688320431430848069 -0.143871193566783184)
(0.26760080556187793 -0.00984150136838145978 -0.127752958124987187)
(0.254607434986306114 -0.00722904507977677711 -0.124747198865932898)
(0.28049283460896135 -0.00701277926568284835 -0.127714998197646479)
(0.276039100104557789 -0.0079599180412309959 -0.181295822898116077)
(0.274562312283309296 -0.00951617620588917669 -0.160512334910046461)
(0.258776837574236085 -0.00710863169059317533 -0.156078645163371138)
(0.291980405728271941 -0.00647984817959733599 -0.160852938307925325)
(0.281071390993337555 -0.0114281962980261401 -0.22842147699686316)
(0.280088817140031254 -0.0124978575156845344 -0.202706635950341496)
(0.260826918620691295 -0.00954127933999249396 -0.195935053206175186)
(0.302422912463507221 -0.00884680338081684538 -0.204326207000325499)
(0.289496695435915274 -0.0172644072968598274 -0.294720011832656059)
(0.286328922625863569 -0.0187965659874923946 -0.254816274588679337)
(0.261362367254002359 -0.0138456583408938134 -0.245094855225152869)
(0.321048323190077145 -0.0126343764631975074 -0.257709691358225856)
(0.282721388592462208 -0.029449689257063788 -0.382037734466903922)
(0.289867147698222083 -0.0276000535084640723 -0.334548186766319811)
(0.260762757824758884 -0.0209066600657055075 -0.314605192076665707)
(0.332929189482958132 -0.0216996992475997456 -0.347550133753062929)
(0.274159646301291748 -0.0231764300497981218 -0.598916817698102122)
(0.306865359427771933 -0.0517283171179864221 -0.428755766141937666)
(0.254340638295531218 -0.0380664763371289655 -0.387725626781377397)
(0.418994184578507012 -0.0409410856951711727 -0.452184757537092086)
(0.153981482247744828 -0.0125796999019450895 -0.764334455311050154)
(0.167191067520261694 -0.00341742172979121305 -0.593609702425717645)
(0.354677829418097834 -0.0193274707972126703 -0.852302825165283995)
(0.0294616569116998156 -0.0377165432630183553 -0.0353503732783370314)
(0.0156088235597062527 -0.0353893711367360558 -0.0333956620528536724)
(0.0141019689957183596 -0.0276319046148809783 -0.0313559464626046724)
(0.0146379972275625051 -0.025701318036789933 -0.0341213678625217759)
(0.069096684884809273 -0.0498066962221463128 -0.0386165525459324782)
(0.051493206350086855 -0.0575298739838112569 -0.0374965776604915396)
(0.0482418189262385014 -0.0478842971917357932 -0.0349175754666977076)
(0.0497087348588764952 -0.0455325140216450847 -0.0383527195809580876)
(0.109206411938693751 -0.0499751262638024399 -0.041532738107560363)
(0.0910431537264331237 -0.0611187973480796995 -0.0400263189054540225)
(0.0875193002896556965 -0.0511773811617145732 -0.0375543184203935981)
(0.0899895750722690541 -0.0492289915622430435 -0.040908987308384992)
(0.146181885153930824 -0.0452310231762387271 -0.0456397802176707057)
(0.129530664652429545 -0.0572358379879848722 -0.043165871004375439)
(0.125874239981275032 -0.047803782808915507 -0.0411591928340147156)
(0.129708344141253817 -0.0467155142205633034 -0.0440068893570180683)
(0.17944596926738926 -0.0384267192160009097 -0.0518954700794023033)
(0.164614833157644636 -0.0500420287364420416 -0.0480486228524647091)
(0.160355547890055933 -0.0414552581284020477 -0.0465631436561796189)
(0.166118996787925244 -0.0412599368827632068 -0.0487617527100384085)
(0.208366538016160008 -0.0311974903461777059 -0.0611342714198275794)
(0.195644593909715309 -0.0415674176401280432 -0.0555607985888338027)
(0.190281269424684735 -0.0341907804500826903 -0.0544379344233386839)
(0.198636685048268813 -0.0346162081995532028 -0.0560380072032425555)
(0.232026380397525128 -0.0243899499573083413 -0.074177696757121811)
(0.222090550803101389 -0.0331060754116526273 -0.066531074256176187)
(0.21521525657566179 -0.0272305838271441128 -0.0654848884452597924)
(0.226874391960570521 -0.0278984692815663626 -0.0666974545471966662)
(0.24992406764239028 -0.0184523828151845447 -0.0918216792117639846)
(0.243139757698022096 -0.025296917969919782 -0.0817842745547085331)
(0.234446286346848526 -0.0210002471797541002 -0.080454754019634922)
(0.250124830357552064 -0.0215383791180390263 -0.0816393604493661357)
(0.262291781727640227 -0.0140868776061798106 -0.114928057746178369)
(0.258337996601577524 -0.0187627343355772046 -0.102085278384337647)
(0.247636136605237589 -0.0159210508260039831 -0.100068499355950663)
(0.268133255965516848 -0.0159899876100225609 -0.101706983632566736)
(0.269936269802072082 -0.0122398554649599325 -0.144394099468250464)
(0.268090990725000478 -0.0146365246273983847 -0.128359853845460808)
(0.255269846022385338 -0.0128887218413443749 -0.125196373167843794)
(0.281388501041478556 -0.0122961752794280739 -0.12799135189584479)
(0.275096889470927031 -0.0138929188953625347 -0.181923147962271881)
(0.273727222896228528 -0.0141575268059196211 -0.161411571247455976)
(0.258451085695530158 -0.0127705347489675165 -0.156653301667248113)
(0.291838462069800297 -0.0114843318093039767 -0.16134879992011944)
(0.278915716133940339 -0.019770681408050654 -0.22910143354215784)
(0.277652015661335128 -0.0184408572391136852 -0.203676317989818001)
(0.259382524580828167 -0.0164950822520313831 -0.196451441063420384)
(0.301096967218257849 -0.0148100866555239546 -0.204942917344756309)
(0.285445872305370607 -0.0290684124154682658 -0.294644449522343088)
(0.281899992715393344 -0.0282047664537367244 -0.255804814754501508)
(0.258299838032055695 -0.0242926796204769278 -0.245557784291963316)
(0.317545378965795433 -0.022731880316467723 -0.258569573407095576)
(0.278864764254511677 -0.0491150036090815673 -0.381266218441353777)
(0.283747406815636261 -0.0408768848682606184 -0.334100339862709594)
(0.256874057936350375 -0.0344360876911016175 -0.314024186262281513)
(0.327845951828251103 -0.0342138544454899315 -0.346427687108856575)
(0.260669986988982916 -0.0411314535337182902 -0.594173403754885587)
(0.299358601727272189 -0.0745989449310270614 -0.427428040108080942)
(0.248562605709084894 -0.0618149506152140676 -0.388337655281553784)
(0.411488124457423998 -0.0655948234404165886 -0.450252008063828424)
(0.140721199467495728 -0.0244011023198649341 -0.75343984441844214)
(0.150383574758955418 -0.00964476398242235071 -0.586624197407110803)
(0.338489318403356387 -0.0366856183839414166 -0.841973618355850384)
(0.0343157358372130142 -0.0552578440509252089 -0.0355418664350081806)
(0.0180319384727873483 -0.05232841059170696 -0.0330670706007900189)
(0.0166834915059044242 -0.0435692551714792833 -0.0307858988386133237)
(0.0171864768312927733 -0.0402579096724031416 -0.0341610935189432183)
(0.0736664926318189722 -0.0690137360187676185 -0.038906344020013077)
(0.0565183308670385437 -0.0768158599361012107 -0.0371884258860339101)
(0.0532813093606409743 -0.0669512516178336209 -0.0350246947671422962)
(0.0545948413698980062 -0.063191579170403106 -0.0386182088529896939)
(0.112618524432013936 -0.0684970858887327672 -0.0416594518022691054)
(0.0956203302598972599 -0.0800678430533639934 -0.0396060523051459876)
(0.0918309862603373661 -0.0702425803982488356 -0.0377748591297505792)
(0.0940451329904613414 -0.0671650612594529156 -0.0410489141339149335)
(0.148776207018350454 -0.0620800162708972855 -0.0455747136391694493)
(0.133016892728456154 -0.0746208948283174078 -0.0426852645425238805)
(0.128886659165990042 -0.0653342294874057761 -0.041325146272093341)
(0.132441902547509899 -0.063643574102996342 -0.0439550966229836915)
(0.18152268009973091 -0.0531984153580186206 -0.0517139513618961946)
(0.167458052356466103 -0.0655329526790770361 -0.0475799042077300685)
(0.162555551740173165 -0.0570551785523283825 -0.0466514987323943253)
(0.168105266405291665 -0.0567715469401235198 -0.0485253834507609824)
(0.210228834827406508 -0.0435242237587571135 -0.0609576014251824311)
(0.198292602656113981 -0.0549106855741958236 -0.0551885323729214908)
(0.192124402994649113 -0.0475715441105859643 -0.0545048234541893675)
(0.200390244123239941 -0.0482514140717816564 -0.05567480445713998)
(0.23383147759823289 -0.0340464514280305747 -0.0741376520537629091)
(0.224719313009017124 -0.043941729888403995 -0.066351145358935687)
(0.216917514864417016 -0.0380899359985044095 -0.0656175638855034382)
(0.228631383963359497 -0.0391172196899978383 -0.0663087801986798481)
(0.25147857224444975 -0.0255714772759718101 -0.092047873727282209)
(0.245645643512770268 -0.0334490254508726312 -0.0819020371013290394)
(0.235993702683781531 -0.0293156226465584417 -0.0807429947905091844)
(0.251865206042301559 -0.0300842692749467532 -0.081360939101469229)
(0.263074657932110323 -0.0192163714598772711 -0.1155170744836201)
(0.260282472782500662 -0.0244724709414797098 -0.102615287396400467)
(0.24871992216170774 -0.0220524360582924038 -0.100597987759420179)
(0.269510834899048868 -0.0220507565393875497 -0.101709864641548325)
(0.269364340499201993 -0.0164590383860600611 -0.14537732562466632)
(0.268772192782492592 -0.0186413230813405606 -0.129361090853873095)
(0.255368880871193749 -0.0175834532840073721 -0.125996830771550244)
(0.281820581223454436 -0.0165154306964040501 -0.128415626902962876)
(0.272622568661348874 -0.0186844252352828775 -0.183164741275002096)
(0.272426136396975827 -0.0179141913013334715 -0.162855375414311804)
(0.257003943363620424 -0.0173411889603360993 -0.157691279173362092)
(0.290625709765486406 -0.0152044390510346628 -0.162308419001694487)
(0.274473308018464979 -0.0269301254196737463 -0.23037969920216167)
(0.273905518687977079 -0.023614532307268208 -0.205246947580357553)
(0.25605832993972466 -0.0224281092331101752 -0.1975140585999276)
(0.297819241877126717 -0.0196890001508391033 -0.206216301847420763)
(0.278440182404164238 -0.0401480998778118367 -0.29526070509486807)
(0.27554605130240073 -0.0367962353903967324 -0.257216143945474152)
(0.252983207498767793 -0.0334733603322296125 -0.246444180127884022)
(0.311592605538967782 -0.0310388609233752805 -0.260100987076125667)
(0.27150595154831364 -0.0664540249899184809 -0.380262161529436815)
(0.27476074506503434 -0.0540541637546352663 -0.334095041743253551)
(0.249360314518896731 -0.0477072034543344417 -0.313962114769705591)
(0.319331682391760241 -0.0469840232701076374 -0.34648040402782726)
(0.249726378355883766 -0.0576028456800803113 -0.586694480771637772)
(0.288976261834794579 -0.0954015486057737949 -0.425041184560747076)
(0.241278595335241097 -0.0822699074465631092 -0.387071658824381104)
(0.399096323729075164 -0.0871952300708833117 -0.448036454151401031)
(0.131200387319087508 -0.0365559597907231804 -0.741292854390400491)
(0.139958972494873851 -0.0184360181057663768 -0.579688993837412903)
(0.324500100964433047 -0.0539128684735339231 -0.825977681490677296)
(0.0387520777893080315 -0.07394259026712377 -0.0347136300518157553)
(0.0205983349919049777 -0.0712146648863188902 -0.031705236945918841)
(0.018912681859352673 -0.0616679006120287102 -0.029994586012510021)
(0.01932732985724505 -0.0565645506993914526 -0.0333208044432016862)
(0.0785776593778473587 -0.0879376157863522023 -0.0378881341711668138)
(0.0620175945380856061 -0.0959246754765452209 -0.0352976205226171874)
(0.0582427832732266837 -0.0861855926009463258 -0.0345910099582039665)
(0.0592649501961949945 -0.0808358205665422602 -0.0374081285174170872)
(0.116815801296609248 -0.0862885151391310085 -0.0406318650454007627)
(0.101029821378363041 -0.0981718128927154404 -0.0377939848005995199)
(0.0966911083369179081 -0.0886997937623908855 -0.0375065291735033404)
(0.0985310124446214658 -0.0845347150987362794 -0.0397250127769789713)
(0.152407494903211704 -0.0781567894298980242 -0.0446904551110845136)
(0.137555794077936056 -0.0911987858496086795 -0.041246199077985983)
(0.132879566896534324 -0.0821001427609789197 -0.0411757085613956436)
(0.136095933766852611 -0.0799900563822509569 -0.0426944386855798302)
(0.184929782463831488 -0.0672887626662249383 -0.0510544852187553577)
(0.171545648639039483 -0.0803628562437620486 -0.0465808108446253075)
(0.166024807837012511 -0.0719221580308005842 -0.046606333213985357)
(0.171353513595703222 -0.0717707356978268818 -0.0473574592401613606)
(0.213650882279036253 -0.0553133827191928107 -0.0605820763066747675)
(0.202405617985338931 -0.067692012289113826 -0.0546179413428606805)
(0.195479382067469148 -0.0603910333612938735 -0.0545799067725811216)
(0.203680748847137494 -0.0614960902308347435 -0.0546127209256239143)
(0.237286281792647713 -0.0432381330891855944 -0.0741155304065017895)
(0.229006166963036883 -0.0542275406908648838 -0.0661988728821010508)
(0.22029636857795612 -0.0485914051950482734 -0.0658598916211319968)
(0.232106807084783151 -0.0500445361156423921 -0.0654222985006518848)
(0.254589560932890424 -0.0321443638902683682 -0.0924694507704472979)
(0.249867494212180269 -0.0409209981060087713 -0.0821984946320113152)
(0.239222196111361862 -0.0373355711781278785 -0.0812205728351342582)
(0.255338286854801255 -0.0382668265911656064 -0.0807838539360750812)
(0.265070454578127113 -0.0236464198328812866 -0.116459303766653449)
(0.263764210637384977 -0.0292536878850846969 -0.103436688998939291)
(0.251266295821281904 -0.0277793006525114128 -0.101385357948604565)
(0.27241271504839204 -0.0274905715949659846 -0.101631471301679266)
(0.269328383027692686 -0.0198563510028268268 -0.146839140643518634)
(0.270511565742674265 -0.0214671495206818254 -0.130754757762264334)
(0.25642358839860413 -0.021729934322795276 -0.127133078174116509)
(0.283275911883334675 -0.0198468564070797479 -0.128999933669914024)
(0.269886306310285262 -0.0226842082850561289 -0.184937581719667177)
(0.271447986270657304 -0.0204651409072856838 -0.164743826704666307)
(0.255783464571791797 -0.0212425824666505475 -0.159087106148130458)
(0.289679902183089422 -0.0178557866326473948 -0.163693090480142883)
(0.268849702355085263 -0.0334415896168954313 -0.232083392323669979)
(0.269582377296926634 -0.0277208614396327879 -0.207256089895900469)
(0.252092906808713768 -0.0277628787380828114 -0.19894003915694658)
(0.293877294713389303 -0.0235826386925701674 -0.208074123753944462)
(0.269788293597186757 -0.0508051157467776446 -0.296050480593859688)
(0.267739375803900947 -0.0445284023792975742 -0.258879068180817462)
(0.246244499654353827 -0.042098563280792603 -0.247516074815229192)
(0.304015061893392613 -0.0384747557502478701 -0.262146091895714195)
(0.261472319875007631 -0.0831533309048511637 -0.37887406477456359)
(0.263871038084380727 -0.0668067398977907206 -0.333991894215549812)
(0.240165132070311205 -0.0607320143191762626 -0.313893297603448473)
(0.308918303025585539 -0.0595094928735647316 -0.346790403901056921)
(0.237419457018015589 -0.0740510993425312347 -0.579639558179510406)
(0.274929270379510537 -0.114986486152119163 -0.421982468233942754)
(0.230878146363509201 -0.101760032315108828 -0.384868756676241097)
(0.381474242767267824 -0.10820292410410548 -0.445418928539730474)
(0.119910311881191028 -0.0489589154239227567 -0.726303691451601008)
(0.130259902230360353 -0.0283902023629724193 -0.574668291687706612)
(0.310584331122478408 -0.070364264137634816 -0.810513700485612332)
(0.0437598101611160195 -0.0934262659517503952 -0.0322892274167202661)
(0.0241260460547185022 -0.0917401486964034701 -0.0288171586528540059)
(0.0216173781649956522 -0.081609148315131344 -0.0288041412384818507)
(0.0218381697736364337 -0.0746577661313031909 -0.0309575089320963774)
(0.0846057562683802528 -0.10629219829183148 -0.0352034711520498797)
(0.0685739758194040122 -0.114599332712934765 -0.0320570824104642743)
(0.064103129391540864 -0.105270428733155827 -0.033188599588802041)
(0.0648893542129882345 -0.098696336004481966 -0.0342304207354657969)
(0.122220517393746772 -0.103199546400048844 -0.0384083188331847403)
(0.107318236925897925 -0.115108057758930099 -0.0351700654316217873)
(0.102682593374891995 -0.106312212436287717 -0.0363937360195166273)
(0.104401046419490162 -0.101600338871406168 -0.0368308960315807954)
(0.157272788855264273 -0.0934805741197689555 -0.0431365548115267838)
(0.14288871609435172 -0.106697336272637916 -0.0394307910812506796)
(0.138118914173958329 -0.0980923477822810003 -0.0404952138480993221)
(0.141317573592686929 -0.0960408062195156065 -0.0403347575718031315)
(0.189723111906139469 -0.0807731541572176415 -0.0501442669687306303)
(0.176546961421992943 -0.0943535223443147109 -0.0455079010756117147)
(0.170901517723921093 -0.0862647801003953024 -0.0463227104205808024)
(0.176274703108510788 -0.0865257188943689137 -0.0454593343966318356)
(0.218684336584294842 -0.0665197667720962837 -0.0602347379182869777)
(0.207708163116553796 -0.0798099240839529322 -0.0541584387941662013)
(0.200483749506782244 -0.0728728375506119824 -0.0546188292926387264)
(0.208757147989592579 -0.0744525294542433269 -0.0531113682399649567)
(0.242516850944608814 -0.0516967456658951122 -0.0742818371076105766)
(0.234807107709630591 -0.0639021970700035663 -0.0662303464084082472)
(0.225563664036153966 -0.0587830306436809003 -0.0661768683756388393)
(0.237473577458575807 -0.0605035047648772861 -0.0643417485464539141)
(0.259462125415005906 -0.0376834503486760813 -0.0931657328605033364)
(0.25582920239494561 -0.0476489893003834222 -0.0826589686590051276)
(0.244433733341191367 -0.0448611441059506913 -0.0818245435056245279)
(0.260710617920260901 -0.0456223415836120999 -0.0802180822466155158)
(0.268499927360443535 -0.0266604569649799839 -0.117732142994550121)
(0.268943725216121643 -0.032971620776126441 -0.104358831283948017)
(0.255606302166514587 -0.0326753359344890137 -0.102330841404248737)
(0.277006652532110875 -0.03161552756217164 -0.101733127926719305)
(0.270107348821483295 -0.0217432993271362666 -0.148659443823412063)
(0.273554599939432097 -0.0229283077967084269 -0.132206354638889134)
(0.258742219849481869 -0.0246797473911788134 -0.12844769675224299)
(0.285921880359115643 -0.0214113969256239794 -0.129941217790331215)
(0.267080978996307172 -0.0253759887525309633 -0.187062334880899517)
(0.271051366530251692 -0.0215180253138437458 -0.166682832690025734)
(0.255011312413869207 -0.0239507963633567092 -0.160713243575944686)
(0.289167142275232381 -0.0186221013292770243 -0.165509136552577041)
(0.262227884245771647 -0.0388648455476965221 -0.234051765753048091)
(0.264937816226909983 -0.0305137840993477648 -0.209303353833052513)
(0.247605782921055284 -0.0319726070254598843 -0.200577102744351976)
(0.289448625667381498 -0.0259991453560215503 -0.210476813754511244)
(0.259425484977881704 -0.0606557891917603315 -0.296820481802507641)
(0.258689947712918533 -0.0512381173670036633 -0.260510087045588867)
(0.238117209134243363 -0.0497672183269639717 -0.248697733421351458)
(0.294916903673036135 -0.0446579075652833654 -0.264608173634468591)
(0.248745460791090472 -0.0987047644952061959 -0.377100297674928808)
(0.251120949236171231 -0.0788156886675332735 -0.333611268096995872)
(0.229108925395538343 -0.0730367236545314269 -0.313568575891519541)
(0.296548191869525968 -0.0712634603574786724 -0.347079808350946872)
(0.220548461824558006 -0.0898663184683963917 -0.568646601506033633)
(0.257651608883022631 -0.132724198567639701 -0.418377336985339243)
(0.21714294887790464 -0.1199963071895018 -0.382111603210874062)
(0.358920418121355556 -0.127852767634706044 -0.44265100688390091)
(0.106118783747230244 -0.062941616561165592 -0.706610791855415754)
(0.117964596961515025 -0.0394790295408520495 -0.565642449024109428)
(0.292581093686652527 -0.0844881780542975497 -0.789650917498666005)
(0.0498490672612696833 -0.113181047907579477 -0.0285850136465980106)
(0.0287271952232430461 -0.113797828010007401 -0.0245135941983289571)
(0.0254683714175777468 -0.102956286735646343 -0.0269501232695774813)
(0.0255802661661424964 -0.0945572677157034691 -0.0267552147002128246)
(0.0915132667899106467 -0.123639677286074237 -0.032023676690036175)
(0.0755305925534495437 -0.132692071901118008 -0.0291685073896733212)
(0.0708880777890470576 -0.123750964756064161 -0.0311105571306139646)
(0.0720144394913740937 -0.116884359631297438 -0.0302612116662538191)
(0.128148993828205909 -0.118943669433898197 -0.0361925376796877335)
(0.113233648731768943 -0.130917799991423972 -0.033379335560306575)
(0.109132944786069386 -0.122754429046855074 -0.0348137325097248873)
(0.111572304027571748 -0.1183371255371473 -0.0338681460907675133)
(0.162607053157326598 -0.107927866973980519 -0.0418021373453356104)
(0.14773062695838507 -0.121330896291300214 -0.0383162100327149313)
(0.143702362975164921 -0.113209486677072632 -0.0395060823234236053)
(0.147691425601760407 -0.111670885587375812 -0.0381438385177340078)
(0.19523105629748097 -0.0937148611656240804 -0.0495220729010472996)
(0.181414113760541035 -0.107850117759057146 -0.044930681972609722)
(0.176371076838844482 -0.100210962727594818 -0.045834403336151068)
(0.182337863430082653 -0.10091452199836054 -0.0438285048999814478)
(0.224851483271620994 -0.0774266241823831913 -0.0601540472842874777)
(0.213454586837012045 -0.0917196574983265567 -0.0540104290980765386)
(0.206519986116605714 -0.0853573218857962834 -0.0545059798388936798)
(0.21508132314383327 -0.0871283647714751613 -0.0519962023908916923)
(0.249292033100644933 -0.0598978453085489485 -0.0746074779598027843)
(0.241699471326804444 -0.0734807793444387097 -0.0663735912057075161)
(0.232323835425655156 -0.0691851616251065726 -0.0663311881508624329)
(0.244291658382995214 -0.0707253130134533892 -0.0637634390630481551)
(0.266105128758980347 -0.042673617418940768 -0.0938520670824497943)
(0.263397113884557887 -0.0541178344245796319 -0.0829466749096944705)
(0.251451168976155326 -0.0524735570367996923 -0.0821966617599688559)
(0.267732657269216912 -0.0525829218419575639 -0.0801893938891027336)
(0.273545158580404568 -0.0286717736909475537 -0.118833042928286961)
(0.275955985321660158 -0.0359341163846082431 -0.104773170265614654)
(0.261734890673233245 -0.0371111597519108161 -0.102981147847426846)
(0.283260816882819455 -0.0348220901086766302 -0.102292794852258853)
(0.271929376458824756 -0.0221142353471063813 -0.150229743505502888)
(0.278153439301766836 -0.0230735686223900727 -0.132942293200512679)
(0.262409149679321607 -0.0265575081540445242 -0.129483834135147913)
(0.289904975784534613 -0.0214154911786239577 -0.131210624043238244)
(0.264460996674426962 -0.0263581010892220899 -0.188923851642178869)
(0.271467378584752117 -0.02089172014840689 -0.167926215876242124)
(0.254803206489922773 -0.0250271771952451406 -0.162158794475517565)
(0.289316262627142828 -0.0175048204114801563 -0.167544759112829567)
(0.254923690184896912 -0.0429243746784903207 -0.235761675125593512)
(0.26015336250280946 -0.0317212292074068453 -0.210811324365989816)