/*--------------------------------*- C++ -*----------------------------------*\
| =========                 |                                                 |
| \\      /  F ield         | OpenFOAM: The Open Source CFD Toolbox           |
|  \\    /   O peration     | Version:  2206                                  |
|   \\  /    A nd           | Website:  www.openfoam.com                      |
|    \\/     M anipulation  |                                                 |
\*---------------------------------------------------------------------------*/
FoamFile
{
    version     2.0;
    format      ascii;
    arch        "LSB;label=32;scalar=64";
    class       volVectorField;
    location    "0.179999999999999993";
    object      faceTraction;
}
// * * * * * * * * * * * * * * * * * * * * * * * * * * * * * * * * * * * * * //

dimensions      [1 -1 -2 0 0 0 0];

internalField   uniform (0 0 0);

boundaryField
{
    inlet
    {
        type            calculated;
        value           nonuniform List<vector> 0();
    }
    outlet
    {
        type            calculated;
        value           nonuniform List<vector> 0();
    }
    top
    {
        type            calculated;
        value           uniform (0 0 0);
    }
    bottom
    {
        type            calculated;
        value           nonuniform List<vector> 0();
    }
    left
    {
        type            calculated;
        value           uniform (0 0 0);
    }
    symmetry
    {
        type            symmetryPlane;
    }
    interface
    {
        type            calculated;
        value           nonuniform List<vector> 
67
(
(0.000438181326552768765 0.00130040893651033941 -9.4189747727637787)
(-0.000190276594982925388 -5.58752302420285164e-05 -6.51171486604723526)
(-0.000185096685063450023 -4.28892827532168048e-05 -6.42560456250194534)
(-0.000148439542385571453 -2.92293975367007262e-05 -6.54942148955647063)
(-0.000137352245866078428 -2.89528664120793559e-05 -6.44064672460992149)
(-0.000136591662975993583 -3.48336611425479996e-05 -6.16999777777139169)
(-0.00011832885041924728 -2.4398968822469287e-05 -5.74844056712266926)
(-0.000119597293083853194 -1.11790112221243439e-05 -5.30095725046036659)
(-0.000117027242428875155 -8.60687059499738932e-06 -5.13020359094217682)
(-0.000110826952327064659 -1.00103025460182394e-05 -5.01206887889981445)
(-0.000106483362071171117 -9.61489507838856724e-06 -4.89366915080297016)
(3.27420394004328097 1.76564275108517773e-05 -4.7802890770547331e-05)
(3.44094278264237463 2.25771238983305913e-05 -4.21590661619441017e-05)
(3.63568674308713069 2.90288131429503094e-05 -3.52024350972685637e-05)
(3.10646036174666929 2.55388855380910215e-05 -2.46700830748885102e-05)
(3.30783598548946367 3.16207841661660414e-05 -2.16196125722486846e-05)
(3.55125660143018429 3.88820371818365194e-05 -1.80955672751680818e-05)
(3.01982340637184343 3.1188178115596308e-05 -1.57302934271567553e-05)
(3.23378037686639752 3.71408739241424645e-05 -1.34856076018751824e-05)
(3.49229439444240164 4.49948163367436084e-05 -1.13866375206899279e-05)
(2.98217124591138472 3.46733387441164074e-05 -8.98875577156301432e-06)
(3.19941248851097226 4.05986403738327979e-05 -7.62733109235526291e-06)
(3.46139026740128175 4.85293793923874021e-05 -6.34651178777541103e-06)
(2.95144422471661771 3.69104924041012755e-05 -5.90449105989839431e-06)
(3.16950773256710239 4.28673873341201827e-05 -5.02453993726388745e-06)
(3.43240901827518696 5.08432726600853405e-05 -4.20618360967360613e-06)
(2.92992171444842153 3.83246182756742096e-05 -3.65614523379361534e-06)
(3.14774442447135527 4.43219077992178009e-05 -3.11467998123621348e-06)
(3.41006748341197907 5.21800572016200328e-05 -2.62235290518048475e-06)
(2.91491329527530185 3.91859293792884785e-05 -2.04138856068514977e-06)
(3.13225134716893461 4.52313197838150434e-05 -1.73860526083538771e-06)
(3.39374297653076029 5.30301248939863193e-05 -1.46075186588726028e-06)
(2.90718403753491428 3.95839160048758293e-05 -6.63062272087170694e-07)
(3.12423707709868514 4.56607665623666835e-05 -5.62045417287091843e-07)
(3.38527493133380197 5.34516285667501295e-05 -4.67238967070248947e-07)
(0.000285778851905572927 7.67758357618614529 -0.00053399683248347117)
(0.000379752804289359416 7.12448030668594612 -0.000549766674012008567)
(0.000223957470091257584 6.63269211761384891 -0.000314086637367145432)
(0.000540201469292793022 5.85398016153109335 -0.000514801706274089512)
(0.00050564057263903831 5.73254685976681078 -0.000282628576477213884)
(0.000362982998073166244 6.28502088607865872 -0.00024709460590153793)
(0.0001193486821978245 5.46205304796973312 -0.000100648061531939296)
(0.000718195173116071856 1.9116105562195338 -3.05319904992737157e-05)
(-0.000156986657069587993 6.14553711215950216 1.33767313875918446e-05)
(-0.000152995743254252965 5.94636507268657954 6.44660174911348518e-06)
(-0.000149766825842548469 5.88999537410554996 9.10607342615197793e-06)
(-0.000153201380876965383 5.93357828536869558 6.6954617194115219e-06)
(-0.000153997076670365785 6.01953269684519299 5.99088158648956854e-06)
(-0.000151598433512475044 5.99943406681184399 1.73410485467344972e-06)
(-0.000151837688558325716 5.95583064350205849 9.76586098521331698e-07)
(-0.00015218535184214794 5.88068849918335079 1.11734719766143869e-07)
(-6.65134511075200232e-05 5.25362721601163507 1.37749463725896409e-05)
(-6.15756128216435073e-05 5.35369393665890936 3.7891593174485537e-06)
(-6.07799222368641824e-05 5.36369571226131203 3.05575933513109911e-06)
(-6.09439479845959832e-05 5.38058424460364115 2.5293532632069859e-06)
(-6.10286200949839049e-05 5.39728887594355733 1.27471825793975076e-06)
(-6.12140781959805478e-05 5.37683749841199532 2.35437699101557782e-07)
(-6.40785177285707001e-05 5.34050906573328543 -1.41726074001403439e-07)
(-6.65238200124965173e-05 5.31164762237586796 -2.81798820422632333e-07)
(-7.19808556289884766e-05 4.75088718679342481 4.96320658946712623e-06)
(-7.27402522861912308e-05 4.86426826648057364 3.07383305143980052e-06)
(-7.23957998053110922e-05 4.89987463435388815 1.69809448019453613e-06)
(-7.32356808950304617e-05 4.91733287791047324 1.48279537700919357e-06)
(-7.36909294696267878e-05 4.91964200149797293 9.45024873568862109e-07)
(-7.34082563310535231e-05 4.90842485640698722 7.59331375695976555e-07)
(-7.32754998328135856e-05 4.89250991677867297 6.57431912733612356e-07)
(-7.35136785299092332e-05 4.88160251186308702 1.873195230839555e-07)
)
;
    }
    procBoundary1to0
    {
        type            processor;
        value           uniform (0 0 0);
    }
    procBoundary1to2
    {
        type            processor;
        value           uniform (0 0 0);
    }
    procBoundary1to3
    {
        type            processor;
        value           uniform (0 0 0);
    }
}


// ************************************************************************* //
