/*--------------------------------*- C++ -*----------------------------------*\
| =========                 |                                                 |
| \\      /  F ield         | OpenFOAM: The Open Source CFD Toolbox           |
|  \\    /   O peration     | Version:  2206                                  |
|   \\  /    A nd           | Website:  www.openfoam.com                      |
|    \\/     M anipulation  |                                                 |
\*---------------------------------------------------------------------------*/
FoamFile
{
    version     2.0;
    format      ascii;
    arch        "LSB;label=32;scalar=64";
    class       volScalarField;
    location    "0.179999999999999993";
    object      p_rgh;
}
// * * * * * * * * * * * * * * * * * * * * * * * * * * * * * * * * * * * * * //

dimensions      [1 -1 -2 0 0 0 0];

internalField   nonuniform List<scalar> 
7248
(
66.9226545247124562
660.280283860521422
14.3848370555089886
119.57247932579331
115.966531958032562
4.6433808832704937
1.9813858967639113
2.0572660083389791
8.75876055248830632
22.2698881892229252
-0.984092196248287587
-0.560306255507405315
-0.123187371550473879
8.94173555580118773
0.056854074753576983
-1.00288129419354788
-1.01446298598703111
-0.91646334548342423
12.2839648159341746
-0.986236777022450495
-1.01574212335148162
-0.914018609996382181
-0.303504813790579531
4.75604641316999555
-0.78887708845778548
-0.871237077776081281
-0.804269369350486429
-0.399135453475543023
9.34138845557216335
-0.717312157434384701
-0.824074483687709192
-0.86993347962568901
-0.744674787818241035
0.325837235373896472
-0.658489053291145376
-0.751422347465326212
-0.83927225226449631
-0.87139132027006494
-0.707737234061785903
-0.582961246119413024
-0.664562490259750005
-0.750755918185805227
-0.818471909325717784
-0.790901763367159893
-0.492337822281537552
-0.55201419326923129
-0.618710732126515395
-0.678885608690091735
-0.684562469854016253
-0.395006115098749278
-0.429356941998434327
-0.465486088269485954
-0.495079395263018918
-0.491342322404880627
-0.274838772611092796
-0.286923849629656891
-0.299822067461364306
-0.312072385983672373
-0.320796054425464106
-0.320352441456916326
-0.298499397448727943
-0.212550211887423041
-0.214068108775722882
-0.214165647620374044
-0.211296442008259727
-0.20283997756345537
-0.184650595285630353
-0.150465509233047301
-0.155384647486940003
-0.149422263155593676
-0.141453870996039094
-0.130526750262252994
-0.115240491013021182
-0.093674845069689483
-0.0636125107272069445
-0.10492889985726693
-0.094095406597527409
-0.0816988129726892998
-0.0677131981396883603
-0.052248635201188956
-0.03563756646892937
-0.0185951880635619148
92.5816214790004608
488.005876004415825
22.3695090459808092
56.6825889277103343
139.602881684233125
5.77699175827789713
2.54793084664828928
4.74439449974329008
17.0060701574949924
27.979980896678633
-0.752806815983017685
-0.451140229781021307
0.410677620638109531
10.4520962636822805
-0.294381985032607096
-1.02176960818288642
-1.06293688425624855
-0.991620116566899856
15.7574281277321511
-0.979995835742055066
-1.06743327272834554
-0.991268434136049925
0.190189412262280949
10.0712160639304944
-0.820829475063067915
-0.906105291900292431
-0.741456075326717534
-0.0472939864994290915
6.94527129463032811
-0.754363744024929561
-0.849363276615732854
-0.841510523504240604
-0.379487185792433457
9.54357705818494217
-0.699199679452239375
-0.79510314464276477
-0.86805670881826702
-0.74739138942562755
-0.379955716765499496
-0.626229394766461001
-0.716631544649220853
-0.807853872974306553
-0.86455649148638869
-0.318802015774253045
-0.533875775595335167
-0.604576310546704132
-0.682874038996456045
-0.742387521830354946
-0.692050027555732972
-0.429737728236032679
-0.473406164774482496
-0.520709950561694113
-0.558121768049389844
-0.533682314799365565
-0.32546396711523784
-0.343550410360037084
-0.359307275329416032
-0.365643009350732906
-0.342381720526785283
-0.230725016428946855
-0.23044562471353619
-0.224425113815482413
-0.20764334743255905
-0.17133570904650447
-0.15036063866964694
-0.140078088001889423
-0.124830365576732674
-0.10206463363453333
-0.0685368901942956105
-0.0844347437982697763
-0.0702351187877920391
-0.0542331066577817489
-0.0366812978989320346
-0.018339556104259129
113.899554597426686
581.812194506418336
29.9575492061772195
70.0999786865304628
119.793265048161857
5.22406276389833657
3.57330941722464024
8.35928287112659163
24.9935348072897554
22.7937368160578657
-0.591337878027114128
-0.0954638566850032205
1.71232021420926062
11.7735126160850481
0.0760944964620587777
-1.06207643612727431
-1.04969179116673472
-0.64071755115799367
20.1744092684443039
-0.998993047986465377
-1.09775770208348233
-0.715180710090419502
0.439977197696226452
15.1430097357486293
-0.838352401303366634
-0.942543052864612374
-0.757264503530654443
1.15400250863354992
4.36385006770332406
-0.779559543487506335
-0.880954113655261328
-0.810412895046670134
-0.338631975674468955
13.8090908211927594
-0.735491213572926905
-0.830530839243505348
-0.882712142602118277
-0.565076163534366294
3.21109557416197511
-0.666743622746904241
-0.764727922903005508
-0.853238406504372437
-0.847136611442184662
-0.365835733905273575
-0.573681556677760329
-0.655100482721227784
-0.744269037113386545
-0.799506374112653795
-0.245434079346089573
-0.46347596192669821
-0.516489925490652091
-0.574323675383775267
-0.612728325739305912
-0.530297318370863913
-0.350456107376658221
-0.374573489297927997
-0.397409805352372414
-0.40902547765820052
-0.372709997180617481
-0.24680948346005227
-0.249259698780619043
-0.245972917985929018
-0.23093688889938857
-0.191089374279814594
-0.158932874721260053
-0.149329121332121034
-0.134169083639316955
-0.110225758733865364
-0.0729349104738842985
-0.0869943651768951137
-0.0725766452579559157
-0.0560323535390458496
-0.0375651706225050425
-0.0180688540906122387
145.745155501156546
631.602311635204842
48.7974770868723127
83.8235379268890739
127.132519582792867
5.57038515716111071
7.09573998241324233
18.5867765897076005
47.9053891503288369
27.834373898085726
-0.399886120285568081
0.921722192128625384
5.46639020352148464
19.0955172076948934
0.0518186520144041166
-0.936938419683803425
-0.900329731064570593
0.62452842029916289
26.8261423891178801
-0.985831932233024122
-0.981624710741541451
0.847834135620030738
0.454385712552021814
17.6605380408394481
-0.859270576401543695
-0.943930420416512539
-0.737780437182631865
2.46090148847995316
4.44848097036044265
-0.809502891231553834
-0.90655542496516095
-0.873678509225016775
0.265671239314716756
4.9468114709264146
-0.765648226129369447
-0.866822245198370811
-0.901215086572853874
-0.504151871601883905
6.29111908543846798
-0.702884041973600548
-0.80698154712406911
-0.894159890786609957
-0.797094355044065894
0.339422282498388406
-0.610492054926914718
-0.701814096587539793
-0.799962370138933565
-0.85553387756747945
-0.387747398525382092
-0.494701115193902363
-0.556737873902412361
-0.624598250791795651
-0.661692943864938932
-0.481605458237625461
-0.373647111054223546
-0.40363026392193696
-0.43301598798626223
-0.444788228651815276
-0.372606099597166784
-0.261718056996138704
-0.266915362299919523
-0.266573608119163863
-0.253443526912880912
-0.207727294745401719
-0.166815825370237841
-0.157893239226110149
-0.142906528806625688
-0.11795717592068547
-0.0768592170470651648
-0.0892744127030694196
-0.0746551910531926266
-0.0576189885017529477
-0.0383795426509207019
-0.0180064210150669181
173.542098075083004
819.644248829754247
62.5759145587778249
114.005230784904114
81.5656233067674066
3.13649568470897933
8.5469785197406587
23.0239225917792112
61.5781540187196725
13.660586752067335
-0.282842883204842577
1.10445515690463969
6.32337958127421818
23.6585730989414813
0.0478399466729575798
-0.920311704501344807
-0.705632108263467561
0.957432953522791452
28.1542789660699633
-0.950184034798788657
-0.84286727446820453
0.988451592048502414
0.00955621982353802545
16.8412189268994581
-0.864947340400072817
-0.926396940301406069
-0.760844057064791301
0.596670459807472464
1.60679965787556212
-0.834800940956990756
-0.94092348754234989
-0.775069318144770425
0.704878195416099418
-0.0559427568849031956
-0.796715942489300999
-0.908175460619702557
-0.976338068688580307
-0.450382228224754211
3.55817425738093629
-0.734152376002689011
-0.846994900864542877
-0.940495283488355982
-0.821147884910339299
0.638724203408031155
-0.642040677064520726
-0.741313043746582911
-0.843691652328674047
-0.88650571984904647
-0.310868289690415245
-0.521830358412108897
-0.591849960894242133
-0.668613055730483352
-0.706528117566637359
-0.405569162795774485
-0.393787921449661293
-0.428911360208103443
-0.463187160077392635
-0.469245310925566539
-0.336472484302942521
-0.274718133124289277
-0.282461019309969252
-0.284943800718683582
-0.273146023073428945
-0.216134067453188916
-0.173654164849493448
-0.165378715531005915
-0.150647824001278602
-0.124968557952445436
-0.080275732817776807
-0.0911962936628349929
-0.0764171605033479168
-0.0589878032140092601
-0.0391877487822625686
-0.0182663112141301862
176.11203687205284
854.326896970513076
58.3084775161454019
99.8477027693006676
111.67382848447329
6.09660507411967956
4.24212994932244136
16.3482874859817855
54.1569059046266688
22.4317068696259163
-0.412031353729188199
0.115320698638263011
2.40331339001363631
14.768964522885879
-0.619113445245654259
-0.853238262333059549
-0.768406111623221144
-0.277010004514128438
24.7160577680508986
-0.919251122549038402
-0.974793780007186639
-0.661068373082759786
-0.655048943316350107
15.3765892960351493
-0.869092323965697577
-0.905185550132543648
-0.516755756336016447
-0.566837979639153611
0.224075049471270854
-0.854239028257048116
-0.969012778146990272
-0.796281555016823295
0.213535641358092915
-0.650327012111860392
-0.822086961537698335
-0.942548587998708332
-1.03629356585433374
-0.640396526502007735
2.77963694420895635
-0.758915954574455487
-0.876054464698938551
-0.980436788296460082
-0.921243314975728866
0.321609608393789548
-0.666133963310252986
-0.770794959872346142
-0.873338570767035471
-0.901983511910117275
-0.402741475496228574
-0.543121645001989339
-0.619087016525713074
-0.70135223746368669
-0.734611053346069021
-0.373865787190546306
-0.409828577429825924
-0.448898931047223559
-0.486093630396429888
-0.481523136294503107
-0.283374548584813146
-0.285117457478128278
-0.294925663711619712
-0.299519699208238233
-0.286916255254976549
-0.209307658068202507
-0.179128968915840014
-0.171415481204528736
-0.156965209835397523
-0.13073066920084811
-0.082045962631474928
-0.0927022980542107772
-0.0778193092840650247
-0.0601169546217258932
-0.0399757458108319641
-0.0188433916134943084
187.102220379579563
904.421067748273913
64.2734146801494717
125.502826256855371
124.264473333978529
7.61787400367417078
5.97089553413612517
20.2870113487787762
60.939982046021548
31.6877911699849157
-0.19904557668624337
0.90782366623407007
4.12455024580490015
19.2308057006252824
-0.792496311288293009
-0.677959915781862654
-0.549129770956371166
0.26172670709134932
26.0803803065018194
-0.862167837233238643
-0.765082916226739851
-0.133902435285530919
-0.310700881573423737
17.7962848278780967
-0.862322701770209421
-0.870376015148332072
-0.463763106016545856
-0.623231796178185138
0.513255987526928026
-0.862488126115114939
-0.966998500523456372
-1.05999572857371804
-0.729364218332062442
-1.10126441843424172
-0.836308638306019869
-0.962960331331212616
-1.05225958636191352
-0.711628625357894506
1.20622509682308965
-0.776481284599616628
-0.896123879739002649
-0.986913243990935829
-0.913908634111640583
0.0555242037823614198
-0.682225521654620581
-0.787998358278862443
-0.886074856742742667
-0.901117936966162381
-0.322799125602670989
-0.557463242456017083
-0.636123930734510457
-0.716895126826416873
-0.72990890754439397
-0.334624515193298777
-0.420943262003663221
-0.462299688743433024
-0.499669154062573118
-0.480633390409588301
-0.214418768822877165
-0.292425187145205212
-0.303669159549470935
-0.309349408107423063
-0.294065712180201555
-0.194704669900158611
-0.182996775868097566
-0.175743143592837714
-0.161585705180844225
-0.135113892597763185
-0.0837739399675461321
-0.0937567736053487311
-0.0788339656309469394
-0.060988857953732073
-0.0406690858490535156
-0.0192985233572546648
208.983276373601427
800.126032328072938
81.3591793780665853
258.789806018720526
102.791599133899879
4.1120951933075105
11.4611034561532996
29.7223342601137723
80.1135440854821042
17.3828551647812901
0.359045054219747639
3.82837282433448811
8.91371016336286992
38.3570224653062439
1.01020022197841852
-0.207184469587009173
4.61814515436109918
3.4654801276336431
29.4303711310920093
-0.772141200340410894
-0.578489276126822882
1.09932007733565973
1.9505156941888544
23.7472166413680199
-0.815389033986724132
-0.760497666424593377
-0.79085910208067689
-0.613608179097151707
1.23006471835897124
-0.855742003131820805
-0.972022850254571247
-1.06596762556591984
-1.14879328719632823
-1.34144897049146827
-0.842232805839459142
-0.974008395865768373
-1.05164712933447824
-0.906402617058334026
0.798240341599997794
-0.786087056908493231
-0.911018560010986023
-1.02018681447171811
-0.978138670251857301
-0.0988034203289947094
-0.692599503126158145
-0.805568174105517065
-0.925461651055758949
-0.983619225211060932
-0.471404883782281625
-0.566035827180067064
-0.650516143830127236
-0.747908789843729771
-0.808385880090558784
-0.649495962977145624
-0.427219334530254735
-0.471830197046675337
-0.518109167933872183
-0.529633680743815671
-0.370048247613189996
-0.296382530597516736
-0.308864515424855879
-0.317009215891144946
-0.309600650797446919
-0.240857294062233801
-0.185060352430761743
-0.178187948355801956
-0.164580218393504396
-0.139183276589260635
-0.0908824168061174442
-0.0943190617888695626
-0.0794231858699868676
-0.0616151201913737318
-0.0414437515619893518
-0.0205272232000943931
15.9944427311639892
9.32020682641096698
5.04101158749694456
3.67355514925835669
113.838721247686607
4.13322719060392174
0.905169821590916857
0.829114707043725474
1.29625085282567976
18.4833968365332275
-0.641654395753220808
-0.605668218412333981
-0.34394652832033823
0.173854620197408355
-0.781068089893347306
-0.753515842449415496
-0.812044526243196785
-0.759226718425277558
-0.510367053089782252
-0.695690931288249104
-0.752347211101790703
-0.800247697218695708
-0.777338708158469172
-0.355793807896873537
-0.548859927030798223
-0.606398648497464499
-0.654820288411517515
-0.659463785428612392
-0.558256695740087627
-0.448642092158779149
-0.487354072533957849
-0.516962855308209179
-0.52306823601295771
-0.465341226250578111
-0.379342133260912651
-0.398603885071437125
-0.407803219504493275
-0.399191105588496131
-0.35076468730882876
-0.317075558593652995
-0.323550393815524862
-0.321015492907039568
-0.303932423194608226
-0.25727015742242948
-0.262518691617306399
-0.260343178315047608
-0.249024643907067467
-0.224879155118118568
-0.183872302626841011
-0.211861113560915471
-0.203809297017892882
-0.189025077523794383
-0.164992938105147285
-0.129839632152590118
-0.180298212989090767
-0.175434232169272591
-0.167672827917729833
-0.155973067404776899
-0.139463851403008765
-0.117133914000711631
-0.088595965982657246
-0.147266151284462521
-0.138846860132080835
-0.128221259758659389
-0.114930077626879054
-0.0985963172488711209
-0.0790809657011716377
-0.0568100052381854681
-0.116933617011513558
-0.106336311194811781
-0.0942112513243645172
-0.080567417914030659
-0.0655491834099384968
-0.0494874660420264317
-0.0330066927826812434
-0.0904136220937216128
-0.0786781831316600844
-0.0661220390714399725
-0.0530693462616155312
-0.0399897916842603257
-0.027486791714567381
-0.0162283149424637674
11.7896637037576983
8.495569420418974
3.67878802048274256
5.32622789547103981
110.605395432640123
5.2070527376064808
1.13927420120016309
0.889245452520293078
3.39272887495959852
24.2825587118546622
-0.631057620774965744
-0.619341185970968322
-0.180865100944376606
0.909556064119343533
0.328187796083602934
-0.77457227369840187
-0.887400648426263872
-0.762752788917821944
0.451327421703595688
-0.683244598172788709
-0.757403809206081857
-0.803946320518227564
0.163608522565504066
2.59325923284128868
-0.548539486904562335
-0.608950390437316913
-0.6490556884677251
-0.629279314061987671
0.470421936391251905
-0.459196133632924497
-0.49927158276820699
-0.536794621931951044
-0.554059389614092512
-0.458511280391911302
-0.389453916989729365
-0.409930902063111724
-0.424182951523180973
-0.425114906512944812
-0.38879100213299056
-0.326849256604289484
-0.33572036175308434
-0.336266688861454721
-0.32318800960201477
-0.283968599169482472
-0.270006275372075888
-0.269213875309751438
-0.259820467206410555
-0.238818736749114996
-0.200355872413796238
-0.217922824406960647
-0.210679275575611308
-0.196659577559199245
-0.17361811263010124
-0.139246635282972708
-0.183806437116817656
-0.179235746600607426
-0.171849564706140295
-0.160595870225663295
-0.144385494349411475
-0.122212270914510215
-0.0935945169879029287
-0.149572771666465737
-0.141412324402748868
-0.131000924373103594
-0.117830606157722853
-0.101501274096058566
-0.0818464648077478901
-0.0592343211654747237
-0.118208642008759149
-0.107750100852519931
-0.0957195815518000898
-0.0820908917630078228
-0.0669780290495858022
-0.0507042482182765292
-0.0339166703139485437
-0.0908228277222554448
-0.0791500548537665133
-0.0666173080878592894
-0.0535241354659850704
-0.0403407409082294013
-0.0276904075344796066
-0.016300821814733947
12.1420238859761227
7.9316144526504333
3.24804307829208305
3.87758786269760369
106.619379475973815
2.82145396195792619
0.425017846548792821
0.854215304289432376
2.45865228669391556
16.0887028381435933
-0.609978484779780228
-0.436646299375491875
0.019346441123501399
1.07870698136438592
-0.340125201466025595
-0.767336644903922838
-0.900959766792313821
-0.572575241341597985
0.62726310720583367
-0.656720242214749561
-0.759411838266963346
-0.682144730992937709
-0.204593815549737906
1.21894287022909986
-0.55410193126525642
-0.613448693471888684
-0.614710031939126322
-0.471349878818704326
2.03159627299082768
-0.479112553399061614
-0.51766527631261916
-0.547546319585784924
-0.556778457252547043
-0.101501056828374819
-0.410229480777101529
-0.435872727864829335
-0.459802489027276273
-0.4776786444813233
-0.462834892254103514
-0.346896664499303287
-0.360606826166433858
-0.368515956603088779
-0.366919903960700899
-0.34161445039076338
-0.285815226838859293
-0.288583321363074963
-0.283994493855857122
-0.268843557326194305
-0.235626400537372022
-0.230027024970784949
-0.224982482208879259
-0.2133852292190212
-0.192611126578328129
-0.159195969565005951
-0.190287583912235103
-0.186637609755099826
-0.18034281091944887
-0.170273299936333999
-0.155125816994878318
-0.133507701243241211
-0.10427795621427699
-0.15395203282594544
-0.146362820102485053
-0.136518372996340231
-0.123844540567087838
-0.107791924301207917
-0.0879554326150055049
-0.0644030722402964967
-0.120766802584893154
-0.110576242612418565
-0.0987686569573128642
-0.0852634239724598814
-0.0700869845713584239
-0.0534601680115131123
-0.0359316586264433538
-0.0918045210942329271
-0.0801814182343662252
-0.0676510734378217848
-0.054491001966170613
-0.0411578784620047766
-0.0282713006939345098
-0.0165696403103478308
12.2978004684370301
11.9064209209651342
3.01796502101692843
4.80230744032298063
116.881226400083889
1.45834316565736932
0.232541197677240463
0.701490623295642712
1.71310526518593109
16.0263449027426077
-0.641442252030342663
-0.428711538183916718
0.0635069560356387314
0.347935790337319639
0.295183401588216987
-0.8357347839267667
-0.833105613021027036
-0.425201339264342337
0.869996644337137859
-0.828396409777619969
-0.857514680992433331
-0.723146113507211141
-0.072403670020067562
1.97293515558652333
-0.619038080775031974
-0.667710913961298225
-0.635409443938785179
-0.392291741707384678
3.01143674551012941
-0.526364842720352666
-0.575697066719943917
-0.615257474451362696
-0.613336901197180207
0.180848619759798823
-0.447716970481849053
-0.484321048280362099
-0.524183799132725059
-0.560599752461974798
-0.5635312226182696
-0.37655189262303651
-0.398924755961011512
-0.420082794778983359
-0.435971254988828438
-0.431395179731807021
-0.308906745016560791
-0.317680850401326986
-0.321301357548667343
-0.315716855783677586
-0.291622066051310247
-0.247715336799787161
-0.246299834472836682
-0.238878056735548017
-0.222111265774392885
-0.19093544110329283
-0.199499494306317832
-0.197387890379721542
-0.192865526110691826
-0.184733304581172181
-0.17141885483873387
-0.150920047814537328
-0.121061627960903834
-0.160285977726495665
-0.153579992288306905
-0.144648536270261752
-0.132804834320522425
-0.1172771755778476
-0.0972887034001234385
-0.0723931651964182937
-0.124500822559681854
-0.114730475780846886
-0.103283051875752527
-0.0899936006204117289
-0.0747641278663734865
-0.0576444403061215915
-0.0389984838555877331
-0.0932652221496227396
-0.0817143535169446711
-0.0691867330510081979
-0.0559404212473058327
-0.0424017770649914444
-0.0291727329362936466
-0.0169905312456760903
12.2737185356935754
24.104277741266273
2.54643998446097353
7.99712915833444704
79.9664342548130236
1.16867525802415684
0.209093829405532783
0.535658893330588692
1.42912361123475762
12.542339179617354
-0.610997437453548398
-0.440895371032463179
-0.0664343462768354209
0.141057685692838164
0.067946079239893542
-0.868545352614470745
-0.820201978149809219
0.0300988685485248132
0.803522409203342947
-0.875274268328772642
-0.911221323974411579
-0.793733613914885505
1.41144600941411213
7.44454790111091569
-0.669506374281158889
-0.738974640239125402
-0.714765100538782949
-0.479971223027326144
2.85241624692146578
-0.568957637891567169
-0.642414817689406892
-0.695029425323864025
-0.679103991836859988
0.438280272212133781
-0.486535491523636454
-0.542037774979273412
-0.600912666356330338
-0.650601563468360844
-0.661372739934646736
-0.411084556455133421
-0.447150596330428474
-0.484635540559688216
-0.521240364042668047
-0.54275920138035838
-0.337963245155834979
-0.355257687797601918
-0.369616461597652157
-0.37684597370558659
-0.366562884707321901
-0.270369614814529868
-0.274048896344215254
-0.272462427247059158
-0.261612487120026771
-0.234811186100268493
-0.211181618743580574
-0.21113767778396822
-0.209064792399347638
-0.203640324105336501
-0.192949879887311104
-0.174293057134316504
-0.144210544232651894
-0.16837516399030622
-0.16285453496848018
-0.155177904030764424
-0.14450717087244716
-0.129777348560086797
-0.109722102571524704
-0.0831953395519798161
-0.129292478611664458
-0.120081048806005425
-0.109126258381816041
-0.0961512101852515372
-0.0808862826457034112
-0.0631417851655264317
-0.0430108984882557194
-0.0951319668426197501
-0.0836816507762475625
-0.0711690083249171546
-0.0578188007907095777
-0.0440182399663211765
-0.0303353705376424795
-0.0175020175659231919
15.2486688408240862
42.9489240625474977
3.1966734494271658
8.23196463773139797
69.6981112969384924
0.998381897125731221
0.469663689081680713
0.764374859751507763
3.03155005704385294
12.5046236393001173
-0.628755722478171242
-0.426770008428536629
0.107702539979731421
0.421821677665869255
0.224261972061316345
-0.87276064413850607
-0.845960391746556351
0.607539968788131657
1.15862076895540178
-0.902253651774936771
-0.964301734952007328
-0.859874154358467369
1.74263266968291441
13.7332545227524747
-0.718275442549252685
-0.81184025904886481
-0.811766084170531976
-0.392019119365312085
1.02326203421938211
-0.614128289580637921
-0.707135819456762516
-0.780391488827345325
-0.801857339840529093
-0.203297785416967747
-0.531212781940886725
-0.601958024187038032
-0.678184922495281395
-0.736845671585243722
-0.739779126990356639
-0.45116272450191669
-0.500868604877367396
-0.554787199105563067
-0.609967848279803881
-0.652079288259144296
-0.372092579741684804
-0.39931931661688147
-0.426210370081601841
-0.448462242048669579
-0.455369375613093708
-0.297301586006465113
-0.307274748406475229
-0.313103754335432527
-0.310288533375422837
-0.290734245202583452
-0.224979554483544369
-0.227483649832729867
-0.228460320670239553
-0.226467434788267474
-0.219238928366652486
-0.20332514360372253
-0.17382596344276241
-0.177962093920492365
-0.173911077875261971
-0.167807882390906327
-0.15863963799342809
-0.144994897296416236
-0.125016288182709129
-0.09667207487286468
-0.134978497276703885
-0.126453753389666662
-0.116113747922661756
-0.10354490259010761
-0.0882584516085241771
-0.0697565977924071989
-0.0477666485609854197
-0.097324301528534593
-0.086002327571217993
-0.0735175566437174244
-0.0600443212155650774
-0.0459195653847166013
-0.0316671184565119473
-0.0180112125917528641
22.5853789126648081
56.4505568912202023
4.90767620721940023
19.25124286253169
116.502891796133838
1.40302893681054175
0.614742294776895903
1.00470607053571914
16.0433607984646933
15.0295256388875469
-0.62000747006104362
-0.425355825999576331
0.119652721740988982
7.13481934231978254
0.903629349775011859
-0.908878334267945731
-0.867372989656562288
0.657025740683261472
0.793481473023216921
-0.918274092798877395
-0.972574323557863551
-0.869311545443931188
1.04680761639099185
4.06470067611305996
-0.753633765542946255
-0.859824395829455357
-0.861104880722835087
-0.374628925012896463
2.22815305818427722
-0.654092564938209997
-0.761056414312624829
-0.850239295517721927
-0.875734350025192176
-0.746838546661402591
-0.576549051133685819
-0.65820186996475738
-0.743781936546584976
-0.812233842429241126
-0.793668687068489476
-0.494615002355947242
-0.55605736457784416
-0.623133149851972545
-0.684749449121503706
-0.715006106257295104
-0.40992078046481456
-0.447991752796876086
-0.488180594763926445
-0.525555826354374811
-0.545940090279176671
-0.327725618348221726
-0.344965673412162166
-0.359643302727586545
-0.366900412216021765
-0.356791861109463593
-0.240506882853411236
-0.245948454474033879
-0.25050296361420038
-0.252629899474625608
-0.249736300178735326
-0.237648562097410171
-0.20983500591378984
-0.18876265383322724
-0.186416581806257364
-0.182162070145257232
-0.174806183550174771
-0.16254742271749073
-0.142846419602755792
-0.112568279157374523
-0.141370551967239383
-0.133635426276901059
-0.124015541912823837
-0.111930894205908169
-0.0966327663461658409
-0.077239606983517603
-0.0529900227223326359
-0.099754025433146945
-0.0885815336351744309
-0.0761288206709385407
-0.0625094876611861361
-0.0479960003235069613
-0.0330621152191638984
-0.0184197143488708838
39.8149491158720465
525.886006824920628
8.2978622854858326
203.547151278195486
88.5272824826276121
1.94110952506516576
0.783649682490802024
1.20832676934568406
3.71040445190765134
12.1833735028526409
-0.754503860856776676
-0.539367121593087528
-0.168456039934855362
8.47585957082368502
0.109821077038818035
-0.986345018037499521
-0.966827782447957085
-0.605614937499179828
4.963075079438382
-0.941553774729759096
-1.016455053452197
-0.928128331481536728
0.0578863528773372812
0.880002229000334091
-0.775495563593358139
-0.878914595947799304
-0.868829081559061467
-0.572882964564899289
7.30620842629207878
-0.687496259740102089
-0.796440602160762845
-0.87152933027214774
-0.836960743421570008
-0.548830723462305214
-0.618269594076766404
-0.707904213891521694
-0.80039991002337818
-0.868738675952767658
-0.839918070214308532
-0.539139810725453361
-0.610966226724483752
-0.688540184202166894
-0.755349278889998588
-0.761715334563699775
-0.450538196450626094
-0.499171084634419837
-0.552156197120757364
-0.600437861796424333
-0.617695062971068687
-0.360658350402562222
-0.386060458110513482
-0.41096169552482642
-0.429780821830772153
-0.428178403456444256
-0.257336539126666597
-0.266003874552405595
-0.274546293852189704
-0.281428694519762657
-0.283839891611114115
-0.27692799502418064
-0.252055344734849585
-0.200420320673796865
-0.199950623095605962
-0.197784911706777283
-0.192538103764181651
-0.181998514598328665
-0.162861136760663383
-0.130615279224701453
-0.148255622105087692
-0.141382903657344905
-0.132560275356052359
-0.121025822367372179
-0.105727403090501479
-0.0853102024344409016
-0.0583644688043268162
-0.102318826549384956
-0.0913143578425483216
-0.0788910619808440849
-0.0651008592234361416
-0.0501410657344307648
-0.0344195268833225598
-0.0186382525377889255
42.1343017088099785
42.0499669913144771
32.5918716505625952
34.269272288821675
23.8424139506676944
23.7019092769128825
26.5796310374268288
17.0251804282190733
15.3901953564263163
16.7325595398548259
20.5364239667653656
50.1683928433662132
51.5148189500603735
38.6932406643850015
42.0088761504945509
25.920313230787098
30.6133210918814456
33.404748074061736
16.5657160249068198
18.6789718673972089
22.5152520148438668
25.5789421574213733
64.653374183734428
80.4729797647364933
48.4912013446625849
65.9430803987653178
37.2601357517566427
36.8048357767253549
57.7349743233117962
23.6177546246159977
24.8269821622068605
28.8752853460253327
63.3034809085964199
201.528609086775276
205.489354007207339
173.156420820109332
191.006900287206918
64.5121618574791711
153.085515289169649
176.607519631694316
34.0132615972721268
50.4930317610506663
165.556836603941861
164.265345750023727
263.028922283955922
202.065407965137695
239.642065109189645
198.072506537861358
254.808280151703144
220.930446783878239
197.477260972077175
87.5630902463070271
238.489159903024358
206.580229940336977
188.113555627315264
92.2026566103191101
-4.11118457087669853
125.192831480276681
-0.699029614655253151
294.544092471182068
158.098208662137012
2.65152503213966417
314.596233869975208
278.155768531759804
155.702984202307107
4.82006086322443394
-3.71078162190576055
-1.93367059024216514
-3.02575705520055704
-2.10999053991828411
22.0243677655205872
-1.50768143407597677
-2.15265168683552899
203.373707239275092
32.8444028918877464
-1.32193489825702692
-2.22676584947294431
-4.98309657254228
-3.76169393391555307
-4.76188154363654181
-3.46648740954879298
-4.64674087697862603
-4.3796059379587442
-3.22619436658753278
6.86068523811669717
-4.29070460455481584
-3.83302921120270179
-2.98369232281948937
7.93849137042789987
8.98157027709931732
12.2832227487303296
16.0393877937848401
4.37671025811695547
5.3514223797755216
8.56226048212081281
12.1116440515788479
2.17354396053926013