/*--------------------------------*- C++ -*----------------------------------*\
| =========                 |                                                 |
| \\      /  F ield         | OpenFOAM: The Open Source CFD Toolbox           |
|  \\    /   O peration     | Version:  2206                                  |
|   \\  /    A nd           | Website:  www.openfoam.com                      |
|    \\/     M anipulation  |                                                 |
\*---------------------------------------------------------------------------*/
FoamFile
{
    version     2.0;
    format      ascii;
    arch        "LSB;label=32;scalar=64";
    class       surfaceScalarField;
    location    "0.179999999999999993";
    object      phi;
}
// * * * * * * * * * * * * * * * * * * * * * * * * * * * * * * * * * * * * * //

dimensions      [0 3 -1 0 0 0 0];

oriented        oriented;

internalField   nonuniform List<scalar> 
20536
(
0.00071936094647231854
0.000319001513763245397
-0.000363103347033748183
0.00040225543893939353
0.00173804246955491315
-0.000976910188386916414
0.00120130458102446209
0.000621574856757635928
0.00065125830140463155
0.000138724880172039916
-0.000272252166506822932
0.000335613624679813587
0.00161320187197948588
-0.000749393472707297892
0.000915390084565747501
0.000610101567338395927
0.000344670984674523822
-0.000960803460701839616
6.63679912745128149e-05
-6.36552461323136674e-05
0.000390774947119515393
-0.000816270053898776734
2.76286576904194328e-05
-2.15487090656199987e-05
0.000422503240478279668
-0.00036426363847839562
-0.00011718658099132982
0.000145925235409215731
0.000488699930644660285
-1.27493496736230064e-05
-0.000230071955955271363
0.000315350597417265338
0.00133667633930369752
-0.00057651075361422866
0.000694342543779147715
0.000647392754140362677
0.000392265045832136195
-0.00105658445890379751
8.78853238183672245e-05
-8.65537937877632318e-05
0.000325305440219448151
-0.000741755877091497171
6.69028326472427033e-06
-1.42393120817596491e-05
0.000311991689373133626
-0.000328884117406890298
-0.000149099672712061922
0.000127034731803095786
0.000321878413042568949
-3.65786145407316448e-05
-0.000238469568958027254
0.000252409051637003635
0.000979647544320887348
-0.000427815080327099582
0.00048878403773416543
0.000617937505559740599
-3.58178465247106803e-05
-0.000880020006026775454
9.07720308550945661e-05
-6.9201027701526718e-05
-0.000118417879269771441
-0.000650786031207657104
-9.33156656113605403e-05
8.49368350075074889e-05
-8.90667482735134678e-06
-0.000372074077676720323
-0.000290722420086875753
0.000224399545897995228
9.25920359327366688e-05
-3.88068316148295245e-05
-0.000448872782716109111
0.00034960073479119939
0.000544848607745083979
-0.000346371010402376383
0.00036918808050821132
0.000504577817137569391
-0.000450316989753728387
-0.00071553567653218238
2.43999924975901655e-06
-2.15113611066867529e-07
-0.000435708694933501027
-0.000653382214559515865
-6.71978426996319998e-05
5.518541224320683e-05
-0.000283583918183171163
-0.000466997771962802467
-0.000252361537692161457
0.000195162375952192879
-7.13936962194647827e-05
-0.000177539374108226977
-0.00046107539180330093
0.000387619989127558576
0.000156996412947631669
-0.000333110697618214133
0.000375491655861424618
0.000274079340382007292
-0.000459225613816162132
-0.000619327812637156705
3.34177554758296018e-05
-7.61294777131838732e-05
-0.000482879588028844715
-0.000604197718368877949
9.185994155349083e-05
-0.000117392109842165586
-0.000419092886290436148
-0.0005054368458960244
2.17679555221460768e-06
-2.75208353183646024e-05
-0.000221679365801115327
-0.000348147548825412023
-0.000199758079715137263
0.000172959654911634806
-0.000131537434162544604
-0.000359986225042445906
0.000382114344006697498
4.47274198816880603e-05
-0.000392387257251564732
-0.00052930233293351761
7.5283358410159479e-05
-0.000115398265802928857
-0.000439711958710558984
-0.000513651152757709862
0.000132653109254967288
-0.000175872144752802178
-0.000420923712179265236
-0.000473561566757403217
0.000113070033652548901
-0.000163726894209236873
-0.000287532758582912859
-0.000413750521258678908
-3.2784950751444861e-06
-6.45041793997333816e-05
-0.000245309339268783943
-0.000219290643420687412
0.000144885269521993027
-9.93538695556216763e-05
-0.000347893439285858284
-0.000465360495487456244
5.85208360834092543e-05
-7.41876981135764413e-05
-0.000397188480590900334
-0.000446699289859640359
0.000115290236546233924
-0.000132944455519132471
-0.000419578797422867958
-0.000425252905079758089
0.000140061566639077537
-0.000165976038337595412
-0.000390870130742922216
-0.000401580812968743554
0.000126568296446817803
-0.000167443822005299415
-0.000327344995043686907
2.48140276467421377e-05
-6.4456177514618694e-05
-0.000269189676571586489
-0.000307958435476455997
-0.000406573759051151711
5.37413168465852094e-05
-6.24147544994241765e-05
-0.000359377576837353625
-0.00038861715127773964
7.98490062683449475e-05
-8.65117373076792649e-05
-0.000404269663027375748
-0.000373653761778165391
0.000106450812129292512
-0.000113160050647598319
-0.000429504893332812116
-0.000361917762670402863
0.000122765824702123345
-0.000137192912101718301
-0.000328029086810353746
9.24204907481540952e-05
-0.000125700965772164951
-0.000395537815400753487
-0.000276299457567874844
-0.000356240676821819365
3.91790508744853958e-05
-4.47949995743225155e-05
-0.000323190196296398679
-0.000336962304202041219
5.37011438792562329e-05
-5.8465312479684079e-05
-0.000375092214499203656
-0.00031721225889817388
6.69971190606498033e-05
-7.15370181162040965e-05
-0.000431137555880736518
-0.000298947662900803731
7.57815820687027513e-05
-8.2702557848143298e-05
-0.00027442773842254744
7.02561887019854199e-05
-8.13418333609699053e-05
-0.000473650927336909892
-0.000241184151785555804
-0.000314393806155598436
2.12348525074120455e-05
-2.42823908513254451e-05
-0.000284029834390915181
-0.000291250504248580558
2.69710850245715303e-05
-2.98353190931723171e-05
-0.000333675917094302754
-0.000264691997593824555
2.97558472582162787e-05
-3.26248457140719726e-05
-0.000393761702675130281
-0.000235640134989417201
2.64247269439425889e-05
-2.96423682584904931e-05
-0.00020115567595836107
9.82034799923123234e-06
-1.38087268099748356e-05
-0.00046304405925478491
-0.000138325835230178898
-0.000321536588325570694
-5.24169979960959346e-06
-0.000166462453912943209
-0.000303247293614710594
-8.60485754720025366e-06
-0.000197917205672037678
-0.000280827425732976203
8.73048640490213743e-06
-1.08405185469549169e-05
-0.000233218192947105303
-0.000253616182978964085
8.53343725645898423e-06
-1.08625202052762048e-05
-0.000273905493843539861
-0.00022098364167890994
3.86115972313058462e-06
-6.88003107648096294e-06
-0.000322598182295193321
-0.000182055040101321953
-9.11475120114177878e-06
4.22074305684998782e-06
-0.000134902606363954738
-3.82522205930202694e-05
2.83715405281432102e-05
-0.000378971254060103658
-0.000103785903395904128
-0.000301811661481258468
-1.64667952813436326e-06
-0.000124359205712358761
-0.000281293779342680619
-2.81192759850662785e-06
-0.000147278096055091325
-0.000256411431792513429
1.34862595581036946e-06
-2.84344797884955704e-06
-0.000172741350060210438
-0.000226311125084335395
-1.10192160204477564e-06
-7.38370484349811553e-07
-0.00020094658858215751
-0.000190090609340362853
-7.60662169315809273e-06
4.91693826184985873e-06
-0.0002316073423847916
-0.000146728621071713693
-2.09074729639215553e-05
1.62400085358825555e-05
-9.49881739460253685e-05
-4.57364621544317052e-05
3.63901259544506612e-05
-0.000262174746448810912
-6.37953732276468489e-05
-0.000289861834942571064
-4.71137433466384998e-07
-7.64086490286017272e-05
-0.000267897823904969003
-5.6689697885861387e-07
-9.04058026193310768e-05
-0.00024151186144144926
-1.06909229777687318e-06
1.68455013642746735e-07
-0.000105680837377538489
-0.000209839281635889246
-3.48460006781142875e-06
2.28875677441296256e-06
-0.000121916848193898977
-0.000172044561478865512
-8.44450108261213431e-06
6.63718123392286078e-06
-0.000138205401955817042
-0.000127420512860227563
-1.73422230999413778e-05
1.43263176718395136e-05
-7.56971178952544759e-05
-3.20504664479374986e-05
2.66323248171150843e-05
-0.000152075643671793922
-2.10356165822091494e-05
-4.45206823192390899e-07
-2.52495276493686915e-05
-2.98734650913265744e-07
-2.99902498018766115e-05
-4.34222597536501911e-07
1.62799255227753077e-07
-3.51583702279898106e-05
-1.47422066315433692e-06
1.09512484974957814e-06
-4.05145281403557748e-05
-3.29492313007095621e-06
2.71677469090247407e-06
-4.55588727695684692e-05
-6.25864112575802047e-06
5.32215475206052455e-06
-1.07383049569308485e-05
9.18681349556745978e-06
-4.92947378472391511e-05
0.000676445460418144276
0.000545633718361430032
-0.000347628207102485172
0.00196418827834307077
-0.000791682124604665277
0.000657384516459221316
0.000621127001231074234
0.000359009741312421907
-0.000217527730945252451
0.00181485909968205194
-0.000607964703237200469
0.0006290274530300411
0.000303843826505827141
-0.000908678218822329617
5.55287865127190627e-05
0.000347285495094903029
-0.000735736276370069588
3.18579615224468579e-05
0.000382263430704296104
-0.000208216231603813493
-5.39066075569995511e-05
0.000487855790911248804
0.000157554566137629469
-0.000134206839923975473
0.00151691668911704911
-0.00046052077725756025
0.000669808746658266283
0.00030837828992262865
-0.00103209283864154691
0.000103736516341315188
0.000277894650926450483
-0.000705437042766384132
6.87246589893144531e-06
0.000329392551259744199
-0.000259886739985480957
-0.000148929866144896023
0.000361678612342793918
5.68961391251453696e-05
-0.000170098615414701089
0.00114677145912839762
-0.000335307869771680426
0.000639317200893318831
-3.31425053362641555e-05
-0.000812333105711740945
0.000121508952490813072
-4.24917492206092898e-05
-0.000701741545717625252
-8.76650184120308061e-05
9.08743168082827574e-05
-0.000331581933848768017
-0.000352395718912100345
0.000138276205756297094
4.28505087035420569e-05
-0.000482219375320723813
0.000701770271610310846
-0.000294279626485705048
0.000531187373574803709
-0.000344936674843455211
-0.000678387286136796787
2.2035999699752008e-05
-0.000358424739407279906
-0.000676523556790561195
-7.89258709103737057e-05
-0.000191600752290851516
-0.000398763676045273314
-0.000352001884331039285
-3.66909616184500458e-05
-2.01687740328526993e-05
-0.000552954011221589987
0.000309763157365201282
-0.000322552038242837646
0.00034475962382225344
-0.000394802085575845325
-0.000597717908371017616
1.58937778877468706e-05
-0.000437216891651121139
-0.000600905961357295305
5.86647209243508353e-05
-0.000360697517928244718
-0.000444488425795361091
-2.86106325055890138e-05
-0.000151483521957037487
-0.000182578512537086854
-0.000246554891771176229
4.86658976741353652e-05
-0.000367060006249304296
0.000116689284983489613
-0.000352389669780348253
-0.000523191460937211901
5.80234902274819097e-05
-0.000414930863165716569
-0.000516785886306114946
0.000111081757292716128
-0.000396478357830492851
-0.000445488638761860369
9.56239196379804485e-05
-0.000248674386410829493
-0.000320872158789551644
-1.27827723619469047e-05
-0.000114974858060991943
-0.000268645465272222741
-3.56754516889169412e-05
-0.000319454014226359505
-0.000472338735227575154
5.43884758529909645e-05
-0.000367982815780012865
-0.00045759502933022183
0.000104630525511294615
-0.000375253345361714413
-0.000428070112052996723
0.000129914062287098456
-0.000309358297487481184
-0.000373632646760190532
0.000113436564590446555
-0.000219108955645116782
-5.8692139598558353e-06
-0.000174537676621517061
-0.000289349635936100326
-0.000413908487756928917
4.66310702147945037e-05
-0.000339072514436424227
-0.00040310130940686466
7.50758106138675428e-05
-0.000372742951832175865
-0.000391564477110100404
0.000103615995384825471
-0.000370971956081423717
-0.000370002709096908279
0.000117366400699157639
-0.000293757879433164054
8.06503198630400484e-05
-0.000284551869093119161
-0.000265277321661738438
-0.000364050596157178784
3.31373827900904218e-05
-0.000312967982136550351
-0.000349486772157024553
4.7777146370756634e-05
-0.000364354878391509704
-0.000336578371589812877
6.34049885212174829e-05
-0.000411681330189256692
-0.000322563694360640269
7.56720108568340575e-05
-0.000283808940588066666
6.72691077031549976e-05
-0.000418641540314201996
-0.000236648610849761996
-0.000320396364163800921
1.76953772228594477e-05
-0.000282455033115187599
-0.000299995238184951095
2.32921782649167237e-05
-0.000338061917647340508
-0.000277596946889648087
2.63868705225729527e-05
-0.000404505412156382581
-0.000254135961495394538
2.44414805249427957e-05
-0.000219495216841774705
7.72000395804034074e-06
-0.000466717535877139223
-0.000198012284282400288
-0.000284616532658616068
6.32922491305060805e-06
-0.000236939131638684521
-0.000258432824904395125
5.89968858520851835e-06
-0.000284405617382316113
-0.000226976201896252907
7.03014534099221733e-07
-0.000344968939668821833
-0.000189723422603585684
-1.29666662330696664e-05
-0.000143141080213752203
-4.24042218836851814e-05
-0.000417171106326857293
-0.000149072399068638607
-0.000258299838055580039
-1.26317727328894842e-07
-0.000177757164028767957
-0.000228011686583404465
-2.84007225963314906e-06
-0.000211287129378879868
-0.000191088935182780103
-9.96595811816157817e-06
-0.000250872001921662827
-0.000146102456313537118
-2.49428248678734578e-05
-9.11313205797803922e-05
-5.40624935571650255e-05
-0.000294554122386103516
-9.20722411650559653e-05
-0.000242212952998231061
-1.88050386846125104e-06
-0.000109379377979948472
-0.000209698139032860769
-4.48783191104865937e-06
-0.000128719489926004183
-0.000170305085460811296
-9.88377879002015564e-06
-0.000149476428724595894
-0.000122931354032958853
-1.97530298793421836e-05
-6.66978008830729425e-05
-3.67819645500340811e-05
-0.00016917653391412875
-3.06608209362383484e-05
-6.7821490828778749e-07
-3.64734997852112782e-05
-1.77010867523765439e-06
-4.27588965398341387e-05
-3.71639562821234896e-06
-4.90263913084570469e-05
-6.91432825818363741e-06
-1.18224490413803186e-05
-5.40424188504778222e-05
0.000632037333373040118
0.000632960372150863197
-0.00027095499551174992
0.00204181551440076048
-0.000626906809158533787
0.000669825700153324618
0.000597312470358719329
0.000404032818349265763
-0.000126621076947929954
0.00187114140574744063
-0.000475685465255178672
0.000635706922203628445
0.000340766794481297316
-0.000936326340329475884
4.05134173037854093e-05
0.000391577371075539269
-0.000742249669262124399
2.41235594990957176e-05
0.000350182515670458634
-0.000182806276361826853
1.06161515566373247e-05
0.000457117232538336237
0.000210070118267255174
-4.71784074475267148e-05
0.00155058100075903052
-0.000352247892555169074
0.000669404980250582816
0.000355297000401014586
-0.00102227563577376827
8.09362885557140036e-05
0.00034776851694918651
-0.000711096365213073579
-1.67517452618524572e-05
0.000304136159561892443
-0.000121462078162015187
-0.000166640505684817578
0.000334730140140213116
0.000152914816471101455
-0.000143534133038346735
0.00117916353865823412
-0.000260046190876528013
0.00063088618372652552
7.65253843858157423e-05
-0.000882965061605575446
8.77257009496730923e-05
8.14457442405302373e-05
-0.000674408912905483451
-0.000129271149341562963
0.000187034633387404576
-0.000192640669154562705
-0.000386799186589023591
0.000163323759884098727
0.000152317984211042782
-0.000457907533550416703
0.000772558251881190288
-0.000256612397788825129
0.000532262333565510209
-0.000271457893579922743
-0.000691819512606307863
-1.45259475550167356e-05
-0.000254077224495402533
-0.000670431199909582464
-0.000100277861001540886
-7.38187753692341676e-05
-0.000290884947322242232
-0.00043401051697706161
3.07620236968757753e-05
0.000108320990811207405
-0.00061353433504862144
0.000435220016104811926
-0.000333072160433101386
0.000378620961332725749
-0.000316870511975987992
-0.000581957471311097597
-1.90468044770381744e-05
-0.000359729547664018341
-0.0006052218325896735
3.6320112209926197e-05
-0.000266023903045274407
-0.000367922405154751076
-4.52736830294588099e-05
-5.36371691358664875e-05
-2.50873627946770301e-05
-0.000325531418265379143
0.000228468349541150481
-0.000395743641023109372
0.000181799396063771906
-0.000296226773033209947
-0.000518868866236551151
3.65592226043516051e-05
-0.000371608339888067016
-0.000512874803298205158
9.41216041350415153e-05
-0.000346676116959851227
-0.000410040068074419878
0.000112813761385154596
-0.000194338607383770512
-0.000206136424062692371
1.59283146326833652e-05
3.68576580406698631e-05
-0.000288932510834224738
1.75608090833834218e-05
-0.000287886991228102095
-0.000478046775562049244
5.55228065924491375e-05
-0.00033272831492536575
-0.000466713661088077566
0.000103311979894836538
-0.000324054116642994198
-0.000422061626948104756
0.000133263158299052443
-0.000224150984064776281
-0.000316625439936227
0.000124022068184287968
-7.92296387667973737e-05
-4.1132758104513124e-05
-7.27991895610174012e-05
-0.000271158292910320912
-0.000421250161882249867
3.89324617281865002e-05
-0.000317561036161459898
-0.000417048595444181479
7.18134576316757981e-05
-0.000338317234553748908
-0.00040466186043635157
0.000106974285595446214
-0.000307991984218489883
-0.000358085895838899655
0.000128502131792074931
-0.00020933853220648775
0.000102850311145051218
-0.000200083332035053303
-0.000254655904851829105
-0.000371047461248726984
2.6950848525751691e-05
-0.000304183960607857932
-0.000362101836392203253
4.23621682288671486e-05
-0.000352172410548754866
-0.000355400617602249092
6.2135451534456581e-05
-0.000381619932977137854
-0.000337318577232497883
8.43532377983452345e-05
-0.000258940665219480775
8.14713016313931682e-05
-0.000346222081094955058
-0.000232296573924459308
-0.000325846973753682583
1.38461265023838119e-05
-0.000281350693586763958
-0.000308653045243383896
1.89004485233494954e-05
-0.000341685508236007145
-0.000291398946023217341
2.27196682641665042e-05
-0.0004091282910634106
-0.000271296837448673747
2.58618602718669451e-05
-0.000223967916812384683
1.9233234561920997e-05
-0.000455615770027888167
-0.000198301887866754358
-0.000288048861356201321
3.94759758749484675e-06
-0.000241344701672983522
-0.000262982710018539009
3.26981012968893109e-06
-0.0002967862854823133
-0.000233181425022674122
-2.07581401033967661e-06
-0.00036840815687039886
-0.000198011765367703621
-1.46308056541307981e-05
-0.000148087320400126034
-3.80416653928903063e-05
-0.000448649832466828347
-0.000151084712597981794
-0.00025993591872032853
-1.33121762763264526e-06
-0.00018333202178770784
-0.00022942174710187033
-4.15585323018999738e-06
-0.000223258667645853177
-0.000191753927159315162
-1.14668165494562973e-05
-0.000274286439542831327
-0.000145143374388364714
-2.67818874746583744e-05
-8.62389097594841198e-05
-5.59298931746827192e-05
-0.000334263924137489848
-9.38752324692855258e-05
-0.000242718723774453866
-2.44423650505122093e-06
-0.000113419521828683677
-0.000209272510485154078
-5.09212655231557281e-06
-0.000136285118141522214
-0.000168153165828105629
-1.06178457703192671e-05
-0.000162550377874248677
-0.000117704483854970762
-2.09259616147819875e-05
-5.62756935852291797e-05
-3.93977429654730887e-05
-0.000189896902921800207
-3.13665517501866405e-05
-8.46981140867395709e-07
-3.78792453561889599e-05
-1.92253472402369785e-06
-4.51826174471770683e-05
-3.87388344469977707e-06
-5.27471934648241457e-05
-7.10000126285651159e-06
-1.21343904965181771e-05
-5.89695502305063101e-05
0.000621124159786638156
0.000732621307574530438
-0.000229418601355763584
0.00205657429514247755
-0.00047821907244433449
0.000684467486482090307
0.000574189523690843201
0.00061159617601450251
-0.000154356931403948811
0.00189140755476256456
-0.000369635302039151496
0.000633305978131456821
0.000284547460343939629
-0.000895995001898947595
3.32174166636185287e-05
0.000279138730460576313
-0.000621181466479099218
3.517151679832174e-05
0.000221000749857014865
0.000300106923339308186
-3.73890144302813012e-05
0.000417163621333547672
0.000482924338090659174
-0.000114669174344562871
0.00158285059851312362
-0.000292382556326618067
0.000665855087208320345
0.000247146184607252833
-0.00100262709893944504
0.00012154302314084178
0.000177469234342426518
-0.000555598108402633362
-1.26573402502216177e-05
0.000139669067431533048
0.000311665983521003658
-0.000140396587159547751
0.000290923329468187764
0.000363699871990848115
-0.000175564306562485265
0.00123631246883541932
-0.000240898879875170305
0.000618314023030366693
-2.62177687235060032e-05
-0.000811153226597843033
9.07957363610442029e-05
2.64548626037633458e-05
-0.000595620398823330744
-0.000141917833481816229
0.000172898409285580359
6.71286408316100112e-05
-0.000288701196095794536
0.000182453202162450798
0.00027478475344016722
-0.000378547026181105806
0.000871384925901236003
-0.00024643694266858956
0.000537205683893067845
-0.000220795828717276906
-0.000636628741778170549
-2.28560253124730439e-05
-0.000179365191826322636
-0.000647199153485559435
-9.01248652540952535e-05
1.44689453786487482e-05
-0.000219209535454342318
-0.000341502954842419254
8.16218893042314209e-05
0.000180296153763905942
-0.000586197128005623894
0.000534328645327970244
-0.000327559749885448712
0.000413166858046600752
-0.000250721861488460511
-0.00054329200823828095
-2.8041568513580391e-05
-0.000306196252983986902
-0.000586535901111091568
3.11361728766532407e-05
-0.000187180093858605465
-0.000336162544113319272
-4.73330639637417898e-05
5.35011547274697298e-06
4.49072698893688378e-05
-0.000382670736029130866
0.000307486792268637349
-0.000403878301439188319
0.000240328624538457131
-0.000236393413558152863
-0.000503040775685860983
2.82379277673275365e-05
-0.000298945145233639302
-0.000516427270090243865
8.65670547132803335e-05
-0.000254578823899060346
-0.00039263395592869073
0.000124920993517706842
-9.23349943597385515e-05
-0.000126582223272430142
2.51783549977253841e-05
0.000156926540220844236
-0.000303173871694743845
7.24693604603841163e-05
-0.000260135395953784831
-0.000480049462281269929
6.27921181975559954e-05
-0.000296340426982854373
-0.000479088500786128404
0.000102177870439157229
-0.000277671694845787792
-0.000419083019478847299
0.00014104370689727456
-0.000165912395939744363
-0.000267653336814223505
0.000153335730799297293
1.1031834779508861e-05
-3.82571046385409789e-05
-2.28937883152535281e-05
-0.000248093301592616127
-0.000428150715809412421
3.33766115196099949e-05
-0.000291632330636674183
-0.000431100146030675036
6.73636715052847526e-05
-0.000297771575979463349
-0.000415921883392824472
0.000109953580474313686
-0.000237703558893167285
-0.000344569690801675168
0.000145349159790115107
-0.000127233656484035623
0.000123255683529286243
-0.000119848113248015764
-0.000244278619924348408
-0.000378051081840082687
1.99997192708470312e-05
-0.000293288914953096903
-0.000375081198536253825
3.53546786358443116e-05
-0.000334060510668141573
-0.000372583194261995603
5.95699287595896062e-05
-0.000343015254184278018
-0.000344175834688600414
9.29125624009668962e-05
-0.000212734814513954046
0.000111775573496658033
-0.000287822478855000218
-0.000228880708706677779
-0.000330759619488808689
9.75865620452245607e-06
-0.00028180539285250014
-0.000317002193794765214
1.3746464968247412e-05
-0.000345575948751553432
-0.000304817195874479755
1.87237040327878823e-05
-0.000410163238633870107
-0.000285077210989657123
3.13496861821478868e-05
-0.000213715797217184584
4.55191335822574812e-05
-0.000435467306401348341
-0.000198910531372949715
-0.000290978104538757267
1.73209837081645984e-06
-0.000246206637868458852
-0.000267072908247583079
6.3490529236902746e-07
-0.000309298953433903882
-0.000239181662081076039
-4.61992218209320138e-06
-0.000389895475321102376
-0.000205693287279364696
-1.34168701175845935e-05
-0.000148975217078274358
-2.27642915308944612e-05
-0.000469909347954237543
-0.000153219884237785489
-0.000261187574670886688
-2.13022440347002542e-06
-0.000189076595693512547
-0.000230482544969931493
-4.89043683940345378e-06
-0.000235705109397011531
-0.000192148724006341889
-1.18710556372066562e-05
-0.000298348764066446923
-0.00014412531580211202
-2.57047412393083665e-05
-8.11690063028604094e-05
-4.97558112546870378e-05
-0.000372326969282930475
-9.57331955169080968e-05
-0.000242939409559952534
-2.65667775754649719e-06
-0.000117559529524414053
-0.000208606308445684997
-5.14247814896811062e-06
-0.000144193503056840657
-0.000165759907163825853
-1.03735494742348267e-05
-0.000176798250420580279
-0.000112120704133663842
-2.03269285960550657e-05
-4.52330006530287569e-05
-3.85231406711273992e-05
-0.000213610198516958171
-3.20725619477269249e-05
-8.99838139532293519e-07
-3.92852976131082918e-05
-1.87642130471871564e-06
-4.76114996312216988e-05
-3.68153581469906765e-06
-5.64606832285809412e-05
-6.67322684657626287e-06
-1.14334390168483642e-05
-6.3878380862236999e-05
0.00058334984537775211
0.000853743487031029778
-0.000179253782323968505
0.00208655867293414208
-0.000340775744396428263
0.000679533443343654717
0.000560138696946774987
0.000743274879258134439
-0.000161346397667033183
0.00193168219519266725
-0.000268328476327624936
0.000613708467355449832
0.000261615432793499587
-0.000876748076386495981
6.20881704472865128e-05
0.000215185996227807016
-0.000403297604933991515
2.35188853693908261e-05
0.00020757718356146477
0.000432024203498860106
-0.000170226988025518381
0.000422118288429439267
0.000582645262085865721
-0.000168581048917257185
0.001635789789074911
-0.000226924911720387972
0.000652552905984094857
0.000159634151925621467
-0.000898023302910977298
0.000141160223560162228
0.000116714462596257112
-0.000397420809193745972
2.43846781224081434e-05
0.000109931400504877596
0.000470551595882681402
-0.00017214317910882362
0.000319581172720736031
0.000402974798633678403
-0.000205544652206009952
0.00129790851101221102
-0.000202743019871840847
0.000619306445610475842
-7.4460737558065392e-05
-0.000801506351076151664
0.000192550969061393838
-4.67841210218381177e-05
-0.000506861979634607969
-6.01553226259178797e-05
0.000129363000865221917
0.000163619493635604229
-0.000157917438478080328
0.000225734595626878119
0.000280714540593944985
-0.000352658815665522209
0.000930364369172889455
-0.000213188066325179296
0.000560029993531840648
-0.000227045827983043367
-0.000696388289904330293
6.90569814911844122e-05
-0.000147427668831793656
-0.00065188458831554844
-2.47197466246198007e-05
6.6180273241337156e-05
-0.000189477526463738505
-0.000202013605379243065
0.000115326227420207029
0.000173216924597920351
-0.000527844109261905591
0.000556832056295563857
-0.000293678818714269898
0.000454978752941910189
-0.000246930779322527812
-0.000628333374129312725
3.07043341564590367e-05
-0.000300459338130035626
-0.00061617801217528031
4.89603813411216836e-05
-0.000140010061191500742
-0.000351071393092120541
-4.61863532844954702e-05
2.90588289229825193e-05
5.74819490405582584e-06
-0.000384266791818202772
0.000274597239987564449
-0.000376787536317571743
0.000284205026764235841
-0.000204469822119459136
-0.000561776014540971776
3.46917935579054467e-05
-0.000264299084819749923
-0.000546693458357881711
7.69117187287918507e-05
-0.000183353869913352755
-0.000416629160396802785
0.000109535126344594631
-1.03672591636513726e-05
-0.000158464043118424663
1.64100721158626662e-05
0.000138685259554765421
-0.000293577179428481999
0.000115949342203880423
-0.000225989605898702203
-0.000495762020246846152
4.06431074978751275e-05
-0.000258114512381843702
-0.000496056940184799733
8.36658443743851693e-05
-0.000227174377118295756
-0.000436685781310695474
0.000130161245919303587
-0.000100767394398214695
-0.000275451072795808406
0.000143916672588550944
1.85363221417694096e-05
-2.22238374432037929e-05
3.34521304543445967e-06
-0.000230771363758213116
-0.000435388700042169509
1.81583887952043897e-05
-0.000269498196863635379
-0.000443084224366818908
5.31177638589502539e-05
-0.000268782134878734771
-0.000430722891592469749
0.000103275279202660398
-0.0001977347932023742
-0.000347520852979852908
0.000146368517167521229
-0.000103158833735009529
0.000129300675155502955
-8.20901839957546083e-05
-0.000234621241283396599
-0.000384347666227004118
1.37394933917978972e-05
-0.000284717967030377573
-0.000386032253433454418
2.83998969002607836e-05
-0.000323346484546434894
-0.000386979133865096114
5.44548213275625247e-05
-0.000321385597193124962
-0.000353038456429859474
9.64668925431139558e-05
-0.000193234575274369672
0.000123371575323695336
-0.000242907065465600928
-0.000226963064135062768
-0.000334649096217125319
5.26994423651527396e-06
-0.000283930333798874935
-0.000323876528750937525
8.55727419652182756e-06
-0.000351186963445166062
-0.000315262519837341919
1.42633909118616327e-05
-0.000409695092387377439
-0.000295659834213791344
3.2479954390513029e-05
-0.000205178720411324758
5.94165279664758651e-05
-0.000411645077381691746
-0.000199884827573370725
-0.000293185944718375854
1.97463855832198096e-07
-0.000251854820684347281
-0.000270265948916891625
-1.00706574730454181e-06
-0.000322727312347518972
-0.00024384160024065938
-5.16815611620242941e-06
-0.000411517492758087559
-0.000210738167333593813
-9.54586315988741803e-06
-0.00014862331219697719
-6.66669900656894276e-06
-0.000484167583684313855
-0.000155294890468595908
-0.00026201473201060212
-2.34428354167247307e-06
-0.000194548358849975676
-0.000231144086982020512
-4.76007114664163985e-06
-0.000247219469284057434
-0.000192235857894806537
-1.0806531510296802e-05
-0.000318700768197801372
-0.000143100727274117457
-2.18612272123930174e-05
-7.73674066612659202e-05
-3.85519263685043506e-05
-0.000401161472444731262
-9.74910030383583889e-05
-0.000242907713694535786
-2.42928511732305994e-06
-0.000121472009214432323
-0.000207808904049024688
-4.49814736941921817e-06
-0.000151826348882077883
-0.00016335707918490542
-8.90012308106001896e-06
-0.000191083294722691605
-0.000106703323331178805
-1.7469926215597825e-05
-3.46448244683097542e-05
-3.34211357840081055e-05
-0.000238910347520658031
-3.2728920750350356e-05
-8.14119439896306194e-07
-4.0579131825377524e-05
-1.60412765136938647e-06
-4.98365110964751483e-05
-3.08815458047258755e-06
-5.98705872638218082e-05
-5.55875942016942926e-06
-9.51518979588846589e-06
-6.85809149002043132e-05
0.000573000241792143324