/*--------------------------------*- C++ -*----------------------------------*\
| =========                 |                                                 |
| \\      /  F ield         | OpenFOAM: The Open Source CFD Toolbox           |
|  \\    /   O peration     | Version:  2206                                  |
|   \\  /    A nd           | Website:  www.openfoam.com                      |
|    \\/     M anipulation  |                                                 |
\*---------------------------------------------------------------------------*/
FoamFile
{
    version     2.0;
    format      ascii;
    arch        "LSB;label=32;scalar=64";
    class       volScalarField;
    location    "0.179999999999999993";
    object      rAU;
}
// * * * * * * * * * * * * * * * * * * * * * * * * * * * * * * * * * * * * * //

dimensions      [-1 3 1 0 0 0 0];

internalField   nonuniform List<scalar> 
7248
(
0.000255457031837690203
3.98303137081358469e-05
0.000870898598237153333
0.000117866588747142699
0.000191610101348304982
0.00119598900722840814
0.00350729937557466573
0.00300723394879851393
0.000237302716403366858
0.000863861591566254046
0.00456116665389149668
0.0098727758955981116
0.0104763657607769688
0.000419974945210084343
0.00826558572104956965
0.0136901595968328179
0.0143087179225035652
0.0143034789475789299
0.000860707402130251892
0.0125251072096525806
0.0121538945475809894
0.0124546948143883559
0.0126435032867878352
0.00242108846153649008
0.0127630395786814694
0.0121529736972576675
0.0131880343464803387
0.0131127231924299086
0.00514094403504339759
0.0136707220862992765
0.0128892419818508221
0.0129666668020098162
0.014218937533874659
0.0125796895149409577
0.014874790818197323
0.0140797234539251637
0.0136003834773407439
0.0133405784572052048
0.0143329616707312205
0.0158870721369946677
0.0153170447740403615
0.0147010920920420153
0.0140056492862708042
0.0135994223211035777
0.0169089638556756856
0.0164579004175334637
0.0159468676309009322
0.0152773857301311024
0.0145167230866743938
0.0180374862008125109
0.0177262947548491936
0.0174018632197888504
0.0170002642765563795
0.0165145167871879883
0.019574184175778938
0.019383698792605434
0.0192239647432684846
0.0191098918788602176
0.0190493718840907475
0.0188516398547314244
0.0182758539985442767
0.0204505538195113787
0.0204315119853723318
0.0204616701391635535
0.0205444565605167086
0.0205716365532521046
0.020558667562346835
0.0204902669141643901
0.0213202941709875991
0.0214805899396924918
0.0216867389422439778
0.0219361448834799883
0.0222407845050481348
0.0226101082477459352
0.0230679116208606511
0.0158195644704667709
0.0163667164098536093
0.0170710882449512449
0.0179950641166803267
0.0192312688384296444
0.020919367390795196
0.0232744702154673959
0.000216951638918178269
4.64778130203941203e-05
0.000568434336177121554
0.000131930507733480767
0.000170404383338754298
0.00126756035243587154
0.00442256879970259406
0.0018083060063895681
0.000202361132875118998
0.000609646245503973742
0.00461116396557691936
0.0105709893094538075
0.00656030937069053931
0.000352925584655076874
0.0095668204029867969
0.01399185438288
0.0143326804070294158
0.0112391247259948542
0.000675144757849801603
0.0135232485260296971
0.0124865562754642237
0.0129878718875252944
0.012352669994161047
0.00161102702745446026
0.0136307441991264568
0.0125789045452453906
0.0139488904584234227
0.0143813180678005019
0.00378789432994047813
0.01430788358116695
0.0132512765596210554
0.0134675685069356368
0.0153092600971950089
0.00725927836705380063
0.0151902907703923944
0.014329297011280084
0.0139815417830963795
0.0140832800192461916
0.0158613998023840776
0.0160777556509081147
0.0154125759457782435
0.0148007449063178795
0.0143115972549975202
0.0140899048696168996
0.0170027612603786023
0.0164706396394539815
0.015852356263845669
0.0151032757369369188
0.0144611703139873385
0.0180559403443571048
0.0176694146180788741
0.0172091306405863127
0.0166012792829618831
0.015968453691468671
0.0191986762995278795
0.019022601045244409
0.0188567065260868832
0.0183630567349392267
0.0175010212028670759
0.0204189751807934868
0.0204145668491166991
0.0203524325376299442
0.0201941318243067588
0.0198897045152158017
0.0216295221724020457
0.0218522396628673052
0.0221180665539455167
0.0224312378050877045
0.0228076819753655173
0.0170519104038142737
0.017997366580845494
0.0192857212288410663
0.0210878986757923499
0.0236925100537188314
0.000185848582922115864
4.48437748812368099e-05
0.000463392887717520611
0.000121822509107635986
0.000181410082658640986
0.00117169305589382572
0.00388933434431849336
0.00150550508918801383
0.000192408838233748992
0.000894418967770868449
0.00494967193869950452
0.00950899056830324489
0.00466355776022830959
0.000331068453025719269
0.0080365931974064244
0.0135613767366440634
0.0133617954587357986
0.00736904366151664748
0.000588663478159777518
0.0137616684379514471
0.0131717890056492586
0.0137676213852907028
0.00963702661208071763
0.00122236831391359492
0.014356751420686811
0.0133822510968978868
0.0155664044410790663
0.0132208003384959236
0.00297707588045610216
0.0149390495725410574
0.013713052487760698
0.0141556187720658783
0.0177812491304821484
0.00498440724644747934
0.0154525260052616915
0.0145947850780335023
0.0144204097169576325
0.0151095778332842254
0.0137391011517024996
0.0162500927987514719
0.0155004693362638026
0.0149100715966217195
0.0147069895962826415
0.0156667829213152712
0.0171055574666794975
0.0164750916640808397
0.0157554416560869125
0.0150300577893753267
0.0143350713425030585
0.0180841061574787965
0.0176140403898282852
0.0170075812834151532
0.0162158031435268579
0.0155231491187464779
0.0191792607274405176
0.0189324910607196195
0.0185987615868942469
0.0178628425704724023
0.0168813832089794204
0.0203578355577798235
0.0202835604445916334
0.0201291851414824793
0.0198076551568657985
0.0192899455405243607
0.0215782616705402011
0.0217753470352863854
0.0220032923597995242
0.0222574982743453421
0.0225471378796611825
0.0170381022936453505
0.0180095778764292509
0.0193566563433589245
0.0212917531237835599
0.0242049059946499757
0.000154403057642398862
4.32667725311373837e-05
0.000356796002837530494
0.000122057464608237923
0.000180059437996546196
0.00142761674020519839
0.00372167482568655505
0.000860560717244523445
0.000181564474355048729
0.000750098749631834187
0.00619039863726375972
0.00794809473136258611
0.00220929037079172635
0.000291753548327713214
0.00872014845926828014
0.0149643440463378338
0.012162913471429903
0.00471668139473826933
0.000492747589722633984
0.0147485924936675856
0.0138694095800771522
0.0123006862917502489
0.00799958727073957904
0.00096347832233920907
0.0153448206377085374
0.0141910455739499286
0.016459395321419986
0.0106290676429393778
0.00240810056144597027
0.01583925055113658
0.0144481512227342592
0.0151226708248929087
0.0182603400463774296
0.00537305180023316207
0.0156768604772262767
0.0147982801289360984
0.014765349281467945
0.0159307486074284459
0.0106199368699679414
0.0164894634785513541
0.0156234014782737525
0.0150900319369694225
0.0152189580041730641
0.0162465095137981734
0.0172088939288078772
0.0164948297151660123
0.0157238926525291763
0.0151122605095049354
0.0151906180324246614
0.0181107819263682593
0.0175513462577087352
0.0168119019687244207
0.0158949924262131413
0.015247225778683357
0.0191616554799938117
0.0188413787703264717
0.0183030008873928153
0.0174186559998710799
0.0164855156195271337
0.0202922778704747904
0.0201657166648710438
0.0199215760450657427
0.0194555950761085943
0.0188135894979682451
0.0215376871883397047
0.0217116508466941895
0.0219056155658283215
0.0221022677732752477
0.0223052477149739171
0.0170328382644830238
0.0180305310424271927
0.0194394534654620359
0.0215211694131126029
0.0247917063537984456
0.000140245646411750973
3.96057044310452991e-05
0.000269363035768495319
0.000119042087464528949
0.000262802184598419147
0.00208715825226193268
0.00280571861299262629
0.000633086144686275049
0.000172464010861037839
0.00169132507863101189
0.0108971774048918692
0.00652535770040590848
0.00166949311941579537
0.000261914106250879216
0.00888190093439855319
0.0158442373404427475
0.0114864583366473122
0.00433474928722637435
0.000443704996071375398
0.0143653291652138873
0.0143668661347693925
0.0118336189090145674
0.00868150332214142131
0.000878158098670123806
0.0148904522500698314
0.0140190814654387649
0.0168279409122676533
0.0117308548433766001
0.00224935721661289213
0.015681237357982554
0.0145961466728718146
0.015293560951840526
0.0178330201252319583
0.00741246497688947091
0.0157895417641882307
0.0150188125438026655
0.0151166225323100811
0.0160045750536078508
0.0131090288489943228
0.0166506869635082606
0.0157620511804623838
0.0151965349750974345
0.0153634133469409805
0.016002383611915319
0.0173234490929050529
0.0165325246263025444
0.015676529304176158
0.0150552352685724023
0.015368077978002723
0.0181345608465103593
0.0174961348230627464
0.0166425052672497034
0.0156214470868025271
0.0149637592926728721
0.0191456330219126544
0.0187336843455204807
0.0180372426882792931
0.0170301376549812436
0.016161262279309023
0.0202438942590294699
0.0200724237139928638
0.0197554092669030637
0.0191917513725710261
0.0184858646949546887
0.0215114086216846058
0.0216673476114936682
0.0218360182803665551
0.0219839188774791153
0.0220974960438447693
0.0170355244296927048
0.0180573991033941353
0.0195273036337092788
0.0217590181320087249
0.0254098479157799755
0.000141301567145985944
3.98972428864671113e-05
0.000270326007915418361
0.000117982545014447198
0.000198078854890798502
0.00132510038519930914
0.00350376726972583853
0.000712175604615595116
0.000169481308871566506
0.000931771393120841836
0.00570517726421169036
0.0110393905096981531
0.00228280464172801777
0.000260489487829754652
0.0112588143026935567
0.0167771911635040682
0.0174366193873500726
0.00645606161814269407
0.000435510749171531949
0.0148271503662530339
0.0165233465993170799
0.0171176129501137246
0.0117600647144323646
0.000863811501091658863
0.014933359955267643
0.014140683682180322
0.0165938495020343801
0.013962598615074635
0.00230397252936290643
0.0159470168251525449
0.0146528700113401286
0.0148598920936652609
0.0165039665691058442
0.00925923698303232103
0.0162260175847760667
0.0153463773925198322
0.0152065282125581555
0.0158509689110453676
0.0148010919105557789
0.0168857490615738695
0.0159895850267278497
0.0153100431794563636
0.0152938268979674625
0.0162639537124614694
0.0174442807290594512
0.0166095487381703946
0.0156885204017383102
0.0149760595892923509
0.0155148866586749413
0.0181618147659670694
0.0174481954796655049
0.0164995607563040055
0.0153865494021385683
0.0147602437812335806
0.0191203339530706361
0.0186266227080698656
0.0178354986847339657
0.0167410841219118416
0.0158628696251107218
0.0202170442675990818
0.0200128750283285438
0.0196447932802305616
0.0190096510415002605
0.0182815300169609854
0.0215007238586462264
0.0216469082794086276
0.0218040313169940853
0.0219236427803715279
0.0220208895700599074
0.0170432735742771756
0.0180855870688753709
0.0196103488594594443
0.0219820695517784492
0.0259944347182821632
0.000137686205360348473
3.98177372411755398e-05
0.000263993949120091187
0.000118685228264455412
0.000171362336834050063
0.00128172691938422171
0.00352685841386892905
0.000687788154686231105
0.000174945756544011329
0.000613419912958625829
0.00497649456957650286
0.0100152941669109652
0.00210986055411467935
0.000257269151725977667
0.0132520114275830828
0.0170814841559348736
0.015499712501388551
0.00622559550229115268
0.000414826830987172169
0.0145977546788486432
0.0165068693218263715
0.0166934222430274795
0.0127014075859013306
0.000828747653404689308
0.0146960388663004583
0.0142580356986479438
0.0156187482883428461
0.0151389373035776681
0.00240478416769499556
0.0164032490995761407
0.0150830224953004376
0.0156272468936578847
0.0166768726611127571
0.0103379762911903917
0.0167784265634956242
0.0159919150804710107
0.0156659245910429623
0.0160968842510221082
0.0149712264327819186
0.0172205510810527068
0.0165374851285926411
0.0156964639351119886
0.0152901610967765781
0.0164630710519529481
0.0175864109327669924
0.0167345792068298478
0.0157337404340154481
0.0149315007151151549
0.0155936507358886041
0.0181906822846317068
0.0173906363593475978
0.0163280629165576952
0.0151311930359481154
0.0146690770485404971
0.0191048806475489358
0.0185567109845179087
0.0176872782680172619
0.0164643213511905737
0.0154667607528322475
0.0202138512302262839
0.0199948796610841632
0.0196061132793718049
0.018947996920571239
0.0182595699590882184
0.0215042661724801215
0.0216505221898802315
0.0218159536909942713
0.0219608954945488613
0.0221938444469222604
0.017051959449045067
0.0181088967715638469
0.0196748644711034586
0.0221536008459541807
0.02649985005343709
0.00012642241958143072
4.03526744056554961e-05
0.000254206406607177329
0.000104841712163491693
0.000244389708053528482
0.00213654851064774441
0.00278099293368877856
0.000543443138612801583
0.000177380447272444843
0.00138917200749174587
0.0116413742894094733
0.00836422540509725379
0.00156936327809369678
0.000244360584975692396
0.00743464647070460945
0.0172359592075346894
0.00891140857239284233
0.0053745590662735588
0.000392802609592283482
0.0146142281922077809
0.0175679713665157326
0.0113170804365366195
0.00835158224966176498
0.000772909011380602307
0.0171134583263905828
0.0165251920376808248
0.0156849299574569473
0.0151608070287222989
0.00234678203807459117
0.0184092066799421937
0.017836957079702391
0.0182623507602074214
0.0187779622752513517
0.010051960808002915
0.0175915731729710222
0.0170495199418350396
0.0164864908581467649
0.0168219249039737173
0.0163113470103037582
0.0174994801087626183
0.0169690836358715805
0.0162180438724448955
0.0156883911518165796
0.0166724634829807962
0.0177710612122956337
0.0170480600596327886
0.0161833284592468006
0.0154167077053115088
0.015479135463487911
0.0182533251791225232
0.0175042222550686466
0.0165055574776995888
0.0154175802446151963
0.0148418036565596198
0.0191070449932978122
0.018573466796173891
0.01776182570774772
0.0166227386645862035
0.0154928107116104625
0.0202102474537331628
0.0199992252413114281
0.0196649993867023809
0.0191184022802917269
0.0184408380704265303
0.0214987186221966275
0.0216510247423911152
0.0218442431311552353
0.0220618486997762667
0.0223827805722597063
0.0170472878411804044
0.0181100591458944124
0.0196930536067342447
0.0222104054496562141
0.0266366176086043176
0.000710461078976412121
0.00171777507581555603
0.00225033058288797317
0.00484376921329698461
0.000181348030152785853
0.000891104465831153692
0.00254124063043377132
0.00566533948860719998
0.00939079528908428295
0.000870954143368542905
0.00351849257714252368
0.00764056240634758844
0.0103318022430433937
0.0120998627432875889
0.0102724857034258901
0.0112397877940247325
0.011923568784927261
0.0127305178646871936
0.0139288876328455494
0.0143938883255361628
0.0147763178683220867
0.0151768317404551798
0.0158877600823756349
0.0171331362486657306
0.0136068711180742652
0.0135373442963394198
0.0132813736445184516
0.0133651421101369326
0.0137408168557875392
0.0141621550410582255
0.0138951325479578867
0.0135850819627224197
0.0135271271101912692
0.013744914802244124
0.0150542557965382892
0.0148569964499418606
0.0147231317563324016
0.0148353773860600419
0.0152772841799433644
0.0163884905118178541
0.0162498885381666021
0.0161992299753479958
0.0163264313452367721
0.0168162999682063344
0.0174572008863739143
0.0173950520074761979
0.0174560228355696637
0.0177582138894324497
0.0183659274531613563
0.0186095116841282111
0.0186346425274804897
0.0187877531628125385
0.0191413964708386057
0.0197916535498959857
0.0196023146322636677
0.0196023448140190092
0.0196792627081968721
0.0198333768027983658
0.0200958880775753621
0.0205099468993872602
0.0211904627773543998
0.0205177968340240977
0.0206215981407447783
0.0208008361566841167
0.0210719081757579363
0.0214387741361098776
0.0219420298419952566
0.0226534764657943637
0.0214372141196620472
0.0216555237382311978
0.021947252038719986
0.0223268970661509476
0.0228073283759208933
0.0234138502585316197
0.0241848057240733293
0.0159880402243722936
0.0165436011374065772
0.0172298620138123387
0.0180807525236059835
0.0191379244701818767
0.0204504976523534471
0.0220861422103447239
0.00100648896281388314
0.00296116054550802331
0.00428728004231621485
0.00925837528048369628
0.000195953684567967511
0.00112944734405105284
0.00386665398151927108
0.0112425217794779632
0.0113770592156916747
0.000713386850153453051
0.00371134140035834625
0.0102573372588777596
0.0194818608185362667
0.0130374193231300346
0.00680356417810868905
0.0120420432493257238
0.0148783716840868371
0.0182472774286786855
0.012306539292698598
0.0134839785760540887
0.0126476362589781986
0.0124326290221022998
0.0129400774768
0.0101027770623098
0.0137150786851872909
0.0130874443983022021
0.0128880647218113098
0.0138027609378263104
0.0136471568861247176
0.0145810672471044424
0.0138675249116264557
0.0134620233883783191
0.0135348109628448104
0.0140119919347483149
0.0153555801467622714
0.0149694137220130006
0.0147116373902985084
0.0147888697123847758
0.0151339303115186792
0.0164263637820800529
0.0162394984781068265
0.0161320733838123086
0.0162545115874996871
0.0166497842515027396
0.0174390088873203411
0.0173885115557375972
0.017443462661746463
0.017706657039410819
0.0182406092547880219
0.0185685050137846842
0.0186141073352822858
0.0187926480844927031
0.0191534326505720318
0.0197071039014315684
0.0196512191499780553
0.0196367983162581139
0.0197051770038757963
0.0198629691822923941
0.0201440332287369898
0.0205633556501601603
0.0211223508533321704
0.0205338269566276085
0.0206270810712005405
0.0208008201775527479
0.0210778603413386174
0.021459820742753339
0.0219493219794725039
0.0225921664749489486
0.021429852953881813
0.0216408927368677353
0.0219288612182198736
0.0223132279733009274
0.0227916440873795617
0.0233962110393524277
0.0241421880352542632
0.0159883142029786235
0.0165400802070194489
0.0172238939327504122
0.0180754009451024253
0.0191373678499890294
0.0204665942029804634
0.0221224300482980862
0.000795680786602698557
0.00197214025544179428
0.00375299213006005054
0.00782610437600323415
0.000195108317480418653
0.00112835153169030733
0.00424202650098578615
0.0129482079099318137
0.0127277277732799499
0.00120965317725100596
0.00588232777728629839
0.0137850238258663445
0.0184329218172444124
0.0130878796844074996
0.00978988245956234106
0.0138648685641056778
0.0150795062833284504
0.0151073876212405069
0.0118092104997713221
0.013057670094893857
0.0125986358773048611
0.0136131461996185886
0.0121531570095211715
0.0104120789121631835
0.0133729162199197737
0.012535987828202564
0.0129615949709884198
0.0130196856902630095
0.0108640782833408604
0.0141917450208522873
0.0134117575274354441
0.0134170507321089826
0.0137020897785518798
0.0132129211512718569
0.0154585432423739681
0.0148651908864458181
0.0145585649488167608
0.0146072230755761312
0.0148588429687637781
0.0162438894235927035
0.0160245145814666388
0.0158665213092032305
0.0159564537917778505
0.0163011793715931476
0.0172782291708353311
0.017222798868992667
0.0172419624009248866
0.0174519374356718084
0.0179544483664592393
0.0184587984576584201
0.0184815162108010259
0.0186344555717388345
0.0189792009979130351
0.0195713424455186483
0.0196083094496979846
0.0195801013894047124
0.0196282306545987814
0.0197704953923190895
0.0200447293135279717
0.0204880114558949229
0.020984020247317936
0.0205047273369045394
0.0205889736918260305
0.0207528769867129231
0.0210216219762480658
0.0214190966887425789
0.021880356135708684
0.0224704483788789044
0.0214087006901039385
0.0216177106254870841
0.0219034942995518754
0.0222909726863635485
0.022765329716611736
0.0233524058551048339
0.0240715549208952405
0.0159706881580081832
0.0165236340135784809
0.0172109167691607418
0.0180698895526056821
0.0191421792525151083
0.0204894649347470391
0.0221726751667072237
0.000719468978298765907
0.00113415205027188304
0.00351207810825163039
0.00352690182912287131
0.000192985942914805436
0.00123361313150829638
0.00459665702353648405
0.0117717370391219271
0.00882182891841123452
0.00127561832974265729
0.0072317124860968255
0.0148210772566157965
0.0209886590519532436
0.0151505735870947345
0.00835623072897252739
0.0131856548998753355
0.0153192651736905917
0.0174197964621646828
0.0129457335636092401
0.0113644824417232348
0.0114634235194917243
0.0132034257592443562
0.0131392766822805845
0.0103712003329080472
0.0117585931728443251
0.0112999196789692995
0.0117322108141307609
0.0129504251991184715
0.0104313990656255962
0.0132610358381240676
0.012516703469332098
0.0123673258377068277
0.0123472826374317907
0.0122063397948246125
0.0149230921139483167
0.0142418183682955779
0.0138827251467842326
0.013609081267085819
0.0134986561595590668
0.0159427812153565898
0.0156525091764718391
0.0154198584128011195
0.0152649756287932484
0.0152800078997443224
0.0171063826020431894
0.0169918581138419449
0.01694401421041003
0.0170167026947047155
0.0173304848675041451
0.0183434863252524942
0.01832442350888773
0.0184258009232570706
0.0186999132007277281
0.01926145106778588
0.019569608199511597
0.0195167843078945975
0.0195386534343557731
0.0196560452802565268
0.0199033086116867305
0.0203352319874664823
0.0207831326612469974
0.0204754562119139304
0.0205463994818243581
0.0206966629092848325
0.0209524211874420919
0.0213448089763995444
0.021772246892446525
0.0223043116134937248
0.0213867042299811898
0.0215911089234884397
0.0218724344889350587
0.0222574592782564668
0.0227217435764876068
0.023287316094869951
0.0239791065479144881
0.0159482610171763593
0.0165012620863374086
0.0171921147145476655
0.0180596076574134935
0.0191466273815194023
0.0205208226645576149
0.0222503675441311222
0.000699387427084003461
0.000556408769060426334
0.00356605062559117725
0.00130530388855026945
0.000248615561540077557
0.00151000425056793566
0.00594323240216484191
0.0130060634240541633
0.0032267582241602877
0.00158696645585947363
0.00825916741443341075
0.0163271440109865849
0.0201459040643592116
0.00888510261298397844
0.00866572699821404127
0.0133758419514004162
0.0160053619176613905
0.016299930114233703
0.0101487567395811343
0.0110523621838289031
0.0117784125428333306
0.0136273849134242817
0.0110565916342438338
0.00675169799113902337
0.0114262973655969175
0.0112304107484517152
0.0117826429486718193
0.0132735632343398795
0.0100042951374600866
0.0127674787402978808
0.012159532829681706
0.0119127812208103014
0.0117854918808840484
0.0114001272307800387
0.0143722713644664889
0.0138171603263801332
0.0133649478027939323
0.0128577127433128231
0.0124206990674680558
0.0156546969250055887
0.0153383846570319012
0.0150076975208412108
0.0146094153645150923
0.0142571947612510127
0.0169594312172615773
0.0167744056817503984
0.0166343045496726849
0.0165424621103747484
0.016581843612534123
0.0182231735325948455
0.0181559499777859852
0.018189679046690041
0.0183685089722187486
0.0187998871620062152
0.0195312877439727181
0.0194528167851054506
0.0194454678809390796
0.0195306965609858621
0.0197391057918131704
0.0201244768403109273
0.0205005127464985386
0.0204518102740198146
0.0205077737137253427
0.0206401613714795422
0.0208762930557672664
0.0212504956073230784
0.0216209586214815043
0.022083041950160847
0.0213665622390540426
0.0215645412688855558
0.02183915982120576
0.0222192918704168241
0.0226593721544446694
0.0231982269089491128
0.0238593198507251122
0.0159227103286722141
0.0164751623069150747
0.0171696995774903854
0.0180455003376197264
0.0191511359938700415
0.0205617775417793955
0.0223578243058318443
0.000605932540360411471
0.000213364800118262619
0.00302194574633574305
0.000435066517107968924
0.000243670649728478704
0.00181635397497972298
0.0062259237909815749
0.010345725879024539
0.000940875879396637087
0.00150491339915671623
0.00853923164753898206
0.0144157150085117355
0.0169286567177834926
0.00276311030282743071
0.00827584713262911192
0.0136931315776898013
0.014686646274879301
0.0137329276291580978
0.00678962299882510979
0.0113831071893110529
0.0122849467182225038
0.0134501920782275023
0.0100633555265966946
0.00437635294758354897
0.0116411609933790433
0.0115437807002241408
0.0122210496846125571
0.0132073468733262707
0.00945881484081869187
0.0127683945944056399
0.012190506511960646
0.0119857617025914253
0.0119685751681656242
0.0122146516493708401
0.0142245727717777333
0.0137172334376042798
0.0131879479752807297
0.0125145692899248373
0.0118768479249687572
0.0155167870177665805
0.0151711805022167884
0.0147624022220361854
0.0141688707946674743
0.0134913413970967865
0.0168701751712393398
0.0166104802809258455
0.0163794105729532825
0.0161188901627824233
0.0158494728273750399
0.018123194118924265
0.0180016459909042789
0.0179610111459570267
0.0180261038131761739
0.0182788827521973736
0.0195098830259812575
0.0194068607927572467
0.0193665024807787162
0.0194104538929381724
0.0195670357559765973
0.0198881495838431309
0.0201191390292755623
0.0204375913083418848
0.0204756031769147313
0.0205860906777459059
0.0207973402078541827
0.0211293303216616053
0.0214218441459332609
0.0217957575828383113
0.0213501932369153484
0.0215405032571901432
0.0218063421810033679
0.0221690600116610931
0.0225774789807710805
0.0230837721588834817
0.0237077853843461299
0.0158955884187879648
0.0164472706177719794
0.0171456432532715933
0.0180291217945451124
0.0191579534273768788
0.0206157888488268902
0.0225016508785496928
0.000552906666845928013
0.000117050849664175876
0.0023956135293228
0.000210410516566937405
0.000237176625370329571
0.00202928794241178734
0.00620830395320852695
0.00793915576367546297
0.000414589981594420639
0.00131146905412349605
0.00796249527970449393
0.0132128509946709462
0.0140957490026535365
0.0010348010678137337
0.00651996940388024394
0.0129682761631510508
0.0138820245585049764
0.0125898675022114697
0.00318120517646675949
0.0117287145432169431
0.0123595212308359945
0.0128484484219076722
0.0102828258222202908
0.0051850230700984188
0.012007366588040403
0.0118229271931321496
0.0125438059539494124
0.0127611667859365199
0.00858578339725701509
0.0129630773855766747
0.0123853124310620323
0.01220287391899803
0.0123955466242485421
0.0130033746052451559
0.0144486519637685058
0.0138542209511038333
0.0132305699906335658
0.01252434306342309
0.0119564991662838797
0.015574628593833335
0.0151691060841652649
0.0146689010355123221
0.0139373930111417396
0.0130510793416577717
0.0168340870153765726
0.0165077822658460348
0.016179254668058158
0.0157603347516881431
0.0152029669314264829
0.0180586520912524064
0.0178774220532172644
0.0177542375761251571
0.017688570919978882
0.0177240368516580447
0.0195132381322565655
0.0193801578095307014
0.0193034341614642391
0.0192992198441259387
0.0193943289755803723
0.0196279396387250872
0.0196327447082936916
0.0204334397836211656
0.0204525119177799732
0.0205381570197113311
0.0207196128700011216
0.0209700117637989479
0.0211761836200578188
0.0214385911806646914
0.0213382347106952641
0.021519904032602663
0.0217757468665334755
0.0221005743899826725
0.0224775852928954176
0.0229447880970410391
0.0235235123827112098
0.0158684892770416877
0.0164188800431441795
0.017120624385463603
0.0180130116545925666
0.0191706232857122086
0.0206889678369629529
0.0226930274318498867
0.000408230616639320429
5.46085155022494042e-05
0.00145936134297759614
0.000116848926449800356
0.0002396233657011538
0.00144291199793896894
0.00431421671286801641
0.00520483920799863758
0.000305767084883387294
0.00154080332564370502
0.00743275010798596838
0.01272770532210089
0.0131815660993057221
0.000592921736161797154
0.00821924726730565054
0.0128365592629508685
0.0139731640449518787
0.0143181165713400296
0.00146564282735363663
0.0122379667729218648
0.0120649833201197758
0.0124960378566540964
0.0116085490042152038
0.00481890554867045462
0.0122488208246349962
0.0119077876928509255
0.0127816828155327047
0.012886726677818764
0.00679272686758735939
0.0131308247253454757
0.0125512022249348633
0.0124349589673503503
0.0129645734169006651
0.0122889566362339008
0.0145889040255877539
0.0139269985606715434
0.013351033926628661
0.0128235780380169303
0.0129133810373788082
0.0156948632120961842
0.0152174173133305113
0.0146505975842791784
0.0138790055695973552
0.0130180443003208683
0.0168437270201722833
0.0164628679015545142
0.016040771124725843
0.0154722368265915091
0.0146846960881444298
0.018035137726437736
0.0177910523007932808
0.0175762120398918961
0.0173535097187435261
0.0171207808575532666
0.0195358361939603972
0.0193734098989273087
0.0192566721498808845
0.0192007158435917522
0.0192253836587283795
0.0192897215848456156
0.0190216925154970545
0.02043858201222035
0.020439122698950183
0.0204980129640238116
0.0206447429896128264
0.0207812213919616705
0.0208875325445556752
0.021006693217960417
0.0213314392859854582
0.0215029759269892706
0.0217387711068615722
0.0220209115745662563
0.0223636640581251316
0.0227847528381277184
0.0233083087554040724
0.0158427827165789105
0.0163914888028701827
0.0170946022074895433
0.0180004408301779051
0.0191937780994945947
0.0207882985474306531
0.0229459135196693198
0.000483478904192127172
0.000445776698415084821
0.000687280763819711764
0.000595050069711873931
0.00115901632855637147
0.00101666436908837447
0.00081033495008900531
0.00116228048614495732
0.00200605746357598565
0.00152986457776281603
0.00110082267175704452
0.000360458578846352602
0.000328684640945925389
0.000504007418172228616
0.00042452145778965934
0.000855947020427951779
0.000701509739498060777
0.000539506192884105858
0.00160119308966923525
0.00135348357363460959
0.000971018603544593676
0.000646427624611140461
0.000217239317174931242
0.000145966867400527901
0.000277439806769544384
0.000168871103058016646
0.000515039914057176858
0.000337803636354755746
0.000184162954815321592
0.0008039390843440511
0.000734688275933731861
0.000370402240647512533
0.00018384755664852868
7.1755059350171743e-05
5.92259806231577927e-05
8.28143400991017235e-05
6.53193455174007039e-05
0.000159424106373996278
9.01066521853351366e-05
7.06557496744322533e-05
0.000379301220872774571
0.000177673249501790882
9.04807143866083826e-05
7.52332557212259223e-05
3.87762437526273382e-05
4.98391957968827304e-05
4.23781892040060186e-05
5.49075851298887907e-05
4.83533563216488862e-05
4.61528023867983223e-05
6.06806093882316909e-05