/*--------------------------------*- C++ -*----------------------------------*\
| =========                 |                                                 |
| \\      /  F ield         | OpenFOAM: The Open Source CFD Toolbox           |
|  \\    /   O peration     | Version:  2206                                  |
|   \\  /    A nd           | Website:  www.openfoam.com                      |
|    \\/     M anipulation  |                                                 |
\*---------------------------------------------------------------------------*/
FoamFile
{
    version     2.0;
    format      ascii;
    arch        "LSB;label=32;scalar=64";
    class       volVectorField;
    location    "0.179999999999999993";
    object      U;
}
// * * * * * * * * * * * * * * * * * * * * * * * * * * * * * * * * * * * * * //

dimensions      [0 1 -1 0 0 0 0];

internalField   nonuniform List<vector> 
7248
(
(0.868312457089909451 0.543079743485884836 -0.349132067773399557)
(0.575699240531666767 2.69694143670036635 -1.05005754369456383)
(0.713769291794340566 0.426347238206351509 -0.27876644701074349)
(0.654224508283065553 2.43402788938080539 -0.782882529290033657)
(0.321917861937205008 -1.26925482729029504 0.0712436779144939997)
(0.420822314129045361 -1.14811662420950267 0.0489537509982667651)
(0.452194472940980863 -0.519994157153319869 -0.0816269249562337484)
(0.415376352390115555 0.0282641560440353157 -0.238082788972009296)
(0.673602888937058553 2.09674990549384033 -0.596464019261125911)
(0.413428211441739191 -1.41460348288109006 0.104183851353823492)
(0.385637297868586859 -1.17789003504295242 0.0520136648502354595)
(0.376807087890354886 -0.486376214950942465 -0.0841574614236327151)
(0.148794803238248119 -0.0329497992705422016 -0.205708030751130255)
(0.622963454202725586 1.68300302077643771 -0.438442782015008914)
(0.152116486498951264 -1.53776757295272337 0.115695956955086082)
(-0.218842766996305282 -0.90906246022005599 -0.0450904788475862614)
(-0.0407799113145148537 -0.383034738749248038 -0.232557116153875226)
(-0.116241576524626841 0.0092963879015693484 -0.391180994666003923)
(0.422326154496733441 1.11315085757665977 -0.349534732662635128)
(-0.422006253279220866 -1.08867272786325286 0.0312834519943111025)
(-0.514762232440687861 -0.869419817892651325 -0.0492590084443086107)
(-0.431990667586727328 -0.508313944937262674 -0.212431158377955481)
(-0.202323194080057833 0.00471108706358698559 -0.392344198841824643)
(0.045842787805073483 0.44042619064040528 -0.328283857269159318)
(-0.46582243522426342 -0.951390965798724841 0.0552890024157684026)
(-0.525107151465952104 -0.9509559728922653 0.097773260214633409)
(-0.504037480524814896 -0.765909797215861388 0.00572534704497525311)
(-0.346390267398160034 -0.452646642860937753 -0.16909244303462298)
(-0.2240841104812204 0.0376495945373832713 -0.341860205215358648)
(-0.391638790519678204 -0.808715877416340323 0.0825481116579650648)
(-0.458454754446466106 -0.777681026044015233 0.143553157797932374)
(-0.473114343242641344 -0.707598752706958822 0.125921995056507197)
(-0.401737432232717573 -0.607697044360650307 0.0260411273737672574)
(-0.271150003710597942 -0.363189060921504825 -0.164591283595034998)
(-0.345960185021307542 -0.711425721895848739 0.0572853856398002625)
(-0.397514049402694414 -0.685121476415020969 0.119090801636233368)
(-0.442436874454495366 -0.639074063926404867 0.143819175235289809)
(-0.447493896725824625 -0.573235654766526936 0.136668620221399112)
(-0.407327474257998423 -0.427815085516671523 0.0376199289745394461)
(-0.302865340683584561 -0.618220249793869137 0.0543471228430910114)
(-0.355487633451764262 -0.592027702563370894 0.0789408291791451888)
(-0.407652193961165588 -0.571723738397356351 0.104097630676542541)
(-0.447481054623989849 -0.556426942661668367 0.124776536974656543)
(-0.473837119408479113 -0.489026085330950933 0.104827346121867795)
(-0.270752396875584334 -0.538882253079991713 0.0397337487944976406)
(-0.31924789071621501 -0.513527120397619052 0.0533542751944271823)
(-0.370373923688405438 -0.488111601350673274 0.0661444184300689075)
(-0.42732719209343234 -0.466461452622466521 0.0762386576559451329)
(-0.496282790345119684 -0.427457466337433367 0.07001398811141607)
(-0.236161003122488278 -0.473913193252221088 0.0214754612109795302)
(-0.27953551948532035 -0.443895873369754279 0.0268291369392715112)
(-0.328120814123820381 -0.410304525704487721 0.0295869580172611682)
(-0.386204256782761934 -0.376793555781162692 0.0268899359916170907)
(-0.459928930232790079 -0.339578768542256215 0.0116094019691393296)
(-0.133698113444525563 -0.473995622427326457 0.00379798664736285749)
(-0.162112866760107138 -0.450105908651306508 0.00704314382131943084)
(-0.19399420056219624 -0.420567523921482389 0.00916927374983652309)
(-0.229573397885136504 -0.384636711225724515 0.00910225225984810302)
(-0.269926297730470943 -0.342001793182914016 0.00500906239353167762)
(-0.317304621407602183 -0.292154038157786788 -0.00633407333900851827)
(-0.374798382831076415 -0.233266663325979451 -0.0313865731719946278)
(-0.100660124772625439 -0.441142796766669454 0.000801686255447379634)
(-0.121401819025463903 -0.413407778257610492 0.00193616846445654293)
(-0.14461718732981671 -0.379633219851186032 0.00191086611107705098)
(-0.170478116169688249 -0.338716003639590535 -0.000266297000994864322)
(-0.199178669705705358 -0.289479301356627139 -0.00603470726878760702)
(-0.230739020153420071 -0.23044549749932583 -0.0176480357221416896)
(-0.264127956525817387 -0.15919565781459083 -0.0387607276470474799)
(-0.0618091535835022104 -0.418687868899025428 5.50909256360641517e-05)
(-0.0745054800079360952 -0.388439943414849442 0.000131216990738850306)
(-0.0886825398853512414 -0.351999402967694719 -0.00062680006176621221)
(-0.104312599622949378 -0.308156848814448048 -0.00278606270867875518)
(-0.121179778045317349 -0.255639556397358803 -0.00720541251249246818)
(-0.13864767362933772 -0.193203182013625824 -0.0150644689541250733)
(-0.155078677585451158 -0.119799705732521827 -0.0278165521226204776)
(-0.0203212561434816356 -0.408201265593888585 0.000306514123889232559)
(-0.0244891037592792349 -0.376626978745743191 0.000170398200847172217)
(-0.0292182046283770147 -0.338877208449645806 -0.000289592416717904732)
(-0.034452978245436347 -0.293810988716634858 -0.00122689541955388923)
(-0.040030291600164282 -0.240394731849850496 -0.00285837923357825036)
(-0.0455676453320727759 -0.177820228454561302 -0.00549546370251828044)
(-0.0503928386017241728 -0.10604192080674095 -0.00942901748452441846)
(0.801594415472403399 0.951793579822375113 -0.358633865600906043)
(0.55093882474704492 3.0726784509667775 -0.800173334196258135)
(0.686398424653559713 0.762384554863717034 -0.247282272722418373)
(0.640665664466775864 2.73020515122847129 -0.632093527404512523)
(0.294669552708345106 -1.22296991369239527 0.0544101372065357719)
(0.365555784180651211 -1.0261309197384576 0.00991853465115374519)
(0.381487443687239858 -0.200329741807105055 -0.11547490467626445)
(0.434762196764471087 0.330254484399209236 -0.180104345362826379)
(0.659584833990635833 2.38479028309676311 -0.495000791145883856)
(0.308672849385164927 -1.31348606545079782 0.0770369193386548079)
(0.280629067738307314 -1.0814811069582031 -0.0236413398950925807)
(0.387653145092923479 -0.313160653298310387 -0.178823141944406433)
(0.227677972344700635 0.101207206587379722 -0.20864663578444731)
(0.613130046802324857 1.92389604161571981 -0.371316228145179783)
(0.134194608758953143 -1.50292298779073241 0.0899294253451211334)
(-0.193951402920906568 -0.921912234525457674 -0.124714756535957719)
(0.118386925359156403 -0.317634111798350438 -0.343127848041234251)
(-0.0460293529490124961 0.100260795515117657 -0.480644625018106897)
(0.439948172998562481 1.34456402008445086 -0.311271575241351572)
(-0.309837085188088834 -1.02166976730825732 -0.00442000717999528701)
(-0.44648843117110365 -0.961494644586655345 -0.0778970271961863664)
(-0.324511617309707456 -0.428363795145819126 -0.285300306797089176)
(-0.156296461727880365 0.175471649956719544 -0.502048179102648429)
(0.127924104055944315 0.671049200059349649 -0.307198842383436088)
(-0.389737686110678883 -0.911865296968503825 0.0119517878372292947)
(-0.486002176413824927 -0.925953296579873908 0.0643357403524983107)
(-0.448369062320781497 -0.640908729402220656 -0.015372568591773151)
(-0.251580581369728773 -0.179382533533354815 -0.191490916656718468)
(-0.155598797066010347 0.210761973500732308 -0.338401272596954517)
(-0.336888206410154711 -0.780256017410837277 0.0582022689759944048)
(-0.432952179961257566 -0.783352986588045863 0.107230658449693997)
(-0.447987215632769997 -0.651619756124127036 0.0882970492222100445)
(-0.365221247878843358 -0.424069085357333508 -0.0153813953772698551)
(-0.242751040707473248 -0.0160448434982663479 -0.232392741383336404)
(-0.317285787249300344 -0.723291082053846957 0.0550924620721630065)
(-0.369577165304965316 -0.690202695485106377 0.100486170128493632)
(-0.40667285067215253 -0.624918337846194438 0.123665562069361093)
(-0.383703265444334196 -0.51232605565846534 0.109385268644573846)
(-0.307106505852476119 -0.319590085250893163 0.0175440741132906336)
(-0.281386074499471117 -0.626582911126406294 0.0465886095338131495)
(-0.336097374885802269 -0.615136902794414242 0.0724083312584595934)
(-0.381521034477428689 -0.59234399609789179 0.0978515242583567202)
(-0.40582541818443052 -0.541600877642832934 0.107591408737204464)
(-0.397191501586825146 -0.373789070950532931 0.0703932291812513627)
(-0.258855449160533602 -0.549396066344204681 0.0338551036497034413)
(-0.307199676227324248 -0.531926789769470942 0.0476062390041701519)
(-0.359349025235843611 -0.517365820976008361 0.060400372099360021)
(-0.41353773316524095 -0.49809572607327457 0.0681888215438005429)
(-0.467530093281314951 -0.430586305895349186 0.0642724668989741454)
(-0.23025789989192616 -0.4836781729058659 0.0181322809379468042)
(-0.27548564753126803 -0.458615510043520413 0.0236222698423226574)
(-0.328156511685043006 -0.432743117317933246 0.0264143608716988221)
(-0.393683017899235432 -0.40811127896188959 0.0232788636187829037)
(-0.476125134478553536 -0.361292144148419758 0.00465770055053596477)
(-0.192785158445490296 -0.427238769329176593 0.00691201926905772764)
(-0.23111024809765085 -0.393806355228437877 0.00661513651652010856)
(-0.276454310339645182 -0.354560016464950334 0.00196964784323661046)
(-0.333560265704426873 -0.310316510158174963 -0.010879146421437752)
(-0.407987211601183342 -0.256109118931650059 -0.0402594965960746815)
(-0.145340184476081685 -0.383464711518775314 0.000396002281178538251)
(-0.173844085044829011 -0.342967279141069503 -0.00205011816560367495)
(-0.206919824283900905 -0.293741449758339712 -0.00852652014768600156)
(-0.245775755389277983 -0.233957217300728992 -0.0219820386823450925)
(-0.29131693170287043 -0.160775000513064426 -0.0478018069019613134)
(-0.0897000436546660923 -0.353694711510943671 -0.00148002214107022939)
(-0.107050226190421371 -0.309025539744876732 -0.00386066134061857288)
(-0.126608382027217109 -0.254763662787242051 -0.00878007312674245963)
(-0.148060005344313517 -0.189028815099414604 -0.0176905017585635913)
(-0.170071103306113303 -0.109667440049027953 -0.0327227496265805537)
(-0.0296722252074793982 -0.339569493166636704 -0.000536830634351045943)
(-0.0354566278396407641 -0.29320604870715028 -0.00155148765449655509)
(-0.0418427238691902598 -0.237406912067743198 -0.0033412790175794049)
(-0.0484677306482943215 -0.170945517370347466 -0.0062618242307940046)
(-0.0546766639229627552 -0.0931818294986955509 -0.0106890947678600651)
(0.74949799519150162 1.11110917089917427 -0.28891334657376877)
(0.518931357937622129 3.22301946989514931 -0.692312002287521877)
(0.652951800469262378 0.855555259717873717 -0.141115232642346627)
(0.62359268488782249 2.83720239939234675 -0.519619222802487513)
(0.312524400152396575 -1.24488584767152322 0.0583651642281929825)
(0.413122570115825372 -1.04810366773748886 0.0494628177538063776)
(0.395440067396434114 -0.251928269819153616 0.00851218449570652694)
(0.399882628534928508 0.358346638003066764 -0.0540480417658639883)
(0.63482223304367813 2.43947368663225284 -0.377104681682305543)
(0.360532545680726235 -1.37683201521672216 0.105456866973292596)
(0.357842816072754477 -1.0898478484833114 0.0287300514870005262)
(0.411659516164339045 -0.139834434807941999 -0.130299720631802118)
(0.194519767774533947 0.243710386842297816 -0.137204645987594798)
(0.577576970707722293 1.95895620567149331 -0.265763095260890148)
(0.20933417969100343 -1.49753883855703629 0.117774775125131057)
(-0.0564320675924672999 -0.921478213698819548 -0.0768227873908687853)
(0.264782982269873124 -0.100338084020024226 -0.361837988569871427)
(0.0131710846247458449 0.265328354782933373 -0.466014311118890634)
(0.422184328732986003 1.40634160288581689 -0.24810375799102638)
(-0.240466742331061412 -1.10920202706207394 0.0168392983426322064)
(-0.346947219577830701 -0.883955491466384746 -0.0919500290256002883)
(-0.165698754754389221 -0.277575241658413463 -0.402606575837224423)
(-0.0745273337554324677 0.26782533389423846 -0.578969397494512039)
(0.176626463382541926 0.811749537058447213 -0.314985165424249314)
(-0.304301358121860321 -0.881184857442799618 0.0209646690216682974)
(-0.394384972194577688 -0.969165125602488242 0.0471997233597968024)
(-0.371799163283542178 -0.479407741395398546 -0.0416727157950557911)
(-0.124888885086985091 0.14764511270175526 -0.288838837024305461)
(-0.0742119548065823115 0.417179402312341241 -0.373577281916739223)
(-0.294058165970315311 -0.769623773162572911 0.0564931530606302967)
(-0.370237652508854098 -0.766323773680595677 0.0969264200999441355)
(-0.404119984564556223 -0.589714929428925783 0.0933140181962600762)
(-0.294395872992849306 -0.236372646739209324 -0.00383500355571522733)
(-0.207477046668567616 0.26443970255425614 -0.287224767005354931)
(-0.283117452305801209 -0.724106227462008034 0.0461323494509161131)
(-0.338515477224932304 -0.692745457487330851 0.0958776978341479291)
(-0.36001941584924757 -0.594084110325990289 0.121357740416150856)
(-0.314439818956640638 -0.39933281742516108 0.104287947366582784)
(-0.215403829633449145 -0.0859270468386013064 -0.0288041460400421667)
(-0.263515667266922049 -0.636889026948810999 0.0399800385009707396)
(-0.314273879290812186 -0.635534731593642488 0.0689472699701568909)
(-0.354668860959550303 -0.602896534130783923 0.0983711818914174974)
(-0.358967481817089817 -0.495760423773537962 0.112774055024237929)
(-0.319854320171770401 -0.238741710167425125 0.0784352211908620478)
(-0.246349709330914823 -0.559535927010505141 0.0280996932155385577)
(-0.295824837125590989 -0.551540486536945873 0.0422975860001189585)
(-0.350113974617222545 -0.544178038060878055 0.0582830333515757526)
(-0.396888244604683471 -0.5088201948438551 0.0718110444955608884)
(-0.424688375438611487 -0.341631352410373623 0.0584546504170127545)
(-0.224378357052356064 -0.492447056881266665 0.0146885065422193463)
(-0.27141620337476291 -0.473296287707029473 0.0197590379146548242)
(-0.328790507930911247 -0.456580358760226845 0.0224575697322498165)
(-0.400458050310257385 -0.434590573333924146 0.0209268232704959076)
(-0.481464414196401513 -0.361131348570427502 0.00675373991516586836)
(-0.191659693820590615 -0.433349106782606797 0.00461678048530570102)
(-0.232855005209052779 -0.402621262980011108 0.0041077233579765067)
(-0.28389108523658102 -0.368037397411992762 -0.00101014180908760159)
(-0.352570646925291109 -0.32954082290144443 -0.0142976174676781032)
(-0.443474448737987803 -0.266455653108078672 -0.0420209443685350473)
(-0.146178456638796139 -0.386857842002239383 -0.000885308923793208177)
(-0.177542924431115468 -0.346772499474615192 -0.00352065758841087206)
(-0.215544299565895214 -0.297648565853219971 -0.0104376346672032001)
(-0.263595957808884784 -0.237817503196808777 -0.0250822067698410617)
(-0.325158201332708341 -0.16259551347071341 -0.0536134120073801998)
(-0.0907809149696182233 -0.35506346976265396 -0.00214019525538580984)
(-0.110026386959341471 -0.309498622614677199 -0.00464173599481151368)
(-0.132566763742762106 -0.253334829360333635 -0.00985253333418088621)
(-0.158682248252020541 -0.183865078400437809 -0.0194737491448886899)
(-0.187823465120407845 -0.0976989404439977671 -0.0363991265602011324)
(-0.0301471919003483621 -0.340034700931757916 -0.000736953007700623603)
(-0.0365201906112307267 -0.292212477335266063 -0.00176865308219333224)
(-0.043774194316754049 -0.233885545738679757 -0.00362308744866983706)
(-0.0515869010435720116 -0.163227631234621445 -0.00667799090660018725)
(-0.0594850574018432054 -0.0787842313197313349 -0.0114177000390568006)
(0.730463860703698398 1.18071669368898347 -0.229858808573822321)
(0.517510310332749968 3.24200786789768136 -0.50168808333068815)
(0.625070319855738243 1.05344266107720919 -0.125147063063551278)
(0.610671924387505172 2.8619577320714793 -0.3842857664428041)
(0.265779924566751313 -1.20164111699756404 0.0149014150386217389)
(0.346629487926315538 -0.895649722006154114 -0.00317949775461650458)
(0.191525780163497472 0.494031733297594366 -0.0151014218179124637)
(0.351458520979829159 0.810222894964182982 -0.0638208455679870057)
(0.613759543592744539 2.47589351360566035 -0.291766455666260471)
(0.259397343651169343 -1.30101618080061909 0.0631483613379970193)
(0.229351894767606007 -0.890917274752037192 -0.0421218981746321469)
(0.173184499629111283 0.57165377143716678 -0.149081860765916729)
(0.122021175720286715 0.60107062500485342 -0.129531056433016767)
(0.542531217067120264 2.01464923903249504 -0.226969718842072093)
(0.113124798142328981 -1.46375020797290323 0.0594740044648718463)
(-0.161467666827900536 -0.695256728395275747 -0.130442044792485862)
(0.257168896953995973 0.399401735458720264 -0.312441816932448768)
(0.0310421512445175421 0.463656671922666463 -0.362810558895652557)
(0.419571052171329784 1.51601575488199347 -0.23539685008368294)
(-0.183464649511636463 -1.01422080692956285 -0.032865993379176249)
(-0.296747629278313441 -0.860962231249052468 -0.0782056687223043334)
(-0.0296430002716235874 -0.128094348463538787 -0.400505561223986728)
(-0.0348603569317136042 0.320288286384238619 -0.591706875128035881)
(0.237391594729939509 0.978204767055035451 -0.31876879226265481)
(-0.223576791719659385 -0.81530652052834196 -0.0534810571829022821)
(-0.326817346467125347 -0.906455852064540379 0.0322176859459213163)
(-0.310161635132804536 -0.409373162666145707 -0.0451259015137706332)
(-0.0692083943466512141 0.273405415523761741 -0.377507401834840051)
(0.0118612057999000868 0.540058467081824256 -0.388423320740707512)
(-0.224847484917568174 -0.732808087307924128 0.0112886859153596107)
(-0.302609652452908717 -0.776369670804601952 0.0849564085966701549)
(-0.312853241819314898 -0.560801163316523854 0.116888428366017191)
(-0.169410375324920981 -0.111025388579961609 0.000618943595532439605)
(-0.151885588638744573 0.326193473462134897 -0.295003900719685574)
(-0.263450362185765341 -0.711254832667744918 0.0592169391174569848)
(-0.304314337203517249 -0.701276242358714219 0.0979082788551181166)
(-0.314709127275269784 -0.57753088877805514 0.127677877714481941)
(-0.247283182270237128 -0.308794056821234786 0.125833370327252003)
(-0.182393908569544766 0.165901303432692382 -0.0714958081032372045)
(-0.238311183865755144 -0.648285734911069333 0.0351202253178230575)
(-0.290846784529544766 -0.653246180909368146 0.0659206884939139148)
(-0.321844246201848039 -0.609112120981306737 0.100312123621729032)
(-0.302558986749040415 -0.460034383939281866 0.125595767582772244)
(-0.235794922299703641 -0.142329028565542526 0.104594858215665554)
(-0.234898624983281346 -0.569655647791694641 0.0218475825185139826)
(-0.284154326180050654 -0.572358592183411563 0.0362209219813795294)
(-0.336210093246503305 -0.567975359079279096 0.0568763947547899357)
(-0.372667920507598838 -0.50505908064606353 0.0831610402182346442)
(-0.377327450564692579 -0.247392133539353132 0.0873096162762125316)
(-0.218954297569550649 -0.500511848222443101 0.0108373278470773864)
(-0.268696721336852407 -0.48802043955525215 0.0149118555423371005)
(-0.331271236712291695 -0.480269019194756341 0.018545550777512191)
(-0.407034994747456136 -0.454272340383779505 0.0250720856837335533)
(-0.480007680524107416 -0.324634458241077062 0.0271468420290123524)
(-0.190772427883128065 -0.438697834022513111 0.00236038049507653752)
(-0.234867644474924753 -0.41071304279772175 0.0014119528569835442)
(-0.29205951752855186 -0.380961309967454864 -0.00409860081857475744)
(-0.371549879864621735 -0.346506210749175481 -0.0152527865045190211)
(-0.472074065127065678 -0.265592420161043119 -0.031788109489538037)
(-0.147128016184324889 -0.38959892874576435 -0.00184806453710801948)
(-0.181344529854701952 -0.349982018139620932 -0.00456192906554415793)
(-0.224341393258072369 -0.301199202415544987 -0.0114773330245551142)
(-0.28209969667205631 -0.241746139731532028 -0.0256787193182947057)
(-0.359800166876131367 -0.162450943261242597 -0.051890796692768984)
(-0.091918135131977885 -0.355973141282602934 -0.00250651070695463891)
(-0.113064741557474077 -0.309561437688450014 -0.00497292730419194966)
(-0.138682560598273719 -0.251522686738946233 -0.0101332295184703887)
(-0.169935611485235366 -0.178330098216418154 -0.0198411592843180627)
(-0.207656215270212136 -0.0855757980186370726 -0.0375222080205806011)
(-0.0306247221144086527 -0.340135823383588831 -0.000842655497551496628)
(-0.0375798806359133944 -0.290940863781401493 -0.00182072160246347383)
(-0.0456885749593152479 -0.23012940309995894 -0.00361118183521070332)
(-0.0547004584656542031 -0.155192073247712281 -0.00657563605147218778)
(-0.0643740170225276936 -0.0637424801927419654 -0.0112548092448026653)
(0.699206591000962052 1.375756471869233 -0.19844470556168739)
(0.471781345750456271 3.3223832098278101 -0.399187708104554728)
(0.627776920735424127 1.2274008385669688 -0.168383679920302592)
(0.579086499367429286 2.9066196455400708 -0.313420218151095331)
(0.260800663272334476 -1.17610104358950562 0.0394100185277903789)
(0.304341719923125198 -0.643284764977870349 0.0201289704910032445)
(0.121194053054233988 0.629990944184722457 -0.14021044180741904)
(0.379644111842841747 0.99424111243814639 -0.169742845123772912)
(0.601777185963623729 2.54122421383839603 -0.261254128439697864)
(0.201862394479151136 -1.26966421278262143 0.130861329517813207)
(0.136642139158149517 -0.545077032742210088 -0.0227763919369888233)
(0.0851569031641863788 0.791973821106877529 -0.166850737018036543)
(0.167949653426475443 0.701759709421980071 -0.210888383498166909)
(0.551245618143825777 2.09611204636836268 -0.230009887793869355)
(0.0284368138221009342 -1.28897206117914132 0.116052364910734132)
(-0.207540881708003444 -0.488268827406549144 -0.146774895013701112)
(0.15620883005156791 0.600950461631020616 -0.20599012914454673)
(0.0627981067020404043 0.480898627235062159 -0.333621627462981629)
(0.460510564149651747 1.60967717834816759 -0.231921540322543335)
(-0.214894171308544601 -1.05986405369365388 -0.0216131905429461542)
(-0.30304893372941738 -0.833622731210347356 -0.101582152585840579)
(0.069902699499647461 -0.076190512086589654 -0.260407285529727472)
(-0.0143294617321201075 0.297715272689188459 -0.504938536582691944)
(0.305276073396856529 1.05481633416152776 -0.299539647512235163)
(-0.20980663064353744 -0.920874489871546964 -0.00378761133701810459)
(-0.324180147614401726 -0.935430913411539167 0.020878226802188319)
(-0.287431500232252168 -0.403083341315341404 -0.0578642172812142211)
(-0.0467081756917524932 0.205060412480023241 -0.374133471936884898)
(0.0662717338200929096 0.524087561172080996 -0.375365348521785325)
(-0.167721531805417601 -0.864292783992517077 0.0413009195972082119)
(-0.283515646061520243 -0.825036013364641607 0.0766751742647709261)
(-0.253004760454453637 -0.591235899997728076 0.113058742658979527)
(-0.0772334639481100926 -0.130525763153858748 0.0271163360536940574)
(-0.0920260803567798241 0.221710200400598662 -0.287580584845531173)
(-0.216901002746793775 -0.747923303509909432 0.0595562143755235807)
(-0.269380651423061557 -0.741866987035098902 0.0967177255689752879)
(-0.264858484479761791 -0.612039294742744988 0.135168407105405397)
(-0.183785144296909647 -0.330201487160443841 0.146795370553522819)
(-0.149911906333306033 0.193535142681205863 -0.0321008562416588844)
(-0.220381217757152359 -0.653607858184068413 0.0270980969356836715)
(-0.268806254730499461 -0.664924947252861775 0.0594250315526624051)
(-0.295486584791923967 -0.628371208685021942 0.10485078734990716)
(-0.269115801961708201 -0.464049824150829071 0.14210112640401712)
(-0.184420579646879024 -0.10021238524818421 0.121885411849828346)
(-0.223023288538803377 -0.582505646329779081 0.0152805742296215664)
(-0.273683976821673725 -0.591613066530606968 0.0294587676285996414)
(-0.326598671235009408 -0.589922491063052501 0.0529298637737774802)
(-0.360345311709950378 -0.512374751738313705 0.0906672384968135181)
(-0.347066906052459045 -0.218812810486950921 0.122229762677456805)
(-0.215232958099169203 -0.506713980491924842 0.00672907482528796799)
(-0.267694141476319702 -0.500224714481729227 0.00986201187039108425)
(-0.335179039348589392 -0.498630309808945626 0.0148033585887030195)
(-0.415473609931976018 -0.469826655973935248 0.0304742001021332393)
(-0.474767636186870068 -0.29786159671426965 0.0524274912959762709)
(-0.190094583697153763 -0.442953465337625918 0.00056478617463752781)
(-0.237483571083447559 -0.417258616893873502 -0.000767451295169578607)
(-0.301219849645509685 -0.391209644490469521 -0.00555091604278939652)
(-0.391094294197381676 -0.357960680138694975 -0.0114012701468984012)
(-0.498254443398235825 -0.259124954347928704 -0.0131285471040016519)
(-0.148089058386549233 -0.391544929326930136 -0.00231330576977732683)
(-0.184957000886894568 -0.352296234241071538 -0.00486652165720884329)
(-0.23254134420337319 -0.303757612805984734 -0.0112556750767574456)
(-0.298927000422483602 -0.244395760638212112 -0.023407403799498426)
(-0.388650257380174835 -0.158473872945343736 -0.0431364040114925879)
(-0.0930049838695336806 -0.356440427358245937 -0.00248732090161493408)
(-0.115926840438322326 -0.309296247038513605 -0.00468568885283886065)
(-0.144454364110937927 -0.249525028168284202 -0.00932932661276878253)
(-0.180934559535720768 -0.17308057158307133 -0.0182993322863276783)
(-0.228007234534564951 -0.0743281524663200466 -0.0349485144657172633)
(-0.0310747201276819485 -0.339923318849037037 -0.000826577495889294685)
(-0.0385517275289767314 -0.289567628449916681 -0.00166905388718365444)
(-0.0474283146800265898 -0.226502215419472769 -0.00324105757236295205)
(-0.0575542038900375696 -0.147535014561535449 -0.00585617731202855291)
(-0.0688175961586422469 -0.0493748828380854987 -0.0100531016183164467)
(0.691894332922449173 1.43750433294057345 -0.144614836216439141)
(0.45387613949239286 3.38877182393432674 -0.250513293975763385)
(0.639221967603089025 1.25262654333845491 -0.121489400914853274)
(0.567262546039365767 3.00257444959281461 -0.198844323766143333)
(0.311050065310810919 -1.17527864846792629 0.0905816934845953131)
(0.397316455337922536 -0.843702785378097064 0.0877784078841981064)
(0.231445068922233266 0.179656187421154301 -0.0393647643705620498)
(0.420523488479723151 0.791942065288861574 -0.116695786541920227)
(0.597389059417966162 2.65212545073550832 -0.169960436068089943)
(0.353212214352001119 -1.22411042741736176 0.161956901775959367)
(0.323892273259210384 -0.813699154031398364 0.0911742684082758326)
(0.301562057328684185 0.10022681619814322 -0.0892513026435560186)
(0.236874811016490633 0.419411667004009003 -0.157510133997084023)
(0.56815335225718655 2.18993889968041655 -0.152586695073179235)
(0.176661779674347125 -1.23788921089797999 0.233447302429541453)
(-0.0662352201425358972 -0.528701753854997625 0.0179039295544710375)
(0.304167258114030725 0.240917007522241378 -0.137341537335599589)
(0.0995458737942716138 0.316172428076723411 -0.340760295057282225)
(0.495152347264160242 1.68258706961825477 -0.170769078399789026)
(-0.080983303681619101 -0.911041673504409677 0.142256406466630375)
(-0.252001520544640145 -0.779466280317651194 0.0372956845524111819)
(0.216710654752219345 -0.151770187460774725 -0.116057388109383208)
(0.000736014626336298911 0.171119749409018862 -0.447335288439400347)
(0.343395693163233318 1.09051574451317745 -0.250314001769274874)
(-0.137242395640700565 -0.9176543558708814 0.0563387900553078413)
(-0.283380897446717239 -0.942464146000205338 0.0727241072981195669)
(-0.213294383906918572 -0.5228456633059404 -0.0170814598579369821)
(-0.00584946348606657507 -0.0384516167586755608 -0.337120331936566486)
(0.0972245575658894773 0.41879050432681092 -0.331488674474807121)
(-0.0803984997646158966 -0.933965475916010646 0.0213358818131306263)
(-0.230394239477356322 -0.924358335108289575 0.0645075552747852443)
(-0.225769186922294696 -0.712559131123587153 0.0928461426673496959)
(-0.0490746872381692956 -0.369587768441575926 0.00378046226417649324)
(-0.0746736874925410521 0.0337605607584576251 -0.273871912978266463)
(-0.181266004125694352 -0.761021599496598644 0.0127925160618316894)
(-0.221640448428370607 -0.785329724116476058 0.0583428667238633583)
(-0.226503993111409091 -0.706028359386247639 0.108000845229404258)
(-0.144070525555743845 -0.464876639733735386 0.118179734825143753)
(-0.173561372262683727 0.0375879448832573682 -0.0228626589934350019)
(-0.2049905083774754 -0.663051257502015545 0.00716850128656946941)
(-0.250559026849929312 -0.683591105494403495 0.0385287361489359062)
(-0.269092827337811979 -0.662714145776032271 0.0877726220839600418)
(-0.246600914295001666 -0.528111820134687937 0.135972430437614755)
(-0.16379752408153847 -0.171507598409828099 0.123632515307745175)
(-0.213775624084789395 -0.587653467041792998 0.0100376245379272828)
(-0.264729869377651805 -0.602908913772013944 0.0228080139876138469)
(-0.314740538549494464 -0.607215510013617843 0.0481081082734877846)
(-0.349282934001275081 -0.539986355967653098 0.0932433748947832097)
(-0.321851748714147512 -0.229011779871287208 0.11810766305009919)
(-0.212656226518972452 -0.511653434489294567 0.00313075936314960619)
(-0.26866655499258929 -0.509729074555064998 0.00594926580077708399)