/*--------------------------------*- C++ -*----------------------------------*\
| =========                 |                                                 |
| \\      /  F ield         | OpenFOAM: The Open Source CFD Toolbox           |
|  \\    /   O peration     | Version:  2206                                  |
|   \\  /    A nd           | Website:  www.openfoam.com                      |
|    \\/     M anipulation  |                                                 |
\*---------------------------------------------------------------------------*/
FoamFile
{
    version     2.0;
    format      ascii;
    arch        "LSB;label=32;scalar=64";
    class       surfaceScalarField;
    location    "0.600000000000000311";
    object      alphaPhi0.water;
}
// * * * * * * * * * * * * * * * * * * * * * * * * * * * * * * * * * * * * * //

dimensions      [0 3 -1 0 0 0 0];

oriented        oriented;

internalField   nonuniform List<scalar> 
20390
(
0.000155459890273384219
-0.000108139959271855163
4.64827302118708076e-05
-0.000113015275186329549
0.000258471704989641344
-0.000123445783210579042
0.000163268789334492241
-0.000171522985737564859
0.000335419826588959221
-9.73977274489372179e-05
0.000211569667848000284
-0.00020180576712791845
0.000390562287800336628
-7.1001985617702017e-05
0.000235535287348215413
-0.000220745414836599318
0.000431956715233838731
-5.67767323101208617e-05
0.000248897414021432358
-0.00023438007966563508
0.000465222694138989017
-4.72023038514905583e-05
0.000258336019613964493
-0.000244993459701630268
0.000492412719711425128
-4.02956953685852019e-05
0.000266516617299604507
-0.000253787082099744051
0.000515757724936828058
-3.61203073377290373e-05
0.000273486358915219299
-0.000260927199602862658
0.00053595771030479078
-3.37088779196850321e-05
0.000279907573062046792
-0.000266561694986709903
0.000553610116334797759
-3.22232715729781487e-05
0.000285220252989658665
-0.0002708189907389351
0.000569499126150155538
-3.14160673100880508e-05
0.000289139947994775288
-0.000273819554981268747
0.000584353738242410041
-3.10970695973316046e-05
0.000291709082439501265
-0.000275587459159386066
0.000598623730642251946
-3.17167327363623345e-05
0.000293219506278208483
-0.000275897540264788139
0.000612522849865483111
-3.24165266458182664e-05
0.00029322466252334193
-0.000274835124645963764
0.000625967652612877861
-3.28025287492029793e-05
0.000291876405626437761
-0.000272641190211248994
0.000638863759293614893
-3.26712347138097481e-05
0.000289289662180590283
-0.000269634370191297742
0.000651242646511314112
-3.25134397330803981e-05
0.000285955640611242014
-0.000265953594478713035
0.000662980055786276936
-3.22762814620699534e-05
0.000282161450148116493
-0.000261781036117489309
0.000674529365490878006
-3.26147878807487372e-05
0.000278215181148645243
-0.000257371989837341703
0.000685005078748695639
-3.12448234434526331e-05
0.000273873570535625036
-0.000253392438703097357
0.000694571567987641351
-3.00678821257063653e-05
0.000269305429362080731
-0.000249151749626799193
0.000703610772689806691
-3.0011092040129151e-05
0.000264872221344291346
-0.000244366143038901888
0.00071350433149248028
-3.21596334466555026e-05
0.000260875773629142395
-0.000239239621431415798
0.00072242242990591557
-3.06114380873247197e-05
0.000255959011096098263
-0.000234980954579440534
0.000730572838532693989
-2.90063806518398247e-05
0.00025018346030353971
-0.000230090726278025934
0.000737696547946071471
-2.7956179601911239e-05
0.000244722919160046638
-0.000224866354482151259
0.000745722716962812998
-3.00263618398981594e-05
0.000240278443988106553
-0.000219628646469251237
0.00075198079838551023
-2.80536142088353736e-05
0.000235590708676660011
-0.000215541579877028639
0.000757991253097727849
-2.75520342846044555e-05
0.000230249643945215101
-0.000210898934535387145
0.000763313529384750718
-2.61673819604110153e-05
0.000224182038584535729
-0.000205898169652288026
0.000768265348243055992
-2.66395651538455837e-05
0.000217860110224073038
-0.00019928668804312233
0.000772671491136064383
-2.66379475904966218e-05
0.000211314278251012173
-0.000193147629900218044
0.000771346440157893868
-2.01404168787365518e-05
0.000204559809430937794
-0.000187909045332480736
0.000758572377240224411
-7.54555747478845291e-06
0.000198635231209012966
-0.000184056232489297088
0.00071053620231642349
2.6038301703730101e-05
0.000195507674867544372
-0.000180053166353639149
0.000556428199244385835
0.000129149416236534287
0.000194339077327394702
-0.000176842464377358939
0.00025521014502733223
0.000275173291844782529
0.000189265318575883567
-0.000171481201200801374
0.000234278315604369145
0.000125646881897530788
-0.000113864515757021028
0.000101247462413043079
-0.000101346634664575168
1.08837004242159997e-05
-0.000133761378634886637
0.000193868392967307005
-0.000126690090993432917
7.39335435323173378e-05
-0.000175387257058439279
0.000265860789396676856
-0.000102490156447859499
0.000121078966832019591
-0.000198909635667087153
0.000325555857007960633
-8.61872835403168698e-05
0.000158380372611266614
-0.000211347140639871786
0.000369004498471078141
-7.65607459751389591e-05
0.000180308958487745996
-0.000219380139171068038
0.000409784333191123514
-7.11366748492429528e-05
0.000201128205603802554
-0.000227440766763250201
0.00044220820407092626
-7.34942921574366283e-05
0.000213493904467303066
-0.000235201230340299094
0.000473926228475317498
-7.05776934356077887e-05
0.000229202998349421815
-0.000242279701803502386
0.000502039238747488598
-6.95356596609101289e-05
0.000242718913875143071
-0.000247973307112645609
0.000526994497618770981
-6.85999084681422914e-05
0.000253144499145755775
-0.000252292545243275269
0.000548884696205856554
-6.7253597083541519e-05
0.000260886647428513303
-0.000255285370342443784
0.000568052378536406635
-6.63875218748492975e-05
0.000266189224178057637
-0.000257037773947839843
0.00058491907409390087
-6.68431544747094964e-05
0.000269329229177592061
-0.000256971083122624388
0.000599799075787324585
-6.68253337478187133e-05
0.000269872336828960225
-0.00025520412417332698
0.000612685758711728609
-6.65377439822052187e-05
0.00026800222925139536
-0.000252049068197905777
0.000624072259951855652
-6.53554200607647367e-05
0.000264188652692525351
-0.000247937351337097431
0.000634025373269912133
-6.48040005413363289e-05
0.00025932515420399872
-0.000243059075203348653
0.000642094316196229527
-6.36062761078033288e-05
0.000254213189301054365
-0.000237771509891201971
0.00065070471229476917
-6.25886066113935674e-05
0.000248981363065795859
-0.000232314981725863917
0.000658235241665729815
-5.71790676544675478e-05
0.000243188300443188913
-0.000228034270930695636
0.000664665617810434044
-5.65150912573962491e-05
0.000238231850981014594
-0.000223335082150513242
0.000667167318517266792
-5.64647609870048698e-05
0.000232774667002907026
-0.000218451423521562777
0.000673295249434805679
-5.56535032646725204e-05
0.000228961650625416084
-0.00021226372516568615
0.000678685977300216717
-4.55310308196884981e-05
0.000223998381199737811
-0.000208879385182789287
0.000684627971922998507
-4.78954187939557602e-05
0.000220036363978504134
-0.000204063219734084566
0.000684252046084674482
-4.3035714779161468e-05
0.000213961439010438767
-0.000200163189234996435
0.000664156029145292139
-3.98942789485318161e-05
0.000203056717856068305
-0.000196047438621239673
0.000643755073915792627
-3.44647146416174902e-05
0.000190497277604564962
-0.00019027599464389164
0.000649995937691172756
-3.26305443942412996e-05
0.000189341785339013264
-0.000190298980690158434
0.00067182957807269939
-2.6265499508613488e-05
0.000192323495169163398
-0.000190034249350255183
0.000645137139424893668
-2.18848197282725681e-05
0.000191505563835663397
-0.000186181774171461175
0.000570964674270179164
-1.85059871937288354e-05
0.000176477793993013018
-0.000170994937810766838
0.000474953083543109352
-1.33445554424087214e-05
0.000134531168382022074
-0.000132893777357310605
0.000548054325871303108
-6.83756509685116646e-06
0.000139186209256809951
-0.000135705991365609303
0.000582957977047572021
1.17962598704933124e-05
0.00015210150197708189
-0.000150452993579773065
0.000500076034418185113
0.000123660685223512959
0.000154111029286593782
-0.000156852546278570226
0.000328637776964679881
0.000408197146077250619
0.000182625718410472991
-0.000174444957617265052
0.000535838939286707619
0.000200255155907249472
-0.000183425066369218497
5.13378626823494385e-05
-4.75079106820709094e-05
-1.31040815168960024e-06
-0.000108897922356666804
7.08003024319231054e-05
-7.39631613185747058e-05
4.23330837777653404e-05
-0.000146622305189482633
7.52014351148794707e-05
-6.51012392160491493e-05
5.50013497751060252e-05
-0.000154694915231209213
8.70944068372958027e-05
-5.53020543578572929e-05
5.61894787535316173e-05
-0.000148881949470906018
0.000100280969252090178
-4.53334158688871932e-05
5.87993215811092866e-05
-0.000148667560997257957
0.000119545544317845945
-3.85328290113538845e-05
6.291383929081126e-05
-0.000151453807794454877
0.000177607750344104865
-3.71009685882178172e-05
6.55983530285838147e-05
-0.000161679651777731309
0.000209679943569824863
-3.56108939765539706e-05
6.49594014836883893e-05
-0.000171034418135426487
0.000252835568447142521
-3.53495512955673735e-05
7.0313631876227993e-05
-0.0001789586003321276
0.00029119419715927658
-3.50886358239618676e-05
8.03606217954076665e-05
-0.000182994238702073044
0.000323673790540593615
-3.50431064301051767e-05
9.0468061438373664e-05
-0.000188382237693199013
0.000358319891372952943
-3.46437271999771898e-05
0.000105993638881714865
-0.000193244020938830498
0.000373048715411335814
-3.5052248339727108e-05
0.0001201868188840626
-0.000196776956439721789
0.000377752953866952517
-3.45206556745062543e-05
0.000124086579240350648
-0.00019757863445891028
0.000375023807223815722
-3.30833824031480551e-05
0.000125069248855374355
-0.000187323035190983274
0.000377439257954354955
-3.089226937392875e-05
0.000128206182493901323
-0.000177498727350186916
0.000376681439697818974
-2.88286210577499418e-05
0.000130575802401613946
-0.000169651582978858268
0.000350582104922351296
-2.63504035908658327e-05
0.000123402735981151994
-0.000163316855170092854
0.000298307754823009586
-2.38553433500846559e-05
0.000100845599770360873
-0.000145716684163696615
0.000293385378734050263
-1.99799488701634786e-05
9.11016393581227132e-05
-0.000123493498562882701
0.000321762202471936746
-1.75725963565734007e-05
0.000109945430933547979
-0.000122278045589736275
0.000292544078419516645
-1.56771659440962523e-05
0.000100891151161264827
-0.000140221972993716465
0.000198036591714519301
-1.44582646387450247e-05
6.3667101552598469e-05
-0.000123601845535256568
0.000176555626657903906
-1.04140774536453622e-05
5.30165446048641304e-05
-8.44703042672700124e-05
0.000209028999519440052
-9.06233282152975472e-06
7.61111407723942741e-05
-8.44652004014773665e-05
0.000180237687605372518
-7.33707564782738081e-06
6.30063956715623948e-05
-8.71034800964963404e-05
0.000121938555940086457
-6.2245342685484357e-06
4.04375914573156252e-05
-7.79054845124097059e-05
0.000108520098488732331
-4.26262169878242996e-06
3.55275434442163318e-05
-7.73235607892878551e-05
8.97504616597330653e-05
-3.3960047371886714e-06
3.38335755799940257e-05
-6.33236625487244376e-05
6.46690340870315647e-05
-2.11289922595115254e-06
3.00221924311753355e-05
-4.098487521587792e-05
5.09310820609576968e-05
-1.06853747719443442e-06
2.41372120485221124e-05
-3.3832680371866306e-05
3.95592691059067463e-05
-6.07403989374561427e-07
1.94695070066578514e-05
-2.41812275656053683e-05
3.20211826848786692e-05
-3.96557930046459817e-07
1.48836068748224726e-05
-1.80042119427477885e-05
2.99304663945773875e-05
-2.51856280311883658e-07
1.13774958843034782e-05
-1.42358631200047726e-05
4.48700354889571733e-05
3.63283116759274228e-07
1.32595545771554195e-05
-1.60589809543473886e-05
0.000127023884508943038
4.07878592568770366e-05
3.91506870161572505e-05
-4.1216605852307206e-05
0.000214244160940567206
0.000296008182129318194
0.000140061839046501629
-0.000140486724095402856
0.000723005307902269416
0.000188992431828493234
-0.000175834157219837447
2.94695535039685079e-05
-3.86416292886580597e-05
5.93654432760656559e-07
-5.70499516461567835e-05
3.94084141379867615e-05
-5.64213933570181285e-05
2.89545977130810367e-05
-5.83477891522901751e-05
4.10389021187093398e-05
-4.59036884663361909e-05
3.70719984559685705e-05
-6.01625226819060415e-05
4.23546385195203737e-05
-3.33150857436095548e-05
3.53778576088097704e-05
-6.00837746022003891e-05
4.431538106028114e-05
-2.3458521071976567e-05
3.11611267928481209e-05
-5.56314292797293952e-05
4.90540668634024778e-05
-1.72299422372745155e-05
2.70116972026973655e-05
-5.30977012560229395e-05
5.34797140152077453e-05
-1.3409097316190386e-05
2.26075042061492194e-05
-5.03370209989883175e-05
5.75410591097002787e-05
-1.11005165171520428e-05
1.91905643015049592e-05
-4.69649002843436223e-05
6.05747261969678276e-05
-9.91386647390386875e-06
1.74309659905109575e-05
-4.48669073453556697e-05
6.22849124394411573e-05
-9.43778731066951729e-06
1.75681797543070459e-05
-4.40542300048865106e-05
6.39763664562479001e-05
-9.49344961251784587e-06
1.80527648204291527e-05
-4.46936455124836491e-05
6.50163052892092252e-05
-9.85643993358256819e-06
1.87849399049364079e-05
-4.44497225012669653e-05
6.3610418070419669e-05
-1.05436490908428987e-05
1.97595759700305452e-05
-4.28712486136450754e-05
6.04526960649501752e-05
-1.11070914624179367e-05
2.07500069680386775e-05
-4.16055460198508736e-05
5.63355155042078855e-05
-1.07120539018159484e-05
2.12470905160748787e-05
-4.05454061911976804e-05
5.1850376755246277e-05
-9.51574772973547874e-06
2.12121688792533749e-05
-3.91241289735186869e-05
4.66056675581916864e-05
-8.05155642116591884e-06
2.02930315639132571e-05
-3.66083344236165721e-05
4.06007738257634811e-05
-6.70093636183103223e-06
1.83426549263613442e-05
-3.28491921997811523e-05
3.44946892698499757e-05
-5.57906912177307912e-06
1.59572663628028435e-05
-2.88389329776091444e-05
2.96887731177066144e-05
-4.43584243973500972e-06
1.39704966434524394e-05
-2.49125231309447634e-05
2.5412630435448437e-05
-3.47685692992945184e-06
1.20582289269574303e-05
-2.18126937072139128e-05
2.13790774711791332e-05
-2.79825843292125457e-06
9.9128591076413187e-06
-1.88517888411569833e-05
1.72354278235181622e-05
-2.42809477429223059e-06
8.19975494136649481e-06
-1.61297855445118656e-05
1.44319931579539612e-05
-1.77480814412881173e-06
7.16485621915044947e-06
-1.31141974814313103e-05
1.15915457805719052e-05
-1.23894353527885358e-06
6.00891665658290991e-06
-1.10924399692137356e-05
9.28451210361650887e-06
-8.36748971993618191e-07
4.46744275130220056e-06
-8.73485006498460139e-06
6.99483012936971787e-06
-6.3514722849954538e-07
3.34119337300578892e-06
-6.77714858183962377e-06
5.27058440728405659e-06
-3.89219842081085825e-07
2.63038463845534354e-06
-4.89460857495129559e-06
3.52823765769278493e-06
-2.50980318023351193e-07
1.93081291252211496e-06
-3.45162149936351634e-06
2.15977171849819954e-06
-1.45990923901337618e-07
1.33147213023816088e-06
-2.06305189555642598e-06
1.40018936411592187e-06
-8.071831444503513e-08
8.64070818724402095e-07
-1.15039271986001731e-06
9.24459562246189021e-07
-4.8379119621284096e-08
5.37537402911746351e-07
-6.59769593499440633e-07
6.42753777041373375e-07
-2.82471760713305053e-08
3.30736308749519507e-07
-4.07176900616114456e-07
4.63107919516417821e-07
-8.42351672927289417e-09
1.98272035363950375e-07
-2.51601456551988069e-07
1.00026667912389055e-06
8.72618449304769363e-08
3.04010098780336586e-07
-5.78488013271448416e-07
3.11064862707588583e-05
1.13737032890865858e-05
1.32592940717485413e-05
-1.4054317347132452e-05
0.000111926004081562845
0.000136316387594430605
7.84973741700942587e-05
-8.24570738168608e-05
0.000805902214630167205
0.000176350326449455552
-0.000164881782802978765
2.10815900628147682e-05
-3.33259776022239688e-05
4.22238884715768821e-06
-3.15686494834429996e-05
2.20942380453329254e-05
-4.00407483388638813e-05
1.99909282301465583e-05
-3.76675590470658663e-05
1.83860724889822137e-05
-2.85785173614925986e-05
2.27037736737451958e-05
-3.81201033567213216e-05
1.55371635452565039e-05
-1.79375064034502381e-05
1.75299442530508287e-05
-3.09847056376473737e-05
1.45049815647237292e-05
-1.17400000829340575e-05
1.24391076920682255e-05
-2.38673003554797797e-05
1.48842341914933753e-05
-7.95762603070758467e-06
7.94660272758538078e-06
-1.80998134787571008e-05
1.59668961654343034e-05
-5.04698273261827705e-06
4.92545899692533311e-06
-1.44787848744956127e-05
1.7286472301693032e-05
-2.89886402411753412e-06
3.31670791704350548e-06
-1.24452053398907346e-05
1.85563645824564317e-05
-1.79274807385615783e-06
3.05910297689793101e-06
-1.18313171041493649e-05
1.98387709562442477e-05
-1.29166124352055106e-06
3.26297811860565944e-06
-1.17238426300069475e-05
2.0541552497512227e-05
-1.30824403196202802e-06
3.94347578179341888e-06
-1.19312640028390582e-05
2.07197817371995935e-05
-1.67415613239012315e-06
4.60714731979555677e-06
-1.23315791475726769e-05
1.98673138331822315e-05
-2.28589191976396741e-06
5.07731374232053479e-06
-1.22069848545974628e-05
1.80520704072305855e-05
-2.99530206551234621e-06
5.3753842473626948e-06
-1.17602866900577351e-05
1.59160142311817726e-05
-3.46360808334534207e-06
5.62686628912675284e-06
-1.12089270689740649e-05
1.35843843318319735e-05
-3.10488157125501142e-06
5.40203548584010928e-06
-1.00405878547813314e-05
1.13870420567402023e-05
-2.56963152563803926e-06
5.02092600276442326e-06
-8.80114377635777219e-06
9.35824126525586886e-06
-2.01708678812389134e-06
4.41005945933376564e-06
-7.41322177899004475e-06
7.50156816359894729e-06
-1.55832885566508385e-06
3.68756302249178179e-06
-6.16173988769160174e-06
5.94785851724812435e-06
-1.15525834163036991e-06
3.05045729836751251e-06
-5.01239233395895448e-06
4.75271783279543057e-06
-8.3698725821151253e-07
2.50476363427252919e-06
-4.02096469781562186e-06
3.82209295172342263e-06
-6.4608430360993579e-07
2.03905654742048422e-06
-3.24314363053026126e-06
2.90702476336528551e-06
-5.46283725117487922e-07
1.61677759514820415e-06
-2.61674027277377079e-06
2.16712719179853187e-06
-3.91536761153428293e-07
1.28660181700380807e-06
-1.96731393553860881e-06
1.56863379045850536e-06
-2.55771906751279048e-07
1.00016665031884217e-06
-1.42590475244601754e-06
1.13791819925658639e-06
-1.71383285418104722e-07
7.29929354634356485e-07
-9.70849652229045752e-07
7.66646038572344107e-07
-1.24653462800986363e-07
4.88181205481335629e-07
-6.30602918879973045e-07
5.01076443946090008e-07
-7.75723364046105156e-08
3.07059879162379746e-07
-3.67026448659593084e-07
3.0480751627013096e-07
-4.45639657038394202e-08
1.76642369062754173e-07
-1.94320680278148058e-07
1.81754571614318646e-07
-2.58209180713419625e-08
9.4343879824610581e-08
-9.1910992821302739e-08
1.1227803503059646e-07
-1.36339121637769553e-08
4.72951810211280217e-08
-4.43524178441979044e-08
7.48248777325366588e-08
-8.45031805581220363e-09
2.50058885686426318e-08
-2.39856213668780626e-08
5.89569744599415189e-08
-4.59410471736007998e-09
1.72136331244372033e-08
-1.66320224682356443e-08
4.88090081680745703e-08
2.09732276779548352e-09
1.03512374456678086e-08
-1.07352862653864454e-08
1.11706120510845775e-07
3.68068809423829777e-08
1.76621054781926985e-08
-3.25283042351235111e-08
8.16764314300732076e-06
4.044871845588822e-06
3.76309489779763021e-06
-4.42227768783635615e-06
4.45467386771625045e-05
9.49939032484011398e-05
4.07743538105565222e-05
-4.2574974276173663e-05
0.000826768204141175612
0.000170234301054398868
-0.000158901516984668619
1.29454649040778988e-05
-2.58523834165547744e-05
5.28046141690330674e-06
-2.55591983013295167e-05
1.07746290188111951e-05
-2.46755478943705623e-05
1.20275027212495339e-05
-2.62087318883409112e-05
6.90613064146073035e-06
-1.52548367855312404e-05
1.1051304491416713e-05
-2.17622808109344345e-05
5.54258599172998124e-06
-1.0651996929718062e-05
6.58305201078801413e-06
-1.33730182268206135e-05
5.90020811150701884e-06
-8.66913833121042835e-06
3.344197153565374e-06
-7.60795646934358304e-06
6.23917433683626588e-06
-6.42975174121170996e-06
1.44260524913752622e-06
-4.30269411077941296e-06
6.35275293278051494e-06
-3.95540092828361908e-06
3.5296704068011592e-07
-2.37958802161273104e-06
6.42342454194810279e-06
-1.65793937042062039e-06
-5.00437626763650115e-08
-1.94917324543686163e-06
6.8085321883983473e-06
-2.49996547930099043e-07
-5.0357831021810717e-08
-2.28953670019145866e-06
7.57429522217880811e-06
5.78751971992489595e-07
2.47765459083389804e-07
-3.01166853025386454e-06
8.36095008700387514e-06
7.40866085000509572e-07
8.89227321827154989e-07
-3.61932428858891345e-06
8.9516966425870511e-06
3.08081586261188458e-07
1.56725306204011294e-06
-3.94597499922129291e-06
8.90642855546424553e-06
-3.92191716839099396e-09
1.77911472537795244e-06
-4.00248318408930458e-06
8.03877004690758986e-06
-3.82935845238332018e-07
1.61547392660234599e-06
-4.06114043050064844e-06
6.8071221878059702e-06
-9.74087568498100823e-07
1.79257778646896264e-06
-3.74551670967321323e-06
5.68062451847086697e-06
-9.16710181596428538e-07
1.83877432713012503e-06
-3.40325138749554777e-06
4.47170452072714579e-06
-7.71202852450101337e-07
1.86102971193818041e-06
-2.93253416097169726e-06
3.45401203997054648e-06
-5.46247718265617718e-07
1.50225513739712843e-06
-2.34612704369486922e-06
2.62593644017851704e-06
-3.45818687645347849e-07
1.18923003101862495e-06
-1.84323616226012348e-06
1.96311310008008101e-06
-1.92857444377034019e-07
9.19707923858003405e-07
-1.43173554507272738e-06
1.48689231799536163e-06
-1.24125947802189172e-07
7.21269985557478491e-07
-1.11623257120501341e-06
1.1523880155381823e-06
-1.23113411083945843e-07
6.18881862739168779e-07
-9.01168131464654388e-07
8.51023720114609647e-07
-1.08444896807517983e-07
5.45059207311118504e-07
-7.26810234350278759e-07
5.98624804127149021e-07
-8.06538913644120536e-08
4.38704778389604661e-07
-5.36138902201294544e-07
4.15308357425813786e-07
-5.89240522196668135e-08
3.04740612038665794e-07
-3.43022333390793529e-07
2.64369988823919682e-07
-4.31840014072976936e-08
2.08533477655548009e-07
-1.979439196053189e-07
1.54733461440143695e-07
-2.95926015612957835e-08
1.06948388166052687e-07
-9.61266299820915056e-08
8.36137345409355405e-08
-1.71587961387335837e-08
4.8350688707987619e-08
-3.79254563466705314e-08
4.27978682890573003e-08
-9.37560291394297611e-09
1.86639445968290095e-08
-1.22665976547090779e-08
2.45389736138693146e-08
-5.27308544425666356e-09
5.95128021657945544e-09
-3.17602189399481366e-09
1.540266307078531e-08
-3.51414232971069716e-09
1.21742606123568648e-09
-4.76862115284514311e-10
1.44457809029129236e-08
-8.44368766519441584e-10
-1.85295772763040108e-10
-3.82398456091208327e-11
1.92320472386683923e-08
1.65702408081388711e-09
-2.26761356784283493e-11
-5.95932795593563063e-10
1.51891722861810031e-08
6.57126012232422824e-09
-1.07166100193514627e-10
-1.05251897945342429e-09
3.15061114704580569e-08
3.04534319743021919e-08
-6.98809085857346346e-09
-4.86239068873346217e-09
2.56999542055227381e-06
1.83344285197775724e-06
1.33094622250302449e-06
-1.65074176789647609e-06
1.83763082439834706e-05
7.57591946210503319e-05
2.90778324467527783e-05
-3.00650593007651084e-05
0.000789458690378193025
0.000163940577703020518
-0.000150883193461794855
7.65353609367874108e-06
-1.53269290982653357e-05
2.67257484209157278e-06
-2.03068502776990778e-05
4.89361347689441788e-06
-1.35355163026112599e-05
6.14759259800217757e-06
-1.50244875329287691e-05
2.78422727851576685e-06
-8.9081442397978097e-06
4.34190960474438822e-06
-9.26555445331443103e-06
3.41105333821175885e-06
-9.47453859030586963e-06
1.96761888373268817e-06
-4.3367506148559517e-06
4.64359614613630718e-06
-1.00441866338816643e-05
6.92729952451512892e-07
-1.59401667674116679e-06
5.07729483812268318e-06
-7.50892414688920792e-06
-8.01646272940886088e-08
-1.49344336705539367e-07
5.13360989501994113e-06
-4.52704916707181418e-06
-4.50810685223864079e-07
2.04191995902192012e-07
4.90931986886178341e-06
-1.83760057095134478e-06
-5.0983065639711139e-07
4.91800134265424411e-08
4.5433576861603082e-06
-1.38707929295744324e-08
-3.84054402227807005e-07
-4.23858892608254613e-07
4.76370484151749807e-06
8.5449935096649721e-07
-1.42494944743709713e-07
-1.06856805792245433e-06
5.48059697308351281e-06
1.05260171393842956e-06
1.42950786761393428e-07
-1.71480928636133398e-06
6.08075486995373872e-06
6.51681134913228156e-07
4.79867677480119357e-07
-1.78477420354412524e-06
6.16162060890389577e-06
1.21190133263082128e-07
7.10287225269677643e-07
-1.49561994460879482e-06
5.06197715215002405e-06
1.34825879717765744e-08
7.14785768235101152e-07
-1.54806773992617549e-06
3.62621934963586752e-06
6.4675665004794847e-09
8.0805262012239691e-07
-1.60188959809277894e-06
2.8721314623552689e-06
-6.19685570566008442e-08
8.8110969192303332e-07
-1.53653982236409357e-06
2.11817658179283932e-06
-6.13334455592736174e-08
7.47842699805471636e-07
-1.15237269133636664e-06
1.48862773152467331e-06
-6.95290334828859359e-10
5.46364408236868667e-07
-8.28703946677781705e-07
1.13507295616872821e-06
-5.38102893737380228e-09
3.52906326570370032e-07
-5.69901326034936278e-07
9.59275209217136085e-07
-7.0033818942911717e-09
2.66424780422347569e-07
-4.45488048827352574e-07
7.5190220347257514e-07
4.44607867037718245e-09
2.42727465292535024e-07
-4.12842981429646289e-07
5.53427714233272363e-07
4.24637565563901455e-09
2.62011691215363627e-07
-4.32759159436681257e-07
3.05735849765987313e-07
-5.1383824402608968e-09
2.73123995217556217e-07
-2.64081280744252385e-07
2.00238689812031541e-07
-1.41135333820376522e-08
1.71175937865982352e-07
-1.65865346781312211e-07
1.19739641133413043e-07
-1.34991523135781147e-08
1.01484641040625785e-07
-8.22723907659440437e-08
6.05744136827918687e-08
-1.0145328124872012e-08
5.01605885718784263e-08
-3.04442853286096937e-08
2.89061958177093749e-08
-7.28609023951374006e-09
1.63440447636000379e-08
-7.29002566784915571e-09
1.48978808383344552e-08
-3.71328671211149197e-09
2.98282894323997708e-09
-2.58764765950666985e-11
9.73639993136853052e-09
-2.01295492706611734e-09
-1.42805409712863949e-09
2.22221926044923788e-09
7.16388626869050804e-09
-2.85755520816925881e-09
-3.17821992315431582e-09
2.80059255545580759e-09
5.78516471180534526e-09
-1.15410458410765165e-09
-3.08108115143725178e-09
2.23759521622441186e-09
4.91571426349391054e-09
5.19216601862738923e-10
-3.7277679191253058e-09
2.34345351318419075e-09
4.57270453695791353e-09
3.0128602882408955e-09
-3.03835134643777934e-09
1.95987268378248986e-09
6.9503574958777355e-09
1.08937040450940023e-08
-9.20860889716562197e-09
1.79612936096555772e-09
2.62088990627089337e-08
5.52704481853774438e-08
-4.38536072793189286e-08
-4.10602114448552466e-10
8.05650297708588995e-07
1.1344260844368933e-06
6.02930389805991866e-07
-6.94688571494564578e-07
8.97438558203604422e-06
7.08391381840752567e-05
2.26066949046134391e-05
-2.14705216866723525e-05
0.000737110790325893402
0.00014574489935261314
-0.000140925973728439049
4.35833823060759392e-06
-6.77023205389319721e-06
-4.87549028035083138e-09
-1.25558933034919511e-05
2.40784257367600155e-06
-6.61796374298621229e-06
2.39228101883986018e-06
-7.47648927044154022e-06
2.13960580009623871e-06
-6.8354959977477283e-06
1.42877733865694493e-06
-3.4887356024318135e-06
4.28860259674914516e-06
-1.14391632016652202e-05
2.55474051417511197e-07
-9.96997098560151996e-07
5.6039515441497364e-06
-1.26693729919654339e-05
-5.0702504101314814e-07
2.93157168078551622e-07
5.54364258560690457e-06
-9.55211725725013117e-06
-7.62354984035713948e-07
7.32866701692597051e-07
4.8645473827720806e-06
-5.27676196467126145e-06
-7.5358666426343157e-07
6.04106603725097142e-07
4.44868486988942814e-06
-1.95738535946637171e-06
-5.83945401450556178e-07
2.42596031513985909e-07
4.00337041065124434e-06
1.20186668463726322e-07
-3.58556682659639756e-07
-1.41889469494266715e-07
3.90555896548783131e-06
8.64117085125591109e-07
-1.20171035958462983e-07
-5.1341861206103126e-07
4.09710065771462758e-06
9.60930359378375859e-07
8.44182720117064082e-08
-7.86609282944090446e-07
4.44662700597317599e-06
6.71969623185017734e-07
1.89732228027966038e-07
-8.41235735707221922e-07
4.4308353806871394e-06
2.00969344885035009e-07
3.4012679424365573e-07
-7.17918073710697658e-07
3.29990222207448995e-06
1.24052329245878134e-07
4.90624205887261019e-07
-8.89119957071898552e-07
2.00906856227649321e-06
7.48543637394348116e-08
5.20435868302698778e-07
-8.82334055490932017e-07
1.21013117842158321e-06
4.35026685084345202e-08
4.80278261861982339e-07
-6.94009349671626055e-07
8.10865517779560206e-07
4.80002245682240306e-08
3.26155269367169136e-07
-4.37176325948388603e-07
5.11045824490753796e-07
4.03248084711459937e-08
1.84799483901598536e-07
-2.5670445052533858e-07
3.89403230627149861e-07
3.29094802536129153e-08
8.5618923648198692e-08
-1.6700507458074565e-07
3.65107453405445916e-07
2.19597945705221286e-08
4.89642132181375721e-08
-1.41901963761773358e-07
3.72086417686987625e-07
1.72958755936825022e-09
6.51780754085939208e-08
-1.5845231314362319e-07
2.49370574002340014e-07
-3.12756308887415406e-09
9.9365491782234951e-08
-1.57864794941834607e-07
1.12471569632832927e-07
-2.66432076765591911e-10
1.00038616740883437e-07
-7.99702001298325004e-08
5.66617067437576879e-08
5.51594783064991768e-11
5.56843372748880746e-08
-3.63831455079473469e-08
2.22307451774284584e-08
-3.68631595562181226e-11
2.12170963663075456e-08
-1.01987918580654972e-08
8.63768010624482312e-09
-1.98074205227159808e-10
3.59893608575104217e-09
2.91250577767986243e-10
5.29808307330711627e-09
-4.69076846421601911e-10
-2.11260130605881171e-09
2.32027164463655346e-09
2.78876158061249395e-09
-3.80934988180319125e-10
-3.03424667297138144e-09
2.53964518495083194e-09
2.36467094721370762e-09
-3.61161924847368318e-09
-2.65501832257311752e-09
2.63731181418710168e-09
4.11090853524724802e-09
-9.59763138916182064e-09
-3.19847086231489651e-09
5.356471959054319e-09
4.74550037561858377e-09
-4.02597162176578378e-09
-5.68440591959665995e-09
5.85436535169684076e-09
3.87958145627268057e-09
3.38124043937107731e-09
-6.3414700888918036e-09
4.34369289001129078e-09
3.69185339287905158e-09
9.61674072901349837e-09
-1.16229433352612448e-08
4.1119156985458755e-09
9.01777382210235276e-09
3.95021656884597057e-08
-4.37569577373119013e-08