/*--------------------------------*- C++ -*----------------------------------*\
| =========                 |                                                 |
| \\      /  F ield         | OpenFOAM: The Open Source CFD Toolbox           |
|  \\    /   O peration     | Version:  2206                                  |
|   \\  /    A nd           | Website:  www.openfoam.com                      |
|    \\/     M anipulation  |                                                 |
\*---------------------------------------------------------------------------*/
FoamFile
{
    version     2.0;
    format      ascii;
    arch        "LSB;label=32;scalar=64";
    class       volVectorField;
    location    "0.600000000000000311";
    object      faceTraction;
}
// * * * * * * * * * * * * * * * * * * * * * * * * * * * * * * * * * * * * * //

dimensions      [1 -1 -2 0 0 0 0];

internalField   uniform (0 0 0);

boundaryField
{
    inlet
    {
        type            calculated;
        value           nonuniform List<vector> 0();
    }
    outlet
    {
        type            calculated;
        value           uniform (0 0 0);
    }
    top
    {
        type            calculated;
        value           nonuniform List<vector> 0();
    }
    bottom
    {
        type            calculated;
        value           uniform (0 0 0);
    }
    left
    {
        type            calculated;
        value           uniform (0 0 0);
    }
    symmetry
    {
        type            symmetryPlane;
    }
    interface
    {
        type            calculated;
        value           nonuniform List<vector> 
104
(
(-41.5493843041209345 0.0240165318747544258 0.00614891443717193679)
(-1.05723856153566409 -0.00219668266308611611 0.00310339147536264426)
(-3.43823708330202926 -0.0102482977224682571 0.00659509192237585102)
(3.1924500127359341 -0.000258336581167459061 0.000164380815578275428)
(3.45584160051715505 -0.00035865726580876163 0.000269513129842221372)
(1.33730252147085649 -0.000324081710552298196 0.000248920015477687351)
(-2.58134846952657115 -0.00017358104600826964 0.000133406444418594295)
(-5.75319037986672743 -0.000108203592330049017 7.79518876763598531e-05)
(-7.57823240424270761 -1.95719149002503431e-05 1.40508045799820686e-05)
(-7.9066639489078705 -2.38648944626547959e-05 1.51024104792562986e-05)
(-7.528264260080201 -2.96045519010367902e-05 1.19259362571697218e-05)
(-7.08845745435505137 -2.28551565478694659e-05 -1.70598752394667431e-06)
(-6.91185928951371054 2.68625564705638842e-05 -4.69812570962996376e-06)
(-33.981306718137489 -0.00565168029283901786 0.00544116863364892643)
(-9.05001027445872808 -0.000178732215229346141 -0.0001745443762183698)
(-9.2289103068936722 -5.61177373408262994e-05 -0.000112056669563372072)
(-9.28833621039036927 -4.09228696092147213e-05 -3.59850714181951986e-05)
(-9.23391929815108448 -2.39324143792388086e-05 2.20387029585177433e-06)
(-8.80810902256328809 -1.94667285411708656e-05 4.05382217942652528e-06)
(-8.27367029687218292 -2.69925769436423885e-05 2.44425615906483819e-06)
(-8.02681738221267516 -3.80637751464836939e-05 -2.37420458385357707e-05)
(-8.07231401200333742 3.4946212821891796e-06 -6.80589477718910164e-05)
(-8.05711954834278998 2.29108892991346331e-05 -5.34060234155901421e-05)
(-7.87452137304829147 3.61355148188794879e-05 -4.86751798570193034e-05)
(-7.61098815337376422 3.2275671507956335e-05 -4.73471569733144797e-05)
(-7.39973179284805216 3.42074438241158116e-05 -4.56082455781694479e-05)
(-15.5125891679580938 -0.000955763326757101185 0.0013618739896199398)
(-10.6344079093516566 9.14002235067580494e-06 0.000213070608773449014)
(-9.73056442004149602 1.45956831130426251e-05 -3.82591321768629343e-05)
(-9.51872309409879946 5.5857231114399356e-06 -5.89678622527234854e-05)
(-9.35812061885390278 -1.54956002004123198e-05 -3.98396393540296215e-05)
(-9.134504123142003 -5.68131311739031635e-06 -4.38363771056277831e-05)
(-8.91167299772706123 1.50737087147976054e-05 -5.47468146259187172e-05)
(-8.68957428976291979 2.87965991059121412e-05 -5.65800531432424824e-05)
(-8.44925640962514279 3.40494437040876711e-05 -4.8611552722794162e-05)
(-8.2563272524480098 3.55714149784062543e-05 -4.31528642594371586e-05)
(-8.06418871928021908 3.82008357260750476e-05 -4.06991495099609483e-05)
(-7.85508843250848088 3.44855973884836305e-05 -4.08985312495271781e-05)
(-7.66216148844812039 3.06744871589768121e-05 -3.83682298775707439e-05)
(-14.2187208403451919 -0.000923934579701791406 0.00198992896889592201)
(-10.9672322190187312 6.07929739219612768e-05 0.000474709212494755432)
(-9.98496230942430962 2.38823625952146629e-05 1.71949554947810832e-05)
(-9.65575001839053826 2.19439229801803689e-05 -3.00159892202487648e-05)
(-9.48768402345385198 7.19691762620876044e-06 -3.32075019558369987e-05)
(-9.31437939279485327 1.29774453784243801e-05 -3.61755414196665513e-05)
(-9.11536485000906893 2.26753889289228122e-05 -3.5806188197124716e-05)
(-8.90119639627105386 2.92041328889072048e-05 -3.46788792614028448e-05)
(-8.68981645187894181 3.23700956752508674e-05 -3.52025469372682477e-05)
(-8.49436122624438816 3.42932998914581954e-05 -3.58639811758882775e-05)
(-8.31088937943076012 3.61352735998134853e-05 -3.67090569740256598e-05)
(-8.13317553017160577 3.47317205354709862e-05 -3.81352681322417718e-05)
(-7.95279165448955894 2.82205465970934004e-05 -3.78742718950008482e-05)
(-14.9294678481889846 -0.00107076038501230982 0.00262529564999171988)
(-11.1705015503494316 0.000103950007619400153 0.000781887436270791185)
(-10.1325594463597586 3.04187052786485889e-05 3.17461935685323075e-05)
(-9.85402024263332343 2.72442977839762583e-05 -1.47031751382660957e-05)
(-9.67048863789354307 2.0952155377721884e-05 -3.22690466173067747e-05)
(-9.4917295542386988 2.12895369599870898e-05 -3.68854209085246244e-05)
(-9.2901935507451423 2.58030405469545879e-05 -3.67570831578522953e-05)
(-9.0815080813768958 3.01885334186253506e-05 -3.63766666186109505e-05)
(-8.87965225853359819 3.34921726835481627e-05 -3.5826974886139181e-05)
(-8.69037400471763277 3.57178403835585633e-05 -3.48915788082029135e-05)
(-8.51825964774336875 3.72687447685546449e-05 -3.40513331270454967e-05)
(-8.35853427513577785 3.58184860600330445e-05 -3.36054555980162169e-05)
(-8.19551522932464138 2.79300102727882406e-05 -3.33367599466806851e-05)
(-14.8344073883079588 -0.000905418642967212089 0.00282510902337301242)
(-11.1462194376910748 7.00782800845617875e-05 0.000537589742697721349)
(-10.2783169953772884 4.9450914055529904e-05 6.07163375284723952e-05)
(-9.96035652405448246 4.31369628671918569e-05 -8.6290019483572918e-07)
(-9.75829662480146531 3.66347077397879739e-05 -3.15984923539900617e-05)
(-9.59859307082456148 3.29087764117558346e-05 -4.2281674454107903e-05)
(-9.4140806219012596 3.47476625000199088e-05 -4.22897164935807078e-05)
(-9.21281191409996758 3.8835743013326216e-05 -4.13092116632435326e-05)
(-9.01991109327841656 4.2163045712736191e-05 -3.98702201110847775e-05)
(-8.83886432650155918 4.38874697650388075e-05 -3.79821417722929985e-05)
(-8.66912178979300307 4.51607368008924008e-05 -3.58067906574224706e-05)
(-8.50304345163998576 4.1849241639066868e-05 -3.47644214878262028e-05)
(-8.34183593182030236 3.6073558482484317e-05 -3.35336502505379297e-05)
(-15.8061770238787513 -0.000271230479314545157 0.0016795703221266999)
(-12.146348418112753 0.00019419205987251462 0.000550147541776023529)
(-10.6815369837408749 0.000140527703170584332 4.84318644431107727e-05)
(-10.1452335359598163 9.40200927805947011e-05 -2.86194090130029218e-05)
(-9.94335186396228288 7.61195964660360482e-05 -4.91591217145958688e-05)
(-9.80186313646118279 7.33006466409436648e-05 -6.13211317012959375e-05)
(-9.60918784260557857 7.70258056459618648e-05 -6.66414863389062413e-05)
(-9.39852838392969225 6.91507333289669414e-05 -5.61404717281693656e-05)
(-9.20808642641811481 6.13167502865840215e-05 -4.63428454578421748e-05)
(-9.02991425304417916 5.97908997917807791e-05 -4.32216410796202959e-05)
(-8.84461797285059603 5.59850791775838553e-05 -4.20122727216367338e-05)
(-8.63854374941702297 4.79357740056707008e-05 -4.24102230823450251e-05)
(-8.44533798776293487 5.35486731933845783e-05 -3.95903480519866783e-05)
(-17.7119896550686278 -2.64900031242502503e-05 0.000352354293391479061)
(-15.1166931197608534 0.000481182503751735125 0.00050354812985991496)
(-12.4131064470344352 0.000593822934351837905 0.000223858487798246983)
(-11.1669643368487055 0.000212191433392438665 3.83431748879256766e-05)
(-10.7620897829656972 0.000150193388607331308 1.08102836282962963e-05)
(-10.5023606508164207 0.000121340157104334438 -2.56723085753703517e-06)
(-10.2025505597025621 0.000122947335793600459 -1.2016333722712745e-05)
(-9.88290931544872642 0.000102703843652626934 -1.57911415833177204e-05)
(-9.59069014136631459 9.34802437169822843e-05 -1.7200520024123824e-05)
(-9.36187963124293354 8.45467629633014239e-05 -1.80745704587336702e-05)
(-9.17817222831139112 6.71704682116776357e-05 -1.89115679730924664e-05)
(-9.03245131298114323 6.0029792817357423e-05 -1.65093121321410064e-05)
(-8.98097682723135904 3.80117735974704377e-05 -2.06270044177068832e-05)
)
;
    }
    procBoundary3to0
    {
        type            processor;
        value           uniform (0 0 0);
    }
    procBoundary3to1
    {
        type            processor;
        value           uniform (0 0 0);
    }
    procBoundary3to2
    {
        type            processor;
        value           uniform (0 0 0);
    }
}


// ************************************************************************* //
