/*--------------------------------*- C++ -*----------------------------------*\
| =========                 |                                                 |
| \\      /  F ield         | OpenFOAM: The Open Source CFD Toolbox           |
|  \\    /   O peration     | Version:  2206                                  |
|   \\  /    A nd           | Website:  www.openfoam.com                      |
|    \\/     M anipulation  |                                                 |
\*---------------------------------------------------------------------------*/
FoamFile
{
    version     2.0;
    format      ascii;
    arch        "LSB;label=32;scalar=64";
    class       volScalarField;
    location    "0.600000000000000311";
    object      p_rgh;
}
// * * * * * * * * * * * * * * * * * * * * * * * * * * * * * * * * * * * * * //

dimensions      [1 -1 -2 0 0 0 0];

internalField   nonuniform List<scalar> 
7236
(
111.349623963912876
255.975092833749898
381.86906675169638
388.473207056181877
366.990394789060758
358.189648492253355
354.700196154584887
352.192582590306927
350.45704461752041
349.985585331425114
351.062175251314045
352.924714741222431
355.667038797640203
356.562461866941135
354.133653748773781
349.143753599471381
343.527793615990163
337.472472371737069
331.684781513631094
320.138679308562189
309.454039285951637
306.441860198639517
307.266699395760554
293.795368003224667
279.33551328727367
273.962780292489356
275.969002724258587
266.070125644814084
255.488625965213487
245.008338838501373
240.641618624601932
236.38537116660973
225.18755761934176
230.486823589863519
352.168873695930358
753.138885863603377
1634.15340420758866
2561.38460861612521
46.7260793746638825
155.418316606067009
271.683006897521466
300.794685130994083
304.047050418725803
305.765870309576655
317.299724479142526
327.316500667910191
333.325050715064663
338.534954161356723
343.238677295620619
347.464007764115365
352.225871446546876
353.032673505594289
349.41075606091249
343.161397967098821
337.602759416594722
332.083598949701695
326.963368092543476
309.247260615769392
300.145598817956397
301.045412743058876
304.563203648157582
277.134325076201264
265.299697372656567
264.606269049351681
275.952308501529501
256.341033190044698
238.099498377351068
217.827900477755634
231.035887726112719
227.099870249044045
181.498599777196119
115.620120442580614
178.16776777792046
418.895003152056347
1263.9848199734904
2465.38921065397017
89.1647824004641336
133.288488791713121
204.935656031694748
196.523030312280525
197.330081944519435
211.305604894179254
193.180153006951485
219.924380920882072
237.045934826008647
248.000657056599238
264.746494381405796
270.620726866547841
290.766268454873
291.453092239119201
279.890706360548563
253.400008015570336
241.436198242947171
239.37537685045433
254.654182797725866
178.061957133833374
139.037146457961427
179.763468883260543
240.971302647675344
115.335967080965659
59.7001787871335878
76.8741708359578269
132.9297555977179
56.6885670978774243
59.5324993634860746
15.4793705775594042
2.03401530666153985
-3.68288962407609066
-3.52646248130206441
-1.27652950737538817
1.86827623962922384
55.1090581412990588
712.587731050596631
1960.83052061749049
32.1037293270209076
43.1467102376749878
69.7770332068564727
68.6571628481019616
61.7468105521575197
55.5942119544119251
47.3937893228296829
36.7429031472075351
28.7010450630797394
24.3737543994171695
21.6381322568375154
19.9821498616526192
18.6756543485798581
17.815684073892843
16.643286665729498
14.7880908382666298
12.6272084337013748
11.12017046968427
9.39901319197124074
8.34678946524936904
7.17132019749915806
6.09906381101298489
4.72113107494368922
4.51432315281625129
3.74458466586914129
2.93793520992351453
2.4347624728094055
2.44822305188019085
1.98983748999671572
1.8953118696156932
1.57977138455339627
1.5806086764828291
1.69206143524675734
1.98454330092603426
2.61293716226458805
5.8944906087537694
327.357819058968573
1337.86897973743362
3.30796249701648515
30.1520754472456929
50.5717842626031313
49.4598044724169341
48.7958102651723564
45.1323069922362166
36.9894807399020564
27.1669154666095167
19.8121383374527227
14.9740639100497628
12.5806166823297776
11.2702237121132587
10.7725893963393968
10.4994163042010129
10.1750133857912175
9.12041256619157714
7.80106469640087496
6.67838612508546348
5.94447480968329067
5.45986237848743095
4.87713322819567452
4.28516120157148173
3.72128640744381478
3.3282332651336306
2.946223795656842
2.64105823395324357
2.38176683055505745
2.27480577924915117
2.08179235974236931
1.92266462514092384
1.78425058257952762
1.71874766326853212
1.78591310383235236
1.97618059788996914
2.31196574174679093
2.98641462429236881
56.5014673472714577
914.547552994212992
3.93124151153624002
29.8869602881782974
38.7185814849953971
40.4499988304037075
43.1490698983024004
41.2118612827622215
33.1962155782137387
24.2973254412967812
16.8968839988679029
12.3091454614734381
9.84461181969593824
8.30341089186528869
7.76605027030547568
8.95356938775798206
8.17580967257129743
6.78680480447430057
5.92787183886229929
5.1311402045284531
4.55344378356138879
4.33819575301164306
4.15504865437093329
3.84609866542455814
3.27553260250998024
2.83047126105924773
2.61105510285616393
2.4375139701665578
2.296459945001188
2.18023596833224609
2.05240195332026198
1.9088340208798229
1.77521212666735262
1.69553071417352319
1.74679085596805006
1.87886061032738239
2.12817196226535144
2.4995612696869407
19.3994750559941558
719.851679022035228
9.71477220030886279
26.2370090697993454
29.616281192003683
34.9116428221495809
40.9875743909770165
37.4755927192214742
29.4188227271613378
21.3240991184375801
15.3677480401496691
11.3734542890713684
9.10473988566134373
7.51794412962066527
8.10442881855507835
10.3138537770451713
8.83348300419598509
6.02090269739823469
5.03988560821563425
4.36106903722073902
3.8046125229815293
3.74033555830507591
4.33398724110769074
4.18038841303461339
3.28704674776841177
2.57461292885693638
2.42823946653585176
2.33634570973767275
2.25054396341830953
2.15965775117770198
2.05007248445550827
1.90484202691177784
1.75503654575557344
1.66391939853956439
1.66885884704897691
1.7899628745590197
1.96171435127988114
2.147540185884385
6.73164893103613782
638.445308463817582
16.9463268884473806
22.052613971182236
24.467357740126527
33.5118687054672151
39.4995668497400416
37.0023228903093511
27.4290646562590688
17.8693252271997594
12.3370010964501162
9.38438369402501316
7.66858050465289853
6.60315171909739629
7.71661670152973134
10.4944611943681441
9.48894690278651431
6.75648327814227834
4.62340619641411354
3.98715283340265936
3.30796219518303003
3.17235421016656094
3.41477104715476276
3.52158803299253975
3.02774694134422884
2.44047097513206968
2.35075458440625074
2.29123311532637652
2.23952574002876137
2.17408894308056766
2.07348434356495837
1.91609021080493536
1.74036786601407689
1.61754305712064972
1.61870754648533777
1.72664656325282695
1.81965611814168882
2.00816771434716612
25.4030451878530243
563.806756371399501
18.3721644379317368
19.7548828426711331
22.899667105434272
39.3523701075645889
45.98585804830374
38.8608851139569254
29.2199024984015026
20.0724118738738255
9.57613223675299352
7.20036184821469494
6.11555592984263807
5.50831854847596336
5.83243202764310631
8.96392141992721569
7.9414308506598017
5.63153428745597306
3.73363035060201343
3.22524818870289165
2.95270485451631437
2.77204233186921423
2.66101544307502591
2.63923146575165113
2.65717743112330229
2.47767381121013797
2.31933725015331671
2.28389260611781841
2.25402682638194918
2.20381019893031338
2.09627754277120548
1.92593793355075249
1.71846616192760604
1.56601000308276506
1.57297644575086237
1.69035288316323906
1.68493767928118454
1.82680816329054418
72.4433035761282156
520.589046211278969
18.9669533938380432
18.7930715002509068
26.0461358065004731
52.7570957970837355
46.1832696896882027
36.9462999138805159
27.23063927882502
14.4321520605606217
6.43219985743644518
5.294239186305008
5.18499825711471285
5.02092635443512769
5.51665179355695479
4.74174562531876642
5.43937963884660292
3.33909136590397893
2.97145724631245445
2.81285875811828223
2.68340763267521609
2.55946978790719459
2.44079221424563375
2.34872445741922498
19.3556189258808651
19.0891014015717992
46.5218640551855955
55.3906489891505203
47.9846793602900377
36.0384528687332022
10.8115826722518218
5.76134117348638242
4.41862073970747726
3.76602874777681729
4.16570821357817422
4.70023850274372545
3.85531616946119549
2.85215931257952704
2.96114731674642062
2.76068484730023433
2.64070459380378075
2.54230544337884234
2.46320683263879303
2.3888432393624166
2.31792848243305549
2.26858175684537144
18.9964085995267986
23.5577868889412194
72.0594532425292158
61.2902059844827463
49.941342479813045
12.0771381068779942
6.45571916678390512
3.72125267859802156
2.869109666659166
2.8524630626106493
2.79579721058539343
3.17658030928511259
2.43272945795558337
2.41130565243775408
2.45643452602447754
2.44573996849241659
2.3787618524649905
2.32565899688798261
2.28195142865955836
2.24481423377792755
2.21488410340563346
2.20084530569278991
18.7055038397094222
24.9576362295645211
88.1192261448232586
70.2382142688456099
26.008440292623817
7.66309433853206201
4.13352762618776115
2.15667500966428483
1.8039374587457333
1.8313822526631931
1.82145557613768938
1.87722450770691363
1.92411621856247961
2.04018421670948058
2.13176626402672742
2.1533323596984455
2.13908745673032819
2.13074654451365886
2.12323723788367547
2.12138896200224902
2.12596428754044586
2.13822864474723984
1.10200165416035478
1.29709980519782664
1.42659547255362096
1.59674758245693349
1.74374213727550798
1.85287450939829457
1.91538925666237447
1.94069792175287303
1.96693756495751249
1.99275604371837733
0.924717092153428899
1.14380038182654764
1.34561397907864477
1.51508411820828992
1.65054005765220624
1.74591104922020546
1.81862727439277494
1.87737807941952473
1.0070398232921165
1.21906521715357452
1.40412342962832315
1.55396830930717611
77.5755060463591235
152.56591252093861
230.006959408931948
252.658511046876953
253.202514418786251
262.241306209330332
270.063685019013576
269.637577236636957
268.286633441334686
268.167298963527173
269.983929045756781
274.184179595092075
279.545799467116126
286.173544287771961
290.832735166694079
294.73851583722336
296.302645152537536
293.672669976413772
288.55716630800822
280.899789909378001
276.686879348902323
274.390304287394486
265.508399983939626
255.309756686267832
254.576771945753165
253.64255107421161
242.935768981070083
228.947381707417264
223.322094101210894
224.235180576880907
226.465379838919034
221.627275468715425
213.748653344557113
226.520673744067267
329.252964603300768
689.80772449999904
1551.13902723230876
2480.6924261711938
20.2168794552196971
41.3028418109346731
110.456393743097109
160.053115665249067
170.57564027455868
202.057202016013719
219.112799967721855
224.946847257987002
230.929857563330444
234.011629215161378
237.488568987582454
245.277139213765111
256.11346034964356
266.449880690076611
273.574389216129362
282.067395664899777
282.252082762323482
279.745372913041592
273.077664792280302
266.069460028780895
262.950333007924087
264.870706724045419
249.360681970891989
234.362428438162397
238.950883728467062
247.442273124855205
225.44201650209672
192.464920820614111
185.015987604225103
201.174001104361992
215.042016892920628
196.200077901109097
161.633754736616282
139.165434244317936
177.285450511653636
340.434926080941125
1174.87366810379172
2371.7138696117413
19.7464327672262847
25.7187689000834396
58.3246886151005342
63.2435002345496429
56.8076094764835489
52.9737502374524638
48.1867073713091898
41.4553606916469093
34.9681044116010824
38.7747678705628189
48.5908952964868206
65.6570180925386495
73.2106292016017619
105.866121785938788
112.220011393411212
134.913409557525711
151.452247183637013
134.919088830249137
100.090606417114032
81.5213795955693428
94.9807554894987476
91.022510326429213
31.1506346782153081
21.6889981253631063
50.44953176887757
33.5447865031236816
-1.05167447490190291
-2.10634619027685632
-1.94435339544774788
-0.45562016582730136
-0.529063508523348824
-0.566067507613440934
-0.607378403216417895
0.393132261351858359
2.36676281151090251
44.1075734884588258
650.265235473808161
1861.56969867964472
19.7908433613801584
26.0658816210852926
42.4446097699857461
41.6767096425995618
40.8258770377242257
40.5236874737642836
36.439422705859279
29.2150580183198407
21.7455721823156303
16.2280787584461521
13.2427650502131815
11.8768566542368195
11.6167889676799128
11.3066527931291176
11.8905845273116633
10.8893977864702514
9.8513946105472705
8.69664334290621888
7.52411375375450042
6.57392947053289056
5.78138028596239462
5.11788485429050155
4.87478073000628065
4.07191182745556457
3.13539369676857405
2.79995595758640103
2.46898100585098534
2.13934636195266314
1.99192510007472356
1.75142705402850063
1.68763805120322519
1.78462945394053585
1.91753731000788452
2.26968142555368546
2.83543673064038337
5.23494953096683613
277.923428687902174
1256.39041504018223
18.6628591570993407
24.3668116344487728
31.8670248657909312
31.5587333448689087
34.6971989552767397
36.1364775169530859
33.1203351762632039
26.0540308555546574
18.9134682275563826
13.1849099290090894
9.67605065307690104
7.79958011028085707
7.02439641243437851
7.20559809231028847
8.11758959988568485
7.48870238737048233
6.90095569091905681
6.23437413961427911
5.56029061454885642
4.96604297120985638
4.48459162509197284
4.28184822915167018
4.1134312255122838
3.72897120361041967
3.12976953900956412
2.78667907650318369
2.60324998267663954
2.39750185511438874
2.19381228816020357
2.01163546865722864
1.86875635026526954
1.82921656990521297
1.905928848564447
2.19529269674428429
2.57634375878703281
3.06732932812370063
39.8461297989777847
870.066684075621083
18.7408000759716025
20.324174659466685
25.4347500292592628
26.2089322729911913
30.5743835131819672
33.9080144349611885
30.8747335348254737
23.8143467609646216
16.7636889354473873
12.0719746159882302
8.95077098073416444
7.00013641849314894
6.10357873838038056
6.74826042095116119
8.67385786259969649
6.28912671069135421
5.79466975447915633
5.18791061032894785
4.64934237343810608
4.25129178626987425
3.91916948766290796
3.92555608613849927
3.81027744077560815
3.39945769788199259
2.8968087394978097
2.62600557703676518
2.45689503039656199
2.30424871227915151
2.14010975664384562
1.98376157643767637
1.84725583241564206
1.78171407371057855
1.80212685743763346
2.04599028194880317
2.3339255714715228
2.7082206275041254
3.68818682729318859
686.942939157368301
18.4509298558949801
20.4733039271777244
21.4467000837567632
23.3066657952299288
29.3763421764471531
33.1210776860311142
29.3184705452759857
22.0870127017852198
14.8133269976255182
9.97556432891979661
7.66181029513317036
6.19554819327733952
5.47097290927861657
5.25598491453405625
7.08280440482845108
7.81848023170368389
6.83354464196278588
4.53710240272328846
4.09638680534618782
3.87993702583425604
3.63463010541515263
3.9183375698891143
3.95187789867995098
3.31788797795330437
2.67159234306984983
2.51444406220996841
2.3768059495797047
2.26058576930729105
2.11210048501484504
1.95761876315706518
1.81933269500450567
1.7089585034236805
1.70589925700245715
1.90432349577415261
2.0977461427230395
2.57191456975321042
13.6393881229378504
606.34271058159004
19.369477518194504
19.3561377193594382
19.7004256600984036
22.6974299698333084
30.8925750455201324
36.3813772448323718
31.1854902745113698
22.8281260854193278
15.8138635922538153
8.50047916289756245
5.61906945432579441
4.97639390798710313
4.65788166694057448
4.45686062428301266
5.24893717409266181
7.4107779269934797
5.91924331085365196
4.31152367678904369
3.42111777927982841
3.20580308382318391
3.06801371693373648
3.1521152726314936
3.22873103637610681
3.13199954109788292
2.73267470411315161
2.45587564596252106
2.35071004020977492
2.23218677536781174
2.1153755045953706
1.96586729129114723
1.79919400126699025
1.6605289849010143
1.64069705034784286
1.83355060583045848
1.85306262858077542
2.63833861554473348
24.3765799727760921
461.84544263122757
19.7390796164323667
19.5168370657509378
19.6841621413827355
23.4471541346706758
44.4874437729658467
37.7997033339330457
29.0852306565436152
21.3915944736533454
13.1629141063310833
4.79676121694615709
3.95363788417765161
3.76457190547322806
4.00148708982420498
4.26669897123998165
4.49209034565071885
4.14773806818904944
4.38986780323015324
3.33147654684888739
3.11698782630873028
2.93073782846401976
2.76089799147804671
2.62508047198848837
2.58019125318748932
2.53792519901000446
2.46893031680859476
2.38238781489132112
2.32527789399222007
2.25012604861738508
2.12884789533321817
1.96471011426499031
1.86643282734073046
1.65851708696035249
1.62489727496556613
1.8772838393174347
1.70154710845398793
3.00435303367117434
51.3556339333131575
673.012302434765388
19.8651746382710215
19.5858894455942831
20.0145054436777059
48.421675946438242
45.3149208654649556
37.6804833263436407
28.8379466346970972
11.7912311144171262
4.29405676093700173
3.09416247424158497
2.78572920262835266
2.76946835930095014
3.10715384690577423
3.37490219433803418
2.96712034686620729
3.02289853956443055
3.07946082703056767
2.98150942967778088
2.86134146022215541
2.7309521721146961
2.60426704041026502
2.50557683314404489
2.43866480477901204
19.8278950952112787
19.6547839206920472
22.149110366261592
56.2870464882000761
47.962325353199418
38.2345869632247997
10.4573301008363835
4.77208214895998228
2.56337766827854718
2.01531923938051793
1.97941019414753328
1.98173965744479319
2.15264113327142548
2.37933418597175894
2.60712258349681303
2.7445468032483098
2.7954720192768745
2.72916860644759351
2.64451492114581965
2.55604627903083603
2.47572208372035885
2.41560582262243306
19.7058392379716807
19.8097679710832182
59.7550760378026595
62.4556888340666845
51.8788760943236369
19.4439769444910588
5.69109785916027722
2.76160748222289021
1.36276194706563225
1.20634305207875214
1.31201508061241068
1.49863530980455573
1.77977966033131385
2.05853462353854733
2.3100830408392925
2.46794575013752393
2.53860097990453948
2.50338924655040129
2.45339725078977855
2.40084617621952123
2.36029867611491007
2.33625215022543475
19.6426769908747012
24.0531625301524308
88.9781430801789952
73.5849297966895222
51.7670110260955312
7.29555760182565827
3.33400589182523666
1.3878145439634324
0.674444960886604772
0.660758206705392981
0.833431032069589017
1.16062663182322767
1.49135301454565239
1.78912287645525359
2.03008981228271956
2.19342272040150821
2.28091178060413613
2.28486670879234
2.27188601202321516
2.26061960005088647
2.25844342021547417
2.26228645083205793
0.349831141303284021
0.602561378294375727
0.970574815636518484
1.27516646050347071
1.56526960969640427
1.79383056444697075
1.96574566240712656
2.06234273909301269
2.09644170483130088
2.11983234511372842
0.702718178354027945
0.998942934880869715
1.28468115224298285
1.51660805234416829
1.70641442313709213
1.84186541427892081
1.92415308452447542
1.98508170009479179
1.00789650084813398
1.25303922328488215
1.46142904219693781
1.62963129580098176
32.7336637767143444
77.1547893057263678
130.797539635667448
155.300711027046162
164.457732697313872
170.135093965762877
178.188478132786713
186.488105495287556
196.885439642934443
207.972383327555463
218.603082417878966
228.635037203939817
234.626691588775458
240.005484702368051
243.945077618517928
245.849895981600383
247.626013943912483
245.708798595860969
247.268475407004786
243.482650266416101
240.425540396615219
237.931606362816495
231.778752846149786
229.088068622204446
231.12590675250982
229.834323727805128
217.610384595946414
212.494560924003821
214.420246227723709
211.302288457376591
206.255637993623679
205.239300830514509
207.569013458691501
224.939722250099265
302.852130535235744
637.959022380134797
1493.61494999985644
2411.44763162269282
22.0457448965754033
28.4004192043687667
53.1775267929371012
55.6683895618888656
53.568963370278496
58.4788851095762539
78.651903958751376
97.2583154144122943
123.585583616599124
152.290227538488409
178.02455988423884
202.336925082680892
210.851189138621464
219.806145569405771
228.039810263533326
228.748871350852966
233.550696745969702
219.436830776403099
233.75063731117956
225.567798952955371
219.823161622821232
214.556722031011077
202.430524348771996
201.509063183965793
210.016551714827955
213.853392344875516
175.633637036373955
172.931822274826573
189.005161896045649
181.931084216334227
163.252306203008516
163.48644731672988
163.44156209390178
154.162340154207442
149.23357881235026
273.101683713815362
1113.85518980517622
2296.6401485013489
19.9390532460336942
20.3995562515038706
35.7935862463621888
39.043926212904978
37.4378912328576234
37.2028740145534087
34.8443162653978078
29.4856803499469322
21.8852423983958708
15.9804754472315818
12.2349602949803984
10.7852476520894438
10.608135575309749
9.2913429613390619
8.73552081508285916
9.26069970326557446
8.16508973284082451
7.31598677165936895
6.2888082836817194
5.37180898993491152
4.31893645227948575
3.68558299121816191
2.28424509740400739
2.13315179375479991
2.10006387757602786
1.67635368593886525
1.01390142160557839
0.431303653965746492
0.521510202760257502
0.773011604542259145
1.45474982757427718
0.954052275264986593
1.00156466899237828
1.97477930651569777
3.6591482702600997
39.3896390273123984
614.343833516199993
1792.69982225380795
19.9634494916104437
19.6315342406885556
26.9681310843499844
28.7670271854203961
29.0009925058653337
30.1387799527359554
29.6595389396537392
25.1392908430942157
18.4880299523455456
12.7638771883609898
9.02631551421621126
7.03123434892531129
6.59369445888391503
6.94549628577982325
6.83279375452200011
7.22128335848759573
7.01213585642022519
6.22707515486573726
5.47902536757633829
5.01942040500605913
4.56925449247235616
4.12292989337512594
3.86873382156680057
3.55810032888063033
3.33875946037990756
2.97955763962606435
2.67371345771619184
2.41041013886052413
2.18800143879216069
2.05321924766918995
2.0283257457887216
2.0894526449633628
2.23058053338019224
2.72590283530800681
3.49320246261533374
6.29367051097144614
258.219411731464618
1211.56041132445625
19.9262509756119535
19.4656704611200553
23.3939530801963365
23.8058280397428099
25.7102903029338918
28.3201680989416609
28.1754556179479536
23.802692037745679
17.436503740452185
12.0730310289974661
8.60512390968252205
6.44842589065686234
5.69495144078582527
5.56147632049891616
6.18157503083374049
7.10525373424075646
6.43363265939260742
5.76144688093401847
5.04528674294879576
4.64218711976422949
4.33359164249377127
4.15160595632065643
4.07360977847504735
3.91763426574782647
3.536804178434934
3.13735636854143696
2.80370189033719974
2.56310296413571415
2.35483549260938174
2.16255643724235558
2.05709538845725026
2.02582364794106651
2.15713503706976617
2.63643127960727552
3.08032245235402247
3.8616426499949541
25.1486900320459164
803.161319744254797
19.9166834176090717
19.5086680520217186
20.9584146571939947
21.6888778553657247
23.7503507282745403
26.8370288821380107
27.4458962245800855
22.8050499007349927
16.3182705575167653
10.7992378099442128
7.7020205123731893
5.87725296742461545
5.04892585335499522
4.81732908293499573
4.78759666537194573
5.72875253284857333
6.97471759838006822
6.0518807434523394
4.61762144392093798
4.1097120434648895
3.88291101294873808
3.83909123137271457
4.18637339758195015
4.09029412515110735
3.79965988380922415
3.16402746807317481
2.66706817639591476
2.46981178820532277
2.29071809267656024
2.11952493547390564
2.01475685705239993
1.93421843334105681
1.98912068872031966
2.445122916315976
2.70121402205483685
3.79052361680046968
10.225326831522338
714.855021389803028
19.8505393365169418
19.3718669906508758
20.0088255978782215
20.7676225981534017
22.6290611686652667
26.7105645709451593
28.9787597591012229
24.2735544006895161
17.8863933562755584
11.1435621271368088
6.14780446983357987
4.7690091095812015
4.43104105625350897
4.2528952642471074
4.22388144084678618
4.64429685585806862
6.27196413030905031
5.68416846180803148
4.69626979724947802
3.65878445981195011
3.26432240561146259
3.3400358460056272
3.33136993329693487
3.69062380806707857
3.3552454326248955
2.86091775892630684
2.58592591627727986
2.41172493511823705
2.21608898136723953
2.05917874430472114
1.93646833173196931
1.80423320433536127
1.84098337828479908
2.23441356720818129
2.43907658004320416
4.44300040660435958
11.961190626759457
712.400437215805368
19.803082103165611
19.8268091648398936
19.7220186628533689
20.0317296960446427
22.3832543719398167
35.0416467474661246
31.7401194602597876
24.023842704720149
16.9844614869053352
11.7274467786463106
6.35818487124058684
3.28962082871015227
3.33627475321603839
3.52000733553606793
3.67777603376563844
4.1483023815146991
4.0255466008740699
4.25541711046802806
3.44987222816962724
3.20986198962872349
3.0291186272138817
2.88469571713843376
2.93324151734397809
2.96512335349261269
2.90532479849019865
2.69153739032960537
2.45314849894911902
2.3173998250241028
2.18615602616512206
2.05907841162636052
1.91386348523858829
1.75370503138768186
1.76550210745396807
2.20552812821145316
2.3028881687493854
4.08838671509360108
12.0367492248716967
711.43146702583681
19.8889578757740892
19.8756464744680947
19.702146129147792
19.7994292962373208
40.3698859095002831
38.2589793301942578
30.6094801684037812
22.7172171856630456
14.5305634623318394
6.80397329817417962
2.22919278367309337
2.14256863149532695
2.47587556042487389
2.80823066261140664
3.05957661091097677
3.20374163390147748
3.25943651249069211
3.24249093041019609
3.15060619266670416
3.00840716566843991
2.85896597759096593
2.7361276108513799
2.64291576635624548
2.5672006877885738
2.51116456780792774
2.45555021442685639
2.39284902366912799
2.30551803909552921
2.19102610175855883
2.05879670588052344
2.06831177428534652
1.73063828871479153
1.93619089851248538
2.07114949090543332
2.43144522672806751
5.40763412594617066
30.7873645652053902
692.893284036259502
19.9327273971148955
19.8344205775031313
19.8185754060136858
31.2989576342258964
44.6783883535332436
38.2692087209094325
30.0245439762604498
16.7606294912959193
3.82673428853494935
1.70117852748865728
1.24824692365403345
1.47798421941386504
1.9154725438725384
2.33266289472833455
2.64561826189983007
2.86861807090106335
2.98662496723398307
2.99493188095209639
2.92549907057494263
2.82712016313558667
2.71952151231467942
2.62676522505480481
2.56548360170712986
19.9210805831459687
19.8492777851500222
21.1974690221207283
59.361653029681257
48.7660648454045287
39.6394987149781954
22.4317049660912744
4.81387343121108913
2.03332710957583407
0.754831094118622481
0.733125807917824335
1.08083722060994258
1.55327196043020277
2.0011302626579206
2.34463284255524496
2.58503104307265774
2.72273498307819617
2.75544115115918364
2.71977262555801858
2.65781811301745297
2.59002095999677406
2.5321773419292084
19.874239364276761
19.9932141079921344
35.7265231459608827
65.1270631521940686
54.6744270432712298
42.6335836844729812
6.36862107433778224
2.62881412855135377
0.827410136886951086
0.283012535531927734
0.436595904874771901
0.799628774097881467
1.26568992451181961
1.72017321728608152
2.06285713223942846
2.30532147666435083
2.460537123720552
2.52500020544297588
2.52370799335405849
2.49678087055804143
2.46749738549266562
2.4431488562063266
19.8166712677993004
22.1502676323653418
81.9882749842787319
75.3023837095919362
59.9894468712647821
11.272685692553166
3.63095300021785672
1.22691592997829124
0.157748012694211515
0.0775101013333371058
0.248301429446382921
0.625184128198256861
1.0675609490886897
1.47348352998693111
1.81001209302303212
2.0548515197649837
2.2205411046260779
2.30523925897415349
2.33696633736142179
2.3527125539586522
2.36055218156838276
2.36022291027247322
0.00605675174894733815
0.175429256971938119
0.528694818750566897
0.928777736493720973
1.30160822549620225
1.6064622388668961
1.84124376766880804
2.0161324132171381
2.11981805384594901
2.18401166782411016
0.421373840116826548
0.760187939413577762
1.09218551013852516
1.38121547133639111
1.62155504670774531
1.81184150389225329
1.95056503568280393
2.04432326158855515
0.907499546129141521
1.18612743515966335
1.42951590864702638
1.6317212790688449
27.4968080746859087
35.875055030681807
57.9233280499328913
83.6207813607448998
110.008193029439283
129.626104140537336
135.905303595103021
137.67891994598628
136.170991594430546
140.741130212366357
149.214011798488684
159.132512964125141
175.988183974109859
193.32069465439352
204.776969703355519
210.599975175618056
212.940632902247501
221.085206519588439
226.34671188931992
220.474737279858886
216.911619482176008
218.445465396452789
215.92538982404804
214.989438934829053
216.426805650927662
209.148132777843841
205.231360143366516
205.038578442419521
203.553330343632609
192.738544273269014
192.720615260479434
194.650114259069966
199.117665543791787
220.263211161802872
286.643959832472149
637.099905285432897
1490.94040928042818
2368.39597050130033
23.2222343996360685
27.1131854305004616
35.534503779878996
37.3498169911058753
37.4686308203299703
36.2301671548857911
35.1345904154761826
31.8979029577063748
27.6770259765283342
35.7822596479605153
49.6021791649310941
64.1529423676003177
100.321148480950967
136.167936282048117
159.328382708940239
167.703999937319679
162.889041902439686
192.744563844679902
210.209937956314491
185.098524498729432
175.399609299378511
186.498837872085147
180.494142156963704
180.650800419034113
192.662562034171458
162.201157425988185
161.493315152696539
166.21963759642594
169.781818097287186
130.957136619357442
142.942257901922034
147.012977438885883
143.569963933286431
162.07076120787795
96.3126652917277255
281.558019815695161
1111.15880861812411
2259.63837850932214
20.2735846894557596
21.5254682754310238
26.6231993771447542
28.2448208621143948
28.7305143354636598
29.6885368303709569
29.1559572363470068
25.2730932271124153
19.3039256630673002
13.4298669319401114
9.41565897934458462
7.23505895255604781
5.93488735970585157
5.6725379659197035
5.82642095656087999
6.0797594844912366
6.28086671546525199
5.83740978568471469
5.48303108941714257
5.1162510133286796
4.64540535405837307
4.07538101434702416
3.7915725465378789
3.520311214473971
3.23230364982769558
3.14141112600252592