/*--------------------------------*- C++ -*----------------------------------*\
| =========                 |                                                 |
| \\      /  F ield         | OpenFOAM: The Open Source CFD Toolbox           |
|  \\    /   O peration     | Version:  2206                                  |
|   \\  /    A nd           | Website:  www.openfoam.com                      |
|    \\/     M anipulation  |                                                 |
\*---------------------------------------------------------------------------*/
FoamFile
{
    version     2.0;
    format      ascii;
    arch        "LSB;label=32;scalar=64";
    class       volVectorField;
    location    "0.600000000000000311";
    object      U;
}
// * * * * * * * * * * * * * * * * * * * * * * * * * * * * * * * * * * * * * //

dimensions      [0 1 -1 0 0 0 0];

internalField   nonuniform List<vector> 
7236
(
(0.446117140778719445 -0.140563827228195548 0.391629245344751409)
(0.852582157096365867 -0.149755285698231905 0.675221065751422156)
(1.09009302514709749 -0.10002109510351781 0.74237312214497353)
(1.26883863476496317 -0.0569728796865311068 0.782748662283718533)
(1.40502979995708688 -0.0351159579850941692 0.812641564529959393)
(1.50721326522947474 -0.0248875695417305406 0.836307471281853787)
(1.58979177767647495 -0.0199048182849418664 0.85707216487429394)
(1.6602509297162289 -0.0184122198350544462 0.875929708869563894)
(1.72175516629659509 -0.0186990080816235096 0.892156977317174249)
(1.77633174524857429 -0.0199298254182404926 0.905335708252858806)
(1.82578144669681275 -0.0217880603525110912 0.915337751344358685)
(1.8717889959254721 -0.0238935509644352742 0.921900723749747408)
(1.91609659498797513 -0.0263708526569247995 0.92451619428462839)
(1.96000847589818572 -0.0283991094387912174 0.922692146355491571)
(2.00355233812289413 -0.0296236732253910284 0.916816538347594912)
(2.04616255914866096 -0.0299933552259493454 0.907530808347463691)
(2.08764812216658768 -0.0302201967041234448 0.895884813307869399)
(2.12783111764281818 -0.0303284143154295451 0.88280321175396026)
(2.16721800108905738 -0.030860151519115326 0.86920474194930919)
(2.20516821332191792 -0.0298355170869445824 0.856101969835721843)
(2.2402656288083409 -0.0288885614849404213 0.842616565141351859)
(2.27333341731898519 -0.0291294359900288041 0.828447734028089577)
(2.30779667871836836 -0.0310694804221055311 0.814755265064188272)
(2.34340118421719801 -0.0295717484984927108 0.801599228755010773)
(2.37676085017569072 -0.0275166404482061373 0.786224132194671355)
(2.40684078686319403 -0.0262951719520816835 0.770047745299122233)
(2.43679840823192251 -0.0279911617785495725 0.755833529663156423)
(2.46768654660141795 -0.0278458682394161251 0.743966050479236585)
(2.4982049987733066 -0.0277866014844611008 0.731356714672278696)
(2.52830015381564488 -0.0266003669124081459 0.71682643352032116)
(2.55805293845687798 -0.0265647988358405467 0.699041511981841057)
(2.58839605458701394 -0.026937614657331535 0.681376407547225726)
(2.61359832653807578 -0.0232469525573839216 0.665608952677310906)
(2.61250114941714306 -0.011439218658493417 0.65267887830174165)
(2.53840464729070048 0.0207561623282769489 0.64263193869077273)
(2.28708124762674991 0.122315918655061029 0.636670723179448506)
(1.61109015337332395 0.267276850772840358 0.624639155762989562)
(0.510140602243370322 0.222268090371717658 0.421975180227982527)
(0.638678291397265729 -0.357719825889478038 0.551626614929287884)
(1.02287133053030255 -0.396751066755045567 0.778406847191169149)
(1.19242554598153272 -0.317062106828410517 0.852759967448995848)
(1.33443479884340221 -0.240289272333447074 0.87061564915566414)
(1.45351235405342094 -0.191649818802309496 0.872162513182072607)
(1.55045424944537524 -0.15761207563970081 0.871226355604596825)
(1.63119996233318809 -0.130727714031986214 0.874516537165652919)
(1.70099292239569433 -0.112230976104332442 0.880196317943735318)
(1.76363790071866178 -0.0996592291950377379 0.886318388595261908)
(1.82058583342438718 -0.0907092916576945768 0.891231801995633677)
(1.87236463108665196 -0.0847562073309346409 0.894217868256097725)
(1.91922154965851299 -0.0807551307116325667 0.895249392501035968)
(1.96252502103022741 -0.0802442250413745589 0.893262276600860106)
(2.00441960638384709 -0.080741726534436134 0.886480133311540297)
(2.04521263827618283 -0.0812278970227605646 0.875446938033151434)
(2.08423227559779844 -0.080440675871441325 0.860983850510195992)
(2.1214231536300967 -0.0799947031947078335 0.844631400838208979)
(2.15713691258728124 -0.0795430775123201206 0.82788897971626263)
(2.19268771698279696 -0.0811322692338916351 0.81215995580818956)
(2.22964963451346865 -0.0778683200837613498 0.798842188683767551)
(2.26134685554594217 -0.0740729910859356244 0.785584718772224133)
(2.28606623103587303 -0.074093005242610796 0.772095335358457757)
(2.31486500507674586 -0.080997725090232231 0.761039926594279992)
(2.34753933800397396 -0.0788867574227997415 0.752438965297864804)
(2.37407922383995951 -0.0752421229849026263 0.740960333584000819)
(2.39573957083919309 -0.0725067699389018716 0.729255036083119368)
(2.41584442436082147 -0.0760488591118211321 0.722743887156970799)
(2.43779083191538026 -0.0746182498062322314 0.72177512375744024)
(2.45874192826847748 -0.0742883647519462231 0.721665346543706621)
(2.48088615816574132 -0.0719645063604959917 0.721756920887804077)
(2.50074416433922586 -0.0721490056275009561 0.715534952428986792)
(2.52024759592145919 -0.0730723493617394665 0.708827739258742984)
(2.53813578988291377 -0.0675708611127976838 0.703434354604748791)
(2.55871407262055683 -0.0477401114272669111 0.697140538667170073)
(2.53502379820691548 0.00100015742390905521 0.687845578552345183)
(2.41441224849822378 0.175007669097140828 0.686437872024999285)
(2.04210356449670538 0.586171834494674027 0.695736727759738383)
(0.937435455777561044 0.712816452376169196 0.722937263848750122)
(0.762755971297703006 -0.508554839351986532 0.631871205807354008)
(1.11006629306597371 -0.605955224170650286 0.92700248217123693)
(1.22249027249962827 -0.526295872102789164 0.992814217744520944)
(1.33985134669740003 -0.420433997512617341 1.00023597252124596)
(1.45109301734793417 -0.349069043014733293 0.986700810931731453)
(1.5457159017886366 -0.294746079520513682 0.969593954786821755)
(1.62220746819597106 -0.249556377930047424 0.953150035230148296)
(1.6831527602292029 -0.220481803497690365 0.936185956058781299)
(1.73357551080636707 -0.20144039933930577 0.923265408992043901)
(1.7762881185156385 -0.186779986216420557 0.913412801380001582)
(1.81275683539831833 -0.175624314775881724 0.905822349020196427)
(1.84365749540057178 -0.166208221126538574 0.900991067442729943)
(1.87171535575040004 -0.162656494753668751 0.896868656256229246)
(1.89997403104388396 -0.160952739105538561 0.891010579251165336)
(1.92774973009367412 -0.159919118656270676 0.88442474008324734)
(1.95373286491579123 -0.156509373271285057 0.877697863575122361)
(1.9772306306145091 -0.153920993361343628 0.872146442739944572)
(2.00036224352143233 -0.151830826963449295 0.867486055053114047)
(2.02421797016767435 -0.155587798024604179 0.865485631980551728)
(2.04941820681103337 -0.149755946640474646 0.86650724651250921)
(2.06880320472111912 -0.142521541168490751 0.86395444196421245)
(2.08183241342839231 -0.139246990349436633 0.859298621411987762)
(2.09076332458468039 -0.152558022166576657 0.861477773339413555)
(2.10177229512354291 -0.145417132706156638 0.876378812922441797)
(2.10004787576187857 -0.136575080026189566 0.888322255063742849)
(2.09704827906035529 -0.12635961920062358 0.894805199027497555)
(2.09403898203759598 -0.135717225527584612 0.914128707696383658)
(2.10528814751831295 -0.129333341389470113 0.936897349076069141)
(2.10952200270286339 -0.130730639585792091 0.960774382679527084)
(2.11085887761157576 -0.121975649734710812 0.985341978412189512)
(2.10713190228752589 -0.119436218877823838 0.978681720341761929)
(2.08359023938693921 -0.117586127744927063 0.957087280007531183)
(2.04731571179905281 -0.10712698753272748 0.924675651146433908)
(2.01367930873403589 -0.0698117385668842322 0.888433047286115274)
(2.03135871276844604 0.0219296810564824085 0.847524577079125097)
(1.96329939630579053 0.382204359349362088 0.766952508325611015)
(1.7767892570857704 1.00577687460900433 0.746633458676042805)
(0.976406589415639847 1.24401593402899802 0.771299795345338102)
(0.745123252653985158 -0.617041265653302196 0.775377331203782716)
(1.00934231065537805 -0.827257316272073107 1.09266054448797068)
(1.061601261113994 -0.753767989312592923 1.14386527023430284)
(1.16731464392497597 -0.632372072805302166 1.13325492840645836)
(1.3109544818650638 -0.54344410551442679 1.08094587169627987)
(1.46283313144669469 -0.46463556668235978 1.00897575776047344)
(1.60287359276939045 -0.382658679833197068 0.934962872492313135)
(1.71528426618180019 -0.322013323844184685 0.892090210904437741)
(1.79019252722163236 -0.280919472472425547 0.87553767593989873)
(1.82723672986555741 -0.249902024143648399 0.875885287746419272)
(1.83125901087355381 -0.228843745343797561 0.895720779517121257)
(1.82641673230414603 -0.21244610951372464 0.908419986349434438)
(1.82327729182672327 -0.208493868737050753 0.936824758806816371)
(1.82268414576195936 -0.21016304642754205 0.970912123415690109)
(1.82625906029102669 -0.210199028701510804 1.00188436842466122)
(1.8301764281453361 -0.20580545422549712 1.0286343056663847)
(1.83644003912491072 -0.204082284997034985 1.05307150363814017)
(1.8435783507861605 -0.205539784889310517 1.06941611970654926)
(1.84568795083414949 -0.215888313874686988 1.0770984758461124)
(1.83840605028076443 -0.207185803446530037 1.08147255474994819)
(1.82406434878414059 -0.188625420106973501 1.08930945949921298)
(1.80707595167632618 -0.18123423973457467 1.09907101816852015)
(1.78404873309114143 -0.214324929653456508 1.11044310371182964)
(1.76725175485748842 -0.19270884823288531 1.12519000152580828)
(1.75985597200726041 -0.168073246098693341 1.14291393984010203)
(1.75983571455162902 -0.151280452851932617 1.14650711886177548)
(1.75435622780307066 -0.194364853980206809 1.1407445552992892)
(1.74303053942512309 -0.170131109336028319 1.13818635217524555)
(1.72295078171597593 -0.178422971153612941 1.12148636585560224)
(1.68260610923085863 -0.153871207142755984 1.0522441253556698)
(1.641339599362446 -0.141628895328417076 0.961363791887204888)
(1.5833496954220605 -0.127938477847966664 0.854431899850705889)
(1.49930191769894416 -0.101466645833758071 0.75748591384893349)
(1.40990401587467207 -0.0892719240010099169 0.628897224473825456)
(1.02522136395489039 0.0414527084182396421 0.647135299137554187)
(1.25555915763568926 0.542744742455911311 0.764754612273832124)
(1.24714622961436983 1.30417216806112224 0.775424887891500214)
(0.878346292353230806 1.85111938127263587 0.797425014895763784)
(0.719194904809629776 -0.764345101141828187 0.893469430434210898)
(0.898200205479208535 -0.968053928660855711 1.16628795363428472)
(0.875093851002993195 -0.912047791448757028 1.19852439981978343)
(0.939249135720359285 -0.824567653254613786 1.15417638936255562)
(1.11897141002573108 -0.739795275379311112 1.01042251231835745)
(1.38154582024706607 -0.619454990231930069 0.826738824944460049)
(1.66279501132285135 -0.470748459833559785 0.666705964480146074)
(1.88836611872347504 -0.340949310096000546 0.581059669623998465)
(2.01754934810945352 -0.252725336750294738 0.578340019359288804)
(2.04599669204002232 -0.199491722714805225 0.626358862693031204)
(2.02066781691609476 -0.173800617745666519 0.701874830444753628)
(1.97552548914124015 -0.162652363333261996 0.791681765313951846)
(1.93063914148419369 -0.168457555260901254 0.879280247516498581)
(1.89907067713586075 -0.184563553253974166 0.960512519903426898)
(1.88579852644054768 -0.19964444782956739 1.02591416053725371)
(1.88284526996497292 -0.205650471336986912 1.06693417601667084)
(1.87801628412679356 -0.207744328341771395 1.0921348938059614)
(1.86140316077219592 -0.206097417083077605 1.09701934764433218)
(1.83022086308202958 -0.204910021623192468 1.09618617638830473)
(1.78720740384283028 -0.184451022254401908 1.09289185684259249)
(1.74242223524710305 -0.159660474310969414 1.08719022627670459)
(1.70890011147935539 -0.148566707465830339 1.08734004508758852)
(1.68856974285088901 -0.160876087955197561 1.10236350272134342)
(1.67833092278177576 -0.14447052729133919 1.125647819005823)
(1.67904433529666086 -0.134657360911769886 1.15215408835011579)
(1.68658640684339778 -0.135656632485064182 1.15555033231708904)
(1.68311156842994114 -0.166445681916164601 1.11229580039544196)
(1.65997019352348407 -0.147814563979696112 1.0180486079111013)
(1.61716208673498496 -0.156268450779093654 0.867307403633635676)
(1.5459398481770219 -0.135002362152994854 0.680434383719602187)
(1.45957630352901457 -0.12314697717873184 0.518115369069981235)
(1.36252877275927697 -0.101142730448893214 0.397616405259580807)
(1.22116006101515162 -0.0685323154354426367 0.322479455300486995)
(1.10952380809842488 -0.00815100669946151879 0.261357536243732591)
(0.654340255365324142 0.191227708735896867 0.280495180115642229)
(0.629209457836834796 0.483056958151439952 0.681611592757364604)
(0.579714905188131402 1.42031407621226591 0.777221588374698569)
(0.769081709853464246 2.13216948803979278 0.810180816586388519)
(0.717321725925613385 -0.882765770777244052 1.00458354989328669)
(0.779849032206054282 -1.04292079536567805 1.19800744651991864)
(0.645400511392543841 -1.0041216938643529 1.2142429979261482)
(0.686309169647204231 -0.974261144221806319 1.01461847290304696)
(0.964655801631020937 -0.926048217938610474 0.701155352630870254)
(1.38962956883812239 -0.784330693032256887 0.388281529219757393)
(1.84130675861305226 -0.549711473390405714 0.1415083644051017)
(2.21607413387797303 -0.292711535344447382 0.0457523312995332318)
(2.44255109282635496 -0.0964402162595436735 0.102408584369431954)
(2.46036827175040518 -0.00108036207257812544 0.268243333930208105)
(2.37696389337803948 0.00963714607328730946 0.463858665647519097)
(2.26480252656167291 -0.0148230846315913802 0.642563650711007517)
(2.16514208236375127 -0.0533721919630839869 0.783349068304290852)
(2.09280484244519505 -0.100958421153636499 0.885489483414587442)
(2.04812347828630292 -0.135727029876614724 0.946000765926639731)
(2.00858542878921975 -0.150405495876540229 0.968170553066133199)
(1.95937950926385929 -0.151812346145597188 0.960007058068483743)
(1.89520447767810052 -0.142444575031688059 0.938191642387575908)
(1.81490850470087572 -0.126366522143709109 0.909708233263945898)
(1.72012573116256884 -0.103969210371704576 0.879238702842031983)
(1.63021569050960347 -0.0863542500160798948 0.86339445337698506)
(1.57697481447912646 -0.0799100426404905362 0.877847380795735988)
(1.56883124166760313 -0.0876056563912392117 0.917750743661116197)
(1.57567330091139413 -0.0901246928711040007 0.952080568704519736)
(1.5681840994783276 -0.101213058790140947 0.946584464753556398)
(1.53019830445211724 -0.119483049640773553 0.870111331726683424)
(1.4384529125906349 -0.147553986397978898 0.715559581388218735)
(1.29410550753913833 -0.155133276179101331 0.512817927476516222)
(1.1307087552662991 -0.160481084612727198 0.309927762602040857)
(0.982149258541413661 -0.149921609498816527 0.13725710885645187)
(0.879557449442487815 -0.119721726494010194 0.0225235586333583579)
(0.809946456878264942 -0.0641993072566132139 -0.0156273631178196655)
(0.69457570113598821 -0.00216526773306020132 0.00421699656708671156)
(0.61736578681535903 0.111391819388453078 0.0231784016648704655)
(0.35847399442801664 0.368606064603886563 0.0671095773315831673)
(0.276063998784721654 0.484263452585822984 0.566671634232636889)
(0.0380874554461126946 1.44135892223414519 0.76319915728927723)
(0.713482227965795524 2.23705190685434152 0.811351188883769114)
(0.684783977972034164 -0.902556522769553893 1.06747534694956769)
(0.660449874697431438 -1.02818000850873603 1.09304954472810278)
(0.449807104122851964 -1.01197226943870855 0.95951405455974581)
(0.6082749614941525 -1.08937815846598673 0.61086704442933637)
(1.04997918894166231 -1.13882748192445171 0.229389985401452001)
(1.50902121887643426 -1.01423262934822467 -0.0441982920196194382)
(1.92105100259806627 -0.72606984179291123 -0.186232573214172192)
(2.26923533352262385 -0.365050768685058258 -0.197155521816190921)
(2.52188932657531195 -0.0278008590355562912 -0.131388453642030362)
(2.65259745780452727 0.191523528614939681 0.0298968574056740349)
(2.60689862150949647 0.252000963400372979 0.250971096404739635)
(2.51551322408285438 0.221267209811387422 0.452834164479525292)
(2.40063013800536762 0.147162180103262957 0.609851746394120986)
(2.28994494761384981 0.0486278417757335865 0.71971008826306504)
(2.1853612069741466 -0.0317883942635096978 0.783722469621921602)
(2.08239325328536573 -0.0689921227779178858 0.79306059739734458)
(1.97367633615287552 -0.0723592728916755967 0.751743974660119552)
(1.85018669288045623 -0.0556495894328537244 0.685268325858175653)
(1.71132826288444728 -0.0240314429992824624 0.615190121719763061)
(1.5632034475889538 0.00828424874083279889 0.569994086242347486)
(1.4300884965010412 0.0168350882280340029 0.584656353644467774)
(1.37598796285024827 -0.00130668646630500442 0.660111679434557286)
(1.38439592012238721 -0.0266313909340504182 0.722226143297560852)
(1.38312927667475716 -0.0436281948658209379 0.717279243602987449)
(1.31709765640734378 -0.0658999488828714147 0.627329679151443886)
(1.17445286796319093 -0.0852391822696792062 0.458533491228591272)
(0.973140914684342495 -0.100026387884362994 0.246749469055038723)
(0.76961880491359469 -0.105969797167099922 0.0457165254202842458)
(0.619747222263265285 -0.115080860815934827 -0.106015105732131937)
(0.547813239247361583 -0.117080748189167222 -0.211011356421158758)
(0.530695813084006818 -0.0783559634209318734 -0.283137912730136831)
(0.521068916749796052 0.00365725830793212081 -0.282441183214982794)
(0.416610609804852428 0.0919487009376284414 -0.20299841351430975)
(0.329059120071040101 0.214212898995520928 -0.144604197835721704)
(0.181577143072945674 0.545300749598537693 -0.0536941067082976897)
(0.233136238009329727 0.559585144653427013 0.47090641820425716)
(-0.310055511926346117 1.41354911448321174 0.746967667131512525)
(0.6868982617676469 2.26482638838124517 0.804645704139872242)
(0.620509031996000049 -0.761403979906684625 1.00357546636062223)
(0.537348680156346847 -0.913462295471214492 0.950959836331020436)
(0.423290453229239638 -0.964256141257831989 0.638685147421152899)
(0.830725559408104108 -1.24002855074016072 0.171955471876034049)
(1.2654550350414675 -1.34823650317281873 -0.108578031230487551)
(1.59493575245653485 -1.19886550929362201 -0.227839358724071905)
(1.86658155525244784 -0.872850987909526865 -0.246512107178528589)
(2.11046416562190986 -0.433035989462585036 -0.20919118649979504)
(2.32758455781501317 -0.0162099941118938329 -0.125501919206885082)
(2.48316251658596698 0.282189098624820445 0.0131305252663712346)
(2.55609858973549953 0.423108065809574441 0.17781622563478916)
(2.53169726018515551 0.432957400781680601 0.34142491451128254)
(2.43782798001797829 0.354697904887218085 0.476152805100565013)
(2.3127985078981057 0.220772989462826724 0.56863619433179724)
(2.18743375147944841 0.102982440147705495 0.617666306217636296)
(2.02959135240042254 0.046399134304401693 0.601537211676067329)
(1.83496986615639091 0.0456449541321663904 0.511047232057243228)
(1.63226097336523179 0.0679864163058773174 0.391463524155972853)
(1.43513803005453866 0.112843463499261332 0.288683924566701056)
(1.26920513210743424 0.151773781240739647 0.25927554407312231)
(1.16992217267320164 0.137971480167131122 0.333240857364015874)
(1.15495897233288658 0.0809722222440259209 0.439468541457011419)
(1.15156788259340215 0.0166514434326205073 0.487733327065944633)
(1.09335026579843908 -0.0133103871241833371 0.421308714919925664)
(0.943080257590333093 -0.0269709714445302701 0.255865754091474995)
(0.729774721830428019 -0.0333286146521818288 0.0477423271097955626)
(0.513447645956849441 -0.0466822437731665291 -0.14070142854395426)
(0.349857916335392982 -0.069654195366022853 -0.272671276972900223)
(0.263970589064284278 -0.100735051967214662 -0.349290585868572367)
(0.280820758082799438 -0.123982538333714642 -0.411716555581877697)
(0.332094100406865822 -0.0749774453191934115 -0.470617085808320124)
(0.358860437496898887 0.0585469929480442602 -0.436282830361200136)
(0.260827171574004701 0.166368105923586834 -0.306423522246604629)
(0.218075345505008428 0.28846861041825872 -0.249476094404874033)
(0.0652505428749399208 0.685214575982996177 -0.125024777840405249)
(0.34968974028900679 0.634438547320444135 0.430011033760852202)
(-0.508466937848566225 1.36736246357208224 0.733781444903196411)
(0.682769934163586445 2.25791218143680261 0.793140034265734428)
(0.513818056715127702 -0.465103655675781158 0.8100303691342009)
(0.403388452772664108 -0.734727177329228431 0.737583551090710277)
(0.598183331444434252 -0.966008496778949843 0.220364993922934849)
(1.09283585625410962 -1.40666505116304918 -0.168795794215223671)
(1.39134830864430592 -1.4793649237298252 -0.285436183922265385)
(1.57612961961017017 -1.3086223812521689 -0.286241738213535379)
(1.73236703678133752 -0.950981533107412069 -0.239529496339186965)
(1.89799598447112139 -0.467041663985869104 -0.123921683045395678)
(2.09779317698751644 0.0251384375824140471 0.0184568543818554032)
(2.25591635180449046 0.357350882053592556 0.152172166185376545)
(2.35518957087226655 0.529297142274057886 0.266257541810535181)
(2.38747882246451093 0.579839259858462852 0.361974226600400406)
(2.33261028829545491 0.530180302763011979 0.43055501201610169)
(2.23625832043686046 0.404333571175607698 0.468533532568723876)
(2.09575664570553055 0.274912127374373594 0.463732762111018437)
(1.90723444345356885 0.206919113404572808 0.406915813956095607)
(1.66759688616152846 0.197883754803824585 0.286871733164408782)
(1.40816145539458693 0.207873842018994837 0.138462462731554103)
(1.17529091443633482 0.237331776351003193 0.0237240472909457101)
(1.02004112111772605 0.261863469276694516 0.00524875801281304843)
(0.953959418904728129 0.232431643273408095 0.0832149344779377076)
(0.92511465372153423 0.151636031987788161 0.167307585274842963)
(0.851338811427387099 0.0721806814611355568 0.160868153511235651)
(0.709030785971058841 0.0432297466397167096 0.0474784591376339049)
(0.512056445707224084 0.0395084897489340059 -0.124204447112770733)
(0.304137265294857573 0.0331922047697675929 -0.287846773199406547)
(0.134677067562188724 0.01080219997891688 -0.39851317303768935)
(0.0470564735719588151 -0.0427342745952760603 -0.422751113828685132)
(0.0843598442003044569 -0.136233361170362111 -0.41414555096433342)
(0.185132147423779203 -0.202125696119356268 -0.487120046917685401)
(0.23522549392753056 -0.107320717066951871 -0.567339325235494907)
(0.245268381685174564 0.10744292401529823 -0.516948606234656882)
(0.143278566162771764 0.242080555945426046 -0.365460023141357948)
(0.140515721424687989 0.374821820798027727 -0.320060229700265264)
(-0.0226447792621927053 0.798842394411367729 -0.141835552715760149)
(0.244806452828354726 0.742046157739523649 0.509474090578337258)
(-0.63827789872702767 1.32404026593246393 0.729339737330341631)
(0.686962411226492375 2.2310939814572941 0.777551111446853849)
(0.394600835664510985 -0.364881051326699402 0.563398934124321626)
(0.278188854530725338 -0.528930724534801833 0.455572430333179568)
(0.861945831273973395 -1.07656709828702746 -0.181476068135635105)
(1.25604798297497977 -1.55082409147544542 -0.357247661883674628)
(1.41338890705945541 -1.54426950839657895 -0.355221467785925116)
(1.50358939893005328 -1.3406368956338075 -0.297091264836897739)
(1.5852944542460583 -0.928453557896945725 -0.174873782192497301)
(1.71500312914641806 -0.398228280909005083 0.0240219119604899514)
(1.90450887774178312 0.122434766300811237 0.223462750903617613)
(2.04662797999879453 0.43702186387794284 0.359425152196484798)
(2.13702890941738533 0.604409769026396093 0.443175341959508917)
(2.18218749945332702 0.669020427304803933 0.476363314326158249)
(2.16690802146516548 0.634502576088474601 0.477536678504440371)
(2.08896143248719302 0.543820563844164551 0.437770306389502595)
(1.94038395646830564 0.428341387401047768 0.357063184419094015)
(1.71640998694538482 0.359677800139063364 0.233507674127427595)
(1.45260316053641758 0.336951731571475732 0.083798241279955249)
(1.1779953242553789 0.334324170340697335 -0.0696285566738674283)
(0.940434709428848103 0.344649102018040498 -0.176663849894408004)
(0.795272931675106487 0.350616925297938697 -0.195195128261341749)
(0.736013197867378066 0.317096477060675397 -0.148200415714055567)
(0.680749727277505157 0.24217479412951004 -0.117590380229600389)
(0.213272756634084931 -0.240671428733042342 0.307098097641292644)
(0.30207127219985408 -0.158188803893851315 0.0902778014000007178)
(1.08268721647268285 -1.31562558120107909 -0.383961740356755343)
(1.31673964574860003 -1.64545699353409702 -0.425035124942635179)
(1.37474582686201652 -1.5740462873476726 -0.370740494709738466)
(1.41108853372450604 -1.30940466616929085 -0.263709822192400745)
(1.44490441601809549 -0.849333430458263039 -0.0885840322267598401)
(1.55150929782469316 -0.301209619086039271 0.152526869135295562)
(1.72330602412439582 0.159703531719605163 0.363311826746275268)
(1.85949669899988557 0.451112936252680341 0.503042822167142356)
(1.95035223741358865 0.625553904994308629 0.566671140743515322)
(1.9934475542014114 0.705237871156085827 0.543915182816067322)
(1.96629014100716693 0.694188046708193895 0.480932668871003222)
(1.87162122694471655 0.640445772386786127 0.373105842008033706)
(1.70854023904326779 0.550109799859934134 0.237216046106416723)
(1.48397474592632705 0.48815769812087817 0.0806806449848672946)
(1.22338685043622286 0.45778596894452378 -0.0796440474393923653)
(0.956069964545948836 0.443372679937960978 -0.224455504971636383)
(0.72696608385460737 0.436047637091424467 -0.320199500977509988)
(0.581389995243361435 0.421707296633266449 -0.346223668891902203)
(0.505831990445825497 0.378841156492389808 -0.330238280440662835)
(0.426101573837745717 0.307815626629959815 -0.329349271368927887)
(0.0694837824726999564 -0.265184691092108071 0.0354123326130111604)
(0.659561171708243466 -0.243681673763388673 -0.356542597595525534)
(1.20463964061380269 -1.50250236159235828 -0.496416715971261691)
(1.29516287324623169 -1.67033961762214811 -0.443539162151291799)
(1.30701419570951671 -1.56612022155958708 -0.350489231455520966)
(1.31764930946644654 -1.25218019335171937 -0.215256915125546289)
(1.29137791802907631 -0.745727083829741955 -0.0191322777418934456)
(1.36380050313415069 -0.222075214959172373 0.216433438730439964)
(1.51811719440583626 0.194426051244132758 0.413035779838030137)
(1.65325446460681524 0.461344795405077002 0.542786186777040491)
(1.73905764738315205 0.631531017863705579 0.555300803255416309)
(1.77177972840008957 0.725396119278831519 0.513899227078352339)
(1.73111260098126163 0.72781423140946222 0.413088480788380452)
(1.62428029120283091 0.701412265171838634 0.276400178646424077)
(1.45765898106965897 0.640340851119978072 0.118918439469711729)
(1.23782594669131973 0.585961364272730489 -0.0466301787132670162)
(0.990361629043487235 0.551671201793073607 -0.200353145075528233)
(0.746439676581030165 0.528139186368510205 -0.325080977330043708)
(0.539461452241672856 0.505299598824650587 -0.405645389461601225)
(0.398047145926084867 0.472108088569443807 -0.437742948936610532)
(0.308513195450795252 0.418683722696691851 -0.438039135229252696)
(0.219859489292610427 0.350557241960016919 -0.444476541210958809)
(-0.357019153197371875 0.167549549769147321 -0.136143284440741225)
(0.999830072634795619 -0.784525555795303142 -0.520251369253877494)
(1.23399290838149067 -1.63748120399862196 -0.513561420521858936)
(1.2478787085056029 -1.67932400486733391 -0.432085925213644084)
(1.23605336753065864 -1.53476394646757619 -0.313090968189493002)
(1.19316069256711899 -1.14448188350815094 -0.159688965601098271)
(1.10613088906053481 -0.630055723920910693 0.0290737635697405905)
(1.14466591316922139 -0.146911409335223286 0.237629783865939082)
(1.27002692361964975 0.210553675766858711 0.398243710713562404)
(1.38918133970560564 0.44987526777751885 0.488163277171496712)
(1.46842839792807345 0.61152898272817513 0.492192616209079059)
(1.49276363053514793 0.708493729934962957 0.427080166366196889)
(1.45133435225984475 0.734714057769210727 0.310751856362524337)
(1.34697683537666135 0.730007863585919847 0.165817469446161797)
(1.18802788862411068 0.694273805336318106 0.00763899464182693499)
(0.982545460040271768 0.652002377115267429 -0.149446468204903204)
(0.761560384295967729 0.617817377597451367 -0.283815262940567192)
(0.554622432137848786 0.587069050527671332 -0.382615139301029528)
(0.382438560164917341 0.551193155573840188 -0.443019257071513184)
(0.257536254659360087 0.503322759162523226 -0.468752552254406707)
(0.168795577003321789 0.443053648794631716 -0.473461731896378468)
(0.0861620377334613718 0.378216276709149701 -0.474573479296553136)
(1.07689254993131711 0.431735014671295048 0.399757604759860996)
(1.1481846981961028 0.581209650112834764 0.382956751690755048)
(1.17010811162345441 0.677653349522953752 0.309388393168729459)
(1.13359893136706646 0.723628299029297373 0.193287512676693501)
(1.04200437568158533 0.736418655815099688 0.0542889717221193002)
(0.901902076768839822 0.720932457003633953 -0.0915720831595643603)
(0.727067991088267029 0.691669885176266153 -0.227985198505178926)
(0.547561541832177756 0.659520331365240464 -0.335809853837733152)
(0.387023716581964661 0.623029280139769437 -0.407769574265849588)
(0.256353831429032175 0.577215145308948241 -0.44830004945817159)
(0.834151007403048594 0.643950754799905933 0.184887584971459212)
(0.806003272706220075 0.700459196568808284 0.0767497962373215881)
(0.734441494398589301 0.72677917345364107 -0.0478531126697694653)
(0.624379072305626726 0.727476581052083793 -0.172045220199759125)
(0.492266771634475686 0.709069086816048966 -0.281197748269592041)
(0.362152048909741509 0.678931381129336375 -0.361509933407235751)
(0.249843740907080308 0.638874852683331995 -0.410387800547994952)