/*--------------------------------*- C++ -*----------------------------------*\
| =========                 |                                                 |
| \\      /  F ield         | OpenFOAM: The Open Source CFD Toolbox           |
|  \\    /   O peration     | Version:  2206                                  |
|   \\  /    A nd           | Website:  www.openfoam.com                      |
|    \\/     M anipulation  |                                                 |
\*---------------------------------------------------------------------------*/
FoamFile
{
    version     2.0;
    format      ascii;
    arch        "LSB;label=32;scalar=64";
    class       surfaceScalarField;
    location    "0.360000000000000098";
    object      phi;
}
// * * * * * * * * * * * * * * * * * * * * * * * * * * * * * * * * * * * * * //

dimensions      [0 3 -1 0 0 0 0];

oriented        oriented;

internalField   nonuniform List<scalar> 
20789
(
1.52101171338440536e-05
-1.52686981827458366e-05
-7.78731242152395597e-06
7.84589347394211331e-06
3.62995744393921168e-05
-2.11912690088397342e-05
-8.69124077924385371e-06
8.79298036662166592e-06
5.79198853437956163e-05
-2.17359048022921526e-05
-9.55762052830196694e-06
9.67316649514281748e-06
7.8948427895455129e-05
-2.11659018591657891e-05
-1.10637940560369394e-05
1.1201130411545715e-05
9.83103978663428302e-05
-1.95324336366704884e-05
-1.329744104496236e-05
1.34678948605928373e-05
0.000116615979105091932
-1.85524726463196464e-05
-1.65181187892487216e-05
1.67649955847917053e-05
0.000134305925692142171
-1.79849514229908938e-05
-2.09392035036129824e-05
2.12341888774465203e-05
0.000151229747989763456
-1.75345675592001433e-05
-2.71703804020105597e-05
2.77811242316395634e-05
0.000167171966688674776
-1.65282354185502732e-05
-3.51728257094891604e-05
3.57588641384941718e-05
0.00018085660425226177
-1.53710437180261397e-05
-4.67296207082939737e-05
4.84160503878592076e-05
0.000192373075453672603
-1.28747313731389828e-05
-6.08360493886439229e-05
6.21943253652641444e-05
0.000198716657034311194
-1.12020404948582386e-05
-8.28203464828542992e-05
8.76788212872533574e-05
0.00020224595132051573
-7.39772535063339871e-06
-0.000107907978160760813
0.000111776430635340614
0.000188513022482075218
-7.55071600701618142e-06
-0.00015068346885428605
0.00017196713421401176
0.000164616157641887253
-6.37689835474333202e-06
-0.000197221564031065561
0.000227495346949078763
9.70484472556369043e-06
-0.000306034386539290814
0.000460945724947221976
1.62908246195130762e-05
-3.1629300109239751e-05
-7.78619455488187864e-06
7.85581424935593737e-06
3.6770237887430351e-05
-4.17759118575980275e-05
-8.49237820087348569e-06
8.59746011806914988e-06
5.66072331623401385e-05
-4.16892095930831508e-05
-9.34817367542245517e-06
9.46440294363134675e-06
7.54689787868365638e-05
-4.0156103405276881e-05
-1.07908601482332146e-05
1.09192718851314148e-05
9.41064477976606023e-05
-3.83251279936898417e-05
-1.30013534879327316e-05
1.31565336680067931e-05
0.0001123251426104484
-3.69784112590888878e-05
-1.61742961191154526e-05
1.63814924986763027e-05
0.000130041656347180203
-3.60126276015783865e-05
-2.05738393117554867e-05
2.08849971563238971e-05
0.000147078861764049609
-3.50487099607805884e-05
-2.65646506027600902e-05
2.70416393732592666e-05
0.000163172141248688773
-3.3401254754228869e-05
-3.4626001519977168e-05
3.54058059107996334e-05
0.000177523638829887658
-3.09760593900516428e-05
-4.55379619444538623e-05
4.67915329804091624e-05
0.000189786734269231221
-2.7230662913239959e-05
-6.01881452588706536e-05
6.22810373071497016e-05
0.000197822516745371513
-2.29743679065325915e-05
-8.04527496151022451e-05
8.41893639703494276e-05
0.000201464194685813011
-1.74002628059208609e-05
-0.000107575132509925734
0.000113936059683258093
0.000190447730468875601
-1.38795641052560172e-05
-0.000148094932367990331
0.000165440303286175459
0.000167606008812312256
-2.09913237357469495e-05
-0.000193090428762058175
0.000230546647124848077
2.6988182712515053e-05
-0.000321697258400033758
0.000472020008480068722
1.7360284495902981e-05
-4.9080726323075202e-05
-7.72510302513588041e-06
7.81613093695173892e-06
3.7067429384368816e-05
-6.16112119177411306e-05
-8.47263436240538988e-06
8.60068148954086925e-06
5.66368993020693949e-05
-6.13891684056902087e-05
-9.31715249307743306e-06
9.44757751495165543e-06
7.55831877885011777e-05
-5.92300445933719032e-05
-1.07255243352573345e-05
1.08531361130379373e-05
9.42351741588600984e-05
-5.71150519769510206e-05
-1.29009794903779628e-05
1.30388779327676962e-05
0.000112561224190579819
-5.54838686874216755e-05
-1.60344477135575822e-05
1.62138239451352835e-05
0.00013043437717543023
-5.41594420208938126e-05
-2.03780331046692003e-05
2.06516986060523198e-05
0.000147676055139832221
-5.27351862886896294e-05
-2.62905206460243444e-05
2.67353540991052425e-05
0.000163963738572584888
-5.04220042498708065e-05
-3.42439793310209047e-05
3.49770860395329548e-05
0.000178599295252355539
-4.68375093729561737e-05
-4.50079992438342131e-05
4.62339346148275563e-05
0.000190966471098387392
-4.16072693236924811e-05
-5.94838084277962497e-05
6.14932930599870872e-05
0.00019910315799479873
-3.47911823793992274e-05
-7.95379174960248413e-05
8.32181057034615969e-05
0.000202136441440417319
-2.66624070068630064e-05
-0.000106450627754013172
0.000112679536671480039
0.000190653334940697619
-1.91453175239422797e-05
-0.000146570515760521315
0.000163319418194422003
0.000162403353923661764
-2.88901919332180231e-05
-0.000192105526136160631
0.000228254419968767065
3.99124530995955087e-05
-0.000315535448261253996
0.000465014580883465545
1.80708463033093616e-05
-6.72852411283496587e-05
-7.69127491052713083e-06
7.82484989764492673e-06
3.73164979732123412e-05
-8.10219894663127127e-05
-8.43189185901982387e-06
8.59692507485267156e-06
5.66216240828764064e-05
-8.08436410344429466e-05
-9.24232313728707554e-06
9.3916093068760706e-06
7.55441390557386649e-05
-7.82741468590811599e-05
-1.05998366399489956e-05
1.07213838949646348e-05
9.42129133051391158e-05
-7.58902573500586694e-05
-1.27252507108715352e-05
1.28316492081050362e-05
0.000112622378601296195
-7.40225904661558456e-05
-1.58055150113445095e-05
1.59347508097273142e-05
0.000130645034791671097
-7.23947710174277173e-05
-2.00798958967780846e-05
2.02925728259690941e-05
0.000148107006750818054
-7.05778948655747874e-05
-2.58903674359116269e-05
2.62711269025012702e-05
0.000164656875071169745
-6.76427178720243716e-05
-3.37012877257869569e-05
3.43721661777620711e-05
0.000179655390662088969
-6.30109822103118038e-05
-4.42615856063728033e-05
4.5436587193030578e-05
0.000192290806930093861
-5.61989491844611523e-05
-5.84832599254725798e-05
6.04395767419288547e-05
0.000200574809890327268
-4.66845214842526331e-05
-7.82298300596743281e-05
8.18392106588109521e-05
0.000202998066539235409
-3.5253057236376462e-05
-0.000104857136738432686
0.000111024562933691699
0.000190914643498959748
-2.3474155976696727e-05
-0.000144398666242639002
0.000160810966307722017
0.000158881972165149501
-3.21733771478042302e-05
-0.000189876536641594534
0.000225192429507643842
5.31916222060054407e-05
-0.000310508432087596689
0.000456111269446671773
1.8493715426026615e-05
-8.59803310781802387e-05
-7.67828319799716759e-06
7.87957784408401085e-06
3.75208768560786793e-05
-0.000100258036036909921
-8.39456523606143335e-06
8.60336706920285036e-06
5.66407971841441835e-05
-0.000100130511707265121
-9.14522454064753106e-06
9.31211720963970747e-06
7.55604709820263979e-05
-9.73005124037739592e-05
-1.04280581342228596e-05
1.05347128390716325e-05
9.42840126038157171e-05
-9.46688968242733549e-05
-1.24866648851387828e-05
1.25417366469842217e-05
0.00011279232404672023
-9.25786407464857159e-05
-1.55017330901330754e-05
1.55494571108561347e-05
0.000130984349163430324
-9.06983061982726202e-05
-1.96938541567045804e-05
1.98053650617553284e-05
0.000148705865649758262
-8.85722303246113443e-05
-2.53835756286034047e-05
2.56564102280530107e-05
0.00016560754769985971
-8.51231274034606024e-05
-3.30134442940053173e-05
3.35922041135596448e-05
0.000181089223234434519
-7.96068800654760572e-05
-4.33076455101258923e-05
4.44219138684408965e-05
0.000194163667614223416
-7.11973462288838227e-05
-5.71757111768732041e-05
5.90997099667332689e-05
0.000202709382421910572
-5.87947537094677964e-05
-7.65085856300153408e-05
8.00731333727243405e-05
0.000204633245394868885
-4.33370238338407325e-05
-0.00010267778528488041
0.000108837920112894366
0.00019159625363230674
-2.65385700757390044e-05
-0.000141544604293749845
0.000157646052239728847
0.000155870438381279367
-3.12006122601453804e-05
-0.00018657474306884149
0.00022132783832637783
6.92529313048523488e-05
-0.00030550386964421026
0.000445313035253855306
1.87193166004810221e-05
-0.000104989937160771966
-7.67158206926060369e-06
7.96180210591403586e-06
3.76469094803988001e-05
-0.00011942562685933472
-8.3726764188871604e-06
8.61259906332967202e-06
5.66635739954600927e-05
-0.000119321538135204927
-9.02629963307746722e-06
9.20060886561752251e-06
7.56126468196415561e-05
-0.000116323918139891119
-1.02034660436497357e-05
1.02777661473057164e-05
9.44173365106295838e-05
-0.000113438959748970815
-1.21843447975922913e-05
1.21496959856550657e-05
0.00011303689466790807
-0.000111105089568137508
-1.51327718487071121e-05
1.50396500629241761e-05
0.000131406820706202605
-0.000109008285400289594
-1.92409665568253289e-05
1.91810186783053605e-05
0.000149415076312387011
-0.000106684072967498102
-2.4799488154223916e-05
2.49030890599070815e-05
0.000166762789252625075
-0.000102934773143818133
-3.22096799089994926e-05
3.26736441933145335e-05
0.000182888756572512025
-9.68066818253329769e-05
-4.21577196658811447e-05
4.32315952242944609e-05
0.000196638008330414277
-8.68902183464988979e-05
-5.55541221510244134e-05
5.74977791519772259e-05
0.000205653824441103417
-7.13838729896452582e-05
-7.43254915181596734e-05
7.78988273457341775e-05
0.000207267228768421679
-5.11314495777238467e-05
-9.9881845735329684e-05
0.000106062913819744635
0.000193007870858303334
-2.80238583471668444e-05
-0.000137958592468333978
0.000153703284840935928
0.000153448389396169862
-2.59416721665945275e-05
-0.000182355737318464189
0.000216656337470535695
8.87710233619803268e-05
-0.000299565154359890927
0.000433495499503831359
1.87840284288568554e-05
-0.000124155767581173216
-7.64917234058668424e-06
8.03091349512972816e-06
3.76766483220617631e-05
-0.000138557830199326557
-8.35655873664326222e-06
8.59607575702787903e-06
5.6682176610052697e-05
-0.000138487604457483379
-8.86990312628348763e-06
9.03039578481897575e-06
7.57148198496194276e-05
-0.000135356243839862957
-9.9184958779809304e-06
9.91814872352899303e-06
9.46243077126159476e-05
-0.000132143497367969359
-1.18279166017117815e-05
1.16229450796693405e-05
0.000113356049055547659
-0.000129500338705212942
-1.47219920431286565e-05
1.438548892729802e-05
0.000131895707002136208
-0.000127220740824281306
-1.87543041592690978e-05
1.84271027725150211e-05
0.000150219248209800118
-0.000124891014853174484
-2.41702807027233273e-05
2.40536965758862952e-05
0.000168147725983156757
-0.000121236039194454095
-3.12989736450511706e-05
3.16717891621632046e-05
0.000185144676461873755
-0.000114910321278539521
-4.07772779799375163e-05
4.18839991581334395e-05
0.000199867188401414535
-0.000103652718840547704
-5.35437887179220675e-05
5.55838091951958621e-05
0.000209676673389929053
-8.48132047705972504e-05
-7.15854007227571684e-05
7.52052949658029449e-05
0.000211337742835180953
-5.8926787354674634e-05
-9.63641722447632938e-05
0.000102498499880200499
0.000195516779281483543
-2.74776111492098099e-05
-0.000133497288495734734
0.000148772050400866834
0.000151912992673476437
-1.61079383584920914e-05
-0.000177345060830128996
0.000211115173642525652
0.00011259116131099331
-0.00029279090523849432
0.000420883821165031361
1.87278338102313079e-05
-0.000143305596916245014
-7.59760194012539619e-06
8.01954454537010359e-06
3.7633206862478824e-05
-0.000157661149267368804
-8.29906959897109863e-06
8.49695930384417039e-06
5.67252308115075984e-05
-0.000157680983849651401
-8.64960750576339497e-06
8.75092535746234183e-06
7.59047736510541871e-05
-0.000154366435766453702
-9.57617764263433948e-06
9.40679811057295046e-06
9.493013077060058e-05
-0.000150656202457877952
-1.14424253283677507e-05
1.09297513720540849e-05
0.000113752035711577797
-0.000147613230073934999
-1.43027041710359797e-05
1.35936827103766791e-05
0.000132438286176961301
-0.000145236578559839445
-1.82661950696381982e-05
1.75957884248749373e-05
0.000151134558071199123
-0.000143270269386376923
-2.3501308925643429e-05
2.31843080366073811e-05
0.000169831222052682212
-0.000140329955385475421
-3.02251724416819151e-05
3.06224462350290229e-05
0.000187946080404119078
-0.000134295410664139265
-3.90463222172234689e-05
4.031657852463303e-05
0.00020398235387059064
-0.000121902637870616583
-5.09994328566406853e-05
5.32131113059905342e-05
0.0002151627465686848
-9.96269173870653726e-05
-6.81488371414953512e-05
7.1782212844567246e-05
0.000217383783348504663
-6.70508202822450456e-05
-9.19474628312346202e-05
9.78505115376628211e-05
0.000200012142270022893
-2.46704607043134735e-05
-0.000128074258454640984
0.000142638790495789268
0.00015157583794784849
-1.09092717483772989e-06
-0.000171061902444732272
0.000204481248911994487
0.000142352526830100319
-0.00028481812169354456
0.000406632649583612898
1.86368466121836233e-05
-0.000162302294966930945
-7.49016780168624944e-06
7.84997388140880757e-06
3.76031902826516406e-05
-0.000176717688022014397
-8.14318011172436455e-06
8.23332883489584216e-06
5.68686133260253753e-05
-0.000176894193332519865
-8.35089503093343955e-06
8.29865026997506936e-06
7.62403394350151043e-05
-0.000173240592277950413
-9.19968775345114343e-06
8.70208941035412795e-06
9.5360840505304538e-05
-0.000168789821436473935
-1.10660996321318807e-05
1.00791959793073602e-05
0.000114221372270655806
-0.000165301639324743938
-1.39088515744062597e-05
1.27367251398401519e-05
0.00013303204395228289
-0.000163056122649127174
-1.77858736394187528e-05
1.67947566911889852e-05
0.000152200355108182971
-0.000162082847810263723
-2.27308243794297859e-05
2.23751093369010324e-05
0.000171837023830186456
-0.000160628041165548354
-2.88351735556145321e-05
2.94966094767244773e-05
0.00019122981011341714
-0.000155305324449439894
-3.67777835313015235e-05
3.83949318892348379e-05
0.0002090342848807968
-0.000142163398508683383
-4.77787599413573286e-05
5.02350768202177244e-05
0.000222525208574040961
-0.000116660563359269958
-6.39248676076752039e-05
6.74676354980851411e-05
0.000226017372366177485
-7.58880276873189521e-05
-8.66382012304844576e-05
9.19832824055627648e-05
0.000207171174179878853
-1.9341191818426804e-05
-0.000121821178014016937
0.000135338151000194835
0.000153137298871962953
2.026762024706296e-05
-0.000163834941329280356
0.000196510323023773312
0.000179884568016897922
-0.000275900683848020892
0.000391505993421742925
1.8662925023643504e-05
-0.000181100282193522684
-7.27956029606085224e-06
7.41458358081855513e-06
3.77247639920973011e-05
-0.000195697125323913079
-7.83417263086541136e-06
7.75173227483274161e-06
5.72050500788046814e-05
-0.000196018668627026364
-7.98360684861811081e-06
7.62776941056628286e-06
7.67622756009170689e-05
-0.000191782656197582587
-8.82551303371919681e-06
7.81032379950322824e-06
9.59102519843344078e-05
-0.000186359802215320684
-1.07376795607198273e-05
9.15966450334013649e-06
0.000114734400522718564
-0.000182530292502365024
-1.35572110359247811e-05
1.19617143097094887e-05
0.00013365832880883678
-0.0001808664840506175
-1.72676977212883812e-05
1.61541445286573846e-05
0.000153388590013593689
-0.000181772860859086673
-2.17039938183949684e-05
2.16637666711113373e-05
0.00017397849350983183
-0.000182502699199437818
-2.69178555071013719e-05
2.82026288539877077e-05
0.000194714341432340184
-0.000178207840234086839
-3.38475314450365338e-05
3.60142135831282727e-05
0.000215101078200533681
-0.000165269297978536844
-4.39188709988114142e-05
4.66380578695943193e-05
0.000232397133512149678
-0.000137176140453061158
-5.90902876992859154e-05
6.2309839088694498e-05
0.000238078824426357253
-8.58107657329901924e-05
-8.08318726309170286e-05
8.50729520066296308e-05
0.000217367412294223116
-1.06850691410436359e-05
-0.000115168438098424772
0.000127223781448377265
0.000156730982659075528
4.99268111059004716e-05
-0.00015672359354794625
0.000187700882917299637
0.000227764816572592675
-0.000267164064601523206
0.000376014854679423461
1.89724058622557236e-05
-0.000199752213751239237
-6.91309097654692348e-06
6.59258167440155842e-06
3.81260141388293765e-05
-0.000214512168162244555
-7.32612044645463804e-06
6.98752039072929798e-06
5.77790674619895641e-05
-0.00021483379675982551
-7.58096763125190244e-06
6.7430197934121787e-06
7.7443305015969266e-05
-0.000209778881973888626
-8.48547939103401324e-06
6.81744439939196106e-06
9.65021931616259006e-05
-0.000203274726879378091
-1.04797130492509149e-05
8.33573288365244284e-06
0.00011519981102622405
-0.000199452731164760709
-1.3220166890229889e-05
1.14449859622360065e-05
0.000134207152844959682
-0.000199053618139583796
-1.65856445784383825e-05
1.57654529553009277e-05
0.000154462276129037454
-0.000202839140697859925
-2.02079270597721138e-05
2.10191083805297839e-05
0.000175804203807923499
-0.000206132384885833583
-2.43506889237317173e-05
2.66384625179643354e-05
0.000198178590698549589
-0.000203378247402553728
-3.0383073833289055e-05
3.31791022675817138e-05
0.000222718101511947317
-0.000192558690213784464
-3.97752999368067869e-05
4.25252064541777725e-05
0.000245851650138109636
-0.000162590458665608478
-5.41330687226925671e-05
5.64138602465316118e-05
0.000254356976951641183
-9.66180672283855669e-05
-7.51058939248048862e-05
7.740789197277468e-05
0.000230444771667625854
3.03271453008886537e-06
-0.000108890031070536114
0.000119084490776572214
0.000161747720020086368
8.99488554292519427e-05
-0.000150467576938923523
0.000179142607657286604
0.000287409023475731368
-0.000259254550357278409
0.000361358093144379191
1.96448844729751358e-05
-0.00021831387285039638
-6.32569099386719074e-06
5.24243096050829056e-06
3.88298593062030273e-05
-0.000233002664852507849
-6.62998104183667987e-06
5.93546931364049596e-06
5.85053367897281958e-05
-0.000233042948097873738
-7.19764333349205063e-06
5.7313002138779288e-06
7.81300368169486723e-05
-0.000227082940153595713
-8.1981356543733597e-06
5.87747886505311907e-06
9.69468742265210392e-05
-0.000219594863621332364
-1.02834050744372004e-05
7.78668969954262829e-06
0.000115408497016219214
-0.000216428834723837884
-1.27983560723748324e-05
1.1312832286282039e-05
0.000134376226768692002
-0.000218102773363779774
-1.55503549053659856e-05
1.56317970625741796e-05
0.000154916207794020684
-0.000225632016726013584
-1.8091875799935134e-05
2.0344792921259827e-05
0.000176810690615225688
-0.000231477124104174155
-2.1278891921180686e-05
2.47291564111376495e-05
0.000201771996980483741
-0.000231461565711858135
-2.68176146349807736e-05
2.99396406273417826e-05
0.000232610135962028403
-0.000225396452792277652
-3.58627469234463141e-05
3.78624067034206133e-05
0.000263150332169630424
-0.000193233712314736449
-4.95018151342105226e-05
4.96048855353890098e-05
0.000273901909069482836
-0.000106464192811874013
-6.99319916091566216e-05
6.90265448788199195e-05
0.000245493123345879303
2.32352610226740328e-05
-0.000103443268973753933
0.00011164952117830547
0.000168186856528747741
0.000140746531724501015
-0.000145582844945911283
0.000172091453383595616
0.000359110527471073542
-0.000252147935761307075
0.000348633273919333499
2.05894763669989466e-05
-0.000236962434267520448
-5.42972472530137399e-06
3.48877221550987536e-06
3.96655617345916903e-05
-0.000250963519396780511
-5.83424703066928616e-06
4.71898320830449407e-06
5.91032430158650604e-05
-0.000250343667494454985
-6.89413431699129807e-06
4.75716448359879128e-06
7.84929115791559439e-05
-0.000243667318281254688
-7.95932466936695393e-06
5.15402965809589083e-06
9.69080617718457099e-05
-0.000235560100977792047
-1.00694914005332251e-05
7.61956444733621296e-06
0.000114991121733587712
-0.000233958504435348728
-1.21119920105741306e-05
1.1558593783127607e-05
0.000133640282637249435
-0.00023838169115089603
-1.39913527461356853e-05
1.56211218414569897e-05
0.000154141145570083494
-0.00025019358313499386
-1.54043327100032114e-05
1.94650468095957037e-05
0.000176677344071102314
-0.000258273568235367396
-1.81399679681781834e-05
2.24002186480325398e-05
0.000205130747679457934
-0.000262496261044741571
-2.36714899883835441e-05
2.62528103481865314e-05
0.000243076459887505466
-0.000263396315698783844
-3.24061470562562182e-05
3.24603258023696724e-05
0.000280152039481351115
-0.000227100543824041454
-4.47344221336083513e-05
4.15256719630658106e-05
0.000290772249410495959
-0.000111214639595814567
-6.47119938379773525e-05
5.88422393269938951e-05
0.000256491021218881925
5.22870029188717781e-05
-9.91932315913204453e-05
0.00010442273967699897
0.000173526357267225724
0.000197879395581284886
-0.000142563671343386383
0.00016839549825322167
0.000440028006734608933
-0.000246478017178620946
0.000339086862745148433
2.15505441148927519e-05
-0.000255835800475725898
-4.36815372161252944e-06
1.69093454937463235e-06
4.02234054538233926e-05
-0.000268147310756487918
-5.12116423640197521e-06
3.63206494651173752e-06
5.90669564718592342e-05
-0.000266526876295892189
-6.66874723198178669e-06
4.00840853751947808e-06
7.79966626902702431e-05
-0.000259628263079455927
-7.67064993549984289e-06
4.70189259205244071e-06
9.58863443267039594e-05
-0.000251671123516474253
-9.59845245968656097e-06
7.81977978728883201e-06
0.000113391542197266711
-0.000252490394203108541
-1.0931187962723886e-05
1.19578702347058441e-05
0.000131328718778088264
-0.000259874453686319794
-1.18507255192742699e-05
1.54063145860392333e-05
0.000151600875433712499
-0.000276143272400421083
-1.24165411160530151e-05
1.80940729003623485e-05
0.000174786970165674105
-0.000285527385098508575
-1.54677685442063971e-05
1.95355018478711836e-05
0.00020570912263157386
-0.000294219292127540335
-2.11902079174818955e-05
2.19911121833308418e-05
0.000246293185586772697
-0.000301530713575824671
-2.8758409843868551e-05
2.63087384884189824e-05
0.000286743144419675873
-0.000261989860855377124
-3.77829716813391349e-05
3.22223453875713714e-05
0.000296709934126715847
-0.000111383654313669707
-5.57700128095288788e-05
4.59722839635972783e-05
0.000251326527851208014
0.000101495787554599501
-9.68554007393482199e-05
9.30300598729456808e-05
0.000171755556007045605
0.000254506547725676438
-0.000143019557166568315
0.000165963399568531728
0.000522213142417335299
-0.00024312645654503778
0.000332696887431007911
2.20991263383171812e-05
-0.000274784692975170875
-3.70333057652431396e-06
5.53054899364630984e-07
3.98241481268439446e-05
-0.000284152644222456982
-4.7765762905497823e-06
3.05686721794543307e-06
5.76011224913045814e-05
-0.000281496825535630527
-6.39682846257700521e-06
3.58981658613461317e-06
7.5823482663862595e-05
-0.000275385075018112335
-7.04835158615586726e-06
4.58281152293266592e-06
9.30883122744680845e-05
-0.000268662724299719021
-8.48356401272957306e-06
8.21032424904002502e-06
0.000109658037017403885
-0.000272017409980719019
-9.0633810934527707e-06
1.20206635980066977e-05
0.000126552445134186283
-0.000282195052079404975
-9.1492887670422045e-06
1.45754744527889838e-05
0.00014650522803641986
-0.000302043249730293622
-9.53497709523547156e-06
1.54821688956824554e-05
0.000169334675327846367
-0.000310678773214156001
-1.36485873321506358e-05
1.59705427845654267e-05
0.000198526146248535475
-0.000321693013474399938
-1.87999412853450083e-05
1.70821881593024836e-05
0.000234742823080653028
-0.000334502771206768345
-2.34168266715759306e-05
2.01722004245216101e-05
0.000266206265336782987
-0.000288965209068987785
-2.76675449412998904e-05
2.31795230494113114e-05
0.000265413584622158885
-9.86809228525485811e-05
-4.01325852824585539e-05
2.82225448665658488e-05
0.000210438486979355353
0.000163949697731657429
-8.63035569221733123e-05
7.88247008141046272e-05
0.000155583889798273248
0.000289120970418794824
-0.000144383827446964452
0.000164624010827988721
0.000591627562182651077
-0.000241456595294136251
0.000327626070256267895
2.14420602505279104e-05
-4.05510441707423542e-06
4.2616365516399513e-07
-0.000292597848809261394
3.73252987941091779e-05
-5.05433484287244733e-06
3.36301551872984043e-06
-0.00029834456898779468
5.32945152133963482e-05
-5.75869204591811285e-06
3.37811789444943167e-06
-0.000295085451067028399
7.06069594801236427e-05
-5.6823281025467355e-06
4.69709048659404866e-06
-0.000291712275516657789
8.69919980188811956e-05
-6.55065376679488454e-06
8.2776554758317905e-06
-0.000286774771918729731
0.000101997638236240272
-6.5308579315043882e-06
1.09933085107350298e-05
-0.000291485507291079171
0.000117898568026314504
-6.04327676966362673e-06
1.29251525396692393e-05
-0.000304977863130500128
0.000136771395885774082
-7.06496288616485247e-06
1.12069470189727719e-05
-0.000325058055444976224
0.000157630728473212762
-1.19345274667902412e-05
1.13120560134631001e-05
-0.000330915636263908299
0.000179227754405399028
-1.56357412724138619e-05
1.17848235847883999e-05
-0.000339439142519307744
0.000206286020308254668
-1.60189314509726077e-05
1.51295347442228234e-05
-0.000360671597550840856
0.000208534852725927487
-1.58869310860286066e-05
1.42046523317360883e-05
-0.000289531795204253347
0.000187984861832060749
-2.03803555434767245e-05
1.58303007555382981e-06
-5.93339772989287507e-05
0.000148895294539335647
-6.80185195582355575e-05
5.14785007974327699e-05
0.000219579130180179753
0.000121019468595580458
-0.000143424969329657896
0.000149564234211976019
-0.000240243289245699234
0.000320854601310916832
1.4897343510964841e-05
-1.5281479146318767e-05
-7.40326697648611345e-06
3.56170907690101277e-05
-2.11493175395210755e-05
-8.26177553355561582e-06
5.67323044153067083e-05
-2.15857821465543893e-05
-9.08711435523050845e-06
7.70710079798243695e-05
-2.08959380683257245e-05
-1.05066029804849981e-05
9.55805935507262721e-05
-1.92082329411546497e-05
-1.25988351961877565e-05
0.000112833425205411024
-1.81790507698318064e-05
-1.55919365426141077e-05
0.000129149936722443569
-1.75375348896414513e-05
-1.97181860698823785e-05
0.000144282205393643715
-1.69074168164386226e-05
-2.53951999710479162e-05
0.000157687411914265877
-1.57433267850006079e-05
-3.28346675916464173e-05
0.000168098228051319706
-1.41211488375618185e-05
-4.30192627859107509e-05
0.000174801407819166711
-1.1541484472896376e-05
-5.59977148939084138e-05
0.000175396064237456716
-9.17408096881639615e-06
-7.42408719058370881e-05
0.000169177108189024318
-5.32952231047190853e-06
-9.6359441756440771e-05
0.000150939368225639649
-4.50292547018209935e-06
-0.000127942751174473592
0.000124930981764951248
-4.54658808315661119e-06
-0.000166666534228679923
1.93967173300889835e-05
-0.000200500069548574441
1.59715200617907139e-05
-3.16516465915099473e-05
-7.38768836066006962e-06
3.60645108172400413e-05
-4.16686984343513575e-05
-8.06612026486566129e-06
5.54144756158229116e-05
-4.13949941155966153e-05
-8.88903096864487714e-06
7.36722372719733181e-05
-3.9689067504250432e-05
-1.02555717654305804e-05
9.15381039620533657e-05
-3.77484563800646922e-05
-1.23270502369474339e-05
0.000108771416738062088
-3.63032522867787427e-05
-1.52834307680595175e-05
0.000125204997014105108
-3.51863834870761244e-05
-1.93585592858681571e-05
0.000140563917109799903
-3.39644131982459727e-05
-2.48665486477445985e-05
0.000154365052851235734
-3.19522454538197535e-05
-3.22181941880777091e-05
0.000165662880625870362
-2.89262699851527855e-05
-4.20306235588355773e-05
0.000173543183360311677
-2.4589787572456061e-05
-5.50200594875962506e-05
0.000175639984826860175
-1.94038556564778451e-05
-7.23196715695303429e-05
0.000170455918082259406
-1.28019160976008204e-05
-9.4918580855843257e-05
0.000151350621083668239
-8.7494161860187318e-06
-0.00012474304881911655
0.00012424971212006113
-1.15479164640592978e-05
-0.000158988081507840695
4.15071966782588986e-05
-0.000219557947130805397
1.70343720923100343e-05
-4.91104403227019069e-05
-7.30078615036016391e-06
3.63714343504434445e-05
-6.14528246223518823e-05
-8.0256754155693954e-06
5.54636488476292923e-05
-6.09513180336078309e-05
-8.85313227583916006e-06
7.38039372273131849e-05
-5.85556641694211252e-05
-1.01992820892713077e-05
9.16888083497227233e-05
-5.62899300305586651e-05
-1.2244415232482953e-05
0.000109038423930004513
-5.45202329114110234e-05
-1.51670952174639004e-05
0.00012564428924542872
-5.29802041785743682e-05
-1.91900721226486068e-05
0.000141222853180960841
-5.12142615386757344e-05
-2.46192269957510255e-05
0.000155250126320749521
-4.83559370261739518e-05
-3.18675417266494653e-05
0.00016682579044894751
-4.39595602869445902e-05
-4.15503235172117046e-05
0.000174860002187850232
-3.77148241852108003e-05
-5.43929047596693828e-05
0.000177033862097906379
-2.95673747991390953e-05
-7.15481827792705601e-05
0.000171422449242489278
-1.96954248961520323e-05
-9.39456463358907692e-05
0.000151424330263010779
-1.15248134996995646e-05
-0.000123796925454507805
0.000119848639378180956
-1.4012111840199864e-05
-0.000158065557818320654
6.18059930588167329e-05
-0.000215985543032494486
1.77495399881862277e-05
-6.73371325296712474e-05
-7.21420930308531472e-06
3.66444979407081942e-05
-8.08325068768194491e-05
-7.94726081417080469e-06
5.54802682705816228e-05
-8.02590603638338775e-05
-8.77043329442679088e-06
7.37958914842520408e-05
-7.73815109068187875e-05
-1.00896705794106926e-05
9.17037151349284744e-05
-7.48233883270185701e-05
-1.20996451797629732e-05
0.000109151005992322699
-7.27931179304899643e-05
-1.49799303298321944e-05
0.000125930407635773805
-7.09023910018748052e-05
-1.89371126986662071e-05
0.000141761579859858358
-6.86752610627732623e-05
-2.4260536908165166e-05
0.000156099727045601766
-6.50324189346329255e-05
-3.13629283457979828e-05
0.000168074881255448325
-5.93411996661472429e-05
-4.08550458286277115e-05
0.000176438559892184733
-5.10864281847485678e-05
-5.34752678630480863e-05
0.000178764758714623773
-3.97305993207755913e-05
-7.03927510511135533e-05
0.00017271954093539527
-2.59409786540898238e-05
-9.2566312604070892e-05
0.000152013635211666168
-1.31234765491821631e-05
-0.00012209403050447289
0.000117515417728316173