/*--------------------------------*- C++ -*----------------------------------*\
| =========                 |                                                 |
| \\      /  F ield         | OpenFOAM: The Open Source CFD Toolbox           |
|  \\    /   O peration     | Version:  2206                                  |
|   \\  /    A nd           | Website:  www.openfoam.com                      |
|    \\/     M anipulation  |                                                 |
\*---------------------------------------------------------------------------*/
FoamFile
{
    version     2.0;
    format      ascii;
    arch        "LSB;label=32;scalar=64";
    class       volScalarField;
    location    "0.209999999999999992";
    object      p_rgh;
}
// * * * * * * * * * * * * * * * * * * * * * * * * * * * * * * * * * * * * * //

dimensions      [1 -1 -2 0 0 0 0];

internalField   nonuniform List<scalar> 
7236
(
20.8498890080091464
2.08310020397164397
1.6173337329629498
3.85688386188162591
4.35140742176007578
4.97486380625656555
6.3890667833493584
6.67479171326059184
7.50676613686924998
15.2740886727459131
15.678362168222657
13.2848273677211193
10.6501976748174005
10.2826766374406091
9.70423542357176849
8.44772693945266262
7.86681229372098301
7.39308365248486155
6.1298403216597066
4.84711671385127918
4.16170503962505567
3.28357594368046213
2.31385825007889556
1.76527599433842508
1.37943640806942747
0.970811175831068573
0.881380321467897576
1.07353450116375249
1.13137138199438336
1.29841676432851316
1.49344028465715017
1.64288938343152613
1.68648960505442913
1.63802486885872778
1.55553505421553817
1.48367352445638612
1.43542007356946999
1.41125989887144909
-1.57743435357211426
-0.890653881532485814
-0.75948331202965913
0.330726065769919697
0.486754988862753757
0.369560811428190972
0.265058402608858323
0.229947176609987564
0.254959819309123314
0.17780948881482328
0.0939338638237256079
-0.000297528455852896204
-0.0185321145865124104
-0.0113895905410363475
0.0144944292118542525
0.0529142474058574008
0.0685263655740144945
0.0808925560811137312
0.0639914482660545458
0.0294437139461846721
0.068943725158596314
0.195884978345224475
0.340403518630723101
0.343327412182898584
0.369723880910837577
0.386590057507358198
0.49141311001580501
0.636140400264361028
0.894975375790064032
1.12539261519071765
1.36442505055635643
1.57423773971551606
1.64999220571211991
1.60897868653065057
1.53544415984534588
1.47023006331289641
1.42370217594546267
1.39993125031604282
-1.09444940132204427
-0.925920299045286166
-0.722383030561928541
-0.272846791413549339
-0.335276193196059669
-0.337462033246124726
-0.329477739779194978
-0.29220072556890142
-0.238698197298783832
-0.225192301941263023
-0.242803061597747699
-0.255531259150446666
-0.248769871560421574
-0.227419522140147823
-0.208055450947136511
-0.186272041181615139
-0.168183620295810021
-0.15741056634959405
-0.155787897281161242
-0.160694856141170461
-0.190543912927906095
-0.208599156043593997
-0.24803821039804394
-0.248753277173239307
-0.210399388847492347
-0.0857524479786796467
0.0764784789616213961
0.233851590222956596
0.433874587470986839
0.723793458734841133
1.02887615087413153
1.29365387797734033
1.45962423613413761
1.51441896479543558
1.4832214975932585
1.43286159424397685
1.39474103658165949
1.37489855934962057
-0.920576213533953025
-0.849656947784381833
-0.702930575762468757
-0.570051714636356621
-0.507824108487774706
-0.456888108789441139
-0.428164992330298144
-0.400645758413174069
-0.365015027626618416
-0.341985085579836645
-0.339462529756497267
-0.342676960122717478
-0.334018127717825686
-0.315543586442320112
-0.293584120477375754
-0.271443895955678471
-0.252738702169736318
-0.238568595474922013
-0.228165610466935148
-0.224281008739563165
-0.232028324516318107
-0.252936755383082246
-0.265443611748120145
-0.248516608802341277
-0.210738366954526579
-0.145620512140851366
-0.0518262924370849615
0.118323725845045358
0.344922983930833316
0.601186279467212592
0.866476123515501517
1.10733465819849153
1.28138841251968549
1.3713164418685162
1.39596034499224819
1.37590198877918368
1.35221933060451449
1.33900482225743156
-0.857160018265840096
-0.771418984725102841
-0.671422111866877613
-0.589352051093493645
-0.539990190668617309
-0.501933756436624079
-0.471779568139663097
-0.443170676110680672
-0.41410206653413667
-0.392545266740240484
-0.37921304140370965
-0.368523157051704187
-0.355120296709391325
-0.337100996348097037
-0.315922745154381124
-0.293495503918506317
-0.27056831233618317
-0.254884997770280175
-0.247409117150150598
-0.243855639511863898
-0.249376656033793165
-0.256754251713591397
-0.255614087523254541
-0.236546839345719406
-0.197231993068802486
-0.127696005135031043
-0.0163594516916851819
0.141469298000783145
0.340059301030045169
0.564027693213870474
0.794011307695524637
1.00548867011774878
1.16911679784841005
1.26603820385285526
1.30432637257113315
1.30934486179141563
1.30118239943387093
1.29474434078421008
-0.769184757870108204
-0.692332819292814095
-0.643282596618056091
-0.589143368447091365
-0.54953125400176428
-0.515996643359270646
-0.487512651586133661
-0.461274797909430379
-0.436102940011632578
-0.414639366931528253
-0.397515120691043111
-0.381692967669931382
-0.364167393388090621
-0.343225451438976203
-0.320346162539335788
-0.299892541696293147
-0.282748758802025268
-0.269246960619729969
-0.260264726299701099
-0.254492265131710582
-0.251232675163641395
-0.246450467617718549
-0.235656646904685546
-0.209266670202402916
-0.160755765733633427
-0.085852384650612637
0.0235261318970894258
0.168544159954015449
0.344824994433776122
0.541237791009114955
0.741719707488875279
0.927557743333199403
1.07735030925923891
1.17531323189911174
1.22516698081073172
1.24323944473098624
1.24592588018162309
1.24482018514186077
-0.721109712105934886
-0.650300416392422864
-0.620146430205389509
-0.584843462432409145
-0.554667619093920039
-0.524715735988090071
-0.498764927563570604
-0.474857090751556576
-0.452078811087721133
-0.430608938461191137
-0.410835416306094159
-0.391752704835065579
-0.371434679303039639
-0.349482746539962419
-0.326787668411748944
-0.305624708370562825
-0.287278509539067084
-0.272304397689239253
-0.260799263278202742
-0.251199622338165174
-0.242091789022573223
-0.229815869053518834
-0.209884050396218463
-0.176377688765397139
-0.123382827250157937
-0.046673039708975475
0.0582601299143580137
0.191793217465266036
0.350105931992756747
0.523728787665646456
0.700354789428721314
0.864580984404667463
1.00013451730418579
1.09551519100552541
1.15141957572756737
1.17850492921354189
1.1888990318593311
1.19188215804969788
-0.701803826010273912
-0.624478256619823369
-0.60664546474137282
-0.58209285191200022
-0.557360465284017947
-0.530946752797024635
-0.507286381765770455
-0.485204953432822383
-0.463632267806260046
-0.441944679723429379
-0.420540500967671593
-0.399088088945896979
-0.376709663703818476
-0.353365294424559717
-0.329853214190663213
-0.30758009176036033
-0.287661933342094445
-0.270731553231789879
-0.256126394901294574
-0.242596244778631426
-0.228343635274398937
-0.210315007792318487
-0.18421354725605063
-0.145386756566096287
-0.089316697076961396
-0.0124801817237568842
0.0879945628032086369
0.211480246252459009
0.354201478559059535
0.50887230701614472
0.665279074499749545
0.811122714465831396
0.933942860168775257
1.02492325983099253
1.08334521624468838
1.11600978182585164
1.13169577796867338
1.13769072390240478
-0.697468339263259685
-0.610134109653809986
-0.600732257729973518
-0.581284264676574125
-0.559928002578663375
-0.53622086708147676
-0.514438522788531638
-0.493488820219875668
-0.472268506870027915
-0.45020542049941098
-0.427550755429291884
-0.404307394266134212
-0.380237844078234299
-0.355560100940741308
-0.33096125658082981
-0.307475398980381176
-0.285918336499311143
-0.266644134882684514
-0.249075524040091673
-0.231936341161028625
-0.213289830942752084
-0.190333011855988332
-0.159517292625833612
-0.116912187327425518
-0.0589758660279239913
0.0169248610059580633
0.112476875727662282
0.226804653894476932
0.356375212667251307
0.495038857093280549
0.634382025811393357
0.764648758975501885
0.876146286792623075
0.96186323986897404
1.02047602893805633
1.05622477641833479
1.07536882532463851
1.08345810391460851
-0.688884422864324275
-0.599283972320217684
-0.600183123803137097
-0.582835728492438143
-0.563874275996869456
-0.542016850215049306
-0.521029664223379485
-0.500247623802741459
-0.478966929459068602
-0.456413665355860532
-0.432676079228777544
-0.407928893095090839
-0.382319706100183343
-0.356280143179017628
-0.33050983202536971
-0.30573615629426798
-0.282557501345602868
-0.261096023464081339
-0.240782401649403954
-0.220370506494064256
-0.197966051389195347
-0.171005226141895617
-0.68559402781249168
-0.596529565681123697
-0.602844821808040443
-0.587316803476880644
-0.569399755771247906
-0.548276796982384851
-0.527243749157847552
-0.506183302520255229
-0.48440230321170713
-0.461117846292465938
-0.436262908018416717
-0.410113006249765155
-0.383064951288485889
-0.355696697234943682
-0.328693989784804574
-0.302650012591808792
-0.277937280900438011
-0.254527139693932758
-0.231805572632587858
-0.208559167602663742
-0.18301025431735235
-0.152920481600985564
-0.680410838254449812
-0.600438011307402708
-0.608954659472343507
-0.594069126024855287
-0.576401767346081617
-0.555094153886682373
-0.533491856979028789
-0.511643872356679852
-0.488963560585941093
-0.464653240377673693
-0.438559390354928524
-0.411004746793224573
-0.382551569395654323
-0.353896236402400532
-0.325701990310383327
-0.298455725124227911
-0.272366237948277246
-0.247257039279071972
-0.222473368413227346
-0.196847636364901768
-0.168768336880517067
-0.136277579258060999
-0.674584870439661866
-0.608617190310364542
-0.618356520209346949
-0.602794674259134244
-0.584514343687565163
-0.562305776940851376
-0.539684930789625206
-0.516679639488024756
-0.492761685818780604
-0.467166169572742207
-0.43968741438560488
-0.410693218124555559
-0.380868659608729565
-0.350991860781802389
-0.321698468912013591
-0.293369425164308251
-0.266074119372442408
-0.239522143477549354
-0.213014353456976169
-0.185449205982554849
-0.155388416837337034
-0.121121196426118349
-0.468718837470505578
-0.439713394622220088
-0.409251583097022864
-0.378102022366046564
-0.347092782973173808
-0.316817953373923322
-0.287556621283663216
-0.259248455606227113
-0.23150451467267058
-0.203593792332749407
-0.4067610144663793
-0.374355576272071333
-0.342327041787448882
-0.311209327360113031
-0.281174866982031979
-0.252046736051470377
-0.223353863409370773
-0.194337771857469171
-0.336809156398143739
-0.304992242599398278
-0.274344252741734518
-0.244577502704365207
-0.268647965460970417
-0.317820416580379239
-0.544498622139708344
-0.0522100659367284795
0.376551929905525273
0.510556007447532267
0.437509759269940068
0.310328550290794258
0.283278834151846848
0.736066262602013799
1.25065384553576253
2.19353097107406514
2.47460086355112763
2.30514078505228337
2.36631396793617599
2.52315283231915988
2.62888571962240425
2.55967151781711344
2.53803073958064385
2.33435633135536147
2.01591564441313897
1.72586634706731501
1.34953619300659544
1.05755737345362766
0.893544192836697615
0.734492347977808602
0.732710446223021394
0.901152979524697639
1.11225544577145374
1.22318829494363857
1.33432456039673064
1.41606043545889526
1.42533768398509775
1.39331546416570506
1.3527543432894884
1.3173598456689084
1.29168094403831746
1.27808372142644378
-0.647070250180255768
-0.463569826766835502
-0.517008395103324636
-0.526388840206874042
-0.312757821357651955
-0.27441643338700461
-0.253957127312663455
-0.254525123013166543
-0.265390402374212797
-0.120330115296420417
-0.196022354799005954
-0.252653913632610805
-0.266209591121974898
-0.247115911063380406
-0.22252092932969153
-0.205625690709947073
-0.191896178625083486
-0.17805787810835369
-0.17635675898622527
-0.194370915368491465
-0.221863357286171042
-0.242781955728450793
-0.196146684316725411
-0.0697224755560889864
0.0154672187841023868
0.144138709351909283
0.334113531671672681
0.531913897533296764
0.77750964129881428
1.0206541141446388
1.24678524973349947
1.38159675464902065
1.40155475023977161
1.37205897566129686
1.3391532773648589
1.3065563564503444
1.28212347669112203
1.26888671206672909
-0.800237975170113636
-0.570647276145647253
-0.516593289667417688
-0.509361675050002627
-0.4547327830181499
-0.430186659507019897
-0.408713068299271565
-0.380802403393973588
-0.36153175602451787
-0.349164523035975616
-0.333072289202080207
-0.334322122248090992
-0.332152980463139014
-0.317166461506159625
-0.295613127452845015
-0.275939138855531452
-0.259707300611413061
-0.242793690464893214
-0.231404072070781869
-0.232311333708912549
-0.235064354842700135
-0.247756149338763471
-0.252673269054083161
-0.219600713138313752
-0.15269215497258587
-0.056572379587624344
0.0649516887969289053
0.242847378422858584
0.470920322790479462
0.732814841949707474
1.01077863435077031
1.20194831032225169
1.29832986144207019
1.31690273613527453
1.3017925378790518
1.27913391108994268
1.26027621613272567
1.2495312138704584
-0.719041232781775008
-0.581327938150003498
-0.552112786142752499
-0.517913395187598047
-0.479222509264459084
-0.450147605420476271
-0.430583954218861364
-0.410638124017201567
-0.392583222210569682
-0.377676503594241431
-0.363898701341535735
-0.356568210541864716
-0.349019727219618547
-0.332929153314398429
-0.312005214593041313
-0.291425271953177745
-0.271179775015579161
-0.250019432916031958
-0.233668497461334834
-0.229068634265774174
-0.23212515079166407
-0.235742372791245269
-0.22596651221437411
-0.198107150005055049
-0.154252704455429657
-0.0792478182148648319
0.0452382855913934928
0.220983651276637105
0.428026197098977934
0.650119874129481579
0.868878306517818055
1.04933862881878004
1.1680497634881426
1.23307210449244375
1.2463525154753814
1.23886914537317039
1.22848201601000717
1.22183384494551883
-0.672807732608943998
-0.598318277080211236
-0.561379197854912748
-0.529417614825399729
-0.49964416025718017
-0.473903048236603008
-0.452966023846196608
-0.432918970507391476
-0.413424861488409012
-0.396115072313839078
-0.38071148833635754
-0.367397679907299823
-0.351960922860326153
-0.332153548600216009
-0.309951789016765233
-0.288676689195753344
-0.269968271699256301
-0.253885990745944867
-0.240597867965994167
-0.231991708726872692
-0.226398329122786068
-0.219505543075234039
-0.204134366361437614
-0.172535710654722702
-0.120720305509250544
-0.0414383164846907279
0.0749886964220198154
0.228406621028425766
0.410345117709026763
0.604845213912417634
0.795810251184715822
0.961269964133376731
1.08121298150703238
1.15168707011666771
1.1830168293477592
1.19119860445118864
1.18969454476689007
1.18727276756051703
-0.632359304790919174
-0.586171596618496604
-0.558984458775121151
-0.534636428456472967
-0.510176667627217362
-0.487400710898280409
-0.466565221011681852
-0.446524378032500668
-0.426926648677476983
-0.408364779065200689
-0.390741811649549187
-0.373773129970623064
-0.355221052067163201
-0.33400385273529215
-0.311405998738962353
-0.289522966825102313
-0.269738855907940389
-0.252526609730794993
-0.237871320798657027
-0.225678605775362695
-0.214409301840033345
-0.200402558770743588
-0.178080646362926726
-0.141305029654995418
-0.086102386078650589
-0.00680854267561667448
0.101886350651462954
0.239758205445675138
0.400764480937033374
0.572578097138784159
0.741623839937288865
0.891580428042351159
1.00694422777532644
1.08227123840197548
1.12315380161770118
1.14086386214764568
1.14645840080513128
1.14757422683748711
-0.604302086203496791
-0.571050272045546037
-0.55402543844565233
-0.536716460999476119
-0.516809563813921402
-0.496266329875553802
-0.476232463046725618
-0.456416736701874159
-0.43669927792445129
-0.417178745180107391
-0.397792311752487693
-0.378206789673180332
-0.357285376299051993
-0.334683553159580038
-0.311354584650093524
-0.288796480750295181
-0.267928099652965324
-0.249127235132552666
-0.23234906468866115
-0.216788847378182714
-0.200741924355262835
-0.181163018424248201
-0.153668900438606815
-0.113253678491704549
-0.055950013893182729
0.0225226346551164087
0.125082288189854146
0.250744018569866056
0.394385300188830223
0.547166248028273072
0.69797705446212388
0.833695315806029957
0.942370006773080138
1.01864359921507308
1.06515883857097204
1.08960757525613028
1.10065884506658618
1.10463350127226323
-0.587112974035486568
-0.558927240019956861
-0.549579245568323604
-0.537682023015521593
-0.521542481851196005
-0.502937519882314277
-0.483807829337187745
-0.464365248414283283
-0.444448990423754131
-0.424002653671232022
-0.403071374409076255
-0.381500168378518911
-0.358793281168316436
-0.334964239078480108
-0.310779952803640291
-0.287274591678551849
-0.265166920931653172
-0.2447292726098729
-0.225683069562693822
-0.207096431404447195
-0.187162503435147953
-0.163098986454565581
-0.131349070234761361
-0.0880141538699637377
-0.0295256990451675354
0.0471571845383616933
0.143852707033004096
0.259274266023808653
0.388984303940011267
0.525934861572707413
0.661087595663865435
0.78408699853649666
0.88554285784053699
0.960486722364304657
1.00980605683173863
1.03870938513122213
1.05368997989710755
1.05986221731715657
-0.57524178845781504
-0.550944613447133524
-0.547308453245734627
-0.539093335421287567
-0.525660452534000733
-0.508605351778183001
-0.490177551133673617
-0.470849047290486156
-0.450574882897224249
-0.429294862224899709
-0.407094254113103238
-0.383977518413801788
-0.359834862635537156
-0.334888965245374259
-0.309771530912020199
-0.285252027854145995
-0.26187746766439407
-0.239779648339414175
-0.218542928585503698
-0.197161013694387655
-0.173894260237751119
-0.146269137694203855
-0.111282505226313527
-0.065782862304334791
-0.00688037381241899271
0.0676404155923444467
0.15882975560474652
0.265364346614156033
0.383411757693582933
0.507067199238415256
0.628889530230745786
0.740660584818686019
0.834896481146317537
0.907162398096698075
0.957356083630180432
0.98890589650129046
1.00655390154041613
1.01431100234876981
-0.566475145571135874
-0.546513310395771446
-0.547587583299965819
-0.54173484636357383
-0.530051316177877818
-0.513980029741099798
-0.495818888891170317
-0.476306559804329843
-0.455539804863649367
-0.433446845188945995
-0.410119011250598242
-0.38569417192302019
-0.360310283681359922
-0.334316400213262921
-0.308270066364071338
-0.282752518624030114
-0.258147548273426064
-0.234463164988271328
-0.211215168978954398
-0.187366063319278187
-0.161287256375698157
-0.130808383304887671
-0.0934032831111829415
-0.561787461327072246
-0.546033350970855369
-0.55051040964234299
-0.545961643050210776
-0.535155668930281214
-0.519386554815386425
-0.501073354660073522
-0.481104013694293342
-0.459661814082367226
-0.436685051252953094
-0.412281389390138142
-0.386677665423465156
-0.360167677356454219
-0.333176639465586122
-0.306213582730557987
-0.279731337680732828
-0.253974773830184297
-0.228847094031914639
-0.203811453556653088
-0.17784785656080368
-0.149458983285439856
-0.116749555552054754
-0.560971497404779695
-0.549508460942730648
-0.556205862940871154
-0.551942692138945756
-0.541164483777552108
-0.525042429612530004
-0.506158952849549038
-0.485441932931441555
-0.463114271772869512
-0.439148074354912377
-0.413657844704119204
-0.386926529932751839
-0.359352014156968047
-0.331410487831779288
-0.303569888261493837
-0.276181794919922174
-0.2493773848529941
-0.222971984340945867
-0.196392137685791085
-0.168660281966221404
-0.138419975963654712
-0.104021004149667418
-0.565799031566524779
-0.557137883450732119
-0.564876915868845697
-0.559691029113897565
-0.548057346625943631
-0.530979297302396125
-0.511125084880605152
-0.489380915813831252
-0.465967543864315548
-0.440893196926311737
-0.414273824670655932
-0.386432522812868495
-0.357839060062316416
-0.328999154507614577
-0.300338850954306236
-0.272126270766239242
-0.244396431025385386
-0.216889815608192121
-0.189009385477495961
-0.159837794170918229
-0.128157955282498015
-0.0925336403119686179
-0.441931225397260707
-0.414132042631440878
-0.385188595985872351
-0.355622652671889194
-0.325949273760038627
-0.296545531483460467
-0.267606689216828619
-0.239083911453032538
-0.210656189232003715
-0.181708709609606334
-0.38321311219442189
-0.352722592340935837
-0.322296642084172247
-0.292239196436195448
-0.262681274956626631
-0.233501252815302041
-0.204332678701051929
-0.174535059798636205
-0.318072706024158491
-0.287460144954180263
-0.257393419527971845
-0.227688813975326976
-0.392889800438233239
-0.428505943911377141
-0.457648261109890875
-0.397830402110131764
-0.314484543455708143
-0.304696609382285988
-0.301355502714874102
-0.266170714364573457
-0.23595775071851649
-0.156549655157338707
-0.0390878370126556476
0.196351719145373277
0.349059679609285634
0.355966789019240892
0.328415531618443224
0.299504464085041666
0.27833735697037032
0.272580044894865037
0.323596852769691412
0.339504504136347141
0.34451363356377962
0.383399409944470804
0.409826577803746039
0.420055757820486264
0.470242638308874361
0.558828009200262654
0.662974625798383843
0.790093610799941226
0.921142445422699296
1.03594136678455806
1.12347586863870497
1.17428267984982382
1.19415560742939797
1.19706635169744491
1.1904082456825793
1.1796973008713163
1.16990507539029065
1.16411920037167316
-0.445403687165650541
-0.478393472397205588
-0.478448133590543223
-0.4418008198501856
-0.410498839303823304
-0.398110907932310798
-0.379226756533598885
-0.363840871536510235
-0.340580433921742198
-0.30080363967566337
-0.309157018132611761
-0.242880008367056227
-0.192452951846952602
-0.157441406558535668
-0.161261492735168904
-0.150020088991623834
-0.138168559714322015
-0.122655910614153485
-0.116581573111892239
-0.12211655991928172
-0.126625204998744856
-0.111769393177608714
-0.0614032275846423184
0.00775739841238891944
0.100542029558342919
0.224558798500926943
0.377226884210451474
0.570966473639659244
0.778557922560512261
0.959619247727532376
1.08573370818339043
1.14973607381348919
1.17313690035717344
1.18301848340262383
1.18000540308193091
1.17106104465765926
1.16226152172800545
1.15675650909309691
-0.511886309567965436
-0.5031295619954822
-0.504698130776013221
-0.485366309562118237
-0.47503380082997898
-0.45738497385640986
-0.445296269924323695
-0.436016615733668123
-0.433988129865876926
-0.428919088143926208
-0.411380112909141227
-0.393745427580844076
-0.366557241425416569
-0.337199156884429863
-0.308486589448666915
-0.282625017521620669
-0.258877768503369132
-0.237339689121148056
-0.219378910410770706
-0.209067859170401354
-0.204369902223854788
-0.195438226545081029
-0.169734569047095551
-0.125415234317799856
-0.0589403682491799266
0.0393214721685381588
0.182992884652973031
0.368344455718653763
0.581472319358769418
0.794655235661741122
0.959020410026362624
1.06829632559888932
1.12553811070954235
1.14836201397455095
1.15439810103077667
1.15126044448750031
1.14580682428663105
1.14176234916469022
-0.52969388434585829
-0.515648421298722459
-0.508647054538401866
-0.492173249318987871
-0.475418564102894958
-0.458531465632278978
-0.445741229607253375
-0.434737597715108004
-0.426539783765750857
-0.416785951633209806
-0.401466718563500247
-0.382734293223937261
-0.360734649270695595
-0.33504869032020429
-0.308475414218581212
-0.284251919907331674
-0.262417555051341123
-0.242254096631056792
-0.225724297211915392
-0.213518092802532006
-0.201985469239005788
-0.185402797274662218
-0.157916980845359683
-0.113568221366112401
-0.0490955539430453988
0.0446419838165620086
0.173897158601444779
0.333900494727786434
0.510356587263505856
0.688013290084932394
0.846752848044460826
0.970864434000005327
1.05512156102453503
1.09956710957296178
1.11786298896062841
1.12260900654785378
1.12191330602853445
1.12026013200035091
-0.528701062195406357
-0.518921283163033764
-0.510476386284503092
-0.496735395017548986
-0.48149218448253539
-0.465821828484300426
-0.452098860728145091
-0.438741579034723495
-0.425981878577305628
-0.411916002466115427
-0.394782422884640549
-0.375249299927331526
-0.352805897135982371
-0.327667829612700523
-0.301639466898116215
-0.277031575308381017
-0.254456456381735641
-0.233711572046130106
-0.215435080363339942
-0.199589741011141492
-0.183548355169316446
-0.162929696956140929
-0.132445606835269264
-0.0873535929909823455
-0.0240678891882848203
0.063308545673551167
0.179096692354793419
0.320135253342968162
0.476130620835264862
0.634814768837314358
0.782646650214081196
0.904262791952808231
0.991751512278718161
1.04636723610116245
1.07541591107439793
1.08802982026939166
1.09225775708229489
1.09314656127161203
-0.521470585122822183
-0.516395328137384424
-0.510097223762912111
-0.499367664573439174
-0.486208232973972199
-0.471659662832477233
-0.457128771705592796
-0.442222286786385033
-0.426937885756559443
-0.410355029628436063
-0.391615383736718503
-0.370872868928855459
-0.347819199296546311
-0.322796618950416558
-0.297062224242037487
-0.27216853810129249
-0.248841643998736151
-0.227214479769249716
-0.207245381027393344
-0.188287968516492682
-0.168372049745890623
-0.144105423704244451
-0.11101571856056057
-0.0649325917917317613
-0.00242999082738261504
0.0805684976238271733
0.186475011750585312
0.313270258042249672
0.4532022183598578
0.596231691073373371
0.731702443433010608
0.8473811128570089
0.935673981452953107
0.995404856576621699
1.03108500072862141
1.04982329814914688
1.05839705269149009
1.06151287705197284
-0.513264212753418048
-0.511999225270579061
-0.509042950947647399
-0.501440005865680716
-0.490223981257017161
-0.476543980111301335
-0.461666791662176001
-0.445742449456150436
-0.428848678207552847
-0.41056102280052359
-0.390488653108156725
-0.368628084602623363
-0.344887265659506614
-0.319620621865454424
-0.29381823542936214
-0.268588537035120312
-0.244532569047230586
-0.221789935434581587
-0.200127695490788515
-0.178672321740953294
-0.155621205886332353
-0.128149758400172231
-0.0926665058050562818
-0.0455597437856758922
0.0162358606478190705
0.095572751255371749
0.193767308314522851
0.309057336308728448
0.43551190641542048
0.56527953265621167
0.689297929726299552
0.797958557320159856
0.88435612857641055
0.946282933401978665
0.986293602848763329
1.0095919485729008
1.0216952353845199
1.02667681571644098
-0.506313552128962341
-0.507736279742992846
-0.50815036699011551
-0.503362714305975678
-0.493917502593306357
-0.480999858600801022
-0.465994475499313721
-0.449386926174912771
-0.431376371251140367
-0.411815463690016148
-0.390581886849306115
-0.367711252114220566
-0.343250344264824869
-0.317587937444997304
-0.291501997504602928
-0.265813967005738228
-0.240993257714246678
-0.217101227748001779
-0.193804738987614883
-0.170172636649441045
-0.14450152279373138
-0.114346505270245383
-0.0767682773856255829
-0.0288036942080638451
0.0321598784662928822
0.108204646335293142
0.200017943071876647
0.305846388486866294
0.421055590902998655
0.539266014419596651
0.652958617132087249
0.754342033754228369
0.837402692238759072
0.899552719830712721
0.942016010908073187
0.968487962294544591
0.983267596581492653
0.989743684026087256
-0.501548077996316066
-0.504835698303711777
-0.508242082139588991
-0.505677614889232907
-0.497637045104967479
-0.485299586157944163
-0.470191594986923755
-0.45302806085441949
-0.434130687989645214
-0.413534652267042335
-0.391277865170484018
-0.367477457991497114
-0.342300147435074698
-0.316149630110714563
-0.289651531992069944
-0.263420746352906299
-0.237807378484566678
-0.212801594935191102
-0.187983284944600676
-0.162408891524769367
-0.134516619335104309
-0.102186813774287261
-0.0629653931956338925
-0.0144046628793058594
0.045616111162828217
0.118611907235426389
0.204879957451806732
0.302754719903130631
0.408416994146360735
0.516570434619164076
0.620999856118463867
0.715280110018789439
0.794270157810584299
0.855342366046378699
0.898853052697852761
0.927318719365242683
0.943983768250080679
0.951576119266945186
-0.498999464500129775
-0.503896005984739714
-0.509855232960840676
-0.508848020637708509
-0.501706704874577913
-0.489642884779919796
-0.474304149544827469
-0.456567148712181903
-0.4368639319864841
-0.415347331253125507
-0.392156945332477247
-0.367489467862484598
-0.341603549517602412
-0.314908481302385912
-0.287920658718382516
-0.261104785434775166
-0.234703519671491806
-0.208638467485857126
-0.182440689951622187
-0.155179649192297459
-0.125438294482379697
-0.0913827607026877625
-0.0509425918642007688
-0.499164819564780149
-0.505424615582017789
-0.513368354790301074
-0.513178348525776706
-0.506346487146067226
-0.494157161302368197
-0.478369113718342176
-0.459962539562323691
-0.439441461505002628
-0.417036032330875439
-0.392954194503239151
-0.367456835942864435
-0.340866310076752221
-0.313592019643211761
-0.286071372423293335
-0.258657259241360848
-0.231500593455780251
-0.204460528436657407
-0.177040288465435403
-0.148347635558265162
-0.117099277646133454
-0.0817052191476013712
-0.502567276013298314
-0.509980693438421784
-0.519094838356165544
-0.518859383683862641
-0.511687299838179066
-0.49891362994610533
-0.482410207411127945
-0.463190230060102681
-0.441779995026092054
-0.418465641795860988
-0.393497669376476567
-0.367184287782607643
-0.339891419703210296
-0.312023848540078086
-0.283956928767814532
-0.255957322087446926
-0.228098256621247331
-0.200186284203029197
-0.171709732991488118
-0.141827739242974232
-0.109384147997596673
-0.0729999166904137381
-0.512764023291458537
-0.51837409648292887
-0.527435413528153041
-0.526025131716272742
-0.517777019023749063
-0.503927634943524883
-0.486417070806614171
-0.466209382004303952
-0.443811007267659208
-0.41953910364921243
-0.393669457779489029
-0.366541350568044488
-0.338552082585189151
-0.310096173499072203
-0.281494596948516251
-0.252944152888198437
-0.224452507422586572
-0.195782878464511118
-0.166417489701618682
-0.135576861404604176
-0.102221224790671875
-0.0651554367117227473
-0.420180190390212982
-0.393384941625471551
-0.36543989892548373
-0.33677056649793724
-0.307749518098550556
-0.278644625964487247
-0.249594826895158967
-0.220552715122177001
-0.191246166651890787
-0.161153596147132344
-0.363843018192877121
-0.334513306691238466
-0.304966795445060113
-0.27540308211946396
-0.245916118972029168
-0.216412490923683615