/*--------------------------------*- C++ -*----------------------------------*\
| =========                 |                                                 |
| \\      /  F ield         | OpenFOAM: The Open Source CFD Toolbox           |
|  \\    /   O peration     | Version:  2206                                  |
|   \\  /    A nd           | Website:  www.openfoam.com                      |
|    \\/     M anipulation  |                                                 |
\*---------------------------------------------------------------------------*/
FoamFile
{
    version     2.0;
    format      ascii;
    arch        "LSB;label=32;scalar=64";
    class       surfaceScalarField;
    location    "0.209999999999999992";
    object      phi;
}
// * * * * * * * * * * * * * * * * * * * * * * * * * * * * * * * * * * * * * //

dimensions      [0 3 -1 0 0 0 0];

oriented        oriented;

internalField   nonuniform List<scalar> 
20390
(
0.000317734677177279763
-0.000442186627241652943
0.000115678912294916368
8.77447033137027332e-06
0.00035243507630260617
-4.95924363281059115e-05
7.62220137398225694e-05
-6.13237645057499207e-05
0.000407934750606685464
-5.1521321823429312e-05
6.92640386316261298e-05
-7.32421319688667032e-05
0.000455835248027565908
-4.51221986208352526e-05
0.000105555759646362336
-0.000108335043056752024
0.000501857053064083051
-4.50501530429882189e-05
0.000140753957641525865
-0.000141725901751148649
0.000542144069206999661
-4.55268962137187269e-05
0.000165124527028679053
-0.000159885159072845219
0.000578832016512317491
-5.0715035076206972e-05
0.000183882977779831777
-0.000169856006459658378
0.000602095503332523746
-4.43622507707559603e-05
0.000196196019736109086
-0.000175096929538410428
0.000608900358733318009
-3.59643342712853036e-05
0.000205328003654733508
-0.000176168346032881857
0.000617448677109454377
-5.87520254370943484e-05
0.000222517271255292626
-0.000172313307769085094
0.000629031923185474412
-7.03360549085889049e-05
0.000226789950488945797
-0.000168036979774393197
0.000644116039950664546
-7.35232287780535564e-05
0.000223875698886544971
-0.000165436569617158732
0.000659480015778166691
-7.05862635252591008e-05
0.000219765234301365359
-0.000164542960642769323
0.000675931557762767671
-7.05952250889788795e-05
0.000217599680288345175
-0.000163455909412556504
0.000692166882638463538
-6.77030580680397552e-05
0.000214808135290320322
-0.000163340322974534071
0.000707031456708040419
-6.14488984591605026e-05
0.000210858185002485627
-0.000164273801656830508
0.00072126210050443959
-5.66226881383290756e-05
0.000207479304564465712
-0.00016508714516565688
0.000734846992937801687
-5.21181670611978068e-05
0.000205142025279865748
-0.000166608688539876429
0.00074636782555856547
-4.55954234382010604e-05
0.00020269378224630093
-0.000168619216271193695
0.000755302801660327218
-3.91719331339549339e-05
0.000200263511730523384
-0.00017002659102569357
0.000763372812247537468
-3.56657553501868766e-05
0.000198709860624190224
-0.000171114122841580944
0.000769756071918380885
-3.14368628770240392e-05
0.000197178165891423565
-0.000172124551052691061
0.000771675158093156283
-2.51627976365287808e-05
0.000195565597502062017
-0.000172321846578647834
0.000769897081139711559
-1.96600529721317925e-05
0.000193287002004923376
-0.000171848805079811978
0.000764418090969923541
-1.3700877364640135e-05
0.00018982038141023225
-0.000170640438576234336
0.000748234824186639258
-5.63447054674178285e-08
0.000185629327586049657
-0.000169389663734861168
0.000717239962391676492
1.66502946670868004e-05
0.000180548112250078258
-0.000166203507672852427
0.000669888742959271789
3.28958307344589005e-05
0.000174967604487441216
-0.000160512171545771211
0.000600203067976645471
5.81539546379996426e-05
0.000165938729134529822
-0.000154406937675799418
0.000509754695314485417
8.21784931888678492e-05
0.00015592378334766346
-0.000147653913380201311
0.000403812082720816771
0.000100086950067496073
0.000147130682501857963
-0.000141275235873801778
0.000292290646791894466
0.000105498896639092277
0.00014241189225081211
-0.000136389672496115894
0.000189435773843895354
9.63964489875649989e-05
0.000139370566244864246
-0.000132912343891369541
0.000111861875637066102
7.59041177685150026e-05
0.000129919768418439326
-0.000128250018008533846
6.54138059082096655e-05
5.17654847070687899e-05
0.000112320780613154271
-0.000117638323661544168
3.87498131139509783e-05
3.43911903161978901e-05
9.36689881948706709e-05
-0.000101396811676691397
1.88041563804654531e-05
2.66381696433021437e-05
8.03024584319038252e-05
-8.69961082043344545e-05
2.44441406650781793e-05
7.38700100383173953e-05
-7.95111709292601037e-05
-2.79812339478028977e-05
-0.000257692097804797422
-0.000139244606229245362
-1.72736881024611278e-05
0.000117847505125102307
-0.000145006804858998771
-0.000126877123868724101
7.64570924892703826e-05
0.000302183460570613904
-0.000150920063451094176
-2.04534590581775409e-05
-6.44800425873272661e-05
0.000377807691857864262
-0.000108138522904231986
0.000106537071982036109
-0.000119141158877769573
0.00038811827875423336
-6.39217992211171571e-05
0.000144307990521669717
-0.000135743990303879717
0.000373162433023791428
-4.16223855671379796e-05
0.00015045876665132981
-0.000139406260181116547
0.000349055682600956253
-3.6783202610944681e-05
0.00014499749875348031
-0.000134821843680071364
0.000324378191923241084
-3.05493109979096031e-05
0.000138850216354554214
-0.000127984614883840011
0.000291907342725175329
-1.30607389045926095e-05
0.000132306760764177623
-0.000122739188239511481
0.000252679927100132949
-2.11764734307260343e-05
0.000120117503583002991
-0.000118465224880008981
0.000236381677851475199
-4.30997005069001554e-05
0.000107331629208877403
-0.000118269443044431249
0.000248468685535672073
-6.38862016126934637e-05
9.95406755435937875e-05
-0.000121265753490703044
0.000275324456309750424
-7.33958504454990687e-05
0.000104792818991977693
-0.000128839720568846294
0.000303214145725560092
-7.50274606121834032e-05
0.00011557704687801946
-0.000139034339221336253
0.000329556964170249391
-7.20929839032445228e-05
0.000126921482027310265
-0.000148874536558806674
0.000353550499072461093
-6.43402902474049109e-05
0.000137654196177533223
-0.000158756031132369004
0.000372033716471285533
-5.56266857022956159e-05
0.000147214214430651787
-0.000166692802071963041
0.000385653946314844915
-4.84358414238145006e-05
0.000157051115379937034
-0.00017435381370148464
0.000397417421345068163
-4.31604392970295596e-05
0.000166397246365319732
-0.000180596370776636326
0.000410387186609592483
-3.91757735378607628e-05
0.000171454278660666375
-0.000184420604725741026
0.000425330538779833704
-3.83495186417674063e-05
0.000174706249861568153
-0.000186965915757507161
0.000442422782802172896
-3.86338664475057103e-05
0.000177718327467041569
-0.000187613484814709965
0.000460502439492332884
-3.5682908332011808e-05
0.00017966857280431734
-0.000187227924373950121
0.000475730452000492157
-2.81562267707002195e-05
0.000179149403297775738
-0.000185881050158409942
0.000488940847925265366
-2.00581261427078684e-05
0.000177377057293134151
-0.000184230126377742299
0.000499043406804305966
-3.24039965072215968e-06
0.000175044636804294341
-0.00018196315895977196
0.000500691491758713551
2.15733855507347624e-05
0.000171411993012059112
-0.000177983208231584367
0.000490264556136608899
5.04058635059085103e-05
0.000166489195603270937
-0.000173572325146712761
0.000470153708310563424
8.42544416955263152e-05
0.000161564597772292739
-0.000167554466588955286
0.000434954091135924311
0.000122260157437164202
0.000154940967691425178
-0.000159823615682840611
0.000380474194207439846
0.000158322553897046169
0.00014664746280750702
-0.000150403907084703563
0.00030762633173598105
0.000180031004859254178
0.000139594066257062627
-0.000141278818387617302
0.000224053895253420134
0.000178579763460499463
0.000135591930805327356
-0.000134203087195386656
0.000145184373027854019
0.000153466417017773609
0.000129901724704129581
-0.000128595072657685218
8.61390259857913959e-05
0.000114378806644786822
0.000116286361383277474
-0.000119855916693784056
4.80490996551328738e-05
7.96721355709958956e-05
9.81879816982122642e-05
-0.000105381686794530087
2.20816483147397979e-05
5.97319338309056298e-05
8.31241398250035033e-05
-9.02534551079809148e-05
5.22960976950778326e-05
7.46645421578587569e-05
-8.04370962216128334e-05
-4.0754412304438871e-05
-0.000132295718978304593
-0.000189156563845396672
0.00010450257848147401
8.54057584792244955e-05
-0.000158989406264009635
-8.63849122354240728e-05
-2.57770427794813673e-05
0.000164289849238574535
-0.000136582202555240594
9.06098326985052137e-06
-0.000102281487282257261
0.000124149255781209899
-2.99941744042428357e-05
8.10138111822832963e-05
-0.000119023492808154814
5.58076914470822445e-05
3.72614994234666473e-05
7.22152316558441102e-05
-0.000105057307726416513
1.19795136590195545e-05
3.7730328401002294e-05
5.32880939154142455e-05
-8.88185766303196538e-05
3.13491350385144324e-06
9.46637705145680273e-06
4.35933419915261432e-05
-8.10008364354783785e-05
9.35933373337604428e-06
-5.21660749277919728e-06
4.74003586375767015e-05
-7.89611043363248633e-05
2.26252377576428119e-05
-7.02019104817783104e-06
6.20813963171318534e-05
-8.1388029127272101e-05
3.59049593355999802e-05
-1.46057674829911679e-05
6.76377138491973402e-05
-8.74841042215985327e-05
5.15966876091119138e-05
-3.05627781225221144e-05
6.7462322343685285e-05
-9.56899194384230596e-05
6.85153137057635455e-05
-4.56110519670950161e-05
7.0608082597786777e-05
-0.000105803128823619052
8.91713507348150286e-05
-5.5378778769032833e-05
8.02053593146331232e-05
-0.00011887615811914025
0.000110611589000070154
-5.6200707712505885e-05
9.18308806381024729e-05
-0.000132096554216952608
0.000130953570145868971
-5.17457306895978712e-05
0.000101449014316786672
-0.000142137042420274431
0.000149563168622449246
-4.36588594600615586e-05
0.000110127942361526294
-0.000149414813949549365
0.000165222022340160969
-3.43156735451399426e-05
0.000116266094385841402
-0.000153233114463449774
0.000177577453411489124
-2.64833246608288779e-05
0.000119237540743782634
-0.000153546433167038246
0.00018806758810803299
-2.11420082783265125e-05
0.000118723002466360105
-0.000151233331711736496
0.000197930031712105053
-1.78240710873885094e-05
0.000116113304049249432
-0.000147328003588828192
0.000205662415280205254
-1.54877684339738782e-05
0.000113268832924975533
-0.000143862855237903581
0.000211859882583839704
-1.43628106680454341e-05
0.000111546801991579692
-0.000142014893882660043
0.000217264322157382611
-9.68454783358290813e-06
0.000110227188597631626
-0.000141629309709029604
0.000223466294864184791
-2.81371010854089881e-06
0.000110210200252972357
-0.00014175432660274665
0.000229607210419812948
5.65617591941416327e-06
0.000110323209731971665
-0.000142178658254988
0.000235688232432524898
2.04691007690429683e-05
0.000112100083041502427
-0.000141891124924483139
0.000237365833401312766
4.83238567596719338e-05
0.000113539583533744801
-0.000141968121890035981
0.00023252496967955311
8.16203083657508158e-05
0.00011460142481813451
-0.000140975420045708825
0.000225295835266202209
0.000113652409128070373
0.000115185509908931298
-0.000137354882586625406
0.000218875490198980333
0.000145468982093640566
0.000116372850865562445
-0.000133162027467954869
0.00020778321807896473
0.000180783368443108441
0.000117050851378310922
-0.000128420018136088762
0.000185702368390163906
0.000208916006352944419
0.000116938966410599235
-0.000123743440921040778
0.00015087840541875674
0.000215812830547552486
0.00011743548659180998
-0.000119844686340445387
0.000109489059778616093
0.000195868761716241761
0.000115485436395991659
-0.000116498797251446347
7.14575704523565526e-05
0.000156018621717573592
0.000106706742815836298
-0.000110316276326787643
4.19932536892765926e-05
0.000115555698675772159
9.23797986181990825e-05
-9.88010549853274398e-05
1.96382184362574419e-05
8.85982856927176329e-05
7.95568197156414021e-05
-8.60702648014173869e-05
7.72943969541979147e-05
7.19836396875179812e-05
-7.73453078987291082e-05
-8.94150589810835503e-05
-1.67005535868913402e-05
-0.000152868227496971959
0.000126682263969328388
-0.000104474368768978315
-8.22484767937322383e-05
-6.8152369451291277e-05
6.4735817659319683e-06
-0.000115364166338177731
-4.21158415823654544e-05
-3.344371124373742e-05
-5.01273712868320251e-05
-0.000111643139586906597
1.25992767662200486e-05
-1.44436806721884103e-05
-3.1877938792639716e-05
-0.000102776084212612449
3.63660244951245673e-05
-2.56701881199211518e-06
-5.39235360434370911e-06
-9.15193944689426611e-05
3.58052784301622542e-05
1.17520565791607514e-05
-2.10744879817401686e-05
-8.44083116938505485e-05
1.96162676289413369e-05
2.02945833671940654e-05
-3.7558401069529735e-05
-7.96891019842484546e-05
1.12300141882697938e-05
2.56173811812842998e-05
-4.6788457833159249e-05
-7.24855424796621244e-05
6.66628885282147693e-06
3.03532639160665441e-05
-5.12367637809545883e-05
-6.28960822397857166e-05
-2.39166834801286332e-06
3.35301818469249278e-05
-5.53343335742046785e-05
-5.21373592161633649e-05
-1.36779744598006299e-05
3.52875867871490993e-05
-6.29372727462555639e-05
-3.97603965025596252e-05
-2.26398191630272505e-05
3.97681163990647806e-05
-7.51157504984944206e-05
-2.46041817628752692e-05
-2.64355446787283053e-05
4.60772957817351365e-05
-9.01747779244004282e-05
-7.92720032614164149e-06
-2.43722094250215951e-05
5.20866075467847747e-05
-0.000100592611961552967
8.44531506018667447e-06
-1.94344367482685532e-05
5.69461349730835859e-05
-0.000105626156755622529
2.43171367079789871e-05
-1.38077001367317852e-05
6.1109777760429574e-05
-0.000106825217317122801
3.92475690642352606e-05
-7.2105811981857533e-06
6.44579921974052872e-05
-0.000106491666129438929
5.25636912575097609e-05
-9.12121254778957267e-07
6.710242216054633e-05
-0.000105993188319394285
6.31755049176524247e-05
4.61439492668400519e-06
6.7920942993925459e-05
-0.000104291546533702838
7.17462209798949056e-05
7.70937920755595759e-06
6.70736174652479582e-05
-0.000101178018146127571
7.88772428332871805e-05
9.62012663517958938e-06
6.63763529523612967e-05
-9.8614714787586489e-05
8.36311704270295846e-05
1.23470384640863223e-05
6.65629979878695538e-05
-9.80256497983661809e-05
8.54912237055794228e-05
1.89370277260147199e-05
6.73628558343074719e-05
-9.78435902557004143e-05
8.41851546809865197e-05
2.77612089501426979e-05
6.83964414910997147e-05
-9.76656938682130026e-05
8.04926979759856441e-05
3.75486118667384963e-05
6.88983643965031554e-05
-9.70998073448034509e-05
7.70199171677604427e-05
5.1801807307171689e-05
6.93145094104368143e-05
-9.71761399550042027e-05
7.54646415485695665e-05
7.70642008450614813e-05
7.11140217822101744e-05
-9.83005613921767005e-05
7.41620535832456819e-05
0.000106889354191599687
7.49903510551209389e-05
-9.89579684237347398e-05
7.21231342227394772e-05
0.000134831042654127433
7.94812770894428959e-05
-9.86219868334718485e-05
7.197271757510751e-05
0.000160284796491550271
8.40123357546404071e-05
-9.86786380521646712e-05
7.54092648555031663e-05
0.000188113050772929351
8.87606252277005695e-05
-9.95274926961887496e-05
7.85351891899202466e-05
0.000212686673047887513
9.37637617395202597e-05
-0.000100660537314730119
7.52502927388555218e-05
0.000222730981943517495
9.8109437061451245e-05
-0.000101742686686342611
6.43233076734600471e-05
0.000209123714419564492
9.92169605952234753e-05
-0.000101545349851798238
4.86842068623968309e-05
0.000175258913366605461
9.41859125909731747e-05
-9.77883413908114734e-05
3.19402897006315826e-05
0.000137655793624820899
8.41519453454322395e-05
-8.95099076796165269e-05
1.57460218180645209e-05
0.000110309051206165858
7.45268765679438927e-05
-8.00451047624425329e-05
9.77826642044770701e-05
6.85589478111650732e-05
-7.33024781294411743e-05
-0.000109429737404685029
1.38346236363749258e-05
-0.000166624878081937574
0.000245533920078988511
-0.000139861616777990384
-3.92594374165018415e-05
-0.000111877385369250508
9.9315030388758208e-05
-0.000138639516366481771
-1.45629025991129219e-05
-6.28602176822111149e-05
3.40954149744036807e-05
-0.000124983471177440251
1.05386923013747218e-05
-3.09469388495749447e-05
1.93269977213530902e-05
-0.000114203404141370235
2.50999735244789585e-05
-1.24505184185029277e-05
1.29290661102344787e-05
-0.000103677701652773403
2.8348076530670036e-05
2.4812711300027761e-08
-3.08438626184829978e-06
-9.69048143075723194e-05
2.16223432726112138e-05
7.38720024353934263e-06
-1.61692228479146352e-05
-9.26288600207876258e-05
1.58684940477611039e-05
1.16378863682877207e-05
-2.05521909125875635e-05
-8.74714719670350373e-05
1.18937385117447366e-05
1.61497784945904515e-05
-2.65345476526267869e-05
-8.17094572779307173e-05
7.11495955016969e-06
2.02404561030734709e-05
-3.55136253052704031e-05
-7.5790569495366993e-05
1.5837555311772583e-06
2.35163874084878104e-05
-4.46979004262521099e-05
-6.92869581676237351e-05
-2.40478652328519913e-06
2.64387658239396029e-05
-5.3174585339495999e-05
-6.18898165863874199e-05
-3.88683717634485418e-06
2.90574694447622074e-05
-5.90009247652500038e-05
-5.3074759123797704e-05
-2.63205627530137396e-06
3.14844670945530847e-05
-6.20360678977434447e-05
-4.31015366388547383e-05
1.23338035321735639e-06
3.46448679622658512e-05
-6.52783511281620761e-05
-3.33610637230710106e-05
6.16766190815481786e-06
3.75778238817441618e-05
-6.72880071589486558e-05
-2.44419513922401548e-05
1.20282224310023963e-05
3.97662302399838828e-05
-6.79249774662524382e-05
-1.64234951685330774e-05
1.8080544519747627e-05
4.06529117913713106e-05
-6.76663970081563834e-05
-9.50079214332751263e-06
2.33562293833420104e-05
4.05577648320398556e-05
-6.62222570536521988e-05
-3.63028852196838055e-06
2.64226148325911524e-05
4.06683682712993515e-05
-6.52507032425015993e-05
7.30398180441870398e-07
2.96064257836660771e-05
4.16459259448889447e-05
-6.59912933147715315e-05
3.12363087636960984e-06
3.43207586509194194e-05
4.30688924758824239e-05
-6.74343838431195258e-05
3.42429695542154929e-06
4.27503190830773116e-05
4.4239296894955189e-05
-6.83532320104979322e-05
1.52132946864671887e-06
5.25689731525279101e-05
4.51734610607438332e-05
-6.80802746052093521e-05
-1.87182640942851905e-06
6.23474337121512131e-05
4.61615863113372973e-05
-6.75701993540761667e-05
-4.91094802600758286e-06
7.524308257366756e-05
4.76349948930046007e-05
-6.80398303749241932e-05
-5.1074877520558028e-06
9.63770766175515661e-05
5.07034265888316949e-05
-6.98217365119690829e-05
-3.84287098406208314e-06
0.000122634614839147495
5.53398262193896778e-05
-7.23511246635130591e-05
-2.5060729485002468e-06
0.000146973311653421579
6.05571321145455097e-05
-7.40373700008013693e-05
3.94180589777781405e-07
0.000167572208990596721
6.57071591422386526e-05
-7.58958503724520652e-05
7.66350447196304787e-06
0.000188316845671179084
7.13036473514882017e-05
-7.87773667577224397e-05
1.8412912753662907e-05
0.000207088934899963807
7.74318008089811233e-05
-8.25835378221130085e-05
2.8137119060975436e-05
0.0002162725749236607
8.30416106051399703e-05
-8.63074379389519743e-05
3.25441679701135046e-05
0.00020722544095591849
8.54934965156975375e-05
-8.8002880386443789e-05
3.02263214930804636e-05
0.000180902545170428045
8.26078893973049668e-05
-8.59349776639657832e-05
2.26108267862065608e-05
0.000149656385068578225
7.58243991199445842e-05
-8.02110709121460637e-05
1.18590418701969842e-05
0.000125602014765769006
6.90027950206530848e-05
-7.35453949401080709e-05
0.000113719492901749472
6.45077023622923608e-05
-6.85865820221879966e-05
-0.000102986861916374515
4.56901457638788703e-05
-0.000159849531584120358
0.000230998499985083825
-0.000133271243890374766
-8.18403182694794925e-06
-9.25173909344723978e-05
9.17396972411729572e-05
-0.000135526803942540621
-1.75078039853033207e-08
-5.52189987147951619e-05
4.29200740457504363e-05
-0.00012659265471496361
1.38003320356186281e-05
-2.89512390347090469e-05
1.6732909709772161e-05
-0.000117358876076382266
2.35189455018442251e-05
-1.20668512068367998e-05
4.39774539913479967e-06
-0.000109084325276195452
2.43519213224941309e-05
-1.15997074981010612e-06
-3.11191085068918749e-06
-0.000102613968387670862
2.11790455679606817e-05
5.5051464857091419e-06
-1.15288309530693843e-05
-9.74950888046838493e-05
1.80107846890025591e-05
9.92206802496929484e-06
-1.71791475221435177e-05
-9.25552994987110936e-05
1.60957450825566884e-05
1.37368237144946238e-05
-2.28793219241390006e-05
-8.79436110598096125e-05
1.37970085287621863e-05
1.70768900606717961e-05
-2.83711054237676634e-05
-8.39826719212938559e-05
1.11627980779353918e-05
1.95736556169854756e-05
-3.31105365833407413e-05
-8.02386692837307855e-05
9.33116465955100799e-06
2.15396732618203803e-05
-3.7014135050329313e-05
-7.60968720571486183e-05
9.41826519868676358e-06
2.31014185455729266e-05
-4.05421034068504169e-05
-7.09192265270971458e-05
1.11008182252590049e-05
2.49175781949717717e-05
-4.38224194769757733e-05
-6.44718920688181336e-05
1.46286672990820016e-05
2.71742793924978434e-05
-4.70118000959763167e-05
-5.81328974358681373e-05
1.95228474300564903e-05
2.89365634820872321e-05
-4.86282533729670734e-05
-5.24614613007107222e-05
2.53605265729086774e-05
2.96887122880588753e-05
-4.86928437466963856e-05
-4.7528392760086569e-05
3.09106561230358131e-05
2.93624254846597573e-05
-4.71255820994451364e-05
-4.32020659633276116e-05
3.53957072286495135e-05
2.8881553875859189e-05
-4.52458140066203126e-05
-3.96708397186665201e-05
3.89332399839808702e-05
2.93124858072754162e-05
-4.53524211362031084e-05
-3.72041072730474784e-05
4.36842360076311259e-05
3.07436292284131823e-05
-4.72867243928422882e-05
-3.62033488928430275e-05
5.02533209951740531e-05
3.23206707496588003e-05
-4.92535321276219658e-05
-3.61679952267700354e-05
5.91255396865697264e-05
3.35737813235412376e-05
-4.99858358278311923e-05
-3.69003827543468692e-05
6.85310882776885157e-05
3.46536033995548175e-05
-4.98863322459290753e-05
-3.83822574059538714e-05
7.81435479799274667e-05
3.61251994424689526e-05
-5.04425501326730274e-05
-3.96994968418244644e-05
9.03743491819581003e-05
3.82789326981693238e-05
-5.20952527513430434e-05
-3.91602632276410098e-05
0.000108703901298262917
4.17355609592947414e-05
-5.46030810142960599e-05
-3.66926459157945447e-05
0.000131267120142634409
4.64061060328586366e-05
-5.75074015544423499e-05
-3.32567139757363291e-05
0.000152311347807580695
5.14090923349837635e-05
-6.01843080508943619e-05
-2.85606712400229367e-05
0.000169549288466446082
5.61553822197670131e-05
-6.2829660832391891e-05
-2.01423210556393134e-05
0.000184918498382121793
6.11230312769064839e-05
-6.61436481087541848e-05
-8.10979596843872287e-06
0.000198697017360307783
6.66305049164182367e-05
-7.02712255915961223e-05
4.66272726510943958e-06
0.000206032754577385122
7.18256270644198502e-05
-7.43585538557727768e-05
1.43173463478445662e-05
0.000199846039808688407
7.43634055886072478e-05
-7.66394373525122611e-05
1.79357050792524162e-05
0.000180188487277562907
7.2742805504338485e-05
-7.56483915136280409e-05
1.54098845985045994e-05
0.000155774735016568134
6.81967609319537817e-05
-7.17906005164963679e-05
8.60148086738930469e-06
0.000136134964623315464
6.34460628350730165e-05
-6.71717364177274281e-05
0.000125801448031742522
6.01258948735580652e-05
-6.36072974175311983e-05
-0.000106872730574468925
6.05637443834351774e-05
-0.000158548424580249621
0.000250537534242756537
-0.000132706969605753719
8.78824022544105228e-06
-8.28887046020692459e-05
9.17627737655444284e-05
-0.00013419557577496106
1.48836258023868953e-05
-5.02010913426390216e-05
3.68003143618864841e-05
-0.000127583199355073019
1.97245969381821728e-05
-2.60376340521827955e-05
1.34915359259179238e-05
-0.000119452456954738216
2.34843525719795775e-05
-1.06152837584353237e-05
2.50744757861331996e-06
-0.000111548611342384305
2.32586383686204972e-05
-5.14940177706993292e-07
-6.29559583171496371e-06
-0.000105206728568155454
2.07668433150659157e-05
5.45478465811061392e-06
-1.1381375016132326e-05
-0.000100211767415726567
1.83660191351172341e-05
9.48329056510283899e-06
-1.48321576990112639e-05
-9.57484288626843437e-05
1.69918659322142565e-05
1.28162039752858541e-05
-1.81761681925368736e-05
-9.1397184442975005e-05
1.61102738389055035e-05
1.56694577329978794e-05
-2.23351323465624393e-05
-8.7329864687039991e-05
1.54818595034219801e-05
1.79634837208781117e-05
-2.63504313167316864e-05
-8.36037371777520612e-05
1.53521437702409971e-05
1.97193131462478701e-05
-2.94619942568746442e-05
-7.97635869071221335e-05
1.63757485349106484e-05
2.11595695280497126e-05
-3.19512700359150421e-05
-7.57441322206669901e-05
1.88464008690465675e-05
2.26574039363244187e-05
-3.44191261991949238e-05
-7.13649746020407298e-05
2.32081181357541821e-05
2.43944620676286836e-05
-3.73510083849771087e-05
-6.692877356405051e-05
2.87295427603788898e-05
2.56836943606983144e-05
-3.9325384022150424e-05
-6.27135715478762952e-05
3.44303084459866279e-05
2.60027059863526973e-05
-3.92876497497019841e-05
-5.8993524331097328e-05
3.94501214708604665e-05
2.55076294640236649e-05
-3.77669936552751847e-05
-5.58786699170703605e-05
4.37622153272708374e-05
2.5064111414140181e-05
-3.65447535155273936e-05
-5.3479041718827673e-05
4.7980630492589132e-05
2.53976712207077767e-05
-3.68442573572748088e-05
-5.17698268751808869e-05
5.37391425347058619e-05
2.65223180532498556e-05
-3.82867492461020631e-05
-5.09444326680550758e-05
6.11987029903549127e-05
2.78695875521271266e-05
-3.96414647646261805e-05
-5.07572443282885738e-05
7.01026012394094831e-05
2.91394908354756608e-05
-4.03060768534193296e-05
-5.10916358175558276e-05
7.92948725859697108e-05
3.03975574845484611e-05
-4.08297893804480499e-05
-5.17603826424830395e-05
8.8830814349669568e-05
3.20203423912357064e-05
-4.20411682095453724e-05
-5.2292693145028794e-05
0.000100586711472452461
3.43071563863416972e-05
-4.39887117364496497e-05
-5.06802913894448769e-05
0.000116162948070732804
3.7516107240044486e-05
-4.65885126587258839e-05
-4.66366196648303584e-05
0.000135070844947932848
4.16921146131747384e-05
-4.95405529873299484e-05
-4.15349514014724688e-05
0.000153354096501057927
4.62000486806018315e-05
-5.23459397577405463e-05
-3.54489090553669015e-05
0.000168096518174696386
5.03745665588458476e-05
-5.50093433745977998e-05
-2.76806716235434072e-05
0.000180563662732956769
5.45885476017838843e-05
-5.80028618807616704e-05
-1.73792277718766135e-05
0.000190934886607154689
5.906116635686092e-05
-6.16008672160525293e-05
-5.50538909813807897e-06
0.000196137843605768367
6.31568001068655033e-05
-6.51362390703939418e-05
4.66311559664695584e-06
0.000191657678311773339
6.52906175013370034e-05
-6.72717316589657136e-05
1.01219558905774839e-05
0.000177205952319244562
6.43965023867627362e-05
-6.68739585617936829e-05
1.01254425589022435e-05
0.000158718107243688397
6.13699907537130265e-05
-6.43178112209401954e-05
6.0041285314731925e-06
0.000143321188142987374
5.80838971250941826e-05
-6.11496111742023594e-05
0.000134752586176109144
5.56533766777941169e-05
-5.86011403478875443e-05
-0.000105355938866570639
6.71415364880368156e-05
-0.000157957346936776961
0.00025672682541578979
-0.000130350174380769235
2.59211394432954027e-05
-7.57180450027478347e-05
8.35579277507070685e-05
-0.000133145016162311222
2.70684928096453042e-05
-4.6358989682144497e-05
3.69923068391207765e-05
-0.000127313467275531927
2.52735566672032864e-05
-2.32836113258261634e-05
1.1903326357706975e-05
-0.000120042662408863371
2.4834182333231663e-05
-8.84494536356182354e-06
2.25443251429989367e-07
-0.000112535589257210022
2.29265946845464597e-05
7.78937861996856435e-07
-7.95253539446465596e-06
-0.000106292970643565393
2.04831462479455947e-05
6.55235815308111894e-06
-1.25054950603394479e-05
-0.000101286510914847869
1.84642506995441979e-05
1.03279352358556624e-05
-1.54300895124634472e-05
-9.69968121388137912e-05
1.73492567917010076e-05
1.32267247346455722e-05
-1.78705151806673424e-05
-9.28570923109961634e-05
1.70993459998662026e-05
1.5810366422467861e-05
-2.09369415348920277e-05
-8.88093356364272709e-05
1.75090266076927078e-05
1.80216235142549797e-05
-2.40972417089040073e-05
-8.49386455346141586e-05
1.86076974797264676e-05
1.98151690894267517e-05
-2.69388387251725915e-05
-8.10751001966305933e-05
2.06552663965807977e-05
2.12701735172042718e-05
-2.9409535102731794e-05
-7.71540671529203368e-05
2.39291214763741672e-05
2.25761221157468853e-05
-3.15779203017637234e-05
-7.30281358081719112e-05
2.87456065005551039e-05
2.38479452429298274e-05
-3.35100363251282109e-05
-6.88203302035133311e-05
3.45162325771465129e-05
2.47491901687816277e-05
-3.47430225627860673e-05
-6.49125077120104996e-05
4.02869806898032502e-05
2.49567497282041267e-05
-3.4721749822857269e-05
-6.16009604410491535e-05
4.54370099507121281e-05
2.45943361965064306e-05
-3.38933647261460631e-05
-5.9015391871759126e-05
5.0124406919665596e-05
2.42590860023801503e-05
-3.32074295630561148e-05
-5.72897680620863367e-05
5.51100152643267755e-05
2.44459553084095069e-05
-3.33024886270722625e-05
-5.61056275323793376e-05
6.13909752848798947e-05
2.51883776117938608e-05
-3.40265995604933913e-05
-5.51899987362147726e-05
6.89825951909933585e-05
2.61960732010281904e-05
-3.48979740180741915e-05
-5.44424579083088302e-05
7.76004632295989959e-05
2.73150122196114432e-05
-3.55630763700012025e-05
-5.38980375650399709e-05
8.65248599220588398e-05
2.85923647552405279e-05
-3.63689958805433154e-05
-5.35160660684573801e-05
9.59522584803604664e-05
3.02068438624510487e-05
-3.77116251701630728e-05
-5.28409609263358462e-05
0.000107140116595087325
3.23501216511960478e-05
-3.95794666914635318e-05
-5.11734169345943589e-05
0.000121109382901958996
3.52126627393129537e-05
-4.18271911248263648e-05
-4.76501456941210398e-05
0.00013719483303589397
3.87619467948533103e-05
-4.44101801837850439e-05
-4.23477922471506813e-05
0.000152578245621259228
4.2526726207608946e-05
-4.705502076081403e-05
-3.60835327351171151e-05
0.000165323687279477215
4.60820841013599605e-05
-4.95755554920430488e-05
-2.87269501469741292e-05
0.00017580815885422297
4.95670739488424802e-05
-5.21695377969711829e-05
-1.97156854770176739e-05
0.00018389709215462809
5.30641151307332403e-05
-5.50383200822344233e-05
-9.56935323020405466e-06
0.000187659120469548305
5.61279761487486651e-05
-5.77963724940035379e-05
-5.05417796029336173e-07
0.000184329961125425317
5.77714797641319929e-05
-5.95087660044476367e-05