/*--------------------------------*- C++ -*----------------------------------*\
| =========                 |                                                 |
| \\      /  F ield         | OpenFOAM: The Open Source CFD Toolbox           |
|  \\    /   O peration     | Version:  2206                                  |
|   \\  /    A nd           | Website:  www.openfoam.com                      |
|    \\/     M anipulation  |                                                 |
\*---------------------------------------------------------------------------*/
FoamFile
{
    version     2.0;
    format      ascii;
    arch        "LSB;label=32;scalar=64";
    class       volVectorField;
    location    "0.209999999999999992";
    object      U;
}
// * * * * * * * * * * * * * * * * * * * * * * * * * * * * * * * * * * * * * //

dimensions      [0 1 -1 0 0 0 0];

internalField   nonuniform List<vector> 
7236
(
(0.928369321702849137 -0.143075439833965229 0.0606860596255446583)
(1.03929578734933226 -0.256662323889234545 0.299119756515310364)
(1.25704949923221188 -0.160747471532994124 0.283036666048872065)
(1.37188066044321499 -0.131060948717855563 0.392515454117451368)
(1.53899898793410883 -0.119158299445225643 0.516861871750022406)
(1.669175876889333 -0.116422756813537726 0.586335251990273809)
(1.80137793271276858 -0.111291003455107659 0.627506194287434926)
(1.9033330383910918 -0.0934713573251107349 0.646769462057335542)
(1.94648887985500152 -0.0779150143401642625 0.651726800302091069)
(1.95920701477730042 -0.0745903958625869501 0.646490118635261735)
(1.98888792179498242 -0.0741431287774836079 0.627062361392930923)
(2.03518763554638271 -0.0715666594177244153 0.603256904484364975)
(2.08551209337087018 -0.0680831373507147924 0.586039225518810492)
(2.13704736253570537 -0.0654199427803482114 0.574898243697081202)
(2.18940513373144974 -0.0627009710933349174 0.568993068384246459)
(2.23927137682270283 -0.0594439537714459218 0.567237484293899086)
(2.28635629627323889 -0.0557963886601243186 0.567052451643828448)
(2.3308102695890458 -0.0522115984738780944 0.570010674439027087)
(2.37125436815934698 -0.0484291162994508334 0.574877655757121464)
(2.40437276471651273 -0.0441958097232174468 0.579053935000061193)
(2.43070387697067991 -0.0404188159046008216 0.582797518186709773)
(2.45476218184322681 -0.0363798562657904265 0.585489638682521019)
(2.47092345377871769 -0.0311717645238487467 0.58579990805065929)
(2.46881682190828489 -0.0245278396163925612 0.583367465328453627)
(2.45806366341238602 -0.0182534732423551178 0.578584156969674246)
(2.4318048317991936 -0.00756912560949144983 0.571324690174422556)
(2.35832606336447581 0.00773252382303337392 0.559074114223431784)
(2.23675684515715956 0.0248740233843049857 0.541598371806569556)
(2.0489797434614605 0.0495933743315010722 0.518150756107566224)
(1.79098696808189439 0.0756944285140415257 0.49189444194468479)
(1.47487942006201456 0.0940341731077115744 0.467856616116613)
(1.11749847721034268 0.0962700523383390183 0.451502676308577766)
(0.756605209372891996 0.0821364392381953579 0.440987419705649364)
(0.448013992704144104 0.0599854300450123404 0.419233049202589525)
(0.25628766806413944 0.0387626410308301306 0.373161020860099557)
(0.156766958731572176 0.0254333376920938825 0.315025351699256939)
(0.0898940568474956986 0.0202774326035478208 0.268920826549195469)
(0.029606629428781249 0.0191320644036004558 0.246289217143126904)
(0.0852197649341460556 -0.779586887638733406 -0.366284193013430959)
(-0.133612410095754891 -0.0529506941711751083 -0.45534456177337379)
(0.803468796880650982 -0.134313164148491565 0.166663882726052703)
(1.16097599370575089 -0.113831334622139541 0.417716181359834127)
(1.25041269444538661 -0.110334814470962259 0.494498640241219811)
(1.22789064187982899 -0.0861114539878733432 0.514551051683427629)
(1.16047097815930655 -0.0857252251295242268 0.490606578726319298)
(1.07506267842820358 -0.0805550011831668855 0.477997657962379918)
(1.0032129532500258 -0.0586467602259395371 0.449966397460210665)
(0.863038870976027495 -0.083215021332395514 0.409317104490014294)
(0.754502350704474911 -0.119343070534293924 0.383222479581914688)
(0.756107497915523785 -0.133143806273529702 0.381305185526992274)
(0.835139907120023839 -0.135305251250505909 0.407339759626733744)
(0.92689848081811177 -0.13521343830330157 0.444975245889296767)
(1.01394356444024436 -0.132042931384547035 0.48110569167601136)
(1.09609090519734109 -0.120097119524058049 0.514042172923309337)
(1.16610737996647607 -0.10819399712826995 0.541981456761893132)
(1.21541671258321604 -0.0985866823031829737 0.571600640968462304)
(1.25288909063845377 -0.0873183962582928658 0.597525319076948391)
(1.28999209418496807 -0.0750199413523287839 0.610075367305525251)
(1.33582902482116683 -0.0685935742063858572 0.616526512713476804)
(1.38667649565743378 -0.0623022840160961169 0.618043035714813449)
(1.44543905031237596 -0.0528249700953397072 0.614531023150302391)
(1.50072660746295594 -0.0422907391411640951 0.607230895835520701)
(1.54287039871865073 -0.0310788791787643542 0.597765561307430415)
(1.58633755454061554 -0.0076422492588774163 0.587930116788311974)
(1.60927539800246699 0.0257032574183752062 0.573597479716366099)
(1.59428241468751297 0.0599646665107403526 0.557143389011344858)
(1.54551311127810176 0.10401286188607925 0.538541578159292156)
(1.46360757756426318 0.154186011281400803 0.516057915749200569)
(1.32391851310840813 0.201934937239690637 0.485121172601038708)
(1.11721626102690519 0.228848106946440283 0.455800197599459667)
(0.855723288552193928 0.223843665561413829 0.435855907010425314)
(0.574052336499984217 0.186761128253764952 0.418270598294005702)
(0.344983574498456957 0.134092550629168028 0.383855114667364383)
(0.198493105928158275 0.0907792589015345708 0.33003294773036751)
(0.105885548878930799 0.0682772985609439997 0.279365797053007181)
(0.0338714430005438924 0.0603314997438905709 0.24914187050807915)
(-0.170444245888658086 -0.351273785984305975 -0.688744736898356136)
(-0.0496339038376320749 -0.273400105736334331 -0.0172369882478712808)
(0.581312031365886384 -0.242673151177229596 0.330796910425201152)
(0.491660147997094732 -0.161443615891867009 0.384211353117286269)
(0.295539843098934218 -0.031602705798558943 0.324712404796519416)
(0.0569581284314881892 0.0233817135486793122 0.241149791507630995)
(0.0126087860338432965 0.0204147947129001348 0.214106370918788314)
(0.00975397486927415472 0.00950166408092558562 0.211369600121279949)
(0.0583875601537670458 0.00844276204415699699 0.254957480597153396)
(0.0843014863981903922 -0.023980953191627144 0.273248482807935344)
(0.140615738302317883 -0.055095244050574109 0.288503256677960118)
(0.186994663976685488 -0.0946070901065857867 0.311922899029282275)
(0.251827187383335871 -0.115590062552823281 0.351071945575785971)
(0.320460312930139379 -0.12199851980357572 0.393760030455781951)
(0.387786192062811952 -0.115299430063206684 0.425152012360157538)
(0.451134011097325205 -0.101999044943659953 0.44739997329543385)
(0.50625307836690181 -0.086641920846916895 0.459625433133125594)
(0.551417712381226721 -0.0741151094521671633 0.461969211857879092)
(0.585474464567259711 -0.0646210387134148467 0.454671123754680218)
(0.617872447096890598 -0.0596993559423142708 0.441133283270139065)
(0.64751246332606005 -0.0590580067505287604 0.42710022583584123)
(0.668230983297215198 -0.0565597732260777336 0.416830002957731205)
(0.684916701993737331 -0.049577623366260419 0.412197114899109762)
(0.705933429976839499 -0.0383517487070666602 0.411887926190285303)
(0.721803822721259092 -0.0247375475046090025 0.411936569510690132)
(0.747727956587012521 0.00474652033843377813 0.413692766718790073)
(0.762938211891740603 0.0498613118804470956 0.415059647140782251)
(0.758016778841632988 0.10299196331699674 0.414349708044523257)
(0.731288197403300644 0.161487331757294045 0.408512253020445193)
(0.713512664575705613 0.221063576371042292 0.404659668514644411)
(0.692799295197585208 0.27993303785034418 0.397601811146894468)
(0.643864391897230215 0.322092311653637609 0.387987470443423355)
(0.548703717415154002 0.324833629310743333 0.381464773923012312)
(0.414876541664680298 0.28717297930462149 0.374779408848331552)
(0.277742041103763992 0.221124704584215126 0.352366517603170171)
(0.170558416085805187 0.158201002699024429 0.309703053999281275)
(0.0934030085526579429 0.11917454373320438 0.266852521935252829)
(0.0301452801772449583 0.104013352483119076 0.239963979728270022)
(-0.265131001269435729 -0.136219676502882137 -0.769128153267810477)
(-0.292283443147311139 -0.213574029487543005 -0.0605865388203854979)
(-0.360909811130755598 -0.149621636356633447 0.0465470013854550543)
(-0.371157790734392701 0.0422462739259954409 0.0175182440279840132)
(-0.343930301702451535 0.0962660524863774569 -0.0178670983031351503)
(-0.311345576847580296 0.0563450312225217964 0.0329693839415458947)
(-0.281960220123871508 -0.00538538236069459331 0.0767565573804629975)
(-0.262183829442347582 -0.0177418702011574309 0.107199444372845606)
(-0.244524993240669702 -0.0126281554380724206 0.126482869830674721)
(-0.219373364138637089 -0.022189763183520235 0.140750753497348419)
(-0.186998752895335157 -0.0404605531873114474 0.154824107036768854)
(-0.149681812695877603 -0.0569629697078525496 0.182543209700170128)
(-0.104889804301015993 -0.0646707564580719929 0.217763163215997341)
(-0.0512168016936820139 -0.061196720015635378 0.245674429965992869)
(0.00204322037417309713 -0.0513233452022756401 0.262249317168525176)
(0.0526772412978954371 -0.0379795928013336725 0.269584898819351271)
(0.102271562778020783 -0.0258909450975776043 0.272796056569068524)
(0.149469253906124339 -0.0141038567265021793 0.274412674528071832)
(0.187668683541386772 -0.00495182970743071171 0.271782796541732152)
(0.216442464192119682 0.000634411735794913369 0.265381693804351504)
(0.24089631247035892 0.00422526509824191002 0.260815529908653476)
(0.260858224601816291 0.00456347896601411174 0.261417020740710826)
(0.273253706123343154 0.0107008679440954088 0.262979413036637355)
(0.275187538192291692 0.0243563425472675399 0.264336031031554564)
(0.263058662637467688 0.0406895107979006326 0.263716323337035041)
(0.249849732532305746 0.0646232593819984907 0.263883847240378888)
(0.244077230199337858 0.107055309294139298 0.268899251373210246)
(0.243700170056179444 0.158625059611848224 0.276966147632556947)
(0.23605373469615748 0.207708872627283297 0.284056112530510607)
(0.228819837670997617 0.25395821053133133 0.292490293156493053)
(0.236559599370512352 0.304453511648787756 0.302020880040315687)
(0.252677679281958723 0.345099890743884918 0.311383674251121345)
(0.253645937165584812 0.35917766606540813 0.320331915321106331)
(0.226545176616185368 0.331108886271330005 0.323672450692066849)
(0.178666591100740652 0.270006981274268365 0.311014191183017541)
(0.125130484316307272 0.205352870865165349 0.280869170636033616)
(0.0740321766537207909 0.160364692893759653 0.248971522779591559)
(0.0245841651137205207 0.141011731014499209 0.228005397951102307)
(-0.21735212737509027 0.0109106119172257543 -0.865952397948572594)
(-0.444904288991503583 -0.0636293945493970337 -0.426227499908894136)
(-0.450922677172377773 -0.0283864280758601081 -0.189115026818703125)
(-0.42552651503461153 0.0194238081851932087 -0.0938117621816514369)
(-0.381691674584926144 0.0561614972257108297 -0.047708748869516801)
(-0.34762000592735065 0.0612032157998602666 -0.0138608587163975144)
(-0.319822101946088844 0.0463579872045075392 0.0194051370464996334)
(-0.303144673960354993 0.0354026282103674719 0.0381061848760019667)
(-0.288477350916315878 0.0258238018477265109 0.0570454794610799551)
(-0.271325756762056114 0.0116044612739765463 0.075681568458284082)
(-0.25376124419049384 -0.00461541596269429699 0.0946133833846106859)
(-0.232601139042334176 -0.0163539497309687226 0.111040837035550552)
(-0.211047082813122289 -0.020635100609716038 0.125340390510787797)
(-0.184822398763375528 -0.0178158614859968596 0.136075103607949471)
(-0.153250097248775724 -0.0108544940958817705 0.147832853101339395)
(-0.122125427247131518 -0.00293119936642474406 0.157144045800902549)
(-0.0923704362183150884 0.00615160741738538658 0.162451089628430578)
(-0.0645010618307795963 0.0178331963375154764 0.163610622822530527)
(-0.0408856950115211171 0.0271059379583820717 0.161372261444587606)
(-0.0207270171873536538 0.0314041297183047935 0.161203600871233199)
(-0.00436392612624122555 0.0349806322271836029 0.165151416253708244)
(0.00673742615405057213 0.0406873120073565284 0.170505661866453079)
(0.0121351386295992618 0.0543016553336180957 0.174582889835388777)
(0.0100902521154930327 0.0700742981183781893 0.176340658449914589)
(-0.000597319173942935377 0.0854007059831007054 0.17770802718677231)
(-0.0130521008867583027 0.106809278044983788 0.181228527374321491)
(-0.0164357061648069958 0.144562672800230607 0.189243972322667736)
(-0.0116683945215272228 0.190018496221491556 0.20115741948280691)
(-0.00781002845118650146 0.231282420486327245 0.213027792263078442)
(-0.00440513592930621978 0.266857172087177519 0.225219938064172953)
(0.011126472375724783 0.305107310794900111 0.239460362605186272)
(0.0427916695597947982 0.339566700195588544 0.255570421745239251)
(0.0783464131719959211 0.354878836180788304 0.271273624255623125)
(0.100690289454819781 0.33645299587052474 0.279424862791178008)
(0.102269626026399246 0.287706697744869344 0.272449831824323807)
(0.0849328087934581866 0.231816294232514403 0.251957098877981733)
(0.055086808323122731 0.189858322635880788 0.22953769000172447)
(0.0188781135509235656 0.169615304473474088 0.213936706120935682)
(-0.155408776137557547 0.0508705917898288063 -0.836869661675396337)
(-0.447447172664521553 -0.0420598543132232952 -0.361438233035487944)
(-0.433013854994407865 -0.0106579593926920332 -0.165507922458319134)
(-0.423551547901973857 0.0202474711089672271 -0.0846617463193262837)
(-0.389946590767511314 0.0378022995571527035 -0.0428683817161633757)
(-0.361703091034558166 0.0417222649601022982 -0.00871226779261684986)
(-0.338127367224865638 0.0342939918682055103 0.0164734895264690671)
(-0.320075385877534813 0.0268968726989620086 0.0335996500490774869)
(-0.30381943989307425 0.0225785898482120696 0.0477584358815538734)
(-0.28876957703767403 0.0175651320231060906 0.0611264480636692781)
(-0.275289779440964333 0.011488143845561816 0.0722786907124579464)
(-0.262808504573588508 0.00718064360519204449 0.0818397403297067422)
(-0.250594639634386052 0.0057562200397999596 0.0894168077301559922)
(-0.236212685009226098 0.0080508929605395442 0.0977946168292973123)
(-0.216708232444739635 0.0138476605014675961 0.107363866326685695)
(-0.195544183581916803 0.0219154475142110186 0.11425089056068756)
(-0.176530867440833933 0.0316392312047711691 0.116450122568908007)
(-0.159626396511061336 0.0414090731888446667 0.11409618138281391)
(-0.145221070057388074 0.0492493709745315464 0.111123880884012094)
(-0.132399644892804341 0.054075777885207274 0.112695801618639069)
(-0.122441712651415902 0.0601524974128025344 0.118665590226828155)
(-0.116967755071501159 0.0696667696167895534 0.124921678342030273)
(-0.115423086983440684 0.0838681041910553093 0.128834974647541151)
(-0.116230255599420892 0.0990990293483264839 0.131078606360533728)
(-0.119768291339694563 0.114195114525685384 0.134827565842030567)
(-0.125980359530426383 0.13414397301998221 0.141217836094836624)
(-0.126609972816981359 0.166025964167447526 0.15116341402794492)
(-0.120604220835128395 0.205155310438828509 0.163877058777612411)
(-0.110471223218432058 0.241386833292119601 0.176823578131501152)
(-0.0992911549851481362 0.271298614501248814 0.189329249418992651)
(-0.0802707371618018167 0.299661839170570765 0.203097961220074674)
(-0.0448914316832200039 0.325437450144222651 0.218829120735100108)
(-0.00399763119765182695 0.338427965364652306 0.234381930467928851)
(0.0331695281575402068 0.326397676271262316 0.243164435432688342)
(0.0544260602633338531 0.28981893704092182 0.239510921860127068)
(0.0553480385639075131 0.245329011233304972 0.225765695599061456)
(0.0393612671578667597 0.210187575684030459 0.210273747541718015)
(0.0139483715431098707 0.192139689876447306 0.198930077474346934)
(-0.160284390637264712 0.0849676976817161089 -0.828633679815785618)
(-0.458822356752399962 -0.000204703014556398277 -0.312042907089424004)
(-0.42692392548521213 0.0118632846870177396 -0.155191387758385174)
(-0.424859513081614182 0.0270262556299697664 -0.0776427799471499924)
(-0.394534989279269666 0.0374741777202450138 -0.0338449585286757504)
(-0.369245666189688071 0.0384515232443610674 0.000276205675510173693)
(-0.34598870314597413 0.0345221774831237435 0.020275742938219217)
(-0.328366800261206404 0.0303023781494900987 0.0330812344022039378)
(-0.313487108593842156 0.0276885985986055246 0.0437569635699128767)
(-0.299423989359040077 0.0253240520952029424 0.0541703841536090164)
(-0.285922506327807135 0.0230553011862970128 0.0636547664886933789)
(-0.273425698509882131 0.021765499080540214 0.0711094954052189643)
(-0.261349999841418101 0.0221701798149165907 0.0773236093216582987)
(-0.24895329590824275 0.0251490924347688681 0.0838917647976966108)
(-0.235307778086991964 0.0313498117655691411 0.0914006000570932869)
(-0.221019384942890501 0.0396399536093195656 0.0969259834731611702)
(-0.20733181212098914 0.0488583642461921375 0.0981063109537336775)
(-0.194515749542491845 0.0571538144740767057 0.0955308973087695412)
(-0.183759145750240438 0.0640517023536660013 0.0932242029789151494)
(-0.174909991334528753 0.0703321381175908145 0.0945389747703171551)
(-0.168181670167264735 0.0789499435485877532 0.0991875106188421229)
(-0.164014846933803637 0.0902890623237146139 0.104188809049784947)
(-0.162425633998451724 0.104357995451857505 0.1078635533297954)
(-0.162582352375266581 0.119146978752652899 0.111122878669316486)
(-0.164395748772409506 0.134473518625734617 0.115965434990867561)
(-0.166445110692291315 0.153620989693044802 0.12304306500452937)
(-0.166864840906939871 0.180593752756899317 0.132688037112131146)
(-0.154866053821811067 0.213676688602761261 0.144566536608489477)
(-0.140594853872535369 0.245192193600075353 0.156817074217235952)
(-0.122788367036401377 0.270754316076347368 0.168209553613913348)
(-0.101263149303554761 0.292614577912501339 0.180078972208978921)
(-0.0730169031157608395 0.3115192852794329 0.193271010329047144)
(-0.0361049968161903725 0.321387008879604585 0.205995370099838454)
(0.000667380081327918762 0.313018926665545538 0.213478935032846817)
(0.0262816201944011257 0.286072285801382775 0.211670648720025667)
(0.0346042444409741523 0.252038011229838044 0.202540778373632047)
(0.0270063550380669967 0.22411318448136841 0.191911647231414073)
(0.00990814612327140312 0.208960006256434294 0.183734789686583522)
(-0.143344635265717307 0.100947249687931284 -0.820839586817912248)
(-0.457839888726734867 0.0280947349725976445 -0.289649658791956588)
(-0.422238477929717526 0.0338409537412544884 -0.145704788831207077)
(-0.422455306942423114 0.0362578480997077721 -0.0694663560101473898)
(-0.3950959335392491 0.0388787103442784221 -0.0240075203671237594)
(-0.371965085765623038 0.0370382533577549022 0.00855480865405542149)
(-0.349381104114248942 0.0330254511757211155 0.0261502573613183395)
(-0.331749109834577394 0.0295014447975967958 0.0368469355778988997)
(-0.317074697986232612 0.0278274106874533862 0.0457062828625633688)
(-0.30375277193035688 0.0271966583756392821 0.0547263976304090682)
(-0.290610556952085874 0.0269980355164915302 0.062923175951919888)
(-0.277880052035976044 0.0277536979906740158 0.0701207705930215197)
(-0.265511021277077264 0.0301733129311233528 0.0762208404618745367)
(-0.253169403650388203 0.0347948659568516686 0.0818372107778314317)
(-0.240328705647204433 0.04227833313684147 0.0872394388609784299)
(-0.22678150817036738 0.0514151258935529321 0.0910102732436878087)
(-0.213694500384691649 0.0605319207691233027 0.0917511244635435957)
(-0.202196483334860067 0.0685023670956456943 0.0900703468124482293)
(-0.192762595125973102 0.0756176282715968207 0.0884944806941504736)
(-0.185802963441375979 0.0830657589484294495 0.0891160325360278172)
(-0.181541901431975017 0.0928334505585896586 0.0918804408610156276)
(-0.178182469813312067 0.104912123875768037 0.095406816676928824)
(-0.17540109366920123 0.118855766630393739 0.0986986062092198718)
(-0.173124607181403434 0.133271671416060222 0.102322972809357732)
(-0.171708853458686167 0.148469199299004179 0.107249212780564651)
(-0.170304270963297644 0.166783078219218006 0.113828164952024746)
(-0.166447329806221483 0.190232172166647312 0.122238174875902175)
(-0.158856274992710989 0.218123051793782941 0.132426937441104259)
(-0.143840967284132593 0.245048928824071671 0.143127960692726042)
(-0.125023538628227404 0.266992252415790554 0.15315074944689544)
(-0.10358478196868233 0.28511611406593268 0.163079502386230313)
(-0.0780422550746296684 0.299588871967676695 0.173478737428616636)
(-0.0465891966893774156 0.306615554529761858 0.183130766090710273)
(-0.0146954733061637061 0.300440970164070897 0.188867597864375347)
(0.00939423173955663757 0.280684835779920039 0.188041096450085654)
(0.020004919040345067 0.25515848610264702 0.182012226958700063)
(0.0174818757532166462 0.23356384208192843 0.174752632177929218)
(0.00667076234795610339 0.221190677514734313 0.168871182321532004)
(-0.14166446879020872 0.109710150030040837 -0.77760320123025628)
(-0.470204007175702654 0.0517111638509327315 -0.274305209117070237)
(-0.420162888948954538 0.051837372008053835 -0.135177233196742047)
(-0.423238474930927477 0.04521698307311766 -0.0589293715155830219)
(-0.396616043156537867 0.0416547808555057103 -0.0127514399693629387)
(-0.374283294251549103 0.0376920834531321303 0.0167879518567110933)
(-0.351957086723519386 0.0332850750103646925 0.0319429953140589473)
(-0.333968060073639994 0.0298834786129586402 0.0417971090730819769)
(-0.318801148891539488 0.0281100504213514686 0.0499526091801315714)
(-0.304907515714471333 0.0279661943706404625 0.0580116101294217354)
(-0.291245611465030252 0.0292504109166061912 0.0658068131352490121)
(-0.277654019736210456 0.031787635798235056 0.0726755279211586808)
(-0.264453065136401488 0.0358121026218007898 0.0785180570253139337)
(-0.251640488847698629 0.0416355075814073411 0.0834527106516796124)
(-0.238763034466420609 0.0496385444217474908 0.0874723389151033232)
(-0.225614245855652262 0.0589820880615399556 0.0900407678130576428)
(-0.212800195174518592 0.0682909785202452935 0.0904906576872656632)
(-0.201545979083376514 0.0767618733610689608 0.0893234438247583196)
(-0.192490423139801414 0.0846635994942237374 0.0880457208284807502)
(-0.185913536640791133 0.0930883449374028671 0.0879897975023829493)
(-0.181224055257686895 0.103350838495720715 0.0893493834485682287)
(-0.177540480894575442 0.115482245135900913 0.091602490697538369)
(-0.174127786953543029 0.129038174305567022 0.0942499645812951981)
(-0.171010241201583285 0.143099331363122056 0.0975884360298346076)
(-0.168308012806330842 0.158012894945296606 0.102024779467439417)
(-0.165505319531891459 0.175426315502302005 0.107759706326845756)
(-0.160490622778859088 0.196489646020784892 0.11483332697842337)
(-0.151929051293060224 0.22022734369234373 0.123198068819224543)
(-0.137480402835598647 0.242948393612492902 0.132047961721943163)
(-0.119565878875354914 0.261978163959574906 0.14053759730434448)
(-0.0992997779010832138 0.277506577937905508 0.14871296935119982)
(-0.0760246060297771059 0.289086383604805208 0.156772022859515081)
(-0.0493210298319575538 0.294254472097024267 0.16392503391961194)
(-0.022504840328848124 0.289668467196160406 0.168140334244608197)
(-0.00140437839980578696 0.275220529591963303 0.167822169386308923)
(0.00953061812631244426 0.25625348269651399 0.163846179242048917)
(0.010209314366682069 0.239810006851048196 0.158901916912680269)
(0.00412618539198651886 0.229867583457574187 0.154670660823873929)
(-0.147181639081236632 0.120792097888948749 -0.725712559224387932)
(-0.479261195256471706 0.0747744770175224616 -0.253518919217077254)
(-0.421446154053223832 0.0665430507024836054 -0.126872612712492672)
(-0.42796795839407864 0.0541199690700283412 -0.0482201083190005111)
(-0.400918561984797084 0.045658309752366899 -0.00433358558526249216)
(-0.377963618848286997 0.0392262235635662954 0.022482066735510748)
(-0.354922578783002374 0.0334169429718893102 0.0377460001970213316)
(-0.335674146049198763 0.0293988105447048377 0.0474675634917947897)
(-0.319315476717938918 0.0278100660771354487 0.0550808811604256085)
(-0.304722428466704942 0.0284413906474564743 0.0623659413629774895)
(-0.2904913392703945 0.0307834451212367216 0.0696285039083368446)
(-0.276193165194996371 0.034535526384650489 0.0761539941766385398)
(-0.262177625013039317 0.0397499320558189415 0.0816803961033740616)
(-0.248472149148092819 0.0466049587304450605 0.0860803307951436142)
(-0.235004004817188417 0.0551148521939802821 0.0892319131783082808)
(-0.221688319916382937 0.0646446277888685777 0.0909586855110963433)
(-0.208966709885043095 0.0742273513879394553 0.0910534500084629189)
(-0.197769635693120616 0.0832921672410026626 0.0899339220564975284)
(-0.188809444266715948 0.0920010218915909422 0.0885957750538109157)
(-0.182151938286410991 0.10118625223757545 0.087947475056553287)
(-0.177152460229526743 0.111735388632684424 0.0882973450190473325)
(-0.17301864382204668 0.123702771139870368 0.0895010107726436493)
(-0.16107721893122906 0.148916907310602836 -0.717368992113237347)
(-0.491870375240140323 0.098489909239084017 -0.238547228901399178)
(-0.4288462624194605 0.0789896996202788387 -0.116886894876930533)
(-0.435456705311500936 0.0613661641636007379 -0.0390591408086898365)
(-0.406617416812766586 0.0488004305350010562 0.00298510019489893474)
(-0.381716992387969578 0.0396312003463853146 0.0281461309238271069)
(-0.357233716196849793 0.0327674043856557504 0.0433707990056046225)
(-0.336548444382980039 0.0288124475494054774 0.0529317668064016311)
(-0.31898041715610459 0.0274532159324276728 0.0601086218849544579)
(-0.303385674166542163 0.0285549477845015373 0.0670277764571321766)
(-0.288273693322792568 0.0316487673657173188 0.0738349854618044615)
(-0.273230458833300882 0.0363734491539877622 0.0799867966818708226)
(-0.258414890588462509 0.0426374505468446185 0.0850787093316385384)
(-0.244015097382728086 0.0503963629098943058 0.0889002826708951699)
(-0.230052971656625971 0.0594805214214489605 0.0913308884854252268)
(-0.216603655165719278 0.0693433800751590002 0.0923405994931773694)
(-0.20402614071815614 0.0792957453171741072 0.0919596578880609167)
(-0.19297470195715985 0.088912307389719239 0.0905867955599856112)
(-0.183984570816822984 0.0982934092972810175 0.088954461349829983)
(-0.177051585248986065 0.108018300446959703 0.0877450468693755925)
(-0.171651925665927796 0.118705492655044043 0.0872931646192830618)
(-0.167076611059899294 0.130446525371633371 0.0876489731944407602)
(-0.176987817690961002 0.170663427363470899 -0.729729354724390378)
(-0.506684529738737566 0.116784292647664545 -0.230473366437029259)
(-0.441010620093057526 0.0889567060133676923 -0.106405816926191485)
(-0.444546709868390622 0.0655043220265872639 -0.030553022520338341)
(-0.412627955465165841 0.0498609262482939269 0.00931798030226187873)
(-0.385689520702378219 0.0387484046303596813 0.0338139874394978723)
(-0.35934417868621632 0.0316216644334539748 0.0484452426367251443)
(-0.337218148911097693 0.0277918905553671616 0.0577401263921897903)
(-0.318256157357372282 0.0267844508085626661 0.0648781885914105627)
(-0.301407022852710704 0.0284553704640961164 0.071564338889725701)
(-0.285349491354428719 0.0322546836026194814 0.0779830907291550607)
(-0.269571197290278286 0.0378158201386406684 0.0837059776127956623)
(-0.254064457373801122 0.0449787695584515229 0.0882922881850352337)
(-0.239027262923065531 0.053560033577077705 0.091481710314172307)
(-0.224631453213462395 0.0632457057070621165 0.0931911426792445402)
(-0.211073879461176006 0.073537658048855481 0.0934851186308086474)
(-0.198634811879542322 0.0838909353426994658 0.0925299716106586789)
(-0.187751423578589732 0.0939628954241408243 0.0907340150221782743)
(-0.178762410030292973 0.103825823237814321 0.0886881808268602245)
(-0.171610931398210653 0.113887556137441198 0.0869441954474157314)
(-0.165854262488119658 0.124596261862431945 0.085831706631404589)
(-0.160912961315262226 0.136076106425597254 0.0854814343725683878)
(-0.20612896063270511 0.189772563790975346 -0.705075002860927946)
(-0.523316662302532709 0.129294541996389234 -0.218783188057026345)
(-0.455490730165948932 0.0950491345271916865 -0.0937626545122737104)
(-0.45520319135079379 0.0663550569935129064 -0.0208244513024035127)
(-0.419245998489958971 0.0482168832052279617 0.0165401244797808364)
(-0.389730927344604461 0.0361987805618349673 0.0397384759051569586)
(-0.361438290436047638 0.0292734538204236852 0.0534905575700263952)
(-0.337695122363136258 0.0259811608286427999 0.0625271362941283299)
(-0.317387128617469816 0.0256952691972562111 0.069484885702459448)
(-0.299325759245537004 0.0280453705347386631 0.0758360797092966915)
(-0.282281460932401917 0.0325930096422883467 0.081881521032872745)
(-0.265690749542447313 0.0389988740390206576 0.0871645297161440652)
(-0.24945834893502522 0.0470126771118867248 0.0911851017127290747)
(-0.233833448516866466 0.0563581478954177373 0.0936751443936320871)
(-0.219074332173668007 0.0666415970315158146 0.0946050009593100982)
(-0.205419893482692156 0.0773804991082226307 0.0941378241669235394)
(-0.193093410170526836 0.0881007920113458659 0.0925350541155806339)
(-0.182371209538665785 0.0985269191081957624 0.0902176324553823211)
(-0.173428243110374358 0.108704604948446151 0.087706768142977759)
(-0.166143403035954068 0.118947959061480008 0.0854712207970156901)
(-0.16012516692793502 0.129591657325039966 0.0838041181979409383)
(-0.15490390054820688 0.140771394817226114 0.0828620840460808222)
(-0.296937060182229096 0.0273044440615970788 0.0798003378876762925)
(-0.278881302665836828 0.0327461931872864431 0.0854767309039795031)
(-0.261428494171661807 0.0400447502260203661 0.090287646185857301)
(-0.244516129161232276 0.0488948768296323319 0.09370338605882092)
(-0.228390754641865118 0.0589701555468587629 0.0954324252594767469)