/*--------------------------------*- C++ -*----------------------------------*\
| =========                 |                                                 |
| \\      /  F ield         | OpenFOAM: The Open Source CFD Toolbox           |
|  \\    /   O peration     | Version:  2206                                  |
|   \\  /    A nd           | Website:  www.openfoam.com                      |
|    \\/     M anipulation  |                                                 |
\*---------------------------------------------------------------------------*/
FoamFile
{
    version     2.0;
    format      ascii;
    arch        "LSB;label=32;scalar=64";
    class       volScalarField;
    location    "0.360000000000000098";
    object      p_rgh;
}
// * * * * * * * * * * * * * * * * * * * * * * * * * * * * * * * * * * * * * //

dimensions      [1 -1 -2 0 0 0 0];

internalField   nonuniform List<scalar> 
7236
(
27.8938627265753176
66.6676750564859333
91.1884252909459008
104.090159534851423
112.210491820781016
117.811107160028257
124.946104280739277
133.115353697845222
143.158842906425576
149.212073301286466
150.318711865296763
157.631860299281129
163.275634282545809
159.412467653505587
157.363030424888564
156.495635928118332
149.65498404968497
139.717581869771664
131.260908053129384
123.935433610445642
113.933666406648612
106.056572506599281
98.8474649173483328
90.9329352377845765
83.2764592851090555
75.0468192928116906
68.219009724156038
61.6230527199367799
56.2233042400557395
51.5098884567596826
44.5423094255369278
38.6400385230464423
33.4833449702481616
27.8690891624647925
20.8129187054495084
25.4099023780140563
84.2653343761062388
193.923176502332694
3.7622350344525044
6.2979103165117527
14.3011326177167408
14.2951894736346183
15.1121475399871628
19.0983962307380715
30.263931004726139
45.1347270572441772
63.2905329790541771
63.6247746474679445
61.7058386032837376
84.566220516713102
84.72270806430096
81.6952448659969974
86.0491218048288999
94.6229816404043476
80.7011015384397155
64.5737650319517087
62.5947842668623835
53.290168735147418
43.5048183166036893
39.1435041890301889
35.8520544415490718
29.792219750418905
24.7182313661355693
21.5647888320792767
16.9447659429297381
12.3264257954216028
9.79828393196320313
8.73420530706628817
6.60585904347215802
4.08840373435379778
2.62312239013885806
2.22687436487798429
0.729034580055072823
2.78050812068544317
31.5765224891715732
154.210101445542222
0.222351852847994774
1.13272053899518355
2.7313771493763026
3.14790527651788299
4.77607117118905222
6.48536055816161028
7.73604517995281693
8.35094443428762823
8.13255816320557834
7.70598925359619447
7.13551404261499478
6.33060001136520345
6.01837410404927109
5.62253390491772098
5.35953005948928229
5.11899607019147584
4.86814187497495077
4.4255819361889337
3.83962691712084592
3.45281327892343892
3.12421681777171623
2.72801030190364191
2.35646243214952378
2.04287082434494449
1.74515023827489335
1.48230177424741938
1.24341042589829787
1.0563605634059543
0.951214916433052893
0.840959330264350324
0.730969117906844268
0.636565946130373983
0.529839612937610283
0.427481247035808254
0.407181225479747499
1.10361524662663024
7.91249829553289352
89.6676636535063096
0.084105706630402538
0.429615776926880244
0.56739423717384263
0.472702314648754229
0.954667539472910054
2.04539121962356862
2.38707632487299781
2.43930570769598454
2.53120896964013964
2.58213890035047244
2.60585580418005858
2.55987629729445754
2.49258690545165296
2.42232704972150037
2.36396402833037689
2.2948819980273707
2.18244947209210816
2.02134409749800836
1.82639769417721176
1.6464723354740578
1.48741395133087351
1.30923961685130297
1.15987033392317529
1.02820021904134551
0.907569391155033767
0.850664008543518313
0.801067512237958024
0.734670299890164302
0.689892799515937072
0.646262658074606033
0.58336605575205247
0.555430913818503402
0.512590291323333558
0.400817498824987961
0.380721789985508763
0.675952961063767899
2.17108485388268013
42.7700501812213645
0.607206780626356024
0.604373812925292797
0.655782261906537101
0.601409192673887816
0.427550141816440299
0.682609835952793564
0.781497766425023332
0.892802519296216568
1.00763806609701279
1.11724747168153016
1.15310179231528909
1.17907728315829607
1.16097201986732101
1.13634643672446067
1.1220330366641369
1.08606200371537764
1.03548874906325672
0.971473638685390495
0.903083060651643454
0.837053333010079892
0.779795721811233467
0.742101101513628292
0.705392971040376016
0.665539662752570593
0.609935378304032216
0.598751429453530104
0.606387034045413609
0.611279547655062205
0.608951577584375126
0.54977813387043295
0.473542030910006295
0.408414475673908595
0.36522482494815639
0.334460534477553306
0.328082470864602238
0.498223472309726023
0.789787170533441496
32.174090371973243
0.698513408159529559
0.648284516728332982
0.667689886947620992
0.654128272779003206
0.585873089770023725
0.598068852280504104
0.587270135828859341
0.582909969729851873
0.600485612606182051
0.632759791305736674
0.648995099680743204
0.65984183213827452
0.640001038376357023
0.607970885961613972
0.586065426174948723
0.561066244481376319
0.550377286040449887
0.545046853830692513
0.539579925574264374
0.525174929614804942
0.520394422514443344
0.524215730366752952
0.543491359125996665
0.554295335931101141
0.552160234765888602
0.500921139770623691
0.437218375535793402
0.384523877340917364
0.338543561133560933
0.307703700218868947
0.286515753912079618
0.271638140862473065
0.260205362274485208
0.264215246482496224
0.275486117273751441
0.426004668032510192
0.217422993769473244
24.9081657383809798
0.736775214899712649
0.698679510654507618
0.673718339901844709
0.666994514776668268
0.63961998969888656
0.624753188692510508
0.602303245109223173
0.579557614034110991
0.551426078729896241
0.530763044793938987
0.510043121431496438
0.49146378825606396
0.474822412104092373
0.456524339297907256
0.447060710382859106
0.441953063710330996
0.446904371962790259
0.452717882770856117
0.456453818634558917
0.445990136865768771
0.436719174125359155
0.431715972462108577
0.413140724660158443
0.389253532243063693
0.358341583778573558
0.3301436787970779
0.314661159392845335
0.302052139467855363
0.290873487323879576
0.278863087146376254
0.265019480979480027
0.250481111846552584
0.238133724353826126
0.237818695165398442
0.223410826978561655
0.388800172558929458
0.168378251977103932
11.7060538053033838
0.745221470994034796
0.734592805261151338
0.69894643565332415
0.685156576669226469
0.659968014682099979
0.635559778469307335
0.608221080922332957
0.580143812094870204
0.553884304621905299
0.531892158046875174
0.504525798045336482
0.478652719566854623
0.457489425694989182
0.438298721205279629
0.422412038787471855
0.410498721882873951
0.402000892541612975
0.396598765159586142
0.393440128893512653
0.388824845874069069
0.378989056036708516
0.365823401357016464
0.353992754558046796
0.341891412226992319
0.328921485522285895
0.316536257153360812
0.304788187511329189
0.293277728368535162
0.281713682542138466
0.268761010955900825
0.253358836956753208
0.236415123581404457
0.221263553657869871
0.21447797709180666
0.178255156190980146
0.353254122056633979
0.478934504956138152
22.3927329036690423
0.76341627723659411
0.76580783587838408
0.727524626959009435
0.70559875596693955
0.677445414349325592
0.648494615368115368
0.61874718433308229
0.58871094167669602
0.559556400390834541
0.532659207026372039
0.504706528165187462
0.479199138569046557
0.456619304768041356
0.436557148497031478
0.419684797409778598
0.406545994180068426
0.396309503727806989
0.388152212714004685
0.380904586316657079
0.373825363829994484
0.36529715794854134
0.355026798148930123
0.34449892214742267
0.333835956969067427
0.322619155963509152
0.311254334585657155
0.299971881601089063
0.288482362337709852
0.276182986493507865
0.261943902597159828
0.24484586686370155
0.225210107950303606
0.205673850752411208
0.190773212487232946
0.138103766649014137
0.308628371742026786
1.14818487288144921
16.4571267369082435
0.772753690457073761
0.789917195038527309
0.751468635768420601
0.724386477503960347
0.692995279310339662
0.661312329696254531
0.62973335995907509
0.59859357744945707
0.568045816533273573
0.53929308140641885
0.511451367766809106
0.485177723207494527
0.461354644599970387
0.440111997984947434
0.422065848699992863
0.407678787123821773
0.39613250450454901
0.386495875271380573
0.377777338414928665
0.369347608892113322
0.360096998023323955
0.349968675469881141
0.787339001572739172
0.809954201652499761
0.773264795127578508
0.742116508529136132
0.707928715921279927
0.674183339078866406
0.640923909651448964
0.608391217080236357
0.576788428407101095
0.546663912261025509
0.517986837726743699
0.491021078481337803
0.466299061733199904
0.444280533781649611
0.425489106996136568
0.410064881685444804
0.397274601533804728
0.386308257844894365
0.376434417967839274
0.367031091337634618
0.357344759487873809
0.347274590593830312
0.811815351504576954
0.829873655045746395
0.793398893266387795
0.758983796143763101
0.722400148474735881
0.686847655246436206
0.651977030216868036
0.617995448958602256
0.585147328190351423
0.553833874704921958
0.524168072464161749
0.496400386978916974
0.470940036275232954
0.448271562501835696
0.428806517683989863
0.412552166317534663
0.398770251528576036
0.386711294120678173
0.375840631013796056
0.365685081023487457
0.355649847839559108
0.345546913869007766
0.839995062710454765
0.851516346447506178
0.812837461730006927
0.775397602809961062
0.736527919698649947
0.699152923251853076
0.662644059435894217
0.627234565464049765
0.593071892848845761
0.560587058331110777
0.529961266053947
0.501395937510551781
0.47524319360773748
0.451951120220438318
0.431843296239102836
0.414782868422583995
0.400112621930851009
0.387157170298372599
0.375496639031549895
0.364767644657152779
0.354458806175764807
0.344285488165286868
0.566920061134848385
0.535360257230597658
0.506044360262066673
0.479221633878540942
0.455311207153954345
0.434551561781474749
0.416740757944019879
0.401268308166115695
0.387532980211337086
0.375231372723704271
0.510323942525156782
0.482871490779417933
0.458355989157921528
0.436958024234937403
0.418452281657063996
0.40225979900540404
0.387839805524292813
0.374991259220549322
0.461073630229907661
0.43906718398342548
0.419915857237987911
0.403083817525802079
1.83059707809781558
7.03427530677062318
18.7890311781524169
27.1297930959358737
29.7256189753046769
45.6325043424359507
59.1985336620709006
64.2159175719400963
66.9372994707098741
80.2926000920747782
103.335260093672701
100.782811105820798
95.6755664123109142
103.930064602784213
109.724858692921032
108.537641287786016
101.868077112744146
97.9675269894192695
95.257591488974839
89.8685934420101376
86.0024843084271851
81.0058240874983966
77.6702752126215614
72.0352229424850918
65.7641163016522228
60.5727610633238314
55.647064517759965
51.437053196474416
46.3922757919568767
41.3349816251654829
36.7796908282497625
34.0300344868593925
31.0576759935912783
27.3478414626667963
21.8671508940206074
19.2548939754093205
68.7650981597325597
174.929189533553796
0.6602312349809355
0.975915329391672581
3.42497137440347954
2.9949673773459411
3.34823711137155611
4.0812974801189803
5.02738529687423519
5.98824390089598779
7.01417571140239726
7.66857334908483868
7.19891897342785825
7.46208054201326831
7.49439331218113214
7.01283020086325237
7.57577989637199689
7.97397870521507901
8.16172855710659029
7.93843717785931968
8.78230878008470306
8.83137365185802636
7.67725175456311515
7.76643290485948068
7.07709183099224148
5.63864782044878599
4.84594124481113386
3.49042286322529671
2.39284179341640524
1.8901282166625355
1.37198847708270266
1.21418312161107655
1.08506822229499034
0.827562997273532663
0.477857671187701172
0.0997115083076702546
-0.102116463752672804
0.972700745632868125
20.5424142758847275
132.193848872300123
0.688566733815236476
0.442958335993779928
0.693329134654265378
0.659632727741960245
0.993551022474108536
1.59768302212303248
2.13593535140182667
2.5662225518694437
2.76135220814968241
2.88308562998505113
2.79484927530118421
2.69725109382214034
2.74045659052317481
2.73548797925513076
2.66170262856431883
2.51489797653852598
2.3871877921881528
2.23694627045531158
2.08532557538250396
1.91870539266748485
1.73424996180891444
1.534616144723423
1.37217658910598606
1.2410128593491212
1.11386489489280338
1.02317504603433318
0.946309466356660356
0.848896132361361522
0.756909131789748946
0.696261592307131916
0.718965858293009741
0.654220675105539939
0.550962701188951409
0.420703563303199635
0.397047177622870284
0.717871700407241464
3.8219579828051744
68.8991612780890677
0.760017977187657623
0.615914273175819482
0.665092907335415595
0.626400585689540046
0.598650826137736569
0.679598035609452977
0.788769919513426121
0.892178076498054806
0.994153094960228745
1.09847006765530053
1.18353996380079529
1.22979051134487083
1.23766310313736216
1.24781227375914461
1.24560177044493026
1.28094868245049742
1.2536145165316348
1.17418435797370657
1.07478198572805761
0.999639048755512127
0.926598722188642698
0.866505448908918119
0.842182882333665561
0.813195634860121586
0.775468887991577538
0.768604997131283607
0.758001129494881742
0.747943036115464088
0.75432674507911357
0.757153190677755217
0.701190263330251695
0.611641219505711708
0.522231719250220938
0.427665008496961596
0.372022708416967329
0.516082849258123644
1.03081222662085503
30.3323015467926851
0.753003135626928666
0.689722025595985055
0.689370949956945034
0.655770987608885081
0.622306346248109432
0.608461213318438943
0.604901532552558407
0.60533608319145471
0.639388740524157728
0.668271076714051504
0.686365647048694072
0.684268570364565676
0.675218531684976697
0.669568727554968102
0.677834335211910832
0.674871361452073937
0.668859963340601937
0.653326891741126126
0.628998831529157809
0.603378881778618759
0.596948702562948186
0.594204291294480047
0.608416988414140714
0.624427731853417156
0.627604586099115513
0.63791142167393533
0.616835075352516693
0.540388204392879157
0.475428776708018586
0.419064689235094434
0.367162000359979701
0.332159416303039634
0.313865983965411988
0.315043654696179343
0.317466165054311411
0.440289815309924781
0.370020929805567222
30.9845201324362769
0.763064655534670067
0.720072475196184558
0.707424792013678694
0.687087318660992152
0.659531395900290307
0.638896385104647413
0.626525895628352369
0.629275041431379134
0.614525414680373805
0.600019801778385542
0.581046448063863075
0.549792328889399218
0.532974001169284395
0.524047895564965782
0.52312450815108702
0.521175005070002917
0.52100977114685787
0.518749513612767332
0.503514008771579147
0.487984365932737918
0.476450057198256893
0.468250685539577938
0.458595349268114238
0.440754028944473464
0.413475689525033385
0.38355719574340208
0.357172375106115214
0.344487758686933876
0.333574777717589588
0.320826825240961566
0.306280863895793787
0.290717995865187984
0.277563924454327871
0.272659935310259283
0.259058176159112086
0.401721174501967704
-0.0131293099277034926
30.4498700623447682
0.776916082665836671
0.75037888272527864
0.729426875916398099
0.707182891575439898
0.680043487266085878
0.655260463121155379
0.633100298945702522
0.608735463025496637
0.58362885836733458
0.560152032007977252
0.535373782454878544
0.511788750105738988
0.488555607912490919
0.467877517503620999
0.451877623499386594
0.439252164682008561
0.430392202782816868
0.424605821273712214
0.419532676671505123
0.412939183661283515
0.40438248734953619
0.393156874077724705
0.383016563511864361
0.373213364153521077
0.362830828084614476
0.3514357311315498
0.340577715682566728
0.330471880952801056
0.31995857851842352
0.30721166129954941
0.291540257684987647
0.274296438236243667
0.257730245315739737
0.246399883503577055
0.206852555026810769
0.362048143850852822
0.0126030244896765866
28.867879912695777
0.793043840259205934
0.775478676444036563
0.750815520293749539
0.725227529403121407
0.696655083329160707
0.668964367792704517
0.64204429838914856
0.614200458529287618
0.586540248823252397
0.5598580497868334
0.532585116337777831
0.507101241822169091
0.483472772932277473
0.462548462352949497
0.445356062645322515
0.431498919097586586
0.420492826047245083
0.411802749701301651
0.404508609288315446
0.397727796087796626
0.390130620779872761
0.381518785631199564
0.372527947961033223
0.363500233152646957
0.353730631786140726
0.343363750980181015
0.333215299959489619
0.323157054178909164
0.31203925452255854
0.298323854556158397
0.281363742026380093
0.261551500936485437
0.240559585859882519
0.22130713468430166
0.163351999451766844
0.313847265777040474
-0.15428188952878566
19.9060082950576316
0.812876709975058453
0.798577680633344444
0.771208177205892187
0.742218182918677805
0.711362811662563543
0.681015083968291357
0.651292560718219171
0.621603239470857605
0.59257539656705116
0.564578823037750754
0.536808570495661996
0.510606835985623619
0.486740853979778731
0.465430983060485193
0.447163643141822109
0.432069661806457561
0.419811132986030233
0.409697714168858695
0.400986164182536964
0.392908287765747266
0.384519435690822309
0.375676731284705467
0.366855656738090674
0.358038646325565646
0.348683928205591021
0.338835917291795186
0.328836346143365432
0.318387053789485064
0.306547633863602897
0.292022426916980271
0.273800606503671329
0.251404954592271079
0.225390108284070884
0.196542579400495854
0.124395351795643136
0.260030811429570075
-0.163620822231636071
1.49565204856077227
0.833217105076915932
0.820198996386739543
0.790659225718969294
0.758596985625055176
0.725225583761170634
0.692443170719256096
0.660480548956601465
0.629192491436596724
0.598837876813644865
0.569682238374445538
0.541469192270418787
0.514934289536431167
0.490643826834753605
0.468889291714930045
0.449996172803463101
0.4340271581890775
0.420637048512459422
0.409263221857580906
0.399368576325746405
0.390298592329506977
0.381273828512276369
0.372140104485756407
0.363157756973788548
0.855046493031935251
0.841279832865639676
0.809540823643779328
0.774520846031037324
0.73860449229126468
0.70358762069447478
0.669672366512600981
0.636839226566264238
0.605212505881636331
0.574964471597616433
0.54611906187238568
0.519105803576422886
0.494332547370971931
0.472105090533416094
0.452659947303896693
0.43597175752432793
0.421683498503319543
0.40932565383415459
0.398454919963844079
0.388549416528221891
0.379018348302885333
0.36965107833014399
0.880255551110756373
0.863013689471459067
0.828264550573062697
0.790197967116838651
0.751717838703431895
0.714563692832718589
0.678807500620972948
0.64444871624529243
0.611551451467999496
0.580243850672924499
0.5506327009332731
0.523009461878602644
0.497676074557987291
0.474902631676709486
0.454864342369354246
0.437491105865017882
0.422422040378360175
0.40924314192510558
0.397592855638198184
0.387057610860019552
0.377132506316430471
0.367563853879743607
0.90795476082187343
0.88601065801433232
0.847065951567241404
0.805741727814043296
0.764593974332884563
0.725326680514553512
0.687773356342878395
0.651906265968291487
0.617724234208781531
0.585359019763061705
0.554923752645036239
0.52661677426377862
0.500659607280615204
0.477293719193769839
0.456654648214264602
0.438626001809636901
0.422847467845309355
0.40895065730815755
0.396655752416839424
0.385636879502039398
0.375417778703703964
0.365678347534131143
0.590217326304783296
0.558959693047678896
0.529943372998138651
0.503313427918054446
0.479322395100442389
0.458085786458975852
0.439447930215919658
0.423033192773903721
0.408502937812444789
0.395663156056888843
0.532944227656831804
0.505651636608808852
0.481021933161029314
0.459202182843018725
0.440001857987847744
0.423018388193261263
0.407933486027387771
0.394629902075373185
0.482415273105046727
0.460040065294223532
0.440318202238022649
0.422830539212965317
0.756487735810259854
1.06513920431507358
2.35808957363302518
3.42943071231777763
4.25455184920732155
5.09031079716378709
5.89036517744935129
6.4280449375286306
9.70744556674328329
22.0829446068286863
34.4938276609647616
51.2676220037598611
52.3619729655042221
43.6623794544182218
48.9721080602629684
71.6913440852423349
83.9086467962599443
82.7139197927514971
79.1406438526881573
76.071493626169385
70.0711008604904038
68.2864868940890091
64.3768093702987301
60.5574672903286242
56.7358219783148741
52.7290406193757946
49.1656366095761044
44.2991054016030219
40.6833054981039055
37.2718453193495236
33.5922812968370437
30.0041751867651989
27.2082742958852641
23.7984177833362125
20.211702217660843
19.9618297598874292
53.0945465142821149
148.657386456543605
0.644058770051189833
0.600787709197918351
0.687473367123494605
0.766004780063697766
0.980244609403554623
1.51119139829882454
2.18753213405945823
2.59401195671652918
2.82529320274686802
3.00556379404129492
3.27944418696992379
3.07660747760498499
2.97888508382529826
2.92755462968558078
2.59459694754726788
2.26188746099493398
2.00897531923522088
1.73438669398305878
1.58548105686195795
1.37927079528386765
1.25277546892169367
1.08712581984113044
0.984610915251134755
0.865471837604743555
0.789786443795144733
0.685441407105837563
0.637353901623452845
0.642412648630587335
0.60421070231449947
0.550713877468018476
0.589212598849211511
0.602784086745254966
0.488540017405150795
0.291379329415499266
0.0684299317627237585
0.425782986439385003
12.9590095837990145
107.362925021628527
0.685568162892044475
0.684275467689087535
0.718635423461069789
0.699539372167517493
0.701481093899201213
0.77527027968450235
0.967789581464667759
1.12907856373507665
1.2324356023912364
1.30913797211775451
1.35306407354676317
1.34134332380362165
1.33343295531474348
1.32771074363807307
1.25163120319816312
1.16360670789066556
1.13277957541891117
1.07911247716533909
1.04051410479162998
1.01881615015096227
0.974967425637461749
0.941101173504927946
0.906935264350627324
0.865620675341058798
0.810307820962352099
0.765561291443911607
0.719911444567410297
0.702346618100085029
0.677142025992988228
0.640218701285004022
0.612289710912208407
0.561980062686552095
0.519909968522536792
0.423411413508241796
0.375131491660037564
0.475973889909279024
1.79306628478179864
52.6547758080524986
0.728483210179017515
0.701550563867170185
0.722423096006788001
0.70360688578887276
0.685665692498115709
0.677916920976093684
0.658868151178400807
0.678376659292988737
0.713688107410242467
0.746517347044130086
0.774603678557510555
0.789600013834015457
0.787106271644421707
0.788815384281095988
0.784881001266501177
0.767264820024107452
0.745108063433875145
0.727240689224826986
0.712871645003630205
0.697661427507128451
0.684974996749165399
0.699595544779044731
0.697453046701780766
0.718714864054239455
0.737684872200929376
0.767080751940809491
0.787069124357796301
0.78197431381268645
0.722306441989331804
0.631188851070878743
0.544535249997565418
0.463015107331425368
0.399376562070775876
0.359965102453370656
0.332483990661535167
0.411972787157861675
0.507762644880778158
21.7133128929605377
0.760732325854870717
0.739084676903713489
0.735698045898328101
0.71467384897984243
0.693016737391581539
0.673810942924758627
0.651474630388189646
0.652988010607327474
0.650863628133753869
0.653357741689961746
0.659265917184800765
0.651856603794867207
0.627498832891158598
0.611874051444627698
0.612165301946873575
0.610738543689707591
0.60335429117699424
0.594307549069006291
0.589206572003626028
0.581318656361315744
0.566677506736703585
0.562731914813830891
0.55167169470980959
0.545864653632953001
0.524833146974421072
0.492798992755998089
0.444519875902377182
0.421611181543007918
0.405449319312365553
0.380933949948221051
0.356127626106840955
0.336915092472662492
0.314809323574250954
0.298032192715424249
0.28183052894907995
0.381016467507223344
0.0425386220695901027
27.1744547576025539
0.784696511026334975
0.765254503611525472
0.751737752144764015
0.729691551059114651
0.705950281091083709
0.682658758375927266
0.659189724944101996
0.63711602012861146
0.61603410237749856
0.596318713963826186
0.574588891778978761
0.551456103580368673
0.529372529698952543
0.510695579104484265
0.495786452650433807
0.483698180995142279
0.474344713505820914
0.465908398590552886
0.456682928097986551
0.448025788270861591
0.438887039685973979
0.427080057745572894
0.418029317902750497
0.409859500766192042
0.400538784526660308
0.389754665883997098
0.380273325542988705
0.37104001460434588
0.361321105001876142
0.349278960535586713
0.332946258096813386
0.313418471038518331
0.290724822720305254
0.268999030644574033
0.229014673839868094
0.352752696153701584
-0.0294999646473693838
27.0023318691902148
0.805548820450073699
0.787928892700010097
0.768526242530613524
0.744336833159860212
0.718197221319710755
0.692141340237700353
0.666242864236270993
0.640460524696423672
0.615345915836675639
0.590337597090044408
0.564903796053340623
0.539876438338594222
0.516662445305589135
0.496208808164994186
0.478590373657895529
0.463344180300590824
0.450791603369017135
0.440369636892549987
0.431552098035044795
0.423942869550247681
0.416722332583589428
0.409325720676642635
0.40209239258850854
0.394711709385088261
0.386425215323241311
0.3771812495639979
0.368395373684937633
0.359294224768545556
0.34902601897141694
0.335927375181035492
0.31858736766038509
0.297052159479655742
0.271615642330652329
0.243084594438206403
0.180609780240368722
0.310235891880262571
-0.0973338687318391071
25.6868663916127673
0.825469768963920769
0.808746806195711265
0.785658284251345318
0.758744053247312422
0.730018994950300981
0.70138141371681384
0.67314386345967181
0.645308012565183442
0.618227502291885389
0.591564364655718822
0.565060745706257528
0.539637343966553829
0.516030187089377868
0.494796551033504117
0.476155003625007511
0.460116288085640202
0.44673227716916375
0.435611198313586134
0.42618529177466935
0.417880583499989466
0.409993289486319357
0.402055440054704338
0.394397446494713144
0.38682031394708366
0.378753394006668631
0.370188016515784368
0.361574635255648646
0.352162268543658064
0.340982966327882719
0.326975444520975878
0.308802041780940228
0.285462624718467839
0.256240923417619226
0.219146297896414127
0.139520172542564158
0.254254304982896973
-0.223798037286659784
19.9253347026843137
0.845800944366720819
0.828796085270064209
0.802816350604100948
0.77308135741608075
0.741760687921294903
0.710692366757802341
0.680310386887542196
0.650705899557700418
0.622064769202640089
0.594236515033476853
0.567107535032630561
0.541370924860041902
0.517530361024786223
0.49592303289419537
0.476769771586742552
0.460118861503154564
0.445873795114396787
0.433696014107490313
0.423287017621642947
0.414121004690187589
0.405547203558786817
0.397270723306780982
0.389407446859251438
0.381698759331966619
0.373717878047981455
0.365385173482026426
0.356653519235400451
0.347097888928905862
0.335718380175323738
0.32123766221407557
0.302269558124817928
0.276910566151452264
0.243607292606928316
0.19796625346877364
0.10468242123810953
0.19449964178476703
-0.536094497064223074
5.510865847232985
0.867097166378454354
0.848791314085111548
0.820005780608117463
0.787365476660459862
0.753451351377168566
0.720066720891220702
0.687673597352997934
0.656394791237969844
0.626313455350780202
0.597374235185962554
0.569584895846755646
0.543408161286920044
0.519222271355954001
0.497262868167549776
0.477690974467023743
0.460519018422067938
0.445616830775805106
0.432710720483716227
0.421505645213507529
0.411577877278671511
0.40243004084265116
0.393826561816726928
0.385707817009012299
0.889750680559698193
0.869312275568328907
0.837384046856100461
0.80169597407089721
0.765150841325573539
0.72950734127250505
0.695180599845025227
0.662286248447191195
0.630833886557118029
0.60081275490865349
0.572286812108486309
0.545558056354589871
0.52090228285314133
0.498501284338893735
0.478463032197397997
0.460771512505085246
0.445279821353218419
0.431756478807011568
0.419931959153389323
0.409439214371770221
0.399858209684545385
0.390944417160466184
0.914612654816743142
0.890827763821205543
0.855110689490880316
0.816138548282302922
0.776873408861534664
0.738986651169939668
0.702765642767219645
0.668285602577466276
0.635483581555773447
0.604375889129765365
0.575040949565219561
0.547673262077951528
0.522464690481692084
0.499555265372848167
0.479019567783268152
0.460806995137980013
0.444750502629865541
0.430650467045944174
0.418291802823160364
0.40735528966072565
0.397434557865186167
0.388256872993409274
0.941556791497659362
0.913571406204694902
0.873220814516090238
0.830671935148194152
0.788556266433885877
0.748411126769155222
0.710312469100314758
0.674270248069860134
0.640143361470417727
0.607946270364567165
0.577749249234878137
0.549675611515835993
0.523846332845104401
0.500376581937556297
0.47932472125765152
0.460607216011260312
0.44402800895592448
0.429403575827745021
0.416574523990001055
0.405271679503419135
0.39507994253206985
0.385684430400528522
0.611413121147261207
0.580355367796931754
0.551541521988509031
0.525031086790547774
0.5009583693995181
0.479381373458261872
0.460181908686246977
0.443124758017491294
0.428027171790647365
0.41477675964270655
0.55320429794471393
0.526004220026612734
0.501306379223895426
0.479212012444396929
0.459558794753824995
0.442060594862392242
0.426534721590893839
0.412903819798074889
0.501435881697642194
0.478842304137142349
0.458758895303755354
0.440854805140975137
1.01593134277908392
1.00934657832902097
0.823716681695560116
1.05971902837199972
1.35652045238882768
1.62361912909908135
1.97239580592979857
2.27664601555876089
2.58473543960460272
3.11821877866942687
3.57609002217141914
4.17256564232304061
4.27805397435617873
4.34212349290841182
12.0475939065686042
19.4383073724731865
21.3430136755153619
37.7539841465869443
50.7310781049871977
54.2227133922588038
56.8762562777413052
48.8895396838779916
43.0897257726187419
42.0545097262621894
42.5806245615843508
41.662678853305664
37.0055283297590663
31.6881970300256626
29.8761686268241498
30.3822843499640811
28.6693213241562717
22.2988123704327741
21.5170672469817639
20.4337718230502894
16.7770489507302472
14.1053726124670789
39.5511691577119535
116.50027397796174
0.893066157056953802
0.853677852921256308
0.687518450548337712
0.709313604579465684
0.773926167526854059
0.87737858779887945
1.01034945616858418
1.19328802702190018
1.35552382127561644
1.4973891319451933
1.64946291231787323
1.93799578039595066