/*--------------------------------*- C++ -*----------------------------------*\
| =========                 |                                                 |
| \\      /  F ield         | OpenFOAM: The Open Source CFD Toolbox           |
|  \\    /   O peration     | Version:  2206                                  |
|   \\  /    A nd           | Website:  www.openfoam.com                      |
|    \\/     M anipulation  |                                                 |
\*---------------------------------------------------------------------------*/
FoamFile
{
    version     2.0;
    format      ascii;
    arch        "LSB;label=32;scalar=64";
    class       volScalarField;
    location    "0.420000000000000151";
    object      alpha.water;
}
// * * * * * * * * * * * * * * * * * * * * * * * * * * * * * * * * * * * * * //

dimensions      [0 0 0 0 0 0 0];

internalField   nonuniform List<scalar> 
7248
(
0.106860996647354989
0.919722774481281036
0.00561140982774675605
0.789231175163464194
0.000383862656827246623
0.00126101776219468033
0.00151717514251856482
0.0258517504081820608
0.31283599193569106
0.000669851340187426251
0.000180096029668908746
0.00107676651170183699
0.000368988028366021932
0.000405119977419205043
0.00013263029514720882
0.000105614370847320892
5.64360917500893441e-05
4.63563408295640173e-06
1.68075301274292629e-05
1.35342127182504589e-06
2.25676660997046559e-06
2.66847474891007786e-06
5.4645838009314879e-06
8.39695195890995038e-06
9.11986804822835389e-08
2.41478332566102612e-07
4.8280086918227401e-07
2.77245683046149873e-06
5.4359857471727602e-06
2.60108048172011723e-08
1.20484106239249508e-07
2.53558261496118573e-07
3.27099631542418306e-06
6.49699173618805179e-06
1.90344547508864485e-08
6.47166372257303264e-08
1.08611611039568176e-07
5.27677327113144612e-06
7.36014622208822464e-06
3.03979148353393672e-09
3.06922371911763162e-08
3.89776110612765456e-07
8.83475531509916119e-07
8.35801392275533439e-07
1.53068213705606746e-09
1.19672243164715591e-08
4.4827943975759596e-08
5.08014188466389978e-08
1.93696659904159759e-07
4.04452476939708393e-10
1.55478047706386281e-09
8.36737126649687821e-10
5.25426875800201164e-08
4.16861193504053136e-06
-7.04648643888939009e-17
2.68321052780777991e-12
1.42420686235139055e-11
1.42443485166356421e-12
9.95568177115216987e-10
2.22718381806564283e-08
1.02769424941208642e-13
-1.36312776321441994e-18
4.61579020244427839e-16
1.31182226534042443e-13
1.32413663020083198e-12
6.97790550499517401e-12
-4.96791057995044934e-24
-7.66986197324705465e-22
-2.38110862123986389e-19
-7.00317518882573688e-21
-1.79021616981683509e-22
-8.98271840343621392e-31
5.57048543924838807e-17
-3.05573698717373209e-18
-7.2870673947983766e-15
-9.26081102862895814e-20
-9.56080704004442127e-22
-8.50200479906156896e-24
-8.18884672584175188e-26
-8.88859377734272548e-28
-1.8544727901704505e-22
-2.87367844642084308e-19
0.294137602430507739
0.940414304402235057
0.00797349856707214519
0.802419670968643195
0.00176262669130912929
0.00349200234133952058
0.00016324073159247653
0.0528797649758675908
0.433310100611423166
0.000745486149273693515
0.000529412782354885241
9.12637573317017555e-05
0.000128578792185610907
0.000609631372376717804
7.16267877237428916e-06
2.47782711935021512e-06
3.7477046138598217e-06
4.08920051083863049e-06
2.11527602972638707e-05
3.35925887486279736e-07
5.53044024129163386e-07
1.78485155726190384e-06
4.48849843032239759e-06
4.32698884332476229e-06
3.7267369845325925e-08
6.01367844795267275e-07
4.25379292836742702e-07
5.13491862338573802e-06
6.16256034268169001e-06
2.4820185079357325e-08
1.11655418282450095e-07
1.59580300619305764e-07
7.63808313367688551e-06
5.28448695812079314e-06
2.90743559858312072e-08
5.7128355193790032e-08
4.01443008248573815e-07
3.53348965973367283e-06
2.29666126792488096e-06
2.22819089734934296e-09
1.97211092695650393e-08
3.71721795292918971e-07
3.45854497879938004e-07
5.9848198083656704e-07
1.31149850846635715e-09
1.05698788341100721e-08
3.14270133472068932e-08
1.73788291804702123e-07
3.77933136829010035e-07
5.21794366973732578e-10
9.86754998325897769e-10
1.04191644720253531e-09
2.4097122984628923e-07
4.17572229895858961e-06
2.82819664488877467e-11
6.25726204063865038e-11
3.58849080854438171e-09
2.49095548449280864e-08
1.46595358183263531e-10
1.23123707847682771e-13
1.28459947662230081e-12
1.22750175887126274e-18
-7.90746440193979404e-30
-3.09699394509150067e-26
-8.04890460330303617e-23
-2.75858032584477745e-29
-8.83319403036263378e-24
-2.07819730726906806e-19
-6.84346088040346036e-16
-3.80543846329520387e-25
-4.54318405332318606e-27
-5.92807827618841661e-29
-5.41568996858320907e-24
-8.61521539489543379e-21
0.368731156153483952
0.956549421736951677
0.00536285062796728468
0.751663699370810789
0.00182341037464609857
0.0026434282165260321
0.00241569772155658322
0.115067136792163099
0.584084196713656967
0.000542370542160167915
0.000171096565389411372
-7.2885951056546726e-05
0.000502332579385179672
0.0118242406855491103
-5.39254055694314237e-07
-9.68453170303330417e-07
9.81342393545730804e-07
-4.40684413211670214e-05
0.000253674359704855322
1.64742474786652845e-07
2.23723082917167544e-07
6.72769108177950189e-07
1.38274403540412035e-06
0.00018154784047381495
9.09415909608610096e-08
2.3302076802902881e-07
6.04465331806422075e-07
4.21667824777577225e-06
1.56607405864143908e-05
2.00362138935254806e-08
3.53964020238807545e-08
8.39111974884344922e-07
8.48005796145024184e-06
4.73577973364083517e-06
1.10142872039238346e-08
2.00362145010117896e-08
7.48781576703069863e-07
1.39403059704312313e-06
1.17211786098977341e-06
1.68248566939851106e-09
3.3305276333317207e-08
1.36576754598165694e-07
2.17010307605577137e-07
1.02016342717893231e-06
1.26605644504520486e-09
1.43726031305276447e-08
1.8061009117950256e-08
2.28836160393440607e-07
2.82432190089081209e-07
3.91808350153077171e-10
4.9070561538329426e-10
7.54544672789753058e-09
9.8657498545462005e-09
3.58881841389632268e-06
4.51373479715652975e-11
1.41030116649967473e-10
3.88954058760180957e-09
2.17753093318101361e-08
1.14906281709660855e-15
1.1219868454153662e-14
2.00125265492529559e-12
2.18231522429504394e-20
-1.54175216640238116e-39
1.13706618559781147e-15
-1.36369706114293998e-18
-4.74754517222023001e-20
-6.08774953045318789e-36
-2.85493293811829762e-21
-4.22759688155412927e-17
-2.64368700008384054e-23
-3.17845462643688446e-25
-4.13395263894461779e-27
-1.04015043198796286e-25
-1.90787878485864132e-22
0.460272794825447862
0.957280342962218644
0.00536285062796728468
0.755529760205749135
0.00458790871369938336
0.00515621001125053831
0.000589717900316186964
0.0188540525960619321
0.582720171052069191
0.000541163223227749757
5.13326414440275349e-05
4.37130752551574046e-05
-5.94977294642864908e-05
0.0597820389956792778
1.18746971643283899e-05
2.95981601982409068e-05
2.92303803264820995e-05
-3.77715546214112207e-06
1.52456125789573157e-05
1.96428492891402361e-07
1.94862207632885546e-07
2.70164509094374799e-07
4.83304793706657475e-07
2.39365805884599507e-06
1.55756354030569812e-07
1.20108767478253975e-07
1.93390643236201056e-07
4.66979552990099439e-07
5.65169492620022813e-05
1.60586240656562663e-07
4.34197780137755315e-08
1.09268065192193728e-07
7.3844201807894973e-06
3.46547820866319952e-06
2.66079974308811197e-09
1.61920725540081197e-08
5.31999842235465678e-08
8.37742303693985056e-06
1.67041458725762042e-06
1.6695079816013024e-09
3.61715320871991941e-08
4.38135041598641424e-07
6.01529310149440407e-08
2.11558774780589535e-07
2.01354846392513466e-09
1.70390879945087577e-08
1.11610073479750566e-08
1.77033177191268015e-08
6.36785527858110206e-08
5.79045920192247324e-10
1.05698988702386993e-10
6.49905163201492991e-10
1.45056098943948164e-07
4.58941303658563086e-06
2.7960536627962284e-11
9.07259054710479787e-11
4.11012113404474873e-09
3.38118642281828492e-08
5.40607645296045058e-09
1.18748167590926603e-12
6.61516731982135666e-12
2.53279681798732312e-22
1.51461571992315197e-30
0
-1.21374174989917774e-19
-5.30429152577888971e-21
-3.1632227307089505e-39
-3.30773503914401716e-23
-1.96569932130919655e-18
-1.09106586096814019e-24
-1.79336330131649678e-26
-2.93438738558949505e-28
-1.5049991317398071e-27
-3.39921790550298964e-24
0.535472672322932164
0.954890547474119056
0.00300616687808884318
0.786413445629394192
0.000566666886657402947
0.000883194007488328657
0.00073321626907699145
0.00114514814924628755
0.582556646996479133
2.95149919978893998e-05
6.76950079351388147e-05
0.000177434013627199218
0.00056813019545001492
0.0962010739537629278
8.05455239998959849e-07
6.80281671070694809e-05
0.000107034330257428967
-2.68397125948684633e-05
0.000318182388087121545
6.3866829026428834e-07
3.58082425759128711e-07
1.17400190384634719e-06
1.93610657975408021e-06
1.29645553449511402e-05
2.1713555712185064e-07
9.4996151510763836e-07
4.31435795529242488e-07
6.54819708347247386e-07
3.24599615733531097e-05
6.63162346704883167e-08
4.46176873989375816e-08
1.32231050766119342e-07
8.71144580635723156e-06
4.340124971405502e-06
1.52434576813078232e-09
2.66080022214672343e-09
1.34553478611205299e-06
8.71172497848586798e-06
2.80239068966231587e-06
7.0754066993565011e-10
7.67041541850661898e-08
3.21283030812795778e-07
4.37740982658776238e-07
4.46059776988150271e-07
4.28985590566547194e-09
1.99103908536157527e-08
8.25499751271412931e-09
1.58603855596091329e-08
1.93720650981959782e-07
6.07241967996184074e-10
1.45691725606379919e-10
2.88134956385343235e-09
8.25492462422604483e-09
4.21575910945518041e-06
1.5078478111547123e-11
9.72132747208023643e-11
3.72799769180623717e-09
5.82171460062318312e-08
3.06059500478674192e-10
2.87513860052324001e-12
1.79333690002531748e-11
1.43234590910043488e-10
7.39812939606497007e-28
5.85613527570541089e-11
-1.45836451081453317e-19
-1.02090753964756758e-20
-3.86945393022697486e-22
-1.76094668161591855e-23
-6.16457839335406878e-20
-1.46028569001685874e-19
-3.8022717825617971e-21
-8.12306680833380045e-23
-1.856430823303211e-24
-1.01335483873708634e-25
0.59860219113181623
0.952300811397185254
0.00397217566651776773
0.790386378912394827
1.32059582784116783e-05
0.000108848044892122475
0.000687549758044740775
0.00129642676017701296
0.596154544532064179
8.06437025245498153e-06
-1.96554458034013159e-06
0.000215833590962943367
0.00257529948869027019
0.0886434948803824369
3.40587439624326252e-06
1.87826490746070371e-06
8.3633961650778882e-05
0.000167133338553079316
0.000384174643204850152
2.11036142861059029e-08
3.60553533951505042e-05
8.48559755879088249e-05
9.00898614687382035e-06
1.56225921917390908e-05
8.38413250322139532e-07
1.40945439242617871e-07
1.51530289674566737e-05
7.85245882354600762e-06
6.89761017156320362e-06
1.44935921999657564e-07
3.29814603103384562e-08
6.07553717933722317e-08
6.46458438927636644e-06
5.15208266627414792e-06
1.00720736166183946e-09
1.56535303150826954e-08
4.56393272688779489e-07
1.61943011676466565e-06
2.43847326515406548e-06
5.86985794785310277e-10
5.60116886911356072e-09
1.24381062377382638e-06
7.87398110202978419e-07
2.56621150856040792e-06
8.47780357504072017e-09
4.41059344809705896e-08
2.06644145085417999e-09
8.57909573686736644e-09
6.4446452313459371e-06
4.82167742492671826e-10
6.63266457854941354e-11
2.10289195339407934e-10
8.8175322339810875e-08
1.13334702117890171e-07
1.39295581834598427e-11
1.48886926838382265e-11
4.64210904990516738e-09
7.35075570407026925e-08
1.30006123960514242e-07
4.54231613358411584e-12
4.38635598775215164e-11
3.21167998010630804e-10
-3.10133039232224074e-27
4.48774203859062541e-28
-4.87316730210869027e-21
-4.6108014083701448e-22
-1.93420801728486842e-22
-8.09274559384402518e-20
-3.61643368210392953e-17
-2.58074235185311972e-21
-8.56244959118142969e-23
-1.81187641846975437e-22
-8.83501369029114612e-20
-6.66021262859298895e-17
0.652646816420012765
0.949903921064300549
0.00446062785258771657
0.787980536066729575
5.7727239997840545e-06
-3.72803140473507014e-06
0.000822578715002397049
0.001601878462764847
0.601387766645796407
4.12958729297331485e-06
-4.60842454636502751e-05
-1.0769344880553252e-06
0.00487433447826874505
0.136810595658616335
2.49118231073126637e-06
4.23984797966084507e-06
6.43793935594965983e-05
0.000260880511804525202
0.00226829728130555205
1.76259249400962362e-07
6.40243498191807661e-05
2.02732595292567352e-05
1.30068639389359826e-05
0.000264099089985819747
8.94774889215555444e-07
9.21021597461326298e-08
1.11459646433042808e-05
2.42747884426181827e-06
8.19173837501677599e-05
2.60930255041262687e-08
1.34357672342789756e-08
3.76393006608919118e-08
1.32678679950622312e-06
2.47523745058278042e-06
1.1096573679418567e-09
5.99407723244492494e-09
9.12989652480423568e-08
2.87630240725457347e-06
3.23505855282757507e-06
3.50708051684079985e-10
1.30201682826020202e-08
1.30587127880523469e-06
1.83856487402010355e-07
5.67789462701533509e-06
6.12627656462400832e-09
4.9135140408089113e-08
7.68678404224862391e-09
2.71592391952970898e-08
6.33346414596274471e-06
8.62170575727851843e-10
2.99068449776239739e-10
2.23362152277569402e-09
7.01740124571975947e-08
6.60225682089381918e-07
1.60818459053943875e-11
6.9477669409610993e-11
6.51693486571825107e-09
5.99827315009385859e-08
8.47338525390920037e-08
2.69694536540161215e-12
3.99692848608811388e-11
3.63886694673482791e-10
4.10022551355835017e-27
2.12454288230107621e-08
-6.79416974141233565e-23
-1.03694318646065187e-23
-4.47892537740440874e-23
-1.00211291914525503e-20
-1.28396721650695459e-17
-1.80862614913186983e-23
-2.69281085768014689e-24
-4.182644559908292e-23
-1.12930828025908693e-20
-2.24992111948155088e-17
0.658997364024067833
0.953939844268095527
0.00409320285114270817
0.775355927146633706
4.73305420816246469e-06
-5.09172840724223579e-05
0.000870735361875950189
0.00170074685229136004
0.606534846672790007
2.52057963106506396e-06
-2.65108252371261201e-05
-0.000531440026579487195
0.00481295065912520567
0.19751220792348323
1.17264969176492914e-06
1.28505085432365109e-06
9.81431406958422232e-05
7.07476036431429366e-05
0.00539100134331115585
9.56049057366829649e-07
7.08792716181805944e-06
2.11980954936002194e-05
9.51156844796431579e-06
6.59046956205088788e-05
4.0435389721737607e-07
3.7025918875072455e-06
2.88324511857462182e-06
2.00205557014057681e-06
4.57986409277505945e-06
6.4573694937327991e-08
1.39125817993978829e-08
4.03133309510752394e-08
2.70021703556294409e-06
3.030337536428388e-06
1.36996978947017352e-09
6.02599640989877792e-09
1.58524038005798764e-07
1.33823671154993681e-06
2.24657874941533975e-06
1.34157989342857509e-09
1.84932689320256505e-09
7.22001457940942667e-07
2.08687274514240382e-07
4.87956069358614624e-06
4.29570480980656887e-09
3.75954015304124408e-08
1.22023443646732911e-08
3.92978060970341852e-08
5.88476533762905062e-06
8.71257770087443476e-10
1.243012782406682e-09
4.75255278639291465e-09
2.76305639343938496e-07
1.0981571917744273e-07
6.18327249799949575e-11
2.9514586010142219e-10
2.15491485095479706e-09
1.22682615932792287e-08
1.62952227919100474e-08
2.18803493564512254e-12
1.84512933965496182e-11
2.06042910515436072e-10
7.15341093162639799e-10
-8.49008989828732816e-26
-3.94002307408575643e-25
-1.0343500704987732e-25
-3.48545741233493997e-24
-2.55351957733855466e-22
-8.66490771995353775e-19
-5.68174838242118349e-26
-3.18256628685219429e-26
-3.11001444275571299e-24
-1.53396492952632631e-22
-1.36773061776623614e-18
0.00957515337120927457
0.0382529582356539236
0.00112550762688845064
0.0311226590414314802
0.00164398428805161709
0.000684649036745147788
0.000726824791021030408
0.00137057689527467848
0.0018879190928389241
0.000227553076386213836
0.000683875507813004992
0.0010807534644866508
0.00125101009755860084
0.00247581775878598972
0.000171559553757035373
0.000370407844194334018
0.000452635832336001234
0.00164325015939056386
0.00388642214578933248
0.000245182808914814945
0.000622275906932800603
0.000529356643864562501
0.000822609065756945215
0.00122645076739819926
2.33056550843745982e-05
6.89635164154645565e-06
0.000252431066230053894
0.000395344340066155467
0.00078142601197457725
1.17128619750682351e-07
2.06032738623922669e-06
9.41849925047831711e-06
0.000141381002686418735
0.000432881820057432528
9.63419288275139666e-08
2.0383139534965533e-06
8.95408914378748278e-06
6.95489907750879003e-05
0.000217455060462099382
3.32314048998355167e-08
2.44346383362856258e-07
1.26369578691375377e-06
1.0970904580890553e-05
6.3961122312831392e-05
4.74839809191739766e-11
1.85364421329729915e-10
8.081528491754002e-08
5.01202882008921309e-07
3.38947265811497121e-06
8.84041203330901618e-12
1.47874975253266074e-11
9.99682932381646987e-10
1.12825604395795861e-08
6.038149572153268e-08
-2.42660621476064518e-14
-3.26058384526542126e-13
-5.88672107361470835e-12
-9.20745641781413816e-14
5.84828928065792821e-12
1.10043133558292004e-10
7.04680393503901579e-10
-5.13689424665638558e-17
-1.54304237210011368e-15
-4.05393991997049007e-14
-2.32143908110768023e-13
-4.88567853966882152e-30
6.82426472544122204e-13
2.54472624317564934e-12
-1.36322828596748211e-20
-6.90450649371334041e-19
-3.38246895974678044e-17
-8.70405199018239188e-16
-1.49794551230117966e-33
6.80968312621209096e-18
-8.56655150274874565e-15
-3.2335819597167868e-27
-8.44942500734085613e-25
-1.38937238164365301e-22
-1.4038293736908796e-20
-3.23840036102106164e-19
-1.10437527429416278e-25
-1.75361866681191291e-25
0.00125178108961295593
0.00555116925359160594
0.000816880023245189816
0.00223305450369396452
0.00174231848529312651
0.000519038519017532606
0.0006530592985834454
0.00091156223937283393
0.00166541124917371215
0.00284227995252505587
0.00312744556944715302
0.0009862843249770169
0.000757332363644912026
0.00324502553835584288
8.46670124804458024e-05
0.000703275669861796408
0.00319143100779517054
0.00593151881353839137
0.00644869815598575393
4.17363000137177211e-05
0.00024520108409398049
0.00066654653098596479
0.00162161268341482704
0.000847363326721734368
5.89387849488656115e-06
8.83304789847821925e-05
0.000333723616061056948
0.000269770744113141344
0.000237628417647861183
5.01397228344215958e-07
5.41195332461374621e-07
3.60408008381781823e-05
0.000195241604384278542
0.000396635105683013772
1.47878222493129672e-07
2.71880202929968075e-07
1.39643182995162529e-05
8.68170771054065652e-05
0.000188256699035981668
1.39639032552732251e-08
1.57640356882358425e-07
4.97290311903451156e-07
8.65355466195301138e-06
4.10073401677627007e-05
6.16116238685865284e-11
1.44674536459712388e-09
4.04136362925580433e-08
5.9410030519874535e-08
1.06373101741137981e-06
2.64686778205556622e-13
2.72552652191764006e-11
5.64840998895868352e-10
9.62598164005868862e-10
2.90339178182212312e-08
-4.17662084889403541e-15
-6.48739754990394446e-14
-7.87322766652569562e-14
8.53945413008062308e-14
7.05654341077501873e-12
2.20308823980330284e-11
6.28816600705221576e-10
-1.69602444465583999e-17
-4.34939112040012381e-16
-5.79422132486889868e-15
-2.88013231410018867e-15
9.0482220952879821e-15
4.01529138389899031e-13
2.10225550662058621e-12
-4.22576607200850531e-21
-1.21670470213049695e-19
-2.94512162174359592e-18
-6.47873682109153562e-18
6.50578992088574336e-19
6.5057695849408221e-19
-2.40227290918123077e-14
-4.41856409455797273e-25
-4.82920799884957516e-26
-4.04020967526960686e-24
-3.89380591992672332e-23
-2.03359353215535197e-24
-6.554656259624746e-27
-1.32878465111715006e-17
0.00092183601859533869
0.00576015305000629214
0.000457651346204051321
0.000987633167498380964
0.000731910626128514275
0.000425544064308345355
0.000457898589038190171
0.000671952632768648534
0.00103572688877929522
0.00182545626878571595
0.000798499437173926874
0.000465230615769827993
0.000581736608339106752
0.000996662001169864708
0.000296933646215192073
0.00187305426936926547
0.00361033345824748018
0.00209292245207386585
0.00219560776345654974
1.51484470540942759e-05
0.000588498024572709226
0.00234280807298313173
0.00234642317767311823
0.00169488953487351851
5.94073849985389533e-06
0.000116436519225628863
0.000327380258792130791
0.000360560002357632322
0.000102137006319140742
6.51136313608862859e-06
1.55498867544575248e-05
6.34078447730760917e-06
3.88148662315750676e-05
3.17859745558101307e-05
9.2469388371535395e-10
1.35888206709318302e-08
5.10783670320146878e-06
2.97110935232151874e-05
3.63001685759046814e-05
1.01457697147509826e-10
6.06091645816672141e-09
3.9444412079101934e-07
4.84073048371752142e-06
1.1313426899489681e-05
1.26416422704658185e-10
1.99910547422868628e-09
1.76466756760447072e-08
2.35265715349088862e-07
1.95070055781314488e-06
-9.55145322550981464e-33
4.4688172088895258e-12
3.09009504118796913e-10
4.61541288238850294e-09
8.00205453256103336e-08
-5.59851223490732474e-16
-6.89134210948660941e-15
-1.11453475493225089e-14
7.21938996363791348e-16
4.1901505339972542e-12
4.77635828621483723e-11
9.54317751809096836e-11
-8.54218822373158729e-19
-7.34836384311511875e-18
-9.9630044418855288e-17
-2.66366149340016557e-17
2.70524687036362514e-15
1.20434117334278238e-13
3.59316224063917778e-13
-8.07160329354117182e-23
-3.65839148805495136e-21
-3.84165491587237243e-20
6.95641804379854863e-19
3.30502322366444466e-19
4.08333318550499575e-18
-1.74357970572841338e-16
-2.192575775701237e-23
-1.14169129191785013e-21
-3.49066538359071059e-20
-3.51072087208978094e-19
-4.85946473846430799e-22
-2.92916041624234065e-24
-1.26963217981820548e-22
0.000959686728954789502
0.00375329075237454055
0.000420580330331876749
0.000969361955239102951
0.000269660523336639557
0.000341942037452051145
0.00037514344516930689
0.000677458502698437379
0.00108719511550762192
0.000293358731113887929
0.000288287191957679488
0.000342652692140709369
0.000452744265055487365
0.000755777988489845435
0.000450119391540048069
0.00170535734589215239
0.00103529131360893768
0.000721309319946635214
0.000895503299843769139
0.000227410935562066829
0.00169867628023156981
0.0022515228852236233
0.002165801081074086
0.0020410615841979507
3.0520487418753131e-05
0.000519283151379562255
0.00067941110690300662
0.000573135687369241828
0.000310536462924579024
1.74213078519989468e-05
1.64106696187208919e-05
1.17831321689437032e-06
6.68646408976994694e-06
1.28945446747066542e-05
3.17991014821711691e-10
3.20130126809441882e-09
3.94314676351419819e-08
1.17829853962971786e-06
4.6711981769358685e-06
2.22790312220313882e-10
2.23018979285281133e-09
9.48528747932427571e-08
1.92694091181290572e-07
1.55967917190355885e-06
3.88839136078987364e-10
7.17963441863720856e-09
4.18543112076800994e-08
1.69221436013725134e-07
1.04023750372615668e-06
3.14017438522228537e-11
1.15392094386296146e-10
1.64002043942065157e-09
2.12950599304804151e-08
2.4605672189064777e-07
2.12414209542770787e-17
2.01309217438178847e-14
3.70370241874910349e-13
1.79012371582009797e-12
1.06869803524709427e-11
1.40273604235285667e-10
8.11602613864436469e-12
-1.32508885808852914e-20
1.47218283460705088e-17
5.21993761392717206e-16
7.54670503930237877e-15
5.71140115417018596e-14
5.95060628575596188e-13
1.38527409643038241e-14
-5.16272179408556823e-22
-1.32716602825406267e-21
-2.92801338932081566e-20
-5.98982264280616895e-19
2.02549202129164182e-18
1.76888530790416114e-16
1.22190537081169508e-18
-4.41966235368859032e-23
-2.97530852455261455e-21
-1.27115014086432918e-19
-2.68523615160127686e-18
-7.56749621563253045e-21
-8.99818079829840263e-27
-4.23464652720911564e-21
0.00072017730937327766
0.00133220760448854512
0.000479029086334625711
0.00112160201388160309
0.000149889463207195339
0.00028292270525557818
0.000611189150728438566
0.000867194166629815149
0.00216465206718926152
0.000101978493430886447
0.000200387408656157854
0.000495348032379926704
0.00068667172788559102
0.000859105424701288659
0.000395922545029530129
0.000346543674717736643
0.000463621492237219516
0.000711150538945946918
0.00057339178005651908
0.000185067819095312541
0.00188032668635235807
0.00208228514988796415
0.00201396828054352514
0.000744363575564759537
0.000161504311485290364
0.000715126425471391582
0.000652786685517431592
0.000415292213752144722
0.000417204054585765824
3.41645910450528594e-05
2.55458213662311266e-05
2.31692041783437843e-07
2.01099489685991717e-06
7.33417472675943283e-06
1.25589554554456183e-10
1.3117154679353702e-09
1.12354041670416841e-08
2.31705140404585129e-07
3.43664235263405642e-06
5.41980493203987152e-10
4.93466220931371442e-09
1.08770534338846682e-07
1.29948528474688654e-06
1.01764640055025579e-05
1.28206102842414716e-09
1.10691751121360442e-08
8.66802708559699449e-08
3.5751005880642521e-07
6.60790636955039184e-07
9.28098294162372442e-11
7.26702792388082426e-10
6.72385953959243178e-10
1.34235346929554906e-08
8.04942072025284389e-08
9.74202768752968906e-16
2.68436036783869281e-14
1.2417120205755118e-12
1.53170373305497727e-14
1.69967564393564501e-11
4.10760097384159565e-10
8.92727273103530741e-09
3.05646073820864979e-19
3.20258835545117087e-17
2.9725254757713003e-15
1.05831713367503768e-14
6.41501794667753929e-14
2.10969054120027936e-12
6.98542036472111909e-16
-2.71964518833951195e-23
-1.25976106706315466e-22
-2.20967937241172654e-21
6.52320392301519439e-22
3.45464399524047763e-18
2.76852811908887826e-16
-5.09409096909248525e-21
-3.63447954595522661e-24
-2.26010885715021254e-22
-5.29605914061048881e-21
-6.79829916389094038e-20
-3.64250362817651992e-22
-3.69854867505522469e-29
-3.36080691327004702e-24
0.000983097944305022899
0.194316623587998061
0.000966987337994379111
0.072587743032745039
0.000123785967471586359
0.000410252231757989483
0.0016946161783951137
0.00305360057473643559
0.00585417640655040705
7.36861610034539625e-05
0.00110679074165774202
0.00254083544873270808
0.000793918223323355913
0.000554711816358170132
3.6649149042263856e-05
0.000178118310883067178
0.00036418039986978938
0.000461374430139146975
0.000415392527145760037
0.000223639452227419172
0.000702761951904181119
0.00109861489588923555
0.000675654072121720088
0.000291512115591054642
0.000199959772356167833
0.000366260179412637992
0.000183968042090257343
0.000204444024797645948
0.000188701898399492842
1.38650079716531078e-05
1.61080537663789449e-05
2.31628950862013295e-06
1.04074913487968033e-06
2.19003291697901467e-05
2.00329923074758731e-10
1.01559754601648732e-09
2.58180841875036631e-07
2.60857296701613331e-07
9.45299663140734759e-06
3.80807736279832117e-09
3.36797793079738278e-08
1.92970145381807046e-07
7.1361829703937922e-07
1.15589575635847468e-05
2.37210965093659829e-09
1.24380796140101044e-08
3.93484716906858959e-08
1.360313869684252e-06
2.39827599346230849e-06
1.40094690512951484e-10
2.28022626593505303e-10
1.23284783786406613e-08
2.54399684599703482e-10
2.60462163907131472e-09
1.74632108435516016e-14
3.54332929934596571e-13
1.98064842395693287e-12
1.00636230452654246e-11
3.77457599644885805e-15
2.16195910858041123e-12
7.16095931859282301e-10
1.22926586012048918e-17
5.30305952258916388e-16
1.14630516346443228e-14
6.51094760876130436e-14
1.64398748550714626e-18
1.60990577289229083e-12
4.89903081973383061e-12
-8.40534067217704862e-23
-6.54025828033168227e-22
-7.34354699256017609e-23
2.63276712425321588e-19
1.23116828220990388e-18
1.77997871387669833e-16
3.34246089646678737e-24
-1.13205361452189234e-22
-1.43253846303444679e-21
-1.05579036669075647e-22
-1.24168004784576939e-21
-1.07046187866372668e-23
-2.03804637182582411e-27
-4.41294979722897922e-25
0.00226874649007821269
0.684612250306084968
0.00151567773494460994
0.523577183539794211
0.000225056055946032049
0.00052761998216530276
0.0042897288769024617
0.0262965616482488396
0.0347138358306310971
0.000411851050594687048
0.00247736053826339746
0.00255705150382786774
0.000846211341625051849
0.000993630970611069286
9.94917025707381863e-05
0.000620557103281710321
0.000651034895013862056
0.000227579917296537283
0.00114071396046525921
0.000108030136109290811
4.97854994881890216e-05
3.25099427391929816e-05
0.000151960999430890995
0.000482911680487689294
5.67411844538756127e-05
2.36035707204258417e-06
2.06041454179629432e-06
1.52393026519020574e-05
0.000218775199623501098
7.28110064523342318e-07
1.04111525171593472e-06
4.73974616908454235e-07
4.5585017138035372e-06
4.44317805724916956e-06
2.59593964192914905e-09
2.87927231132690106e-08
4.53581974262695546e-07
1.37043208402464375e-06
4.46925367303115102e-06
6.35662687163362972e-09
1.03787340738540472e-07
4.93393272484645316e-07
8.16691691339568503e-07
1.23506606861687248e-05
3.28589813300512373e-09
1.52105342534328071e-08
8.92970263034268461e-09
1.24804455829274032e-06
2.10583050675448077e-06
1.36655812128972692e-10
1.93296601127879089e-11
6.84471968152634235e-09
1.43977908412959829e-09
1.57028471522011301e-07
9.58304228675005873e-15
1.03048601714284614e-12
7.2333950007878764e-12
1.37032283439693422e-11
1.74397245557240656e-10
6.51427980377053936e-10
6.27844743671244173e-11
2.48604183232957231e-19
6.66864434211057589e-16
4.25761784942884106e-14
2.70423481290878205e-13
2.11598900254254816e-13
6.99774599941499778e-13
8.77110276271295098e-12
-4.93298912645869467e-24
-5.92436363785883179e-23
-2.73783626032459733e-24
-3.62063484391683245e-35
6.04664683353408031e-18
3.52151455651783304e-17
-1.09602484749441505e-17
-2.1648296634248198e-24
-3.28138768323969591e-23
-1.66900040080897209e-24
-1.92511323022797537e-23
-2.38655498826826429e-25
-3.13772254184060017e-20
-5.17058033720212142e-17
0.013239824501932047
0.861418183643310909
0.00308174073047962288
0.718016963611202153
0.000181899296617414347
0.000285657815445270369
0.00335133874054115372
0.0214669201827626666
0.200931294974571628
0.000267874634097783806
0.0013239109465472338
0.00215986871134615007
0.000213629061247190029
0.000580356341026324989
0.000205063718396363486
0.000484466265073450297
0.00012829362317139128
5.99075185390133576e-05
0.000161455102012345394
4.56851600604277115e-06
1.19463040560140351e-05
9.03710610822689215e-06
3.65743902815472797e-05
0.000109201847315892973
3.84021943293766088e-07
4.0886996447016804e-07
9.25637936725360952e-07
2.7779470928680138e-06
7.01285699220692717e-05
-2.96073708684593377e-11
3.79423318434705975e-08
4.05404481824846156e-07
2.66666090813405344e-06
3.61381704069035007e-06
2.67489813737308605e-09
2.05353842456653875e-08
6.03750104065521383e-07
2.40121994100645545e-06
2.72084569030668755e-06
3.86539886551420661e-09
1.00649980289039205e-07
4.72186511649666956e-07
1.46343539866309182e-06
5.15413811616149033e-06
3.69919990635632691e-09