/*--------------------------------*- C++ -*----------------------------------*\
| =========                 |                                                 |
| \\      /  F ield         | OpenFOAM: The Open Source CFD Toolbox           |
|  \\    /   O peration     | Version:  2206                                  |
|   \\  /    A nd           | Website:  www.openfoam.com                      |
|    \\/     M anipulation  |                                                 |
\*---------------------------------------------------------------------------*/
FoamFile
{
    version     2.0;
    format      ascii;
    arch        "LSB;label=32;scalar=64";
    class       volVectorField;
    location    "0.420000000000000151";
    object      faceTraction;
}
// * * * * * * * * * * * * * * * * * * * * * * * * * * * * * * * * * * * * * //

dimensions      [1 -1 -2 0 0 0 0];

internalField   uniform (0 0 0);

boundaryField
{
    inlet
    {
        type            calculated;
        value           nonuniform List<vector> 0();
    }
    outlet
    {
        type            calculated;
        value           nonuniform List<vector> 0();
    }
    top
    {
        type            calculated;
        value           uniform (0 0 0);
    }
    bottom
    {
        type            calculated;
        value           nonuniform List<vector> 0();
    }
    left
    {
        type            calculated;
        value           uniform (0 0 0);
    }
    symmetry
    {
        type            symmetryPlane;
    }
    interface
    {
        type            calculated;
        value           nonuniform List<vector> 
67
(
(0.00253993359154676846 0.00472985517042137128 -3.0145070860623191)
(-9.56741013053308156e-05 -4.64490778282863117e-05 -0.797492749542609292)
(-0.000113651143449759246 -5.14975381220325349e-05 -0.981380887170707927)
(-4.5147347541699446e-05 -3.39497361623015311e-05 -1.02368097979264694)
(-3.93309037325028252e-05 -3.96106890927686611e-05 -0.980864027177192455)
(-3.91053493866215282e-05 -4.27592904244251113e-05 -1.02316733867019716)
(-4.19387376346410417e-05 -4.39229861915057276e-05 -1.09313270618759883)
(-6.07324108226103129e-05 -2.02830863728010644e-05 -1.02234935038834895)
(-5.84162985371130579e-05 -1.93741720322173132e-05 -1.03890696873859811)
(-5.43942594919677504e-05 -2.54226820349258659e-05 -1.07896447423923325)
(-5.16722302275584626e-05 -2.96946843522514464e-05 -1.09560516161127053)
(0.666033788092122214 -5.54853435138918294e-06 -3.80220340560576459e-05)
(0.747918422019892559 -5.31232529136487415e-06 -3.57216845224718195e-05)
(0.8167356367007087 -9.63421806540881604e-09 -3.26754977195407745e-05)
(0.622393189650839007 -1.60015713425165104e-06 -2.44346487160685274e-05)
(0.705674417985843738 -1.22245226898418432e-06 -2.33741947614065264e-05)
(0.77994373457970001 3.94944359605134883e-06 -2.12999638345779222e-05)
(0.598944482750252694 7.31844419422401259e-07 -2.10481084772312352e-05)
(0.682133368951561958 8.51870214182905012e-07 -1.97535852215571737e-05)
(0.757439128884999535 5.58361866017806382e-06 -1.86967175122860888e-05)
(0.585402545337505242 2.50255213556415877e-06 -1.44915642446450145e-05)
(0.668395953600872339 2.56290608940981785e-06 -1.38099708019124622e-05)
(0.743385983415791873 6.79665607617267189e-06 -1.32659955461489256e-05)
(0.573985470521305219 3.93142960496382819e-06 -1.19602336867543047e-05)
(0.657066127279274825 3.91342017948244553e-06 -1.12835131493649787e-05)
(0.731847883755643913 7.7786733943231833e-06 -1.07640593824196382e-05)
(0.565712506054023789 4.97744198214791145e-06 -8.02616443873641667e-06)
(0.648970826590154148 4.88857386736112768e-06 -7.58959132542288619e-06)
(0.723644562649195966 8.47225388829669594e-06 -7.28370234189078914e-06)
(0.559091010665238142 5.77211941723188352e-06 -4.92709640571477489e-06)
(0.64263943451297767 5.61147426476239424e-06 -4.64227118225350878e-06)
(0.717456809425254471 9.06485748696358253e-06 -4.44202893305935903e-06)
(0.555676013369730826 6.17343263049015683e-06 -1.63897275624912886e-06)
(0.639344376056318553 5.98039654559617315e-06 -1.54368620434416777e-06)
(0.714166175165616646 9.17948233436601864e-06 -1.47731105901737541e-06)
(0.00216193564169375654 -40.5098533401548977 -0.00589325774214621151)
(0.00435811364519414143 -48.8086912287004751 -0.00604809884666943076)
(0.00353514800676769459 -50.773992978387021 -0.00515120610536060064)
(0.00513644910114378125 -55.347404623305863 -0.00348007976083523733)
(0.00458974483251037204 -65.1239747729614606 -0.00359787305431202159)
(-0.00109028904339413652 -68.9332834764549887 -0.00174932044580897064)
(0.00584881328952672076 -59.3467157363552573 -0.000965598424174911253)
(-0.00451137849437914778 -81.3459850698345832 -0.00405157569006602946)
(-6.08316975782901428e-05 0.481826005598717522 -1.49714510084827011e-05)
(-4.38787258831948359e-05 0.328906976194006606 -1.28036250603076334e-05)
(-4.16677507129889171e-05 0.252337263912517651 -1.0535255764155853e-05)
(-4.00560481128036419e-05 0.180170977849595959 -9.11830708758975218e-06)
(-3.18762242201079188e-05 0.122387323614202001 -6.62561748199372203e-06)
(-3.49904972778697902e-05 0.110477098551539241 -2.35955246866301904e-06)
(-5.75063931663931542e-05 0.0922832110343405759 -1.06539236916290162e-05)
(-2.35114266344130215e-05 0.00341835274951980813 -6.8841458383045341e-06)
(-1.91263294203880721e-05 0.61972365940489782 -1.62109624396296192e-05)
(-1.46276861304928868e-05 0.516901529099061952 -1.34019965586606486e-05)
(-1.16506563456151852e-05 0.442509431971278233 -1.12396617149610613e-05)
(-1.02887397205623616e-05 0.396865409697723326 -8.40376313248442449e-06)
(-9.87378274978950185e-06 0.361728601353451029 -6.56074478267434215e-06)
(-9.41852833764631779e-06 0.343577392588557518 -4.90777085859454153e-06)
(-8.63644326827054725e-06 0.331746758302944811 -3.89292989390885317e-06)
(-7.48579289415836745e-06 0.303645658655278594 -1.63334107123042759e-06)
(-2.50884052296689574e-05 0.694647611884058214 -1.41282192659188042e-05)
(-2.32424481730196162e-05 0.626316777168929639 -1.12855901399190078e-05)
(-2.09582366461885069e-05 0.583756018286593625 -9.83675931054466885e-06)
(-1.99224708202093339e-05 0.558538916005672625 -7.36392320937951707e-06)
(-1.87380509233527835e-05 0.539647485405627569 -5.84868854801133581e-06)
(-1.76232751591831418e-05 0.526336727881617561 -4.2565182542553281e-06)
(-1.75258759832872797e-05 0.517633324401612693 -2.7321315839903979e-06)
(-1.51126935706534583e-05 0.511095668536639125 -1.02116242038411939e-06)
)
;
    }
    procBoundary1to0
    {
        type            processor;
        value           uniform (0 0 0);
    }
    procBoundary1to2
    {
        type            processor;
        value           uniform (0 0 0);
    }
    procBoundary1to3
    {
        type            processor;
        value           uniform (0 0 0);
    }
}


// ************************************************************************* //
