/*--------------------------------*- C++ -*----------------------------------*\
| =========                 |                                                 |
| \\      /  F ield         | OpenFOAM: The Open Source CFD Toolbox           |
|  \\    /   O peration     | Version:  2206                                  |
|   \\  /    A nd           | Website:  www.openfoam.com                      |
|    \\/     M anipulation  |                                                 |
\*---------------------------------------------------------------------------*/
FoamFile
{
    version     2.0;
    format      ascii;
    arch        "LSB;label=32;scalar=64";
    class       surfaceScalarField;
    location    "0.420000000000000151";
    object      phi;
}
// * * * * * * * * * * * * * * * * * * * * * * * * * * * * * * * * * * * * * //

dimensions      [0 3 -1 0 0 0 0];

oriented        oriented;

internalField   nonuniform List<scalar> 
20536
(
0.000277111350212556895
-2.23647621702812924e-06
-0.000486436104537748279
0.000363025703495058975
0.000297571639447395805
-0.000584049734995579052
0.000714616386134555594
0.000263190959724486466
0.00018997061892423589
-8.87583021313045461e-05
-0.000110644556663868937
0.000102256869418314934
0.000103871244955739566
-0.000456338972159825874
0.000531278768236865661
0.000308730828214941893
6.97981446405983655e-06
-0.000120790664560568048
-0.000125074932990957037
-2.17574642818452982e-05
-4.63178783926154096e-05
5.8785948610514142e-05
-0.000770109411126066075
0.000784094628741017737
-0.00026884697960140487
0.000360212854663326818
-0.000194605115924148682
0.00016899520716798065
-0.000243565482992150889
-0.000136441420654135823
-0.000263529401471419671
0.000285933465263082769
-0.000526231285449327638
-0.000359814006384459877
0.000398388734636970785
0.000347959914245308589
-0.000288939127642631483
-4.92515737872870453e-05
6.15886090454012504e-05
-0.000161605113550872368
-0.000151274799251864089
-2.32338471872730516e-05
-0.000239280836554582848
0.000183648848687660744
6.42314782386214358e-05
-9.56840813664233247e-05
-3.95298611135866396e-05
0.000279921264673788995
0.000192325254760889386
-0.000533786619596393684
-0.00017814282441242597
0.00044738601246105251
-0.000185094127294396852
-0.000416730447119881134
0.000255077499935315569
1.28501735537633888e-05
6.62515432070076137e-05
-0.000162111539245816559
0.00043400776232705579
-0.000366675825279850001
0.000123834998958408121
-0.000186343254486268106
0.000399449166985354652
-0.000293934602911778914
0.000330998273863021553
-0.000251049458898166525
8.1307755720739838e-05
-0.000133108131868601054
0.000196822513840630832
-0.000383122047272434511
-7.95686059712325645e-05
6.30841648568803657e-05
-5.22206744958254217e-05
-0.000412242532956049465
0.000460702518911487518
1.54996868216166514e-05
0.000182353782222441938
-0.000189433648183832943
0.000378109186330631488
-0.000454979927838805728
0.000282483333752970992
-0.000194391364458839413
0.000259603835436055907
-0.00035167827484254891
0.00032102676646407534
-0.0002164814382673125
0.000111204092098175441
-0.00018431571310491656
0.000217483020929845047
-0.000196414606449246947
-0.000125708464777752834
4.25454338531823094e-05
-0.000116171861918251787
-0.000279284044877211245
0.000227714661198586885
0.000333004888081208966
0.000198891417399837435
-0.000197392648270003335
0.0002894557189674273
-0.000383936584357882753
0.000298603267237937766
-0.000209863859463979335
0.000250025220209405472
-0.000334268674120281059
0.000385681777731302397
-0.000238958701054207631
0.000178059791572880726
-0.000242657737870743121
0.000471352243529654744
-0.00024388058168405409
0.000116670223581324562
-0.000154877697213035476
-0.000251087261636336501
1.9621860964845374e-05
-5.46404234558219807e-05
0.000641289835054885556
0.000200266599192551936
-0.000211703070560548902
0.000178434599520919609
-0.000237170287209209683
0.000277267193470741205
-0.000229764692186604019
0.000178459129755476146
-0.000235557800525251239
0.000352554380420178526
-0.000261883861186460658
0.000156720030636317651
-0.000209093278004787362
0.000434240667779184721
-0.000288830781792010426
0.000124520966672659597
-0.000161255876739253937
-0.000314454631979131118
4.2718995312155021e-05
-6.73254072957772882e-05
0.000522220990468688618
0.000181248891521455357
-0.000235042381546321586
0.000120158059338647776
-0.000147824896005290158
0.000236737354475210002
-0.000253231316006699407
0.000127739243915021432
-0.000159773386749324369
0.000293533944010487791
-0.000284722075868787817
0.000125796440011295913
-0.000159756899046261368
0.000363780510022118685
-0.000328688839133943478
0.00011622494918354565
-0.000146608321994926873
-0.000367773913564106421
7.10621579795751054e-05
-9.95575632134042276e-05
0.000445592402549257842
0.000150293601358431197
-0.000252651859885235231
8.99085711370312308e-05
-0.000106895651905728956
0.000187118746613087713
-0.000270209598284066428
0.000100132726991807326
-0.00011998495933070157
0.000223631167579705389
-0.000298644940174055452
0.000106496114019813995
-0.000129089143091323279
0.000258683070914830109
-0.000339464224637153538
0.000104168107278805139
-0.000128448246882759598
-0.000387129917203160156
7.00722419845926448e-05
-9.65759974572841164e-05
0.000304547059918426296
0.000120468361672852758
-0.000266198749686060343
6.98842525207311969e-05
-8.01513003402315656e-05
0.000143767772633141434
-0.000281008402962438716
7.87410407030346627e-05
-9.12473945703064568e-05
0.000163310902867241751
-0.000303041720310240098
8.69224518887980879e-05
-0.000102073125689378959
0.000173686144104694395
-0.000332820149850966977
9.07394602512702416e-05
-0.000107752549006188771
-0.000372232327132244914
8.18191443130174929e-05
-9.65563473193663301e-05
0.000173528553842312882
9.33967895765722947e-05
-0.000275624906046939328
5.42639926318009866e-05
-6.08446382451060399e-05
0.000108258897388714586
-0.000287693156649508142
6.16239866923896744e-05
-6.98045062561480169e-05
0.000118677666194360449
-0.000303400578851627982
6.90622929614385526e-05
-7.91212450014959555e-05
0.000120670987336646369
-0.000323284399949227616
7.59675606323753622e-05
-8.74998556660797766e-05
-0.000347802539692089767
7.83094981359494394e-05
-8.92998973048177695e-05
0.000107226356846968891
4.84721395595648114e-05
-0.000266409095548911506
-3.26943101427129869e-05
5.88779286887801664e-05
-0.000273368543646450302
-3.88665107378776667e-05
6.97995781436332825e-05
-0.000282055758182410052
4.11119842493288287e-05
-4.56051459623762473e-05
8.03136386043204812e-05
-0.000292551311199133355
4.71043366163199367e-05
-5.27641325335684552e-05
8.84728476126005799e-05
-0.000304644945482039414
5.3100418709475054e-05
-6.00233774659837739e-05
9.1467655207077528e-05
-0.000318153002790436882
5.85439769193445242e-05
-6.66802109683858868e-05
-0.000332200110783746811
6.07019340096599995e-05
-6.87611974710986918e-05
8.39230710783420402e-05
3.40994880560218934e-05
-0.000271067903173637602
-2.31116732397736487e-05
4.11853047029843197e-05
-0.00027822540422964997
-2.73847042277309131e-05
4.88068336383056165e-05
-0.000286805500367293554
2.93755943466380225e-05
-3.22486192325932282e-05
5.67912025581304985e-05
-0.000296890822782296029
3.41641879008425974e-05
-3.78145244042705443e-05
6.50167100686531565e-05
-0.000308325491067238603
3.94294925053281713e-05
-4.39816702573199059e-05
7.30856243287522124e-05
-0.000320646041907842762
4.50812105651919213e-05
-5.06598030990201376e-05
-0.000333241117409189159
5.13901946581245947e-05
-5.82986008428893412e-05
8.103208818879041e-05
2.00231153422576307e-05
-0.000273611686642880514
-1.36031940152543035e-05
2.40402566720296999e-05
-0.000280958529511391754
-1.61395559475570495e-05
2.86573677094862595e-05
-0.000289767487070576599
1.749975744078938e-05
-1.91543206243541944e-05
3.40895554441047105e-05
-0.000300209551858953078
2.06890502379618394e-05
-2.28033257679636489e-05
4.09185842545636646e-05
-0.000312446909216436322
2.45918912396563235e-05
-2.73013909353118003e-05
5.02413132327372695e-05
-0.000326684425850873653
2.96136682292444899e-05
-3.290085786802522e-05
-0.000343277815666941934
3.62302458972702551e-05
-4.01587515524061417e-05
6.42025663156482453e-05
6.60516619271233783e-06
-4.45212507705448066e-06
7.90169361379750746e-06
-5.30098156684780035e-06
9.42127342752924839e-06
5.77309716093535785e-06
-6.32844918934053337e-06
1.12780568965646974e-05
6.86749730993867617e-06
-7.5893168437201937e-06
1.37523795706152001e-05
8.24795802921574666e-06
-9.19213110145244064e-06
1.73491350561835958e-05
1.01587658379389891e-05
-1.1296269996303506e-05
1.30112973322421518e-05
-1.43717549662621056e-05
2.33172767041928268e-05
0.000294902494776082399
-0.000327658788104900553
-0.000391670548936546333
0.00035412771556706256
-0.00046524730766426734
0.000287601341452742125
0.000170155524701842698
-0.000366122622519555411
-0.000165441859097371154
0.000169102024067687047
-0.000404098258652032171
0.000302942653482247265
0.000852754290551155239
-0.000637586756303328115
-0.000368292930226260811
0.000700870598935588113
-0.000417860846184480491
-0.000518128344941515967
-0.000159821317837329467
0.000682977340723905663
-2.60064714883246955e-05
-4.04453232715771063e-05
-0.000595729026951295065
-0.000153303427133436509
-0.000294801836922555481
-0.000283511658236747243
0.000347155702485255708
-0.000429487661251268574
-0.00030083222396364549
-0.000169522655715706959
-0.000378626374101842999
-0.000321529201318372757
-0.000386470202696284322
0.000437375532719631312
-1.4951757545160607e-05
-0.000157578019534619597
0.000347625387845532281
-0.000596838883515411257
-8.72626636710245552e-05
-0.000223779009729205031
-0.000276659033325234074
0.000136530196009039886
7.22462403264168473e-05
-0.000246316346480704212
0.000355366197399731136
0.000133765165405455626
-0.000205736217802577823
0.00022212465318004063
0.000504906302706726066
-0.000154627535433017919
-0.000150145700727915356
0.000344962239530155403
-0.00030874404728942678
-0.000207716568067248231
-0.000111573777053034572
-0.000271924923876768105
9.24409533941449382e-05
0.000136885819290166202
-0.000242253467392230794
0.00029862963598531418
0.000185994842992668247
-0.000226620249727465238
0.000231391199307426365
0.000253362323986271653
-0.000211843092885884854
0.000101056622938743181
6.24615545783556339e-05
-0.000190578653435694419
-5.29615299696351426e-05
-8.29574170315793393e-05
-0.000295865269172692626
5.04310008067427126e-05
0.000182733341654893477
-0.000222396353734384479
0.000177915376677783942
0.000277079813174049914
-0.000233405329237398933
0.000162457197268004605
0.000380393977211401671
-0.000249692060229293159
0.000112603947613056768
0.000502497775293479451
-0.0002569096255525981
6.089675343457554e-05
-0.000227401481273593095
-4.73856034671792169e-05
0.000713947491364097888
0.000194032543060546715
-0.000230105838214088098
0.000110946879659459902
0.000266869831191661271
-0.000247111706877190408
0.000119326337891263257
0.000338076708424597556
-0.000271619351898594373
0.000107430627549861461
0.000421274982039440563
-0.000301352265417870473
8.57661281851855345e-05
-0.000320100947737001536
2.04245084795203364e-05
0.000536272921561461221
0.000187185237988170923
-0.000248354421391627431
8.75816356779237113e-05
0.000238172467154885829
-0.000266086896102851115
9.57141292172430512e-05
0.000290947767718959861
-0.000294010999152341144
9.54137077771798037e-05
0.00035494097741397548
-0.000335364546247756497
8.6243035156000338e-05
-0.000366581285376081157
4.32018577363854124e-05
0.000429285379006858836
0.00015986779182959013
-0.000261852538563782519
7.23325222236820341e-05
0.000192825480555755275
-0.000279138573110591221
8.02167510374096507e-05
0.000227271248676561927
-0.00030658662391406399
8.46210992678149984e-05
0.000259423190999653972
-0.000345977942837797606
8.26329071767917939e-05
-0.000385660736711678279
5.27017952671838348e-05
0.000295878561818172187
0.00012738890349494491
-0.000272980242304311901
5.86548345230103249e-05
0.000149823543944589395
-0.000288430069505892959
6.55931794539396575e-05
0.000169043329069646763
-0.000310737968740224381
7.18588656616687196e-05
0.000179077759264110331
-0.000340664582549960219
7.53906832390968857e-05
-0.000377033421502875605
6.60304796775827593e-05
0.00018623364618597035
9.87973956621917811e-05
-0.00028150901858110198
4.67070823587002211e-05
0.000113583655225293185
-0.000294284619197694546
5.26871377743225958e-05
0.00012361871487839149
-0.000310472534375356253
5.87553745483223455e-05
0.000125536625652946591
-0.000331009693249698317
6.43832378295089317e-05
-0.000357241216693904144
6.59897044904437998e-05
0.000118062233966926137
7.44182959673241398e-05
-0.000287314347699910144
3.59925500605434365e-05
8.45627863089723822e-05
-0.000298309954460008499
4.09762735768403558e-05
9.19392132414873902e-05
-0.000310749549227447189
4.59901286756174483e-05
9.3171282923211517e-05
-0.000324452417004183493
5.07498959226464601e-05
-0.000339174958990738574
5.36551173612035535e-05
8.21490560458836889e-05
5.24814176658756681e-05
-0.000291834376615723509
2.59046780889367105e-05
6.08831762738176383e-05
-0.00030257201839382729
3.00192958154414393e-05
6.94868846309531856e-05
-0.000314554345800948515
3.46244636806438473e-05
7.72790110677514007e-05
-0.00032708225468972284
3.99146738552103849e-05
-0.000339115464203779658
4.62972533322246851e-05
8.23068937186138795e-05
3.11731723540097886e-05
-0.00029483934253182395
1.54971759170507943e-05
3.71594422176982657e-05
-0.000306139352134585519
1.82695218237362133e-05
4.48345739112099761e-05
-0.000319356345069087152
2.17175868701518733e-05
5.57547070193321201e-05
-0.000334699580158087033
2.63107627501710586e-05
-0.000352458320896172636
3.27476756598381609e-05
7.25838252848968243e-05
1.02925372481786661e-05
5.08529109321928923e-06
1.23833832677313946e-05
6.04145579150983583e-06
1.52234956697995164e-05
7.2628047689472688e-06
1.9571877841288968e-05
9.00965561985932716e-06
1.178031652347101e-05
2.70126061100724085e-05
0.00028547022480637221
-0.000250376303355595922
-0.000340723333938961793
0.000393984565066498639
-0.000369801151727700938
0.00029585321440684406
0.000234829519567662098
-0.000341915610076421166
0.000103975686312175432
0.00024881158725363812
-0.000329070902535424697
0.000304975037876753085
0.000973488273027316468
-0.000926240537330227454
0.00030681756373967476
0.000222663625695226431
-0.000959306260628738799
0.000546299788447556357
-1.0649886511671959e-05
-0.000355340157463966395
0.00020127745588898103
6.24939880149392307e-05
-0.000353039832803326604
-0.000215323820593010112
-0.000108655588470518011
-0.000219662618819850558
0.000356111824984004985
-0.000259985354832426149
-0.000855454571271058303
-0.000189216082510302544
-0.000331652244686886518
-0.000947642590106916516
-0.000326482801719280382
-0.000164356659866057706
-0.00020390822175648637
-0.000476313134612559291
7.78832081276877725e-05
-0.000341721953101308397
-0.000340813578615770834
-0.000236913951983059684
-0.000277494573900552714
0.000206978040293656455
0.000148706957430958214
-0.000442816938735651777
-0.000151486029231107599
0.000274618874885967348
-0.000397120166923118712
-0.000454275615124653386
0.000525554013442257524
-0.000216803092882600595
-0.000388192615201048293
0.000408350808139768624
-0.000187086821543400953
-0.000245154831140583743
-0.000120105891970551215
-0.000129165762636075209
0.00014878432381478391
0.000147819134663513348
-0.000278344917055290731
5.43483533068038726e-05
0.000220542130191556378
-0.000256860805257296747
1.83796153103408817e-05
0.000340470232059762734
-0.000213105758400725114
-2.25658549322755184e-05
0.000393167506485565658
-0.000164403745466095379
-0.000128333651165701688
-0.000124939788919813094
-7.9939122090625812e-05
0.00018207947869391513
0.000163870764107162514
-0.000236119214078114197
6.82417804660729807e-05
0.000240195241361304681
-0.00024467983726453649
7.39653773356794268e-05
0.000341923492748172071
-0.000250964927220948084
4.87244884418547213e-05
0.000436224913681136422
-0.000257245163141913032
5.94349655369872911e-05
-0.000215892117859750306
-8.02465298313897573e-05
0.000560040906613979025
0.000199727838024355985
-0.000240281090421124973
5.72185960587911918e-05
0.00026231070321437066
-0.000255676688256823261
6.77221415684746213e-05
0.000329520898199362085
-0.000276160777406818077
6.5414058504265879e-05
0.000410879072481746578
-0.000306082354997775806
5.32488421874145225e-05
-0.000318923161735739367
-3.84954127676007354e-06
0.000538181678806629493
0.000192804981687094007
-0.000255676041923714212
6.09848592910726273e-05
0.000238186422421693368
-0.000272371776965739615
6.70249968553884244e-05
0.000287443108384520345
-0.000297388858289090671
6.73817938737478515e-05
0.000342245887720661547
-0.000335769016179518205
6.11234235329960999e-05
-0.000366488346781143831
2.45659091421757399e-05
0.000408449530173125093
0.00016441683980225922
-0.000268581780215334934
5.60295146271478912e-05
0.000195890583459280181
-0.000285085568135236202
6.14510251793539547e-05
0.000228491978336458793
-0.000310440673918484266
6.50693099607831517e-05
0.000256564943285030956
-0.000349062166818717829
6.785032530341895e-05
-0.000385464135219938458
4.28649349544980602e-05
0.000285377909108025692
0.00013259651618395863
-0.00027874454245847152
4.68782794972319458e-05
0.000154673005095295687
-0.000294136770099193146
5.25641526198392114e-05
0.000173887480500566457
-0.000315823494286806108
5.80245501030109801e-05
0.000183256123417890865
-0.000345310189967316548
6.22622216808547653e-05
-0.000378269636213209319
5.23009977958736189e-05
0.000189787498369063402
0.000103380350332072288
-0.000286338901964800342
3.83996120865420714e-05
0.000117994757440462248
-0.000299530161903769254
4.34640240632483245e-05
0.000128326943042774436
-0.000316013344555974381
4.86067804723950474e-05
0.000130416976945831422
-0.000336336040315742349
5.33148632207590585e-05
-0.000363011021185486468
5.62836095918705964e-05
0.000124864641246343625
7.8252810170551261e-05
-0.000291691051756825289
3.03122736451485843e-05
8.83149324868639921e-05
-0.000303083404280318151
3.4463229027143928e-05
9.53270715711777535e-05
-0.000315772801212528152
3.87323117593552712e-05
9.62011435709889828e-05
-0.000329593581158269986
4.31323561089169447e-05
-0.000344784774003689697
4.64274978227303056e-05
8.52018827717865914e-05
5.56989394188819664e-05
-0.000296145017437901537
2.19706550196867294e-05
6.45416801927085177e-05
-0.000307387095353409091
2.54771545826600474e-05
7.36936980743911803e-05
-0.000319789088459837827
2.94886766119397884e-05
8.218990091565746e-05
-0.000332565187398828983
3.43909589772767465e-05
-0.00034449566484996252
4.09404030724296587e-05
8.72584081363392971e-05
3.33343945892560888e-05
-0.000299265368129720774
1.32165993172037713e-05
3.99148441279215176e-05
-0.000311283103676323746
1.55867541410751521e-05
4.85636211234027676e-05
-0.000325321784995840572
1.86049161160911839e-05
6.11295716463232174e-05
-0.000341600072503317053
2.27830952155875018e-05
-0.000360369000452739007
2.88765353713208867e-05
8.08787238278964993e-05
1.10380784402384846e-05
4.32278642386722867e-06
1.33621110093476443e-05
5.13109606619108704e-06
1.66201203532987654e-05
6.19941584246178793e-06
2.1768539845890327e-05
7.80219615865729615e-06
1.05951583180876565e-05
3.07806038158279718e-05
0.00031051477286674642
-0.000302928457764011644
-0.000230877020298265149
0.000418396459464432399
-0.000277640061417869547
0.000313491852114349944
0.000259070619432727467
-0.000147448320948241835
0.000103551066854526592
0.000298656601346508513
-0.000258804450737290222
0.000308547813853632543
0.00227269812383707002
-0.000688548308074342277
3.30426537521696408e-05
0.00108047767111536276
0.000649883901967134199
0.000724986611291624471
0.000142551949728678823
0.000133462644278674618
0.000837301178288408381
-1.82288001510239051e-05
-2.99174499963515608e-05
-0.000172080387088283104
-5.2760585957369651e-05
-0.000226616272838897105
0.000340142387769431349
-0.000101702188845157783
-0.000479148303906834472
-0.00030436842175818454
0.000231091835969130996
0.000126881412200824221
-0.000136261773444811116
4.75426555928482785e-05
0.000132987531661817862
-0.000292285941696742108
-0.000209519358468219542
2.7333445386160899e-05
-0.000141000334854237774
-0.000579398549813961786
-0.000235868718727350285
0.000275490981946974883
-7.82555752731394839e-06
-0.000295453560690787194
-0.000309423764315375444
0.000208356768442786327
-0.000235291346058848862
-0.000308307085090699638
0.000405380232876341635
-0.00013666630582403726
-0.00031555381863687627
0.000400988482523874498
-4.59190223127266636e-05
-0.00016751165985345683
-0.000386113420946215379
2.04313782793392641e-05
5.8108023688968613e-05
0.000118261458327114567
-0.000232396521863578666
-6.52132257469099897e-05
0.000170171869737798187
-0.000218203977203416857
-5.06072029010125251e-05
0.000203058775446974475
-0.000133114251244904343
-5.89975993298454273e-05
0.000397883884626319434
-0.000115147024557772944
-0.00025392743285454749
-0.00015850168908193777
-0.000115606309138090429
0.000205939565744114324
0.000182133524781093512
-0.000221976170962915866
3.56497865203173305e-06
0.000243470352166491198
-0.000231462292622606824
2.58819811159000385e-05
0.000349584490855442724
-0.000233028983045605807
4.25162688300921568e-05
0.000515571072672972282
-0.000253868705911316627
3.21725063341735259e-05
-0.000165151100089741553
3.22737781656989931e-05
0.000409703322342975639
0.000213191856792758539
-0.000240717511457202727
3.03500189217323577e-05
0.000266306740615664399
-0.000253287015305326169
3.64308513766399184e-05
0.000329696435731113499
-0.000271727051594672093
4.07239119458670503e-05
0.000399434904962564193
-0.000302643544385336461
3.22801043154843741e-05
-0.000295940137113522321
-2.42706387901344797e-05
0.00055064615149829103
0.000196303374048589812
-0.000257956393122766052
4.26544172766708872e-05
0.000237525364668580963
-0.0002734195400231956
4.59265952838346908e-05
0.00028239571806090133
-0.000296509761084936695
4.72864831049673472e-05
0.000331172891055838347
-0.000334675313144641013
4.43770753641328409e-05
-0.000351628318115571417
1.72472673439976064e-05
0.000394180414028354566
0.000166642075143530607
-0.000271384731604382764
4.13191765858054351e-05
0.000197313742590450705
-0.000288291610393501783
4.56423930070097087e-05
0.000229229499338654311
-0.000312594679841323505
4.92390786631852125e-05
0.000256239019648006703
-0.000349330784958468089
5.54941719585353704e-05
-0.000377464789462394156
3.84800158414024264e-05
0.000286456021659391602
0.000136649141798251823
-0.000282515200903771648
3.59474444065034318e-05
0.000158449502812782391
-0.000298074432006997347
4.05473528190890248e-05
0.000177813101415410249
-0.000319546038774230117
4.5608724832714731e-05
0.000187092940112874298
-0.000348264669201392527
5.19129933896355251e-05
-0.000374895784522558063
4.48125412157490059e-05
0.000192014596277737752
0.000107369654247014103
-0.000290065385543689688
3.03374407238211407e-05
0.000121802088714644446
-0.000303465373425181343
3.44218377751343487e-05
0.000132360909597041988
-0.000320267418442253613
3.87661805914502763e-05
0.000135085071587598112
-0.000340950840928868877
4.32804008454272572e-05
-0.000367390676883778456
4.59912826086847525e-05
0.000137875663708507916
8.13837440638813124e-05
-0.000295202060451340436
2.422790536643085e-05
9.16586282999990327e-05
-0.000306902193557328704
2.76233378572664722e-05
9.88494852515141976e-05
-0.000319794385469207749
3.1070973755608955e-05
0.000100102966580233629
-0.000333746914001825179
3.46794176952612299e-05
-0.000348530737974360439
3.71664151802647503e-05
9.05040486373008513e-05
5.84439395895308228e-05
-0.000299721359603630862
1.77788944881090551e-05
6.77523675975449848e-05
-0.00031134133285186437
2.06097370121315394e-05
7.76894652000227712e-05
-0.000324043310575272247
2.38055513702008764e-05
8.78712375822280061e-05
-0.000337058430935785643
2.75229602041367372e-05
-0.000349184699924145981
3.20521931790232446e-05
9.74158310493988139e-05
3.52010239085690101e-05
-0.00030298939759802843
1.07408131198461423e-05
4.23544654852697292e-05
-0.000315590581928432937
1.26868542963222213e-05
5.2022513826517695e-05
-0.000330307103011771754
1.52046473251911208e-05
6.62946227905740753e-05
-0.000347356854103299207
1.8812582040257732e-05
-0.000366965697775427846
2.39397318073680159e-05
8.90169307340167972e-05
1.16808397029495615e-05
3.50443018781737767e-06
1.42239515788324352e-05
4.16543187774853009e-06
1.79219693382978482e-05
5.05028707567558794e-06
2.39561058347858939e-05
6.46420841305522041e-06
9.09160477607038407e-06
3.48430742395195256e-05
0.000303964972272582857
-0.000129449241904673606
-0.000182137167529524779
0.000433489695313262434
-0.000204566024886258953
0.000326395135733735606
0.000268912419408656733
-0.000111102285496628462
0.000165469170583856242
0.000313377188029151268
-0.000183082280966563593
0.000313302068644281831
0.00128490919108868924
-0.000185116427401935059
-0.000149822417768864184
0.00117770695461713289
0.000203802789731164576
0.000513078261830049432
0.000496008570110888659
0.00079503894517687012
0.000804227570628643102
9.42035451789793865e-05
3.92927677800711445e-05
7.93276883786067427e-05
2.66260228386858838e-05
-0.000181456058937166947
0.000335795898438115198
-0.000196489115836105677
-9.73628803660766363e-05
-0.000292129473189174985
-7.98282325528911917e-05
4.31061734786921899e-05
-9.22290352776760719e-05
0.000267047454408626036
0.000290847322000565265
-0.000134968005281430308
-0.000106212036922365832
0.000231948417667405323
3.96004984765618536e-05
-0.000577240075588018181
-5.36802012822685636e-05
0.00031546553294479595
2.38927121185235401e-05
-0.000160407341623882988
-0.000259854347714045988
0.000175156376619378901
-0.000175740296886026364
-0.000240726254505200848
0.000513929603196898021
-0.00013125040598285239
-0.000232229802132368992
0.000635655022973474521
-2.1614824165495602e-06
-5.51228927004814668e-05
-0.000400506042337769321
0.000294285838363367584
0.000185065758034869132
0.000144892199784651016
-0.000184258267919664722
-8.59273330109737422e-05
0.000152538141892762157
-0.000169377183146546771
-6.46188962424858491e-05
0.000140789328380893112
-0.000128351839975281
-5.01493778730502707e-05
8.84146413392522242e-05
-4.68067918648862021e-05
-0.000156905112818100039
-0.000137031130182277579
-0.000227459262886511474
-6.32094622806422032e-05
0.00020369208670936045
-0.000214277076648406421
-1.11108462838401812e-05
0.000275334254418102651
-0.000216007070434165492
8.65767046550907192e-07
0.000395939763238165748
-0.000217891208675779325
1.14597382893080185e-05
0.000690426864423557209
-0.000212889213779725436
-9.62281620714147343e-05
-0.000141510799591361349
-1.02081594438875579e-05
0.000737390782955370011
0.000210166748093486484
-0.000240409074625260556
1.73354249119561244e-05
0.000260868918127062424
-0.000249406494620534123
1.91254295848748788e-05
0.000326953332842585956
-0.000266840832970279462
2.35869125076960197e-05
0.000427364793490539506
-0.000297463492645824723
1.64381944281877907e-05
-0.000271252466712861647
-4.2900755669830217e-05
0.000575742388338769092
0.000195071330616908447
-0.000258011037060594983
2.67740910673007966e-05
0.000235973941189952173
-0.000273308973759533774
2.89182723164375168e-05
0.000279771616288701497
-0.000295913658031850063
3.25608082939119321e-05
0.000329057079522320211
-0.000332527226105276696
3.01539463983103912e-05
-0.000332389669799954804
6.60133431491809009e-06
0.000400844927533970067
0.000169297775651442573
-0.000272960114252134543
2.79945095134764911e-05
0.000199829387043575901
-0.000289996803954766739
3.18008565402497589e-05
0.000230420505614093677
-0.000313477919209947139
3.62082212893854598e-05
0.000261786897563240112
-0.000350218057753130688
4.18162881540896472e-05
-0.00036468108110375159
3.904666307836025e-05
0.000293513687514944789
0.000140074227223378365
-0.000284888724864854948
2.59829328752335666e-05
0.000161370770302536365
-0.000300638225364126548
2.98931374682409734e-05
0.000180665551502733881
-0.000322301142994736755
3.51355571975164741e-05
0.000191771482789174609
-0.000351324661471448226
4.19189319442280205e-05
-0.000372086368359381072
4.66920490742630379e-05
0.000197301224537143856
0.000110667380296690572
-0.000292608394856432356
2.25467373559828281e-05
0.000124809034452519346
-0.000306272720244011795
2.59143103487560998e-05
0.000134943717374140152
-0.000323514908737097297
2.98519294130631254e-05
0.000136613526910501451
-0.000344767689113887102
3.50613018781740037e-05
-0.00037194782607172049
4.0278222285966038e-05
0.000142189035741006133
8.39535104252865785e-05
-0.000297865606371871465
1.81262807408226304e-05
9.43185981494486735e-05
-0.000309778463292868236
2.07681251084490031e-05
0.00010122713617750643
-0.000322853627581287238
2.35081588217716039e-05
0.000101450798793843299
-0.000336998689715333215
2.66888229035180825e-05
-0.000352027759565792461
2.58012283509791871e-05
9.28950084303534587e-05
6.06857332576036352e-05
-0.000302510496672898151
1.34399248982858916e-05
7.04073898731690461e-05
-0.000314426701710444879
1.55427857918076886e-05
8.07984336090340489e-05
-0.000327300527383471462
1.78647132833239632e-05
9.14852516270770805e-05
-0.000340283528234553248
2.01219598281147638e-05
-0.000352197123941471618
2.17819735911685752e-05
0.000101927663436901853
3.67560483010059003e-05
-0.000305969567318701468
8.14371516614583855e-06
4.44376009639166935e-05
-0.000319034122891005581
9.61800353225492279e-06
5.50757545806426503e-05
-0.000334267203407093106
1.15352631218215269e-05
7.1282094149809232e-05
-0.000351892990399999721
1.42174043626292379e-05
-0.00037197418910380896
1.79975162430209613e-05
9.7003612712412402e-05
1.22071110982949841e-05
2.65130424093900808e-06
1.49642203717742695e-05
3.15171130260118328e-06
1.90989303243054287e-05
3.82889435704030062e-06
2.60940991144759967e-05
4.92712436172771351e-06
6.989979524842131e-06
3.91117099696575529e-05
0.000310702667166159281
-0.000101295010074237829
-0.000112008010904121941
0.000443770341525617101
-0.000133316416955291253
0.00033101092753276128
0.000244080316155859123
-0.000150530505851386261
0.000109773683775755696
0.00031234537319092706
-0.000118831295251996992
0.000311257369342680956
2.04997779002950636e-05