/*--------------------------------*- C++ -*----------------------------------*\
| =========                 |                                                 |
| \\      /  F ield         | OpenFOAM: The Open Source CFD Toolbox           |
|  \\    /   O peration     | Version:  2206                                  |
|   \\  /    A nd           | Website:  www.openfoam.com                      |
|    \\/     M anipulation  |                                                 |
\*---------------------------------------------------------------------------*/
FoamFile
{
    version     2.0;
    format      ascii;
    arch        "LSB;label=32;scalar=64";
    class       volVectorField;
    location    "0.870000000000000551";
    object      faceForces;
}
// * * * * * * * * * * * * * * * * * * * * * * * * * * * * * * * * * * * * * //

dimensions      [1 1 -2 0 0 0 0];

internalField   uniform (0 0 0);

boundaryField
{
    inlet
    {
        type            calculated;
        value           nonuniform List<vector> 0();
    }
    outlet
    {
        type            calculated;
        value           nonuniform List<vector> 0();
    }
    top
    {
        type            calculated;
        value           uniform (0 0 0);
    }
    bottom
    {
        type            calculated;
        value           nonuniform List<vector> 0();
    }
    left
    {
        type            calculated;
        value           uniform (0 0 0);
    }
    symmetry
    {
        type            symmetryPlane;
    }
    interface
    {
        type            calculated;
        value           nonuniform List<vector> 
67
(
(-2.13459389640619714e-07 -1.66242352141307959e-06 -0.0131524989285052279)
(3.87442541297678546e-07 -2.79585986693532352e-06 -0.0129409327409905055)
(1.48274563378557473e-07 -2.47541229029178036e-06 -0.0160536348857110781)
(9.57181207583640042e-07 -3.09945025936660541e-06 0.000323168807486838604)
(9.16822908045977836e-07 -3.73338556967636869e-06 -0.00436907315357806282)
(6.95966607099868551e-07 -3.71670387922976162e-06 -0.0106349681737629414)
(2.17725390176561805e-07 -1.5146993247053442e-06 -0.013976778211833395)
(8.46393303646767268e-07 -4.19859329209191635e-06 -0.000615534116500888301)
(7.57627199988469072e-07 -3.99264155244400076e-06 -0.00495906811991279808)
(6.06021127682783605e-07 -2.76120047976486108e-06 -0.0112903389299972082)
(1.48034882117876768e-07 -5.19692162759730874e-07 -0.0130461790744749936)
(-0.00731312269847194611 2.95509359387993164e-07 -3.60448948828038998e-07)
(-0.00383966591971294634 -3.25449007055076826e-07 -1.1094621593186489e-06)
(0.00184856962937684252 -2.2969449488622558e-06 -1.69033675654566124e-06)
(-0.0103126198959416111 3.53667420377611339e-07 -5.29687406904231217e-07)
(-0.00596591556567680707 -9.29033668327234628e-07 -1.40405472888027447e-06)
(0.000772144747961161105 -2.57549892804891539e-06 -1.58862698750479022e-06)
(-0.0120270601959787341 1.84563115734253028e-07 -2.36024645491248597e-07)
(-0.00917749366124559832 2.33711129682854019e-07 -8.91235702865844336e-07)
(-0.00202867040553476527 -2.1490878305683104e-06 -1.13207492970429152e-06)
(-0.0128954598287693359 2.62922160586686387e-07 -1.01059813929458706e-07)
(-0.0100654950653296694 4.98129501317481148e-08 -4.3618610051089637e-07)
(-0.00298331937580582386 -2.28157852545283972e-06 -9.29680622787588999e-07)
(-0.0119412136735699524 3.32547620784248052e-07 2.74393707633026855e-08)
(-0.00882054402701413012 -6.20468165328878234e-08 -1.6638918525853553e-07)
(-0.0022013042840975704 -2.41194286122011897e-06 -6.17140180275666182e-07)
(-0.00947567241021423159 5.50403059377963291e-07 2.91831873875866854e-07)
(-0.00571528460586610658 -7.50468715007108691e-07 3.13896457465686946e-07)
(0.000628430927699792446 -2.71061935146156597e-06 -2.28568523471710984e-07)
(-0.00730901946363020621 -6.32743828745080094e-07 6.14970388348396601e-07)
(0.000251554962218504985 -2.70022029598940101e-06 2.51453932732914277e-07)
(0.00726330068555615296 -3.42689994298049333e-06 -1.6322935001841773e-08)
(-0.00606091618206817864 -1.92126361248286073e-06 1.9035244234916609e-07)
(0.00395546171216335559 -3.45162082722245327e-06 1.22461758965932812e-07)
(0.0109364748037597045 -3.57753241810217347e-06 4.05985763905997432e-08)
(-1.09868788838608404e-06 -0.0263482042511248328 -1.94582917291226255e-06)
(-1.10243417900998548e-06 -0.030765502483552875 -1.57247207560479148e-06)
(-1.17716260420063776e-06 -0.0315337708868237282 -1.38514351487347707e-06)
(-1.19953213184303548e-06 -0.0315159172056699022 -1.09047040879128759e-06)
(-1.16667802475584699e-06 -0.0316329047338727229 -8.88329823106426203e-07)
(-1.17658246451648555e-06 -0.0316657829493198831 -6.42335292105572692e-07)
(-1.22787705920993397e-06 -0.0315589768632752316 -4.12784481343792115e-07)
(-1.30257477273180237e-06 -0.0312745118120078547 -1.29726728207112367e-07)
(-3.05238734279259311e-07 -0.0290905563393836358 -1.90254739280031269e-06)
(-6.88188151101141808e-07 -0.0321774921215297605 -1.79323515595085778e-06)
(-7.28618151073532821e-07 -0.0324885036586721535 -1.51798675215361189e-06)
(-7.75501404989948092e-07 -0.0327492701653350482 -1.1972105832760725e-06)
(-8.3975490868879036e-07 -0.03325593282927293 -9.81331973674504694e-07)
(-8.91330776130232041e-07 -0.033485132073026079 -7.2788696572047478e-07)
(-9.27267708516168711e-07 -0.0332701245356930159 -5.20478108181269635e-07)
(-9.45412956345155625e-07 -0.0327014520035153466 -1.79878664075930513e-07)
(4.90142281397096705e-07 -0.0292602050961462586 -1.95408627396154304e-06)
(6.26774648393778331e-07 -0.0321905514276816518 -1.68743475363587324e-06)
(6.07322716165794438e-07 -0.0323909741485556776 -1.56864273979782333e-06)
(5.91569166340481875e-07 -0.0327203987492352896 -1.19588464284288655e-06)
(5.29110812827532328e-07 -0.03342617965052877 -1.00483635298559805e-06)
(4.95740954182861586e-07 -0.0334094141885367263 -7.49060138459590849e-07)
(5.23580813977043206e-07 -0.0327780706349999895 -4.85692084835077335e-07)
(6.69493762264692644e-07 -0.0320118621892912583 -1.25818745185783811e-07)
(1.0074049508992333e-06 -0.0249660271588102722 -1.92750278217588502e-06)
(7.15070863165396011e-07 -0.0301545814419075034 -1.80663183547600071e-06)
(7.8286351948865126e-07 -0.0310598582690812322 -1.4250245789415376e-06)
(8.1630194586277451e-07 -0.0309812944023993182 -1.13266081495252277e-06)
(8.36994108835799496e-07 -0.0310369307513908739 -9.64193816096753006e-07)
(8.87801942547836187e-07 -0.0306067282001475198 -7.75012200566333312e-07)
(9.77004502053984321e-07 -0.0294107395365552984 -5.60551223370720344e-07)
(8.90698134780046732e-07 -0.0283101584945531434 -1.88225360584869674e-07)
)
;
    }
    procBoundary1to0
    {
        type            processor;
        value           uniform (0 0 0);
    }
    procBoundary1to2
    {
        type            processor;
        value           uniform (0 0 0);
    }
    procBoundary1to3
    {
        type            processor;
        value           uniform (0 0 0);
    }
}


// ************************************************************************* //
