/*--------------------------------*- C++ -*----------------------------------*\
| =========                 |                                                 |
| \\      /  F ield         | OpenFOAM: The Open Source CFD Toolbox           |
|  \\    /   O peration     | Version:  2206                                  |
|   \\  /    A nd           | Website:  www.openfoam.com                      |
|    \\/     M anipulation  |                                                 |
\*---------------------------------------------------------------------------*/
FoamFile
{
    version     2.0;
    format      ascii;
    arch        "LSB;label=32;scalar=64";
    class       volScalarField;
    location    "0.870000000000000551";
    object      p_rgh;
}
// * * * * * * * * * * * * * * * * * * * * * * * * * * * * * * * * * * * * * //

dimensions      [1 -1 -2 0 0 0 0];

internalField   nonuniform List<scalar> 
7248
(
0.666732797300843782
114.927105556229407
0.423788868107543737
0.428982636551353824
0.405741119439331943
0.387092731542123814
0.457555283610414476
0.550538393318459107
0.602645224731990448
0.437975571015459364
0.448271564685906121
0.47307327362536139
0.514825509987305807
0.752598908670591427
0.458543236433567591
0.4791694439435355
0.505008973984864107
0.539460961113926385
0.579742445020012709
0.449401442403088824
0.471817855472382142
0.497207710599322616
0.526557138185511975
0.559114058011718984
0.43124575701101564
0.452805403635547887
0.475891955021990387
0.500498536211518297
0.526009664215761563
0.403274555461839102
0.422891629692464188
0.443379372740436983
0.464066409302428817
0.483834212614549564
0.368602704805943038
0.386235619038706235
0.404391486905811615
0.422209059813706211
0.438270551252902707
0.328320908075216134
0.34407202709314566
0.360458137506194265
0.376697332503227234
0.391455557497078444
0.282919758285604894
0.296949217199699189
0.311963066512836673
0.327483838568643548
0.34263230836658165
0.232741959567223877
0.244912265470833113
0.258423799007761967
0.273150858333269408
0.288757455619400916
0.162427411050382969
0.169694170885290291
0.178214642972195747
0.188129720076593537
0.199591837628535024
0.212748982765322781
0.22767229166235245
0.109273164475725784
0.114056366574989326
0.11988743940070605
0.126985470860662392
0.135622397898720215
0.146125548233411284
0.158836527905430375
0.0536947634220225761
0.0556167928034766584
0.0582654344075255529
0.0618862261557158663
0.0667988119542562708
0.0734181634961655477
0.0822296758233266589
-0.00357456905688847753
-0.0048915153236421564
-0.00591796731139271771
-0.00642756506376186178
-0.00611429138350764404
-0.00459422608389530463
-0.00138411832652600778
0.0587948495950339767
144.276800740753458
0.311005788453334375
0.416188922648696391
0.538186185056445554
0.929566580252304098
0.934254350050010118
0.521614128100073016
0.490796659693825854
0.451884225486602009
0.448122905721965559
0.462849028671931506
0.499564654131138042
0.631311021373501369
0.463015425980867534
0.480154454493954386
0.501487557600877487
0.532172526048999672
0.569207994301876297
0.452010855556577218
0.472453360330055805
0.49531030970779244
0.522233142950650264
0.552908401841052166
0.433064822727940169
0.453604821693204929
0.475302596212800299
0.498302963556740142
0.522432778832137568
0.403875321174453183
0.422986711206195687
0.442560534332118949
0.462278372122073733
0.481498432401279319
0.368124269750615185
0.385215820974577849
0.402710893670851278
0.419923992155851078
0.435770061706930667
0.327102724580431048
0.342264825686618979
0.357951705200267201
0.373460723052530363
0.38766093049818634
0.281196765632353962
0.294543809438846338
0.308676747733861723
0.32309604372403733
0.33694853912348971
0.230745503618560055
0.242155879794253792
0.254627277601806368
0.267932646762637616
0.281617822440991483
0.176147149647647078
0.185291228796872959
0.195672544397972603
0.207312805343245754
0.220119091609472656
0.117924370656920602
0.124310294449157172
0.131945274327499334
0.141040733593473605
0.151797150587333007
0.0565408054854296752
0.059563697860755771
0.0636383341944370406
0.0690839141884018321
0.0762995579514384736
-0.00730847820820906564
-0.0082689974842510023
-0.00859020507324325701
-0.00792747249303620352
-0.00586400998034708291
0.0672944194992706607
160.53199722508387
0.265559202646240611
0.381601702025827105
0.699127421806622906
1.48642527944381864
1.25552038458067261
0.437368103089424531
0.438063897697552107
0.461408470842036678
0.4516408765896337
0.463805289662304776
0.496016746982633649
0.549030991597491247
0.468740663274166525
0.483213651697245283
0.501509123567313586
0.528712102044864518
0.563737368047194654
0.458005678665130755
0.475378569962436326
0.49553597709336239
0.519882915926470179
0.549016556360432673
0.443445647349222372
0.454997001910258769
0.475337437492296178
0.497030482671057094
0.520177126981581139
0.405083922714404077
0.423298851888871952
0.441935357977558674
0.460879073904763126
0.479706750119879011
0.36784460533472485
0.384370848622941685
0.401259667000237685
0.41794303338296851
0.433598615887972272
0.326108842376769514
0.340692310147806654
0.35571720056645717
0.370553362083554494
0.384243414612275569
0.279652317597384237
0.292353628030453727
0.305675350188284567
0.319106391945407297
0.331826293172485354
0.22890734481661687
0.239608718180461477
0.251127408638366634
0.263159967275166606
0.275168260850231772
0.174219366834848566
0.182642853128779759
0.19202798775974067
0.202293839142934168
0.213219378882732402
0.116079147900732274
0.121796233369877216
0.128498623817089846
0.136301088490052902
0.145284928599972829
0.0549114395040981237
0.0573697832492812976
0.0606565914564519554
0.0650136864973370476
0.070751415879526644
-0.00862483456531596034
-0.0100102477843690522
-0.010925962489424958
-0.0110743822282198482
-0.0100848223637720093
-0.0102131377171408664
166.114844762264113
0.184200072666326514
0.343990615540433142
0.651840506110916151
1.04343774185528404
1.16536971861854655
0.615048276118491444
0.434625871267927455
0.666527345032532526
0.658348776007899206
0.505479394945372529
0.495950140020977481
0.540782102049776059
0.478435265678626542
0.486781422589829427
0.502454747306621874
0.526172802746280754
0.558606693176401103
0.462256483794714068
0.476835541773931781
0.49707477593306082
0.519739255669395384
0.546955108435280057
0.438222731275297095
0.45910418503275302
0.478660078923912047
0.498588173803103496
0.519168646718815241
0.406153820493244611
0.423773461759095527
0.441641385310908574
0.459895367678129496
0.478381924233898914
0.36765777420054041
0.38366867267694027
0.400021285541399041
0.416272101363456881
0.431786204501011128
0.325201691539032889
0.339298828189612656
0.35376432418427306
0.368040153452772634
0.381315125495154728
0.278273622431589818
0.290414203997887588
0.30304225359675524
0.315650112892335077
0.327457940664769187
0.227269824001283149
0.237352925400415887
0.24805365967681281
0.259016980351286452
0.269656038523511499
0.172498263454666345
0.180288207226240116
0.188809139627728079
0.197903079786993646
0.207257459679847655
0.114424855889784974
0.119549554631569757
0.125434149186982674
0.132118262980219753
0.139586713745961655
0.0534449008334848541
0.0553996699070578441
0.0579886456658843669
0.0613942177240682993
0.0658368356974062818
-0.00981363202254161883
-0.0115788934514825751
-0.0130252535801437357
-0.0139024197163320831
-0.0138601754679042993
0.666423837400375141
171.399229167412557
0.153949091932155779
0.35171980685593307
0.583430907078046901
0.570537470404248626
0.553098008428885013
0.524205060939027079
0.437530885954139415
0.655634610275689922
0.652983700928078892
0.59999857924567257
0.50872728763218289
0.536259894232911205
0.4818274641419798
0.490643783966094427
0.502928909787399792
0.525581643594998149
0.556787119173457801
0.459612761805406611
0.477979671491177371
0.497962063543555433
0.520718680486412677
0.546800512420216211
0.437772644741566297
0.457932824844435205
0.477259481920066508
0.496981859310229424
0.518329165608493625
0.406012178968251203
0.423272820246632708
0.440793441789837759
0.458788974324738141
0.477227513232678646
0.367086384376508812
0.382794306513562055
0.39883402450635419
0.41482397678926658
0.430274906429366055
0.324250217993538647
0.337976751586717861
0.352027403539685702
0.365899006956829143
0.378890390719774761
0.277053829922333072
0.288749383901583889
0.300831545115266163
0.312802927480430926
0.323924017827075861
0.22586664626155481
0.235446969838846276
0.245490739576487316
0.255611698548612154
0.265195490997891192
0.171037795504586809
0.178306336948824778
0.186123902871304203
0.194278343853800134
0.202394336864046481
0.113021462096135394
0.117653716857270565
0.122864348544950555
0.128635912586485296
0.134886220839996657
0.052198353278623516
0.0537311468250221483
0.0557383510273163074
0.0583543105952086805
0.0617415347877992293
-0.0108277964521902945
-0.0129123482096020082
-0.0148031696576771971
-0.0162848962768871418
-0.017037807713107464
0.196078206998252402
169.073324481812534
0.168695187606449165
0.364759508494583329
0.552401430954524986
0.48144900038147681
0.4299395243074704
0.453392519656181159
0.463285310986355781
0.610648197720409236
0.566563616952304616
0.489586336478783801
0.496356347961350031
0.560858869041151675
0.485301120406630537
0.489926411813680907
0.503113503403332607
0.525745520335197947
0.558304214194170645
0.454718175956772663
0.475192921549434488
0.497237373607113398
0.52085221642379087
0.546765476602533051
0.434702081452477351
0.456069203773374898
0.475821813571397911
0.495652352550316866
0.517122666500305916
0.404708908808097956
0.422088269032479646
0.439603979665998512
0.457622146873108315
0.476198063931294213
0.366201091241870003
0.381740325906633537
0.397630108574498597
0.413509198853739823
0.428985427462536317
0.323298511011010814
0.33678266744864177
0.350565127043521052
0.364182771923102999
0.37700004926595132
0.276026041777175601
0.287397592047671568
0.299086890695643925
0.310607631145963459
0.321248057911277696
0.224741848409171441
0.233946377742372258
0.243504174608837998
0.253011892707966257
0.261842434557858661
0.169886579706021168
0.176759460285048103
0.184048067753469574
0.191505123236983404
0.198720204942490042
0.111919322303381738
0.1161736677840952
0.120870509572127097
0.125952734961461615
0.131297451384904645
0.0512189240030475335
0.0524251727788767677
0.0539837179995127786
0.0559942128209997558
0.0585836916188096982
-0.0116272304051664114
-0.0139596770446091794
-0.0161952774200377798
-0.0181463063530073881
-0.0195269183997117332
1.74670322699839886
174.197986205747895
0.209481262822348829
0.33491256478707454
0.890222272948057225
0.864592437890092214
0.554992377557874783
0.465661412353831405
0.463812045964353603
0.967863903998696484
0.738530305125625675
0.516116063031647365
0.495904702733244773
0.553452879728320024
0.692739105462352178
0.492316539140510545
0.499559916638311119
0.524338232562057915
0.558849469431645929
0.455000441342273132
0.471930209426386638
0.493953673396525406
0.51900783504965764
0.545808733960826076
0.431188365284963016
0.452977474224050214
0.473573105346333789
0.493943315533585725
0.515895129612956138
0.403428426568292475
0.42081789866968855
0.438367311211432964
0.456488913290148624
0.475279206601875337
0.365372785508241871
0.380715524360091095
0.396539120709381021
0.412423771697384367
0.427986256849354763
0.322510861689889017
0.335852497680077355
0.34948227902549106
0.362957412170673399
0.375682304224116914
0.27526990611299279
0.286428116991346571
0.297865092914651686
0.309101317563053535
0.319442970853329511
0.223947179712860267
0.232904188477256219
0.242144033395236463
0.251253233682501909
0.259601485102001206
0.16908832065848578
0.175696547026543887
0.182632711726794877
0.189628149745030311
0.196251578174893887
0.111159190770748317
0.115158036600221975
0.119508138452785961
0.124125712533973545
0.128858245069039395
0.0505439091380250269
0.0515278128951677447
0.0527808983126465334
0.0543777204855483143
0.0564153561730722369
-0.0121796555417171635
-0.0146813067658959889
-0.0171525062952312575
-0.0194253270247600404
-0.0212376084015011707
1.45194720860295212
171.90389947959352
0.279377478533457124
0.305219558031106009
0.568909202270693748
0.84508969717056126
0.804968475495377422
0.743650308180112019
0.493695108422440965
0.892837001704558819
0.906170773190610679
0.887862967699618921
0.840255569520594991
0.578507118348653204
0.956816897539001121
0.937797750660427476
0.773907391416349677
0.528465512630137524
0.560495125425176877
0.889103583455903235
0.513157618268529236
0.49343238550502283
0.518239085921094578
0.54516368186649744
0.431422288026150291
0.452072042500341664
0.472153206621574228
0.492622593528777408
0.515028588367502871
0.402566064257664946
0.41968285041158665
0.437447993406456903
0.455751458909701312
0.474726209939445587
0.364850179404821839
0.380120815401621515
0.395913993988237178
0.411801727660618344
0.427427337319073952
0.322081432464552286
0.335323693365194297
0.348879171392045884
0.362300609808247631
0.375000191734706889
0.274851355140716125
0.28591231095549885
0.297231720580966419
0.30833377863383693
0.318532011914836655
0.223535564802317177
0.232369060222567592
0.241450920944230429
0.250362897726830014
0.258471107892438823
0.168677954890839366
0.175153975497562481
0.181913765691907287
0.188676843152474127
0.19499597225077725
0.11077075969669864
0.114640705648424865
0.118815294399326976
0.123195566805023748
0.127606982538228636
0.0501993110270112022
0.0510704903722912218
0.0521683164949249198
0.0535530896441907683
0.0553016230054734284
-0.0124623393591867093
-0.0150498682303765209
-0.0176410029166038165
-0.0200789370957285447
-0.0221171992355516482
1.04835085003873041
1.3710052374917332
0.670363346438559882
0.700943853555335283
0.560610173812756574
0.545252243093411137
0.57158837442897914
0.614982706350655217
0.660483421190903974
0.60704249534914867
0.579856722380619805
0.556868022066233759
0.603861433430293415
0.636262532882119314
0.47433214915227101
0.509584863560689216
0.547506681036448284
0.591045624105161815
0.626317567276639009
0.460266317146425297
0.489049396033429951
0.521536154488909776
0.558862252296227324
0.596108893618256253
0.438642717170509733
0.464274817108724702
0.49198108485610903
0.521326715952686093
0.551077390623359364
0.41059949526753603
0.432440434692062114
0.455292823255615986
0.478187180858927419
0.499943652170524777
0.376713185982345211
0.395868613591538465
0.416024542314695489
0.435685464841856551
0.452065995762005068
0.338027770041201492
0.356118952308180858
0.374856237916823876
0.392580218580771856
0.406982560469446975
0.294200419581868156
0.310809340082213337
0.328597502693943611
0.346782182816409157
0.363392893501569003
0.24452232606615229
0.259526280462299752
0.276548264786052767
0.295324006916314941
0.314982049195137503
0.169917579309770195
0.178825002578444553
0.189614749389446474
0.202558329998127867
0.217932061298165919
0.235909775007315137
0.256576911990797907
0.116054072589367244
0.122393413005610394
0.130390917311970667
0.140413487348225119
0.152888352875096056
0.168237466834224025
0.187033145239556303
0.0596946753906709843
0.0629564910697327923
0.0674811690708641831
0.0736650654789652026
0.0819754858036299688
0.0927734752997798201
0.106841055358040546
0.00171773156118694469
0.00143469550309130488
0.00188204048887591455
0.00339532198013051817
0.00638350330741720238
0.0112611351809151425
0.0185934471802433193
0.715790339766793182
0.725056695449181277
0.666632041923672425
0.685154747279384857
0.946682442395933466
0.87154608653807597
0.677348037990500362
0.634749729860367928
0.670560697961972152
0.483809102441614458
0.520286604915441875
0.586780515581783679
0.626405740323839333
0.650584866462011191
0.473161871555822511
0.508808933516589734
0.546949712047737346
0.587793574287476583
0.62944612819096224
0.459790225169001088
0.489274386200704403
0.522164850398915248
0.558078716328183955
0.59532621073844616
0.438360076983936475
0.463996790147416793
0.491733311658901107
0.521385429030975067
0.551907942949967145
0.41043531637598285
0.432448909680207605
0.455656760852034382
0.479154103292900369
0.501563917912163593
0.376727048611194437
0.396073885029172401
0.416189866230748828
0.43566632836327901
0.452156643231800215
0.337732104739543293
0.355517447713702361
0.37414758268834214
0.392216779248214187
0.407117360832283337
0.293525648014481277
0.310065525876633608
0.328045949621511457
0.346670662435044741
0.364055686943294987
0.24389527064489297
0.258958691365279048
0.276176596716341483
0.295452488645615463
0.31629577898514355
0.169498261675714523
0.178377477378829724
0.18915063680077171
0.202118973652852751
0.217623560465920268
0.236005604153705417
0.25757498828982317
0.115729589591695187
0.122042282049484141
0.130014406251958953
0.140035361760028648
0.152576955694413569
0.168128722824591487
0.187315537166556551
0.0594146471313740793
0.0626581687303175566
0.0671654543593922099
0.0733455275265565698
0.0816928068969160343
0.0925684241135442537
0.106882885272657394
0.00132632047298744519
0.00103694111801767462
0.00148336574065984113
0.00300583199568284828
0.00602124595098565887
0.0109454720070972511
0.018395325862608506
0.72108909552330136
0.923384351921785584
0.717196520271553228
0.725694766111434464
0.550910602042811504
0.891379655513857005
0.89566787457328878
0.69330978038668678
0.723595658688060195
0.48597551777539888
0.5252813530415259
0.575137126322116776
0.632572911177007868
0.679605454947657894
0.476502744843254611
0.511247440527424213
0.550450461290658777
0.594582879655907948
0.640803405818768157
0.46017516220602761
0.489825101795486439
0.522842858261719057
0.55924819473603915
0.5982380604346208
0.437777993117326569
0.463522222288759222
0.491474675405048356
0.521332176488140897
0.552116270117497754
0.409823076597131408
0.432035513453967124
0.45549072179371769
0.479216235312716843
0.501534130676305923
0.376153327493868983
0.395671688992973447
0.415937481088598238
0.435511494465859517
0.45189860776372931
0.337111864003301565
0.354939173430971755
0.373649761008106707
0.391917271950830204
0.407117366035341377
0.292794602727289854
0.309332968535183772
0.327429699177330558
0.346435761569069856
0.364736589244218978
0.243129647587870673
0.25818945048365699
0.275535743082665596
0.295293186609455749
0.317419031188879097
0.168897927652930546
0.17772875539601854
0.188442289864143298
0.201375624050695146
0.216952575509306911
0.23569649290682726
0.258220617462063928
0.115233345747174129
0.121485934701081197
0.129383911981452659
0.139338584376950902
0.151878265404740809
0.167598560267975483
0.187292678690438918
0.0589827961485775779
0.0621677575496351192
0.0666013740289338879
0.0727077116124159734
0.0810340708197835047
0.0918834185226794081
0.106452168486322954
0.00090734514721598511
0.000567565207841743942
0.000948361496693226041
0.00239611215749235395
0.00534735799945389861
0.0101948421291304173
0.0176803052476182457
0.758114253661872795
6.18607883909591472
0.729296910143090837
0.754499402373769112
0.473053982093425585
0.820246021463984176
0.926600372426477303
0.762911196371273692
0.745065953851884011
0.481576842071963884
0.519687028517115013
0.570980702036116505
0.643797559222675675
0.701967448228245861
0.475218169951805547
0.509828835868849861
0.549888871774527277
0.595598501954108017
0.645004650604882324
0.458715662939801871
0.488349784804445408
0.521896594303531636
0.559405494970425687
0.598776730911351973
0.436658481414984145
0.462254593769896138
0.491370309710471409
0.521130471198694489
0.551210988126705881
0.40882526004897235
0.431156573132872589
0.454323932858909874
0.477922667736483342
0.499917674737290485
0.375094901787410617
0.394598803481247484
0.414837019959196973
0.434397684904859638
0.450734085479182645
0.3360175044749108
0.353798440426409622
0.372507083627962698
0.390915108248723109
0.406517544571359024
0.291665147308893813
0.308134958223057698
0.32624675130098596
0.34548009485784259
0.364455274230286286
0.242015881750786449
0.25698058085884512
0.274304204453550415
0.294245067048683306
0.316991807654664559
0.16806585187259851
0.176805045364340607
0.187393800193511872
0.200193089821359721
0.215678292177002739
0.234483182432254356
0.257370869811220482
0.114517091923764039
0.120666071925108184
0.1284261403824907
0.138222314626010589
0.150612088783615289
0.16627744684424553
0.186096672853576922
0.0583606982238957933
0.0614459982539894076
0.0657451062386461976
0.071681812488260277
0.0797943617616420769
0.0906077848651265505
0.10510546488678589
0.00036398027438123157
-6.15511951857878009e-05
0.000201035527231972045
0.00149638967246972909
0.00426960617137122408
0.00893913086920636139
0.0162723703337084823
2.37248431316341968
12.0182018674808599
0.753255137666485552
0.777506797662777638
0.460523757516171472
0.521066915926890029
0.861229289960156574
0.754287710280138191
0.74538024007047754
0.470218736006395077
0.507910262694322268
0.55696738696288961
0.628429562996793534
0.69879124809285964
0.469976728184531511
0.503491861980282951
0.543757158198897916
0.591347734622381105
0.644062932249959363
0.456115574972816407
0.485441611876938406
0.519641481851612852
0.556599941526442321
0.596109441026313025
0.434977005044160037
0.46076081143007408
0.489373442298485672
0.518167767863046191
0.547401517751547551
0.407462856973896115
0.429330131126748449
0.452434433117244628
0.475778596281779098
0.497369105380891963
0.373743968985855157
0.393099557166922409
0.413180029957253891
0.432615457019543015
0.448904996866753447
0.33462535794325593
0.352235687739170356
0.370781902605495262
0.38913011562870925
0.404997497836200149
0.29022558498669887
0.306478657019792877
0.324370068817550039
0.343459383095166382
0.362555822771591596
0.240576189551020975
0.255276574797181188
0.272295348863766162
0.291917878505250472
0.314363695017641831
0.16707558628043756
0.175654551358861599
0.186016571055682894
0.198521003349162423
0.213645922661921533
0.232035951060499762
0.254447112228453676
0.113639391646531682
0.11962540690556471
0.127158987943647356
0.136658945055292025
0.148682803922688289
0.163931858114961665
0.183233235672487893
0.0575930686152401269
0.0605297783962895006
0.0646218859068898033
0.0702814807366510946
0.0780394142882944869
0.088504720285876512
0.102525705656404273
-0.000287417061688129204
-0.000835406828902897402
-0.000746661388545201031
0.000313886837284525007
0.00277656778639353424
0.0071370951449519918
0.0140527657405505168
4.29458549407035584
6.54822135458851928
0.742870592633826154
0.804868248919825224
0.428214369684780882
0.468122207551091019
0.642185488785963821
0.741631768349671372
0.759192733755178484
0.460153939906701615
0.492116564055780081
0.580587855825005494
0.659192246510972635
0.708130241979945119
0.463999485420625413
0.495604894058153
0.541073037644478005
0.603817860175062782
0.683278364522796888
0.453114943745455134
0.482644686287000246
0.514275068920788114
0.549549544222108999
0.589186561485132265
0.433195050538671467
0.459295337275642312
0.486292420827230676
0.513675218525272426
0.542727224698350885
0.405917995982792934
0.427318632061803649
0.450084846842239039
0.472987744598304116
0.494104798266154999
0.372268826716600221
0.391326974185986443
0.411100451287632562
0.43029239635498473
0.446566933263463473
0.333036567751208823
0.350333071051779354
0.368539493045763222
0.386614868915225951
0.402506419216258349
0.288530706167208884
0.30440300982672347
0.321824424488805216
0.340384608620360463
0.359054504569721489
0.238840985264227729
0.25309540676740433
0.269513987786863418
0.288324269224905616
0.309658832294555764
0.165966346713630197
0.17430817800631368
0.184332613833285142
0.196369325867064348
0.210848428725407128
0.228340203464652419
0.249497657498073011
0.112633490021711899
0.118392759729081823
0.125605870017682891
0.134661881503600339
0.146084147553074556
0.160567422218549222
0.178644788340829863
0.0567087473370215325
0.0594473703199797643
0.0632602877050541662
0.068528304316346253
0.0757619937645656605
0.0855784386737430958
0.0986812063917115456
-0.00103100538011379806
-0.00173612882046851819
-0.00187522821951089996
-0.00112417092943738889
0.000925670198925572811
0.004774677154015812
0.0110124230114031704
2.60109958334912506
0.849292568827800021
1.49223357893232556
0.758873986156885949
0.433972456719677935
0.445585483669478921
0.497609391055155781
0.600824731178172255
0.808110140741077787
0.451517709736085349
0.478845354489569108
0.517551329470913091
0.665140836596247342
0.824108774598552252
0.458690053366814121
0.486886044713390809
0.523409869207956291
0.66026206133537102
0.681388350946752208
0.450406972983126153
0.476745543058708532
0.5103588653106782
0.541307512777678301
0.578811716574012647
0.431663603804176677
0.457018008127614062
0.481478065570655644
0.508888955069530247
0.536887595405954654
0.404435133887206977
0.425384044557696739
0.44753866061857922
0.46982201101364518
0.490456432635844153
0.370827681317280999
0.389461975991731491
0.408785521156955156
0.427617299961256581
0.443876377007336786
0.331380628578319902
0.348235753509128998
0.365937725891081256
0.383533726873899083
0.399212000323144967
0.286677799775175657
0.302021136238739329
0.318756955993941438
0.336468218680332554
0.3542096958811361
0.236888527935094573
0.250538410112447096
0.266114053574467713
0.283734815683378994
0.303377599065424219
0.164789946585546687
0.172821738029362543
0.18240727840851742
0.19382380979624142
0.207422130940185606
0.223641860344573035
0.242966358247626024
0.111541196498550127
0.117014333342743304
0.12382046962992703
0.132300401878071489
0.142903899423631436
0.156199897588069014
0.172797586672989473
0.0557401221366204819
0.0582355829105248163
0.0617018092537115967
0.0664803843343195755
0.0730333584348487608
0.081940697316500638
0.0937788018082348213
-0.00184469901620806548
-0.00273599988597715733
-0.0031444928442858856
-0.00277144308278459749
-0.0012365520741074484
0.00195152329617145274
0.00725904189472081213
1.3672660917123618
16.6548216915714988
0.676873263667483238
0.587398492457619881
0.399154075668085584
0.409512436135896274
0.455485691356353528
0.597706582116888208
0.842632906742873167
0.442101481918205086
0.461001058104212269
0.49439445223010281
0.564736678161056993
0.821633069754468259
0.456597560764939514
0.480140271777448113
0.522164532103122192
0.575221697377187646
0.598417668554521276
0.448988920628952293
0.473581053766341742
0.50214712651994986
0.54276474606276004
0.568474573360775115
0.431067464121410171
0.455324471742238945
0.47863910361686185
0.504391797975581646
0.531268275053873973
0.403630969384751737
0.42390359003277911
0.445234728595354567
0.466750478345247521
0.48694773258978713
0.369611044150904289
0.387741684765762318
0.406499613960677353
0.424856786952775844
0.441049931773636772
0.329779297498204282
0.346102467663429725
0.363176792616896948
0.380135848759059258
0.395418421144782095
0.284773566828272207
0.299484601637720116
0.315391066633354533
0.332047438570666209
0.348545773295130923
0.234820098800596372
0.247755966626793334
0.262331471943533789
0.278540288096070066
0.296194654282162073
0.163595794504823339
0.171261493094715195
0.180334156006133617
0.191025090904645589
0.203588263730066721
0.218314563144571677
0.235473989132174988
0.110406952490925386
0.115548270935900838
0.121883937284721786
0.129695371169342322
0.139346069638205061
0.151287042705813141
0.166028111596520922
0.0547231027187384603
0.056941261028489086
0.0600116735659284167
0.0642291453167443405
0.0699876863151762257
0.0777866690723249127
0.0881842156699045865
-0.00270220332309322516
-0.00380093645279686726
-0.00451045655524146775
-0.00456627084342592273
-0.00362483215407035297
-0.00125076788871393237
0.00306173670845895883
235.858418452180928
24.7952091970770603
32.1968823202550993
14.2721070878712535
3.81432894778843368
10.9852500818713352
18.761063070712904
1.16695147625522511
2.95705913253613017
7.61107785288375727
9.0130850460854699
48.0036116056522459
48.3144265724976592
42.8998325263164162
41.8897945582604265
7.27245237773162589
13.6171816784113204
17.9597137955608375
1.33051338170857369
5.22670763177960929
7.34214851244191369
9.25617561838406289
181.566476154084199
150.242878256376798
107.85538208258707
139.626465128507078
27.0959778999705776
16.2788651176548171
9.19445047878310362
5.97076841386413815
14.4795908284645147
7.16828034898753508
3.93861400066831813
33.350006815709726
75.2066992640374394
128.691752023637179
143.79926306317941
102.733177159589488
110.145024645382662
52.9533031985736571
95.4093074308709532
84.6315036479040117
16.5783907492740248
4.22751853347566176
23.0354471358314576
23.4454050873161748
27.4242129746416943
22.8079533780510886
42.3763769288086891
55.7577794150327293
53.8317670186652535
25.2922405131970898
46.2971758402587028
54.1028858027387969
43.0070574722975181
17.5241272422864647
18.4398976386949656
14.619781043909132
15.5945320676498547
8.55553570998318769
11.394486359949866
14.5315426837010264
5.34926482669123882
5.32923185213008654
10.2739741993174665
20.5424895586076666
20.2195270227956421
21.2404346735615235
18.2754696963230252
19.7007879946395548
17.7122533179559412
15.3279514027455619
21.5487616240292716
6.52586754002079061
6.84793259405655164
8.77958860083476544
12.0916423923307157
248.009059122658101
223.633246582209779
228.864923843772942
152.209254680129021
211.158480182520094
114.915590785911959
9.11410272609220762
133.739034546804476
34.160033944500384
-2.34907871439676219
-3.82519723860115279
1.08861129413420876
1.02756301869359157
1.45246520062457107
1.22953163896416573
0.742113716605700136
0.787363393271723444
0.90763680031669125
1.05207363619844396
0.713413954240756598
0.787964959358635531
1.0865627664427262
1.21099917981086569
0.675306410576431149
0.760188272109940222
0.98345436734165248
1.03756675454505953
0.655404784362631609
0.699554569431388051
0.759722028915584158
0.838054764407438313
0.624049007947042655
0.659607296164989365
0.712888930247375985
0.780864209423571154
0.577869083654872884
0.603760711964238306
0.637838872382402888
0.699873535772092326
0.517954960489349747
0.532195490256682668
0.544824574086991475
0.595945463951886634
0.460245243435324303
0.458625897666863569
0.447401671029112435
0.466881957791619062
0.413142423881376675
0.407521864396502342