/*--------------------------------*- C++ -*----------------------------------*\
| =========                 |                                                 |
| \\      /  F ield         | OpenFOAM: The Open Source CFD Toolbox           |
|  \\    /   O peration     | Version:  2206                                  |
|   \\  /    A nd           | Website:  www.openfoam.com                      |
|    \\/     M anipulation  |                                                 |
\*---------------------------------------------------------------------------*/
FoamFile
{
    version     2.0;
    format      ascii;
    arch        "LSB;label=32;scalar=64";
    class       volScalarField;
    location    "0.870000000000000551";
    object      rAU;
}
// * * * * * * * * * * * * * * * * * * * * * * * * * * * * * * * * * * * * * //

dimensions      [-1 3 1 0 0 0 0];

internalField   nonuniform List<scalar> 
7248
(
0.00170494598362964348
0.000270477512238984335
0.011187662706824409
0.00974363065604773662
0.0199341673305452327
0.0180945498352524242
0.0162399853901647462
0.0142539875873895425
0.0131330061563276253
0.0180889296283822353
0.0168588041695666054
0.0158744885898093289
0.0151870064615094672
0.0141165373707393942
0.0193552449746640966
0.0187002817563874345
0.0178601662426991457
0.0169860978587007654
0.0162448819507207513
0.0196905507921569904
0.0192250491264068547
0.0185935408175454051
0.0178647925676056751
0.0172027496402555879
0.0200509170076893992
0.019480717367752573
0.0188115944510611026
0.0181257387178130128
0.0174540847192650901
0.0202961137516109585
0.0197370987534230859
0.0191132252932909273
0.0184550833875309836
0.0177745937197177871
0.0205731821304754245
0.0200596385188847662
0.0194909229554262667
0.0188730477500605211
0.0181999774470283197
0.021005694681306121
0.0205347604185522718
0.0200186661456670939
0.0194494730518847379
0.0188102309744372712
0.0215251634430450763
0.0211156162696736031
0.0206729654858565023
0.0201854984020157294
0.0196338370054759334
0.0220996752953686419
0.0217612317189119706
0.0214080491682246445
0.0210321004713390353
0.020618749333280121
0.0232379626943045488
0.0229609600497915969
0.022688770417824973
0.0224225318608284492
0.0221631276033825257
0.0219096968703625314
0.0216575971207607666
0.0237164462096001866
0.0234790694993302351
0.0232546587992777179
0.0230487629604643786
0.0228677329731978504
0.0227186755731086931
0.0224632172224694324
0.0241733950272631712
0.0239637569153919802
0.0237705725014922334
0.0236020412186573499
0.0234680291234431772
0.0233813063673290987
0.0231562422868325235
0.0192319668154954208
0.0189224320733050386
0.0186389906698538159
0.0183943095549670699
0.018204064616283995
0.018086080518911498
0.0180208369177016874
0.00168414505561564508
0.00022822908937305907
0.0122281005829861806
0.0103555959274243287
0.0198345534366567607
0.0168255793627852118
0.014933849702964519
0.0148431454920899195
0.013730887464897772
0.0183882541571047595
0.0171736775067982024
0.0159772569143075277
0.0153068497624563489
0.0146918359878490667
0.0198167307952673913
0.0188533851017072054
0.0178855038442484494
0.0170483126577788587
0.0163329650101044117
0.0203105803766844215
0.0195974890405636731
0.0188198358800570863
0.0178689308775123838
0.0171213499811905534
0.0203623902292225933
0.0197155385491575436
0.0189610680901927259
0.0181221481593593046
0.0174065324755164896
0.0204972152476752163
0.01981940907433348
0.019111074826496717
0.018419741458874761
0.0177460559957712503
0.0205868104287168716
0.0200416981456411278
0.0194518586081687157
0.0188260426222215116
0.0181594125928943272
0.020990455122569935
0.0204967171850508022
0.0199579430204281649
0.0193714233832816968
0.0187245527867156078
0.0214746641944338588
0.0210404597052824306
0.0205706636059507682
0.0200553398231373033
0.0194765498605334805
0.0220262902396565381
0.0216606358092649512
0.0212736084955594332
0.0208564247508929955
0.0203940358604570611
0.022602727420062297
0.0223069284880913488
0.0220091479230930462
0.0217063807809397928
0.0213917415501914988
0.0231643133630409677
0.022929538730724737
0.0227102749187137187
0.022511133957690263
0.0223365310801017063
0.0236845348249067889
0.0234905845596956146
0.0233224843736964879
0.023190332004214758
0.023053114485065463
0.0185299318897990707
0.0182599130495680433
0.0180338244821952667
0.017868317834201182
0.0177652129322070015
0.00176483494828434564
0.000212901971096977151
0.0131299386096284179
0.0110046329720452727
0.0178492391355104599
0.0146499666068348831
0.0143999620437462415
0.0152290283527374073
0.0140948010122891997
0.0181014652292339519
0.0173574912272676275
0.0161901133274574872
0.0154556047362427521
0.0152028342982103819
0.019643632354042824
0.0186170561993060021
0.0176599253321395762
0.0169103210310500608
0.0163088428112804704
0.0206998194940825712
0.0197595803341582416
0.0188523833943893965
0.0178510307165317475
0.0170752936907990274
0.0203136538270992859
0.019670639476411355
0.0189703352727444673
0.0181066889236370931
0.0173815128002268483
0.0204455982175462611
0.0197569778015920343
0.0190514437093692972
0.0183717457018142717
0.0177220375735744513
0.0205879997397199754
0.0200243973077283838
0.0194267874548422863
0.018802978589707163
0.0181500914114395735
0.0209771013827778248
0.0204685434967181931
0.0199188618128710755
0.0193277976346424331
0.0186860528385237173
0.021438973108504629
0.0209892129166505091
0.0205038804814931704
0.0199751291450199694
0.0193874102861312618
0.0219745974056176456
0.021590169056618258
0.0211812892986346264
0.0207397318484444058
0.0202516171927186045
0.0225386170432918947
0.0222215977406149158
0.0218973444334530989
0.0215623618208264818
0.0212098944658253123
0.0230935015163198296
0.0228371104525730353
0.0225899249317671157
0.0223556282806421959
0.0221379572915024019
0.0236133800622195869
0.0233992271641273418
0.023204482317923103
0.0230380537557467527
0.0229118822710533548
0.0184311408315171871
0.0181390831598724316
0.0178824292958726094
0.0176752638487656967
0.0175362008320154618
0.00167574424753381252
0.000206438502162176077
0.0133185312542812243
0.0113964157772650787
0.0168716827433148912
0.0151617320309130801
0.0144976656001916705
0.0145572591304875716
0.0137947189245146793
0.0167637691238902327
0.0165950455681711205
0.0161566502252212287
0.0154517638545607367
0.0151623763438266165
0.0193821884656624616
0.0183155652993337373
0.0174631992766014765
0.0167909802764560807
0.0162555382724461212
0.020920786318822028
0.0198408935019413445
0.0187670559565956893
0.0177881970107960051
0.0170200617672673117
0.0204053202480847969
0.0196160395057526117
0.0188060396262149446
0.0179972335114836415
0.0173186687449162595
0.02038808632742415
0.0196827685642965641
0.0189865706577550634
0.0183327452020929059
0.0177147795139337358
0.0205854792709094965
0.0200156252367895866
0.0194198229575813612
0.018804502286191422
0.0181679245107314903
0.0209620105672379993
0.0204495710121391262
0.0198992792033064435
0.0193138642411929233
0.0186861495970237906
0.0214183199832137482
0.0209624582433126545
0.020472012490995891
0.0199413211971494198
0.0193571611853516415
0.0219452492280042925
0.0215498997974525631
0.0211294101537959599
0.0206769725164716658
0.0201804216993093262
0.0224977709029581981
0.0221673202247206179
0.0218272288654647977
0.021474494181115987
0.0211036745104057795
0.023044236501881369
0.022772994612391375
0.0225074161167091932
0.0222512281011832923
0.0220091457526056661
0.0235592095978427556
0.0233300820521815527
0.0231161465761949569
0.0229261099987008513
0.0227717820406121083
0.0183456173226957918
0.0180353723170181973
0.0177537576772477945
0.0175131156790518661
0.0173300101664922539
0.00154247747321755086
0.000200342915875280754
0.0134915935182755506
0.0121517870355642155
0.0173321883124250738
0.0167635578238480784
0.0161552857762160933
0.0148811443615304156
0.0137292350257271472
0.0169176075618186449
0.0163469843252383347
0.0157763111477568357
0.0154121602338033025
0.0151703642468204603
0.0190352536718277621
0.0180484796502503701
0.0172729185154864295
0.0167129988750348846
0.0162409525747924111
0.020001110110697197
0.0191831411449104698
0.0183428124225399128
0.0175527551368749243
0.0168814661987016709
0.0200241930791858237
0.0193038891085412986
0.0185536332216174292
0.0178629180513624752
0.0172622678138726997
0.0202096144870917531
0.0195718096734785151
0.018936384187078284
0.018328262928694921
0.0177415612446583139
0.0205518249580802503
0.0199973310740268577
0.0194168655393440574
0.0188185544920809918
0.0182031783841235389
0.0209466468685529546
0.020441524154489181
0.0199016540283023617
0.0193308323285775775
0.0187227435647361884
0.021418848420032343
0.02096303261487217
0.0204743838883529108
0.0199492020605909377
0.0193763116614214734
0.0219390913489422162
0.0215396074357680836
0.0211159794443931334
0.0206629521697367091
0.0201699859041741918
0.022481533112799934
0.022144388764567504
0.0217972588909210487
0.0214380820556050317
0.0210628078254040292
0.0230176095693000217
0.0227376318959028947
0.0224618974771821286
0.0221945624661721574
0.0219416218278000279
0.0235233054092407433
0.0232842351844586432
0.023057893076092361
0.0228529531156993169
0.0226818883499531644
0.0182758625252583788
0.0179514943945544223
0.0176506799888462053
0.0173848103741906651
0.0171691796467997974
0.00157635181976102092
0.000204901553157362697
0.0122196447780934542
0.0120742109448890647
0.0160654035676112694
0.0155609979463497434
0.015020383288144536
0.0146403986286295484
0.0137681231509394538
0.0163772512397004771
0.0161843260361601987
0.0157374819622268722
0.0151578573574824276
0.0149408676943403058
0.0180981535168077863
0.0174465691990114379
0.0167721201536565161
0.0162977833409873978
0.0159384766218547136
0.0191652291819232358
0.0184389299579441196
0.0177884908158161235
0.0171996547548981492
0.0166934056954946355
0.0195585968524496084
0.0189520380295979431
0.0183441099738838737
0.0177720521224680565
0.0172519285047661661
0.0200803821787839988
0.0195159698310343847
0.0189311103463522812
0.0183559758125075752
0.0177908289263539882
0.020528049910578005
0.0199930579307460651
0.019430668782704736
0.0188533897400227322
0.0182612269771330674
0.0209594653586445065
0.0204645256013627694
0.0199376794264172832
0.0193831478172422529
0.0187944069290510371
0.0214446455492154735
0.0209925326955411988
0.0205103071467389528
0.0199958155416241797
0.0194393144230877377
0.0219587751980741853
0.0215603486357934075
0.021140172622519663
0.0206943114672914763
0.0202137514388290827
0.0224908386258116863
0.0221525643500276349
0.0218056276241070032
0.0214490294335912095
0.0210801131860151002
0.0230141666983695523
0.022730892921500951
0.0224520776131202152
0.0221824366860235225
0.0219291974436559081
0.023506503799374856
0.0232621738648384271
0.023029526693409446
0.0228173620457622593
0.022638857955256074
0.0182238469972656469
0.0178893960369543165
0.01757491473792238
0.0172911384403976257
0.0170524353137920977
0.00161342752118968339
0.000214638867852502739
0.0114786808021231177
0.0113318287955616933
0.0119847564818454325
0.0120143641356452932
0.0127717392958265185
0.0134805344328963756
0.0134775805593075771
0.0127659315174355869
0.0135882460929527202
0.0146032876223919222
0.0149701069695611748
0.0149816335596467884
0.0151147906539604981
0.0163150646435485241
0.0163669630144058879
0.0160879945133392821
0.0158373629103589937
0.0183152433816596745
0.0179560379999873093
0.0175089162099320642
0.0170632075762534204
0.0166694806967505639
0.0193656326989522926
0.0188632105301787499
0.0183251934656577867
0.0178110357321979752
0.0173291486457713938
0.0200773525826448418
0.0195365846249809585
0.0189761173945997563
0.0184203147475290666
0.0178715016536074925
0.0205555816845234586
0.0200343388118914244
0.0194893005796201065
0.0189299487996055227
0.0183565688535383895
0.0210187190743659352
0.0205295530745554129
0.0200119204186711558
0.0194708697314087444
0.0189000360098298993
0.0215012880768304521
0.0210534573538720612
0.020580117900480966
0.0200795507327820311
0.019542596567993311
0.0220065060990988631
0.021612725124661003
0.0212006656909307159
0.0207673131578572367
0.0203045195854856843
0.0225260070502848221
0.0221911606918375678
0.0218503273277018649
0.0215031759417269007
0.0211474021381144635
0.0230339174239908573
0.0227522747408047225
0.0224765651063807692
0.0222117593291169778
0.0219648510675976676
0.0235091774987889503
0.0232639977311669237
0.0230306747063378815
0.022817914792798679
0.0226382536902052581
0.0181910796879876414
0.0178504794825987759
0.0175276284444820796
0.0172327751377090339
0.0169795164714345616
0.00180595605329927369
0.000226875112127761881
0.0111591463899289225
0.0109163051885822256
0.0142679906056800664
0.0125411607907045791
0.0114695576256078
0.0115915369638516716
0.0127782963090638697
0.013545429115547054
0.0125650716385327793
0.0124264736321478258
0.0131830116469043371
0.0147387605683129315
0.0135230991121501973
0.0138627752732278266
0.0148227418085170055
0.015940008460907585
0.0161504076629749513
0.0157955803162038062
0.0172085387197090239
0.0175352040811036641
0.0173798777538886583
0.0169849226275923665
0.0193063120707136701
0.0191205361575820659
0.0186246631750217953
0.0180476834904812235
0.0174993609459021329
0.0203266249539990201
0.0197284515918159063
0.01911375885586937
0.0185282671826045332
0.0179779683719607022
0.020674369283753595
0.0201249906696019387
0.0195818771015946261
0.0190341098176049911
0.0184750571104659485
0.0210999714432697112
0.0206166862895798032
0.0201080005381870097
0.0195783855637194984
0.0190234073146030545
0.0215742289565413158
0.0211306821223402296
0.0206668980196632289
0.0201822652633782719
0.0196677179250356951
0.0220622452702191815
0.0216761220492955077
0.0212770772509089344
0.020862155708503128
0.0204234571392712706
0.0225655072234969035
0.0222391525992052426
0.0219107043730801983
0.021580497087679569
0.0212462079821042447
0.0230550096978134854
0.0227801832133121898
0.0225142195631281711
0.022262374012431245
0.0220309312329413365
0.0235091794813555056
0.0232679468746992309
0.0230400549048828986
0.0228342711254927409
0.0226625440602673429
0.0181654598006631383
0.0178230448052302502
0.017497472248809591
0.0171987023925960526
0.0169397484738636923
0.0102234075006373461
0.00940912092538228814
0.0149162003757531067
0.0151121068636446507
0.0233618710856362925
0.0236186136201561973
0.0221669708731005895
0.0199898485744013955
0.0182329638741588196
0.0192700492432780132
0.0197359170635452094
0.0199001020772499558
0.0201414537198899082
0.0208095003643390015
0.0185171890392823169
0.0185615341629745724
0.0186508738215272717
0.0188623737479926418
0.0191141451190401691
0.0200393280477893648
0.0199445802317789259
0.0197023661247829746
0.0194468423648587567
0.0190932197524566263
0.0201918020038482394
0.0198653986585808698
0.0195287347308037013
0.0192312928818448442
0.0188281456472886577
0.0205449971562906182
0.0201970917412799961
0.0198201703236319873
0.0194063512251414425
0.0188795847759392794
0.0210829800275054262
0.0207264342791430405
0.020346876563346359
0.0199551788738955051
0.0195119573375527912
0.0216986158667545267
0.0214512817039916349
0.0212516806096278849
0.0210916435506396764
0.0208955831997902318
0.0224209073650041522
0.0223203766670371367
0.0223016062760704806
0.0223476152210355244
0.0222198172647694592
0.0231778371664247973
0.0231832391865335087
0.0232845254537866163
0.0231115828471397354
0.0222897131763232538
0.0239976728425969829
0.023879643838190117
0.0238344335543000455
0.0238788925059127653
0.0238691875451428372
0.023405946184859007
0.0225472885695725926
0.024425295075211427
0.0243153610599138766
0.0242763956962447486
0.0243315514980625286
0.02420269757528664
0.0237456394721608892
0.0231747711355595673
0.0247303177490383989
0.024620467218446615
0.0245734328053769623
0.024600909546254119
0.0244940889305568683
0.0242235272984152941
0.0239782858045161709
0.0198397023118897162
0.0195935587157446897
0.0194123678414465303
0.0193136453566916388
0.0192837807799697489
0.0193544349011985223
0.0196160491570969535
0.0140389029431250249
0.0122723867297951181
0.0186271629867532477
0.0181842568637671613
0.0161197201859138474
0.0171116599084820756
0.0184972756681027715
0.018961946712042755
0.0188940376575665384
0.0167931076325501874
0.0169697090004142653
0.0170036506184724837
0.0170780865946329879
0.0172742298395654054
0.0179632318782807672
0.0176737403902057673
0.0172872046967960658
0.0169981667029322943
0.0167924531141728124
0.0190055982497334408
0.018718418262096078
0.0184066426328832085
0.0180413130634911635
0.0174909068402092083
0.0196395956478027205
0.0192839250876824242
0.0188952458937622358
0.0184408664149886201
0.017848681012601425
0.0201812895076485081
0.0198353055033621134
0.019437272863279037
0.018964559513783754
0.0183995080366931782
0.0207978262143551015
0.0204573497166462073
0.0200724615348530783
0.0196318639902063677
0.0191440196922952784
0.0214578391738045222
0.0211689084621781813
0.0208745599507155558
0.020591594776682022
0.0203486024945873159
0.0221558436213350404
0.0219752339767689507
0.0218554466891729866
0.0218327004763705194
0.0216507125888683108
0.0228662358030814888
0.0228100802074069527
0.02286500224067433
0.0227168591818781331
0.0219061098315989702
0.0237287100467168457
0.0235917860842812729
0.0235260087412097509
0.0235554755325902317
0.0235842390796307741
0.023163053261016895
0.0223081065550505379
0.0242051928408501225
0.0240975864992469466
0.0240611039433992549
0.0241212476406937743
0.024013164764890637
0.023577486078429525
0.0230220484189314345
0.0246043617300369319
0.0244969114254364358
0.0244516321588497711
0.0244821124671031239
0.0243816527442521774
0.0241174840578271821
0.0238762749125864815
0.0197390073902138086
0.0194990947106274473
0.019324282354636832
0.0192326543720132484
0.0192115797299742298
0.0192922840865594816
0.019567796057664566
0.0126899852821803685
0.00973281588958632878
0.0178848044152400409
0.0173578195767511573
0.0168216157561145926
0.015953327534065382
0.01716691156402168
0.0193525049273534991
0.0206262765423533591
0.0171911269497422199
0.0170292860473530462
0.0169456704159384845
0.0169103417729357629
0.0169506881237225758
0.0185425099304077981
0.0182112436294253159
0.0176252266399289301
0.0171535053763333598
0.0168094449959602758
0.0192325585494088312
0.0188313331469962472
0.0184328433617194504
0.0180285151958676192
0.0175631818658868941
0.0196446493301043607
0.019295945395261152
0.0189041175331440547
0.018443892399781444
0.0178882277968044102
0.0201603760308233758
0.0198067101356256756
0.0194005255371418293
0.0189210995154174416
0.018353656009235414
0.0207507586363178814
0.0204093903400403252
0.0200318098245536001
0.0196032853824548818
0.0191088108457508517
0.0214138066819230047
0.0211344616495705781
0.0208484654024319802
0.0205560243055872977
0.0202716518702620759
0.0221091886346973521
0.0219227215743191955
0.0217830917755645788
0.0217206238988024124
0.0214088099439758359
0.0228024987701183832
0.022721449315749858
0.0227366582182608225
0.0225403002369964911
0.0216556085656854184
0.0236762686652709185
0.0235269995309161477
0.0234401104885667393
0.023438397508783744
0.0234510166708158593
0.0230118582925389163
0.0221055621551931418
0.0241499473926433186
0.0240291359299394866
0.0239730303411991724
0.0240062064763930036
0.0238919595173340583
0.0234498725330964559
0.0228560070931094692
0.0245590446363877432
0.024441507577723582
0.0243815865705048762
0.0244024434208945026
0.0242930074975848918
0.0240115152228654455
0.0237387816128123638
0.0196942430422507309
0.0194493618448904199
0.0192667121464185076
0.019167139207775602
0.019135745850318811
0.0191995561328336187
0.0194544394659920544
0.00975631324685458622
0.00300777333352248788
0.017923132229173664
0.0157931956284017329
0.017379424766504805
0.0155666585570664803
0.0154501219143429076
0.016947981145200481
0.0187680001511533745
0.0174063897178074536
0.0170839589852281627
0.0167747303178615893
0.0165233195683161666
0.0165446527330600848
0.0186746033451862213
0.0181897062428431518
0.0175953390234955959
0.0171473780351924301
0.0168414202294586424
0.0193600818052881291
0.0189321204204151022
0.0185171627564519117
0.018108797095569968
0.0176597884207689466
0.0197028319551391974
0.0193590646496053093
0.0189566658610750664
0.0184838207164942959
0.017913543000131104
0.0201434377993235693
0.01976797533733975
0.0193411267903727292
0.0188380769564601598
0.0182467229061342023
0.0206899614908330615
0.0203259243694247048
0.0199244528816862679
0.0194717049668887456
0.0189458852338815487
0.0213273774780086585
0.0210268808393247186
0.0207156838086016738
0.0203882449075950996
0.0200419957625455405
0.0220047315188686109
0.0217916804102656
0.0216138046112707635
0.0214907897655448009
0.0211805691428053472
0.0226875418521402909
0.0225718539443138071
0.0225353008937980055
0.0223583509984464739
0.021477910685042241
0.0235992379347003262
0.0234330166451558776
0.0233202146432864264
0.0232808181718211042
0.0233124605811892843
0.0228906676427368602
0.0219223963120227169
0.0240784754822240335
0.0239415119144576333
0.02386163333857131
0.0238611139742324584
0.0237601934318091429
0.0233298540298780971
0.0226830934208581345
0.0245006830683449153
0.0243707328907754595
0.0242926669022496579
0.0242875910205601619
0.0241823299355116463
0.0239014138408190774
0.0235871186701464876
0.0196334356875179639
0.0193816171838826108
0.0191878704716984157
0.019075655187602663
0.0190288071978591995
0.0190701836250078589
0.0192862531562992927
0.00637342639649257983
0.00295199624947365758
0.0179465952258218535
0.015453418869442806
0.0168384237830483917
0.0162139365454487989
0.0147140305917300013
0.0160761837806255616
0.0173506016938846895
0.0172527394575145501
0.0170730223601256934
0.0166086534279962436
0.01637773657988063
0.0163310536837523133
0.0187442949699612796
0.018108112183850205
0.0175056505790742931
0.0170497484304096628
0.0167681192771187496
0.0194499491146911015
0.0190094281242638198
0.0185453162509583158
0.0180773360842526494
0.017592663032816775
0.0197735915582818444
0.0194265014068607314
0.0190094827824802796
0.0184932874490964134
0.0178725106082575948
0.0201377413002500755
0.0197374882051808455
0.0192763745845973139
0.0187303220028491833
0.0181002247355731456
0.0206411314643075647
0.0202481438417650046
0.0198101179237318847
0.0193122688691176637
0.0187338719316406319
0.0212394866344324043
0.0209053672846064471
0.020549746961914795
0.0201617847352016898
0.0197283836816928987
0.0218904104045020628
0.0216373902815509139
0.0214019633905842797
0.0211922212140366502
0.0209985489052452352
0.0225575035944352922
0.0223963494553307309
0.0222920112974480285
0.0221946112182531512
0.0214164356605443529
0.0235178318695762438
0.0233304888810197779
0.0231862472630249596
0.0231009509565540672
0.0230994922176358912
0.0227417682622315202
0.0218149987750529926
0.024001966082893355
0.0238459227983869454
0.0237380186530856199
0.0236970444639954918
0.0236287569700812036
0.0232388487236842127
0.0225505061288984524
0.0244361676890667637
0.0242915082604561461
0.0241918957206852074
0.0241558574921940591
0.0240650198776081355
0.0238007794920180732
0.0234478839099570915
0.019562388828530862
0.0193013955069088923
0.0190930570432071463
0.0189591841336571969
0.0188934073644075641
0.0189080495250599709
0.0190722757517374948
0.00655628075651637846
0.00476411518185498525
0.0161090620562649826
0.0143122710547312539
0.0182583029116933707
0.0177089674568095164
0.0157559514627123101
0.0152312346232262395
0.016218707251681487
0.0176068578348916836
0.0174194447033124283
0.0164437667855429695
0.0158613406656637757
0.0158250303327228808
0.0188823842888611523
0.0183454272032083296
0.0176097297009493309
0.0168186279525522273
0.0163562149394199975
0.0195214487359523653
0.0191118551473722746
0.0185860910756503774
0.0179490980906597437
0.017337948082642194
0.0198377557029762487
0.0194699756934050942
0.0190067263925658946
0.0184091026199072055
0.017726025297606321
0.0201485506411802628
0.0197144527121932353
0.0192113109385561899
0.0186223119966352386
0.017963066431020587
0.0206070822675071402
0.0201831183656058094
0.0197076910791147766
0.0191659404668969614
0.0185409636253168961
0.0211607777674131976
0.0207896337692633146
0.0203860006783871742
0.0199352233961632534
0.0194191245078890358
0.021780862253320727
0.0214836706469122424
0.0211858138812067824
0.0208855133142184547
0.0205797737612212275
0.0224271860084398304
0.0222164547556112195
0.0220390817031263023
0.0219085131609825373
0.0213304045087735344
0.0234385280218457823
0.0232277831718666512
0.0230492932442012202
0.022914220308729541
0.0228391235564689501
0.0225905289216072822
0.0218074223651967998
0.0239247309935166977
0.0237477629665360096
0.0236093379880436063
0.0235243219572614098
0.0235078147733685135
0.0231848977915578881
0.0224772337656935321
0.0243684988396931854
0.0242075605704228439
0.0240842787763376302
0.024014210469257731
0.0239479681991837563
0.0237158924735503228
0.02333286909402996
0.0194838709042906288
0.0192118711035240801
0.0189861444910628639
0.0188264190589574887
0.0187387647232340714
0.0187214740996453285
0.018821547135083546
0.00787323503701847088
0.00554109933585731924
0.0103952056733294176
0.0120537371082525026
0.0182473436130640709
0.0180997465033412366
0.016776138295375595
0.0148675248862227671
0.0143457462739945262
0.0178270145454678813
0.0173349437821673537
0.0166141232508574682
0.0152220928529681748
0.0144199084570446213
0.0187474947451958251
0.0184692135371406808
0.0177848462291590077
0.0165458466817240968
0.0159847649277892502
0.0194455229273708015
0.0191637852945499079
0.0186136662504040873
0.0178937148824442234
0.0171561325046643738
0.0198893268898201019
0.01945581838277783
0.0189348962012583326
0.0182797233919974496
0.017571053098126916
0.0201781631756850835
0.0197013330588382864
0.01915869720363262
0.0185399109149320569
0.0178654988511806681
0.0205833072616288179
0.0201276719497371984
0.0196182373648430761
0.0190420914715595142
0.0183868403185380794
0.0210936869345840113
0.0206859867904191363
0.0202378979773540843
0.019734482187793001
0.0191565253325041672
0.0216809710841458433
0.0213408083083246117
0.0209848003092949834
0.0206047518065009608
0.0201864383922815416
0.0223036531128220292
0.022044497268020373
0.021797931888496401
0.0215658851884368875
0.0212510491773784949
0.023363919565791081
0.0231293268873602603
0.0229165249030437827
0.022732377949010063
0.0225863301272914395
0.0224817012106971609
0.0218949434655356656
0.0238496365292899005
0.0236512446179200087
0.0234818488680322256
0.0233525536414867334
0.0232779402673089185
0.0230561784031241522
0.0224751868453629614
0.0243004089981242281
0.024122552685107098
0.0239747121559635117
0.0238696076375725548
0.0238242310566010619
0.0236373487412097905
0.0232469300012338523
0.0194006902422385677
0.0191164685471898743
0.0188717225135996251
0.0186838169002271452
0.0185723546021236627
0.0185199025588939949
0.0185515972493037994
0.00443279363358018656
0.000515933894143237202
0.0101897980080651162
0.00993597498028077342
0.0179818310080264235
0.0172168482527226066
0.0163981693064177841
0.014456777388096545
0.0129846498263387379
0.0177806729753218103
0.0167824571023207289
0.0160612250403171439
0.0150871829340119105
0.0138426386403577694
0.0187545031970767009
0.0185088501561407638
0.0177860612444087456
0.0169210127634299261
0.0162660577828691831
0.0194468779642466318
0.0191813263798850595
0.0186188179425765786
0.0178929337815300106
0.0172097781973222438
0.0199929922034794497
0.0194447726951511683
0.0188586893185550414
0.0182023839010243445
0.0175165407360650983
0.0202264313299938651
0.0197060004733761208
0.0191247012920954598
0.0184883427403337713
0.0178092175771453302
0.0205742472791394584
0.0200875219089106903
0.0195462447916215157
0.0189452505464883895
0.0182753335739810029
0.0210418969774560059
0.0206000558941272956
0.0201138465639547799
0.0195710834356301877
0.0189535472724076219
0.0215947274452299096
0.0212164507131396216
0.0208115127940905545
0.0203685723299448021
0.0198688955230097962
0.022192971325901284
0.0218903185895850672
0.0215841610995567458
0.0212696088463050839
0.0209362932957314271
0.0232964333009863973
0.0230393207296963783
0.0227946341262306278
0.0225659028365330361
0.022357352714702565
0.0221729348603633032
0.0218258697729012269
0.0237794299452428609
0.0235605130669581386
0.0233618860983271504
0.0231914819214771896
0.0230590783089363038
0.0229536051958351972
0.0225260343669283908
0.0242345662062388306
0.0240401695326586569
0.0238685973364222009
0.0237300119300070181
0.0236373384884266263
0.0235097247533612684
0.0231992245155787334
0.0193157424160255373
0.0190187732862259797
0.0187543954184761705
0.018537576957563591
0.0183870523674936892
0.0183006028983033753
0.0182809095218483195
5.90047977282311754e-05
0.000318213426698549403
0.000422678478656498776
0.001611785713744175
0.0027213168680542384
0.00151693420742979204
0.00139464055100024017
0.00658096315771625282
0.00458930930230283876
0.00253939472144831205
0.00240817037855587182
0.000169023972429805188
0.000354329915163533349
0.000391397748535916065
0.000525576899714833381
0.00151627042203102505
0.000938945293189847891
0.00105225201101233779
0.0040441043161100242
0.00217747203527873844
0.00188558344328700425
0.00214292851070021226
0.000137742755427333477
0.000211608953838451837
0.000191345010254756156
0.000193428481555923086
0.000425021120128909514
0.000752072613701497395
0.00100425661100942993
0.00150134594959123167
0.00108823331167641935
0.00225668251959900432
0.00308838956042695265
0.000810165308551532258
0.000320950479661032866
0.000314994704394444493
0.000260470216438856426
0.000365634409389424531
0.000344918076153755224
0.000562161923836986769
0.000344093042095571942
0.000374164190914231978
0.000736931595871648704
0.00156554971494241501
0.00102371249085515988
0.000810174428460891209
0.00091081625491502415
0.00078031986596238407
0.000987617633520951072
0.000709417736993834072
0.000582419259656370768
0.00171596320418980638
0.000906568070507161265
0.000704140888782055566
0.000730878696381839256
0.00108175616528950335
0.00177352565606470145
0.00130522104182255504
0.00198035037147944494
0.00164252048690432715
0.00179570262973982879
0.00254821642756965921
0.00160852427568171233
0.00271510259245255191
0.00287210529547011215
0.00197188398022172693