/*--------------------------------*- C++ -*----------------------------------*\
| =========                 |                                                 |
| \\      /  F ield         | OpenFOAM: The Open Source CFD Toolbox           |
|  \\    /   O peration     | Version:  2206                                  |
|   \\  /    A nd           | Website:  www.openfoam.com                      |
|    \\/     M anipulation  |                                                 |
\*---------------------------------------------------------------------------*/
FoamFile
{
    version     2.0;
    format      ascii;
    arch        "LSB;label=32;scalar=64";
    class       volScalarField;
    location    "0.330000000000000071";
    object      p;
}
// * * * * * * * * * * * * * * * * * * * * * * * * * * * * * * * * * * * * * //

dimensions      [1 -1 -2 0 0 0 0];

internalField   nonuniform List<scalar> 
7236
(
7.41875653503980814
26.8818460622238788
41.1565093531930302
49.5453330154555189
52.1055927504069203
52.7937937160194934
52.0954269405650336
59.258665848561769
73.1496572936789136
72.4307039297012949
72.1357020316292221
73.074368118370927
75.2909161261907514
75.1066601798326872
73.5771821347809976
69.3025200468929796
66.5870558396853909
59.6992039264816015
53.2050730820824427
48.789787998488606
45.2036381451139349
40.7850867821842797
36.7822382944606545
32.7705664433453023
29.0446810768998098
25.5758164465729898
23.2824921702284122
20.7757496324604212
18.2776305479397898
14.8732429096454126
9.54713070853410173
10.3758206829925932
9.26585694670595039
7.34042004819609417
4.27267242105433986
10.2984034084333018
39.3573194713158827
94.1469045060795651
-0.257045559417308667
1.95273710939570022
4.95752299336501689
5.44321989468062206
5.8004314824549672
6.44615432140306499
7.57334978419241089
9.8042553765212741
10.0567311483405639
11.0512105333230473
10.9534826319056862
10.2802837018842332
10.2644661777455006
10.7029091301417409
10.3194701826807318
9.36195699951019478
9.45143056239577461
7.71019862108844123
5.972850045919321
5.25375785108855808
4.62565023263189268
3.76850638855676223
3.07825576898011821
2.57951828209810596
1.99295692556672766
1.54920726054572278
1.24837120608718743
0.873799447616479208
0.671386987136041502
0.525070095736785758
0.580232046073209107
0.501632515833239978
0.347614768729316292
0.257914891836695137
0.139616271091342781
1.10703769468358204
14.3202001988810288
67.040115347378844
-0.834413940425016376
0.35044967378981462
0.597885908937345723
0.436727355950248475
0.789298631073838575
1.22677806048146554
1.51633193058413429
1.83907828081292646
1.83698638796924829
1.60677701335240108
1.47859134477004162
1.27578496230746996
1.17969208096528
1.17062435312297541
1.29256469042924405
1.3175279352645779
1.08313128119555158
0.911653831501959555
0.767374776648890089
0.639587833473631351
0.539077419930446444
0.453417458176540222
0.364543641519209372
0.293522860856796131
0.241488499047528893
0.198140944942750474
0.161677972844433859
0.139619891704763854
0.0979844487366188233
0.052005711647216124
0.0176862120744139539
-0.039336457218906995
-0.0990050086385742545
-0.171592083666517542
-0.201478319535533912
0.10915476721384193
3.55368974617009048
32.9706400686365484
-0.727903096951603601
-0.265609356839285216
-0.168215610716828806
-0.273648724321225334
-0.278678773528410861
-0.167147111031844542
-0.00705971579612141298
0.0892141319250987497
0.0935047102779551498
0.0796193806855729491
0.0684198906578048494
0.070098082431993225
0.115649192405043788
0.149478872027748011
0.180219975409283029
0.19072685151711477
0.13710150685919209
0.0827317180757565218
0.0494561640489759036
0.0141902206605302172
-0.0094739009325084389
-0.0324541782008471724
-0.0539456266001953066
-0.0725095854773899484
-0.0843961758231555059
-0.0957141216833605757
-0.107505733191969544
-0.124704263110109848
-0.147443088334824335
-0.174344643493456353
-0.203969348060193623
-0.244518614159790704
-0.291150008295583629
-0.340100230036548989
-0.364152309133376428
-0.244667772774461945
0.540702902548653386
14.5479488135012858
-0.413963197013597239
-0.362433424230136803
-0.379920902434389751
-0.417595140936070641
-0.455494930994108815
-0.435063022002214139
-0.385817638294130905
-0.353423107779836432
-0.340827148013499392
-0.332397456546060233
-0.323800519941516263
-0.297614505020116438
-0.254390403760746397
-0.222530402944874139
-0.206236963825298214
-0.203106151771592636
-0.216631383061187788
-0.235798410316262474
-0.248504777519055198
-0.258632909098862607
-0.264120507795240433
-0.266064350055030596
-0.272161260575022268
-0.283337586261150687
-0.292716851005708045
-0.29891576333768205
-0.306591687075697727
-0.31983292533930574
-0.336742737770164779
-0.357470571057952824
-0.381910783281083521
-0.414916597210681526
-0.455435770244779436
-0.497301418392958605
-0.529301418199826901
-0.466052729853392744
-0.441958892544089821
6.82313761687816545
-0.392468539373735215
-0.439470655604605076
-0.492604079738991119
-0.500854047318606832
-0.517684441743039403
-0.517744338675804827
-0.521681272453415557
-0.520295782178137767
-0.514290102258634363
-0.507092040736076388
-0.498428152476062869
-0.479342478711881292
-0.454453080889364647
-0.437821547737705208
-0.432420582975893641
-0.433403523422964509
-0.433816178760374538
-0.435846619034401084
-0.434778475669342912
-0.434995638702566634
-0.43625422834172678
-0.435542603783726612
-0.437925225828172338
-0.446637617987823976
-0.455930552339115502
-0.461429738328364869
-0.467747142614321654
-0.477728250880843031
-0.490505953560704255
-0.507262396838185525
-0.530247881601225601
-0.562197248789193638
-0.602989787844593117
-0.647956634740647686
-0.69644519020557849
-0.637577246553262422
-1.0003610508759051
2.5094569265213913
-0.49873679287410555
-0.546470871295330118
-0.585628693433250191
-0.600250012529453425
-0.608688777480488996
-0.614036045287868371
-0.623926297473877067
-0.632751840249585418
-0.63678796851540076
-0.637200254203153071
-0.635020268263283949
-0.624932272291390145
-0.608717477156519693
-0.597143957386990776
-0.589538800526670626
-0.584143491061619335
-0.580461408736303364
-0.577508520309736095
-0.574170226596872224
-0.572987839161739454
-0.574850315977917137
-0.576793275109093617
-0.580217045420831634
-0.587192217830772023
-0.594506628149435334
-0.599151225636789353
-0.604534773261217517
-0.613612732044843678
-0.626199801641988629
-0.643265487753634457
-0.667449361683059017
-0.700801071183913105
-0.743533750496539025
-0.793618987961731137
-0.858174340931474045
-0.795379701378748361
-1.31500251963386416
0.423157329152799022
-0.680850077995488578
-0.656149302845741023
-0.683410270439380962
-0.696413907689593992
-0.708283721731156168
-0.721803494400115375
-0.737521041890811246
-0.750243034917622009
-0.756457541637136743
-0.757027549359349905
-0.753744450108447261
-0.747450587521567122
-0.737410603745448756
-0.728205723395800031
-0.720709141893766003
-0.714347474696182094
-0.709304795969431745
-0.706177501602392566
-0.70412135209996296
-0.703463090822716186
-0.705636415418908092
-0.708590369868465131
-0.712254809776162512
-0.71788835432268594
-0.724244207627254832
-0.729641383759650708
-0.736118084739513678
-0.745667142247285586
-0.758571383506295827
-0.776402227714442228
-0.801538799643109923
-0.83593764881964927
-0.880499674008441979
-0.936385999717852413
-1.01500337718862887
-0.958760454968809017
-1.51863398747024037
-0.435815959275243969
-0.800317189855436983
-0.762197735105950236
-0.783148427473197239
-0.797653256642012032
-0.81396766253130548
-0.831426065302012018
-0.850119068237898068
-0.864632839167248868
-0.87220512378033066
-0.873955912954985537
-0.871391687122280767
-0.866281902717518149
-0.859044791116750917
-0.851739603055416961
-0.84511241054368369
-0.839374790815957783
-0.834959967782320067
-0.832444736949005892
-0.831565255052789998
-0.832073481720081443
-0.834646477955740429
-0.83801839097805253
-0.841903415086492246
-0.84703636731777987
-0.852825364326802893
-0.858584608244637559
-0.865632101507042506
-0.875368904541892423
-0.888502202747955216
-0.906866781777379449
-0.932552889817158226
-0.967879567838041299
-1.01448748158308644
-1.07619410142167671
-1.16763751715120878
-1.13438687404631788
-1.72290668536458158
-0.828559545442319134
-0.903772675107801682
-0.862598896602643106
-0.885545835188171093
-0.902868439839051629
-0.923310685595042369
-0.943652717209578551
-0.964035982114287093
-0.979296735418506037
-0.987644568556994229
-0.990391383337389408
-0.989034500258545002
-0.985191497885784084
-0.979856956493520337
-0.974201724805440761
-0.96874914972764925
-0.963997265172094941
-0.960563266250447079
-0.958891339509393537
-0.95890096033954153
-0.960221309828536485
-0.962978545016485055
-0.966450226726361938
-1.00796536995324626
-0.964611102730452696
-0.989847758868319105
-1.01102225826756431
-1.03477045637748888
-1.05733291068851232
-1.07862618739694049
-1.09441270068579777
-1.10352322485841969
-1.10730084292572961
-1.10720905209848275
-1.10470174248668807
-1.10086565191134689
-1.09657809536558792
-1.09233914246441111
-1.08870602977663955
-1.08629720130698981
-1.08546511349778885
-1.08607487339150732
-1.08781741699537271
-1.09058499602344372
-1.09395842832781409
-1.10454483158253036
-1.06771236098368449
-1.09620731938407423
-1.12138164075110103
-1.14786592894537032
-1.17224074638003328
-1.19391726835194967
-1.21006489921531335
-1.21997791457156546
-1.22479656763375266
-1.22586681272990283
-1.2245641784044341
-1.22197848622183858
-1.2188819073835091
-1.21579454004237686
-1.2132642626734218
-1.21182404502646479
-1.21171599141892217
-1.21276802359610381
-1.21472509868257328
-1.21743407606384113
-1.22062904310277354
-1.1993337820775205
-1.17101174309508305
-1.2041561241104628
-1.23297852295467192
-1.26192096634038009
-1.28771548436017103
-1.30976631366176766
-1.32627578511804334
-1.33700543370632197
-1.34281095468542855
-1.34492969848421051
-1.34470018358971144
-1.34319711237819428
-1.34116731358758723
-1.33914519840687785
-1.33761526340695225
-1.33700562834416381
-1.337469853523372
-1.33884963928647371
-1.34091167507569686
-1.3435229776503177
-1.34650061268026278
-1.46125950431706175
-1.46437286253843602
-1.4651069992937531
-1.4645263110464295
-1.46344238062973164
-1.4623723963554025
-1.46170756129977764
-1.46178818099444818
-1.46270396675473591
-1.46431795163875011
-1.5857134428791313
-1.58595144990595838
-1.5857053594031536
-1.58544448064521326
-1.58550286102344407
-1.58615796039798096
-1.5874339931733974
-1.58921252576113936
-1.70795063492011767
-1.70836597873536222
-1.70902556624683122
-1.71014835248248298
0.393466371504934354
2.26268709973849669
5.51270587921821509
8.84163777808993956
11.0782737174239223
11.1119754356561948
11.7549413821849029
15.8013781668277442
28.4056318209347829
33.1022851185019391
30.339860474117966
31.8346291272095243
39.9719752882355692
44.0225057884838336
43.265684422072944
44.4666394742725615
45.8720325529700972
42.0862669484788867
39.2296147037985108
35.9594529375498837
32.2363179264060804
30.1436092095224808
27.8962498641910486
25.6017432165319185
23.0280509153256148
20.9774412474620284
18.9221812263669413
17.0897327554183178
15.173035904815233
12.842759208178915
10.0220202372806106
8.45882329118831322
8.19142297688939891
6.60531183996465998
3.69493657630117056
6.72939575375733501
30.1485640862939448
81.3491773533882565
0.0518556787277215381
0.108813985560038851
0.723383949130145365
1.04350748316509301
1.27606256046269761
1.6901615801777532
1.82558712491437936
2.01603977289235692
1.90677090942550853
1.71045062466193798
1.83332245043145914
1.8855327425456605
1.56572259594487351
1.32627981704712727
1.17571304717194636
1.06919605929395045
1.24469359437838745
1.23221995026738251
1.07311092836909205
0.97518940760622308
0.81039570439612052
0.617214941528221872
0.540920456314665898
0.485962489892760474
0.431739865780979004
0.390002863164331415
0.381217188085616832
0.345644097053199428
0.308902269808877805
0.259300143971953001
0.214369164358228059
0.180882017316939592
0.0741155255503459232
-0.0519212729685917113
-0.170810961442816267
0.110081211735787415
8.37940253147342595
53.6474750564159422
0.00960973673495979508
-0.0338133750014555923
-0.110439348586445524
-0.0802146006344664209
-0.0712509096022767019
0.0939281656610790883
0.207131710576794248
0.249194108690676153
0.244809279402128155
0.217091804181768877
0.190813543341971315
0.186916138133232046
0.171502741558126726
0.208514176716696253
0.268598977749827661
0.319823074325112033
0.337743026401946755
0.31517152823100969
0.280952188218164478
0.247197464669580591
0.223763467089851287
0.188391962933944002
0.16412229410479684
0.143907619659932817
0.130908643085071219
0.117645644045264341
0.113706301641772867
0.0983730307907496604
0.0788681229932144401
0.0503948556904106892
0.012321682695682179
-0.0307197357352673728
-0.0847226531966047691
-0.154698101594731796
-0.222413394865312614
-0.159377559418616532
1.31073490091684763
22.7998494723839826
-0.068963932155978791
-0.0972790039262412254
-0.176675272361346725
-0.226918347834795808
-0.253944384936296785
-0.251488357052110312
-0.217613046181446945
-0.205085492376744338
-0.196076780695168096
-0.184082037330471571
-0.187761340483115213
-0.185461098973309313
-0.164799730346360085
-0.140157720263558438
-0.109453499008832611
-0.0837415916826574902
-0.0729339037947214219
-0.0696291574912817346
-0.0734864640745517272
-0.0806196900836833041
-0.0843318205372847185
-0.0837999092288770342
-0.0822734232766400009
-0.0862814365108253156
-0.0948953361575372023
-0.102505262829872268
-0.114401386034718611
-0.128554362949552692
-0.141001055177755519
-0.158200010527853374
-0.184645051394933035
-0.220150985163797552
-0.262884441689561099
-0.313508010739683485
-0.371444622182647288
-0.361989988810822116
-0.188927663204155605
8.61893512478417989
-0.234238105841723054
-0.245258124894639495
-0.284145942081129754
-0.322033643319805551
-0.336685914923030349
-0.366833609824932239
-0.370888708695394698
-0.368999856864264786
-0.366899687349151016
-0.359702816480003851
-0.358798058058179214
-0.35525468935386606
-0.338789509354856855
-0.319315731342755593
-0.302461512751148631
-0.285549345967477719
-0.276739397312331714
-0.271687022312707194
-0.270109712237853627
-0.273143665719350393
-0.275980383676027008
-0.276148940339953852
-0.275350332551038746
-0.278638178782534995
-0.284715095177970001
-0.290744029890315114
-0.298548345144342531
-0.30865002547141146
-0.31889245370441871
-0.331998721636252436
-0.351751234161397641
-0.380928814497865198
-0.420179161213673713
-0.469724800538326548
-0.530289291686665276
-0.521482968696023286
-0.802249200218017489
3.39734147658769992
-0.345282765176638751
-0.361630203076403645
-0.397082226120636261
-0.424512692791549018
-0.438086110159350117
-0.463223976546010774
-0.476123343138287303
-0.480113386751371829
-0.482778864197212942
-0.484055041972722366
-0.485753310719960141
-0.48405025287573783
-0.474515182250320189
-0.463499854729049754
-0.454149298716504668
-0.445676941815568994
-0.439322328934525663
-0.43437477935407276
-0.429496730601913679
-0.427456025148386209
-0.427701582865447849
-0.428641877386100489
-0.42952260276628379
-0.432355650829453431
-0.436037569603731856
-0.438926899540325488
-0.443266684152013868
-0.44982205359246985
-0.458535628559561925
-0.472043598227936123
-0.493230320838480174
-0.523390935176875294
-0.56444188049474775
-0.618586900017348951
-0.693031539743295011
-0.671010395547718907
-1.20468537314832003
0.812224747185648965
-0.459461957473329963
-0.475444084519971721
-0.503414916481421226
-0.528917947861183624
-0.547859942841748548
-0.569324330845311088
-0.585352449214895154
-0.595200630786800966
-0.6017224056256818
-0.605303895314103557
-0.607370575087207598
-0.605736078248225174
-0.598575391804469614
-0.590597876395394406
-0.582919265422700006
-0.576051278517522247
-0.570962604790993478
-0.566719994071795297
-0.562362533872202142
-0.5599972615828539
-0.559786991682783341
-0.561011222951952604
-0.562693577470561923
-0.564960107759122976
-0.568151993740638961
-0.57160228227035681
-0.576472527230374121
-0.583339798914997654
-0.592894820740214601
-0.607800326433787896
-0.630118175108125622
-0.661424100435046847
-0.704475981692325615
-0.763730339677458958
-0.850593859481519887
-0.828113482829540559
-1.450920238836515
-0.301237297568951234
-0.578532843433054333
-0.58687167865354517
-0.610713086358941837
-0.63516819978630279
-0.657143812625885948
-0.679067254625205896
-0.69727656686409889
-0.710025792015715251
-0.718406003495823953
-0.722979420069959855
-0.724828065353835704
-0.723385862156300519
-0.718215686175930235
-0.71194008754214344
-0.705769132990314629
-0.700150277779093999
-0.69575929832743455
-0.692404858406479362
-0.689611428800595228
-0.688284669246715497
-0.688641549544645182
-0.690116957802008324
-0.692162622084337875
-0.69490770568859439
-0.69839741422267354
-0.702322204773013659
-0.707506083772108996
-0.714721956716754092
-0.725066455459154824
-0.740681213175015563
-0.763411635196919569
-0.795568145429828788
-0.840343669818643391
-0.904506787935643763
-1.00253087909326677
-0.99842970583044921
-1.64981293429090847
-0.659151770977860707
-0.691113982801360383
-0.695617987222845402
-0.718321401142327343
-0.743521011893258699
-0.767751465172193948
-0.790855825167182447
-0.810689243347979982
-0.82537162485391824
-0.835020180186674232
-0.840476539064978212
-0.842636457385160575
-0.841822136268926879
-0.838292259512174232
-0.833646619968992364
-0.828877064093876958
-0.824499928775899726
-0.82100096458201266
-0.818488708326407188
-0.8168345352480052
-0.816354368722930213
-0.817176507295850896
-0.81887844175548663
-0.821100470167622665
-0.823960714541254191
-0.827484105216986232
-0.831592493146519285
-0.836960837566305571
-0.844377023864764542
-0.855037016544885398
-0.87062712256954089
-0.893375045685542712
-0.925943158575463943
-0.972306164567089182
-1.04131462151454879
-1.14985777326522598
-1.17490661604884239
-1.84787936271073105
-0.608856409044682856
-0.797594271632850793
-0.802288843105352756
-0.826181832755472856
-0.853135650811454482
-0.879509581372613036
-0.90400881417849499
-0.925093004067644387
-0.941065655438550142
-0.951825204915679457
-0.958180304177274955
-0.961020819812138605
-0.961058926720010698
-0.958916471750700605
-0.955683295859735327
-0.952137888715292591
-0.948843530891344766
-0.946260816852793063
-0.944580808759708401
-0.943783641580576926
-0.943946466702182407
-0.94512081255741609
-0.946999684585237533
-0.949342141841235887
-0.900816405775514584
-0.907954195590292112
-0.934505546524382669
-0.963789328088598518
-0.992282679520768429
-1.01817206601694665
-1.04027950618512333
-1.05722745188298606
-1.06894297326396415
-1.07618156737533877
-1.07985671413484252
-1.08082818237162037
-1.07986794200332525
-1.07783158575633786
-1.07539173767150165
-1.07310308701283619
-1.07141325928672648
-1.07051710543865597
-1.07040463049589119
-1.07106795268423527
-1.07248876351535061
-1.07445609047175061
-1.00170793101423139
-1.01309753415825043
-1.04337315531364383
-1.07532792285420919
-1.10590099745013215
-1.13310814605236976
-1.15609762512194214
-1.17387764275804152
-1.18645829113153489
-1.19456560978395077
-1.1991185887952418
-1.2010323350988974
-1.20112437376015579
-1.20014584279770231
-1.19871462663650807
-1.19735879014533064
-1.19648937942831957
-1.1962859271168611
-1.19672331898651252
-1.19774735021682988
-1.19931444669846998
-1.20128152426878798
-1.10230159534471395
-1.11812754780992019
-1.15287323502272288
-1.18759450490765106
-1.22017301197708328
-1.24860803590158298
-1.27241931573066847
-1.29096722934813846
-1.30438360973922785
-1.31333495067227757
-1.31874795412110934
-1.32156421717471173
-1.32260809604839613
-1.3225840559696882
-1.32207386440147223
-1.3215670354639184
-1.32142798526053551
-1.32180639186817928
-1.32267125612422376
-1.32394400756335573
-1.32558148211186966
-1.3274804630660666
-1.43245127895427404
-1.43870306735751652
-1.44235642487162141
-1.44425077708519867
-1.44508484016817551
-1.44540806921844789
-1.44566245491197232
-1.44616302042570188
-1.44701912324909476
-1.44821099815219378
-1.56334322805453518
-1.56601208623711896
-1.56761468872998022
-1.56867882255199853
-1.5696019137297228
-1.57065466710756718
-1.5719054856253285
-1.57334818162263956
-1.69015105813670075
-1.69187219654799592
-1.6933716643797796
-1.69489045810874317
0.405767910295384948
0.390685196150733549
0.556584222884857649
1.0751363211768481
1.65588594270945499
2.07015266756740202
2.58805554322830034
3.06360626783789591
3.87213636327082256
4.34674851320916567
4.43530293692423694
6.39586955108439703
11.0041138549480557
15.171524357737276
16.9975926944550366
15.9228449770574656
20.9297660052989158
28.3347377022312941
30.6441127059001737
31.2813248820522034
28.184604618284574
24.3265235003822582
20.6973314371533803
18.9775752407756855
18.4045863650407355
17.5071138138908857
15.0286945695525898
13.4861902485789997
12.9962955919255414
11.0336951064334379
8.30890122258882968
7.56369090539722766
7.1273433001155162
5.79070339387325106
3.2683349075992485
4.7009610146240064
21.949272725170573
64.5889916806992801
0.158952166823078167
0.0953455809398432996
0.0598224419352584025
0.104900787905409631
0.166821097800634921
0.258353837868112501
0.409652791247410386
0.573262359240374497
0.775105653659427851
0.912448744253781863
0.910158684683457064
0.756253919352893877
0.677757251462252519
0.605956394470295479
0.527275314735855316
0.547433587639195141
0.51739763486550161
0.446019893972126158
0.449814440547145589
0.396504250105380485
0.355777251827718466
0.338702944080990886
0.337154168634880402
0.323994390013342293
0.307900772526561173
0.295890865514531698
0.290707360868169673
0.264688677146019569
0.219092418521984245
0.190761751372443722
0.169570668931793789
0.129002967111371658
0.0764944056906495806
-0.0322847676741131462
-0.240676688357578161
-0.264753097620351041
4.72580815030983103
39.9988987993367928
0.0147180572764604722
-0.0139177312338270576
-0.0320163079603241196
-0.0518325894204709758
-0.0672959380483740266
-0.0489232676577983638
-0.0265675635059789972
-0.00630697513447653346
0.024007441331139967
0.0505435584973450425
0.0423179596984093465
0.0220674906686159078
0.0131748516210815625
0.0107449095828763275
0.01735314516262354
0.0329815411268188363
0.0421543695054455991
0.056427340551455929
0.0731191274742178932
0.0769364162339166713
0.0747137307105766313
0.0711999785526818973
0.0734250749718807771
0.0765815333768652406
0.0795379206285095064
0.0840444970866432994
0.0803048024404132144
0.0659244892423042073
0.0424149671376459203
0.0168066115384417625
-0.00971550887863403823
-0.044290905671346803
-0.0919355099936504105
-0.164936453406918537
-0.264664588035938175
-0.332363411898178585
0.338766366196150137
15.0340931872815133
-0.0853857826135577813
-0.10534796673374397
-0.138818692877017091
-0.162249937772196651
-0.181076745399184558
-0.182476225028006922
-0.188458791740978182
-0.197161228280254619
-0.192326336404951892
-0.182535879550699998
-0.184456250338674854
-0.189168098245458938
-0.18632344811298529
-0.180229296002298478
-0.172707817917673756
-0.1610234461988021
-0.146595223503903804
-0.13308158703779277
-0.121483956898309542
-0.113894703923549667
-0.108485456239919953
-0.104860506363491812
-0.102478963843923132
-0.104639765815270569
-0.108363122896426578
-0.109390014424933013
-0.113918494666309433
-0.122100654207124182
-0.134401878472006631
-0.153819560517834797
-0.17886151944150408
-0.210483077564644461
-0.253182800877837844
-0.31069467556271646
-0.397341991703723085
-0.453648055002371708
-0.569722438819165622
4.65165957055456314
-0.190053166153036468
-0.208404420635291687
-0.236480955575346541
-0.265127795704245439
-0.288133523491552856
-0.303189966552718404
-0.31479702399109466
-0.326278342522471565
-0.32877382219036061
-0.326601033248306805
-0.327987791019775266
-0.330156541751008947
-0.326576888434279566
-0.319224558627313804
-0.310812069221688803
-0.301350452207928776
-0.291713894146602759
-0.283063914259620408
-0.276305748931544137
-0.27259362098948875
-0.269717239440309453
-0.268265162572685567
-0.268030935050457442
-0.271323226698858777
-0.275686167810434257
-0.278590750483604099
-0.280542380406335445
-0.283851111463660377
-0.291082080119119013
-0.304411510058361034
-0.324719731732177941
-0.353596421130520033
-0.396031222610809308
-0.456448581221039373
-0.545701386759487872
-0.580327028139889678
-1.0580731274865387
1.39883033620369623
-0.298132377367130885
-0.317716949734134668
-0.344484729043676219
-0.371971617056112425
-0.395407536994092423
-0.415184879645772331
-0.429941471792388619
-0.440786753247348395
-0.446826126870933482
-0.450045423949088308
-0.45375015918054451
-0.456488305568175434
-0.454605434134888187
-0.449824503943324072
-0.444039775885716193
-0.437324887892507785
-0.430491128263042255
-0.423888421193674203
-0.417471528330830177
-0.413055660020859916
-0.410452953993497627
-0.409599064797388224
-0.409531606510777246
-0.410581752137228362
-0.412770755570390002
-0.415104370414579094
-0.417482599942254895
-0.421725306706843606
-0.429673934834346016
-0.443142817686301815
-0.463156188666073054
-0.492208695908001426
-0.535190291463903067
-0.599179632414168162
-0.696409643806090828
-0.720940025698607601
-1.38628071654765361
0.108369045675914322
-0.409216915437025597
-0.427605360615553043
-0.453665857876748457
-0.480899539775409557
-0.505385404028210528
-0.527157087243439682
-0.544525055012583636
-0.557266340100537994
-0.565417003636939142
-0.570758331098991545
-0.574677100811561425
-0.57654123463036222
-0.574970314404217531
-0.571269252193394417
-0.566508493377096523
-0.56108048021909529
-0.555947990543610993
-0.55120024198450035
-0.54658738738010415
-0.543329327782039684
-0.541563653394008027
-0.541255256475461466
-0.541737286750206382
-0.54305205222499231
-0.545205962049698734
-0.547752612337336076
-0.550921122755888448
-0.556004222087942201
-0.564478103121861419
-0.577947276721153536
-0.597913594801582016
-0.627124116514529151
-0.670477942553096562
-0.73797563524116716
-0.843816652947786072
-0.881323129661336857
-1.6064724958790606
-0.233949687395801575
-0.520685573081536401
-0.537611859306269757
-0.563259526931082943
-0.590896589393446137
-0.616874570552985446
-0.640154068813450272
-0.659350811353737631
-0.673773555780515565
-0.683701918461649738
-0.69028812665165995
-0.694593928001235761
-0.69636509560744464
-0.695302349209925841
-0.692495727339827782
-0.688814311699071702
-0.684721145556836053
-0.680836333567141905
-0.677302798552514962
-0.67419665489886782
-0.672203446516620784
-0.671327883689367022
-0.671495502138919953
-0.67236383270347444
-0.673856462007486168
-0.675989877279306817
-0.678661725166225138
-0.68222116948572864
-0.687640916405390823
-0.696243764097194795
-0.709353955578907902
-0.728854989178885138
-0.757599818690104398
-0.801183345055827334
-0.872279940348283267
-0.986743190320578556
-1.04706437352247361
-1.76671705060976914
-0.138104270655846406
-0.630241561317461008
-0.646858228328331619
-0.673116101489098395
-0.701748531147007304
-0.729254388648355123
-0.753973287241111345
-0.774626541061353535
-0.79049441457621028
-0.801818043474327058
-0.809474082939767081
-0.814355388064701757
-0.816609532822884177
-0.816398921674338029
-0.814607926820703487
-0.811981878705049342
-0.809022147373269829
-0.806206788233209348
-0.80373170221867174
-0.801743217462009272
-0.80060508705534339
-0.800351699679901829
-0.800858992686306448
-0.801889924047148539
-0.803434793698244665
-0.805547017599438808
-0.808224447941361501
-0.81186086024485471
-0.817221697237171196
-0.825363310212290591
-0.837763812974172017
-0.856387654429009437
-0.88428898555147728
-0.927841553779994777
-1.00192337466839865
-1.1231459397170136
-1.20889636404035072
-1.89571241509011434
-0.128968668670294662
-0.737486845998878704
-0.755125698468767981
-0.783070511838141581
-0.813293907661567284
-0.84241817558692722
-0.868509777789285953
-0.890431408500931831
-0.907538794829210627
-0.920041524539566669
-0.928674016515884659
-0.934218700488456455
-0.937109962749153702
-0.937771559628993501
-0.93694810144715801
-0.935291737416023561
-0.933317265855167388
-0.931458631045211871
-0.929926651271725468
-0.928834035700543903
-0.928373464602876952
-0.928580970563589903
-0.929344951477903303
-0.93050289629869587
-0.842907786718966046
-0.862541567166894896
-0.893082636208277325
-0.925359141806014418
-0.956200660890406007
-0.983621496391230643
-1.0066911533478331
-1.02489395459714183
-1.03844745896031587
-1.04800406773095345
-1.05429866083419665
-1.05792186163537405
-1.05943647957550779
-1.05951785384798169
-1.0587652963715255
-1.05768247691142703
-1.05667022680154554
-1.0559326188337943
-1.05555720751750015
-1.05563408467068243
-1.05617989711032201
-1.05711121618230752
-0.94663759571843098
-0.969341757693105821
-1.00322456912222724
-1.03787075780946614
-1.07049594556164474
-1.09920558961497994
-1.12333769624489843
-1.14253412450023939
-1.15704978160248895
-1.1674886731516434
-1.1745761097484666
-1.17898259809932848
-1.18133753942046793
-1.18228072759030378
-1.18237868582517303
-1.18211453235790631
-1.18185503450721963
-1.18178824146556161
-1.18197807326849835
-1.18245798453197581
-1.1832347083825836
-1.1842443926166728
-1.05040392664059423
-1.07593803109112351
-1.11369733659713521
-1.15083358868701624
-1.1852492413737421
-1.21519565512568484
-1.2403277302124367
-1.26044704842542132
-1.27586850170242716
-1.28714805541989441
-1.29502943011123328
-1.30022244695941791
-1.30338768737964839
-1.30514555082255179
-1.30603822652728141
-1.30652331601302807
-1.30693312433553133
-1.30743351605542246
-1.30807246722097781
-1.30885048117434866
-1.30977304089801305
-1.31079026798383413
-1.40699181564877485
-1.41565282742748511
-1.42160401117616608
-1.42553719351526431
-1.4280586126076984
-1.42968793271118289
-1.43085335328028118
-1.43185557305345412
-1.43283294353096924
-1.43382927632170154
-1.54309509816648616
-1.54775538953555314
-1.55098666269772023
-1.55329307600451316
-1.55507000163810494
-1.55659332020682495
-1.55797490363579616
-1.55925760762725907
-1.67390898954100287
-1.67683337120995857
-1.679154437500471
-1.68113015416918787
0.454131706588294437
0.500443203396621406
0.404133444661410712