/*--------------------------------*- C++ -*----------------------------------*\
| =========                 |                                                 |
| \\      /  F ield         | OpenFOAM: The Open Source CFD Toolbox           |
|  \\    /   O peration     | Version:  2206                                  |
|   \\  /    A nd           | Website:  www.openfoam.com                      |
|    \\/     M anipulation  |                                                 |
\*---------------------------------------------------------------------------*/
FoamFile
{
    version     2.0;
    format      ascii;
    arch        "LSB;label=32;scalar=64";
    class       volVectorField;
    location    "0.330000000000000071";
    object      U;
}
// * * * * * * * * * * * * * * * * * * * * * * * * * * * * * * * * * * * * * //

dimensions      [0 1 -1 0 0 0 0];

internalField   nonuniform List<vector> 
7236
(
(0.399145119520370073 -0.147788346619450506 0.309664661955982412)
(0.714367815282566765 -0.207433665212295559 0.388066935588890549)
(0.958851684948726524 -0.19594254601983635 0.43790507494815073)
(1.24859524663860988 -0.172196533470044877 0.491487621554735077)
(1.51165510707562745 -0.146120211913486203 0.547890423710858276)
(1.72290662887412638 -0.121261438634769875 0.600561818425860539)
(1.88937598931265516 -0.098168952421515368 0.639414626718881496)
(2.01588775470052939 -0.0773822783243851287 0.663882558692453384)
(2.11222163973708899 -0.062834340418112325 0.677917604651483541)
(2.19721695760529023 -0.0516211468964849277 0.687798183834603671)
(2.27054840334663011 -0.0440868350531492814 0.696913704345700546)
(2.33376288023216993 -0.0390277863136679823 0.702327692990930119)
(2.38884196285794115 -0.0353563864171882805 0.703941512365191757)
(2.43799988329861961 -0.0326589589049104054 0.702745262319336983)
(2.48283280888658808 -0.031363328519636198 0.700727394760566002)
(2.5240112300461317 -0.0309068822446889394 0.695278787049668279)
(2.56169881109169451 -0.0313107325347868129 0.684840216374096755)
(2.59656805497782761 -0.0317089837509168318 0.672658142017481087)
(2.62735571805581403 -0.0320297960908285245 0.660414735586558277)
(2.65468903712332249 -0.0326395025426498703 0.648497668322558729)
(2.67899952227133165 -0.0338066179791905244 0.636697421538221398)
(2.70085633571483097 -0.035080965760663059 0.625038158973687419)
(2.72068030288381291 -0.036400250222138851 0.613722294339471341)
(2.73940673536825319 -0.0375856725598315775 0.60344108560361831)
(2.75679482917667684 -0.0386566408841947581 0.593855661128929735)
(2.77274516932509929 -0.039355061103145475 0.585246868698064304)
(2.7870467369397236 -0.0398929471497949037 0.576692546660985017)
(2.80149719477221115 -0.0401806029045405702 0.568289276560176249)
(2.81639402864900079 -0.0402004191232694374 0.560154967241403789)
(2.83233715654626028 -0.0398523453966375535 0.552961082017901728)
(2.84709366369905315 -0.0372452684556751137 0.544880955230695019)
(2.85661432511970892 -0.0356195524239325267 0.539918549336563136)
(2.87083449733160556 -0.0334602046854402604 0.534565739879188428)
(2.88821754504189121 -0.031973975306923752 0.529298421731352553)
(2.89583205021674761 -0.0256174657701675954 0.526091312026981117)
(2.7882642950985419 0.00388003260562237023 0.538164513905192488)
(2.39680750421923561 0.143699439945258745 0.531717094303559401)
(1.34210871197362103 0.379430818994086816 0.573848600795326957)
(0.389525558052369214 -0.456638409133182044 0.216770527520489753)
(0.920292939884825856 -0.554443832060303787 0.417067007185885963)
(1.32156594096569902 -0.475081217073087037 0.5804057797292832)
(1.58001672880921618 -0.409829542309470829 0.67739132928172896)
(1.72245288013519438 -0.338318565238702074 0.727420108275488975)
(1.80551021726880467 -0.284095098294566972 0.734336319770209633)
(1.88373652829557536 -0.235755061068337907 0.728246176975601678)
(1.97628274138817983 -0.188764501292843306 0.726857961858142998)
(2.06433653013906815 -0.158801600562608169 0.72770140524326643)
(2.14552520225463139 -0.137384815181219172 0.722117257147989244)
(2.21359522363462835 -0.123213881984224241 0.726110692482926368)
(2.2698574501706914 -0.111304128978556599 0.729859156472323023)
(2.31532402988837038 -0.102075306686577022 0.731294172672768639)
(2.34821028577176261 -0.0948820077172174842 0.729836933195166182)
(2.36162457442436491 -0.0897237342886186423 0.734747987045290984)
(2.36227882720296112 -0.0853448331771944207 0.739016270844553125)
(2.35481044040133503 -0.0859872479589355171 0.732781184231532712)
(2.33971346336981467 -0.0835909127752695047 0.723574405740692095)
(2.31864613132702724 -0.0776544421662957451 0.717473557142969676)
(2.29228054188582231 -0.0717623929554155465 0.715130308991191677)
(2.2589874945238404 -0.0682081360193230596 0.717256924733998269)
(2.22411008798705367 -0.0643500970693134805 0.722813258160806327)
(2.18866589154929558 -0.0612960678626189165 0.731027883242774013)
(2.15610608307006091 -0.0584383287826111472 0.740846888540757642)
(2.12486819351662914 -0.0562745821189779977 0.751672520398145361)
(2.09403809269188335 -0.0535245791233186496 0.762676184398498602)
(2.06446882307395363 -0.0530130022257177536 0.772696110991289098)
(2.0347516775345591 -0.052665572262024278 0.781023825078727585)
(1.99662682109924505 -0.0546400952603906462 0.786379493678221353)
(1.95768330529649126 -0.0595877826665359364 0.79128965452831268)
(1.94582504797232714 -0.0513663496540788661 0.79079898865817011)
(1.92556552208164211 -0.0574423465468470312 0.78433818721515125)
(1.91280741292600132 -0.0607489615765196417 0.769468445894992525)
(1.89636432180571557 -0.0724698827175361826 0.752721008702631145)
(1.93938261669056389 -0.0407798091756527495 0.738688402829323909)
(2.02875251729929218 0.0716089478004004049 0.760900880479383535)
(2.0770187206542392 0.489497442891973167 0.837682830363998376)
(1.65373661094415647 1.12859721784398559 1.09441385307000516)
(0.517378011328804788 -0.674516625340225051 0.0956859701352755498)
(1.05032348111047136 -0.632135310055154109 0.327368096419464183)
(1.20298999729068146 -0.540981828360624806 0.419606902435995688)
(1.21168765469824335 -0.434699329857400785 0.449337351643714966)
(1.2154713918379203 -0.349626641676109351 0.451750598975474926)
(1.27448537615313162 -0.299219629214547922 0.464297054213575922)
(1.39394799388591006 -0.271556763367001519 0.513473874306812572)
(1.51844097085401142 -0.249505776752813074 0.574716391922158287)
(1.60758198034611732 -0.225410946579844007 0.611556302999556434)
(1.6536296980618741 -0.204367289979434097 0.632634858102666731)
(1.67032582033268207 -0.182529482748718302 0.648943548322059582)
(1.66473642892496754 -0.162255562388511076 0.659037676537501338)
(1.6256272263081355 -0.147779615260526076 0.670180762752033088)
(1.55174108884183171 -0.134976265331849171 0.679620416045210618)
(1.44808777096066876 -0.123878757390086511 0.685203489086248396)
(1.33156276744303459 -0.114045789132608405 0.690809492535563563)
(1.21641169700653085 -0.121275753914809173 0.700030059311117281)
(1.14606800975492984 -0.122755381198839303 0.718656364569990713)
(1.13068068773743868 -0.117443146083701627 0.749939491842966599)
(1.14575881784447708 -0.111663034803270014 0.784941390802674333)
(1.1700178212077712 -0.107833654168475374 0.816560157141022258)
(1.19609669945509545 -0.10324118768224147 0.832241050344957767)
(1.22002347480616713 -0.0985267981646400642 0.840461014744243728)
(1.24070493104459567 -0.0945548074496214419 0.841296844588308446)
(1.26005066917637798 -0.0886781189708577833 0.835531779975756228)
(1.27519957509633208 -0.0808688548584556161 0.820543205896297811)
(1.28765616698903718 -0.0768350904827973663 0.801679477310672128)
(1.29940562201884924 -0.0673891482698060623 0.774995220351941461)
(1.30809493903618579 -0.0595184387659816322 0.742956564989802115)
(1.30479257063352905 -0.0577294415202433131 0.703487614608441225)
(1.29005456557451459 -0.0523276059837522456 0.654458390779746102)
(1.26478565917825936 -0.0588791513794564916 0.597742584096130902)
(1.23503150814550944 -0.0539422338091441606 0.536898735779662073)
(1.20628600924232399 -0.0675924196588319343 0.476734027395205096)
(1.0997676658155664 -0.0710015698937550704 0.402486655715405373)
(1.04617978437758596 0.0894623572967785663 0.585028846626966081)
(1.23678619399828671 0.802410807697676254 0.909080969112944226)
(1.38237353279589881 1.90013384879667369 1.31004418021018165)
(0.444227788092818487 -0.661775193839760467 0.126237207271498786)
(0.59074096570149881 -0.56043941330491609 0.387177367397091521)
(0.36661201641682245 -0.394140953104942682 0.149417279857607332)
(0.24850607540307218 -0.289385106926304148 0.0328765581743413679)
(0.489776300263147224 -0.298112081445543187 0.1760070250739251)
(0.76910554000372422 -0.321006050030981815 0.341200501714431004)
(0.937924026814998202 -0.310057347333203059 0.454264122058326225)
(0.982337889221448046 -0.273872546350677426 0.508943483511109074)
(0.9425132604603077 -0.215859586187557018 0.534472267018220926)
(0.861408728942370527 -0.169119747659129072 0.540248070231826749)
(0.770884034220841508 -0.135491420360659476 0.541778046702926175)
(0.700388238680400677 -0.101967631709330597 0.564582081684666726)
(0.635008901803290393 -0.0694913646414631048 0.59115512819096383)
(0.58954114504344457 -0.0450445451230336025 0.621079107643584871)
(0.582165723461152695 -0.0354963597320168273 0.649965437341110897)
(0.625399522495140636 -0.0466486459672487003 0.685981605220608914)
(0.703844833923541469 -0.0779142706748736508 0.72533640842954672)
(0.790417937178000574 -0.107156644809683219 0.764662763127223144)
(0.865901948475540473 -0.12206666877092967 0.792308131132076432)
(0.925476411114745545 -0.124151616713901819 0.810722976959834085)
(0.969641163209751578 -0.1182293841278962 0.808726572207605465)
(1.00107886549252001 -0.108286753117519563 0.798499870265321876)
(1.0223534596209658 -0.0958170378191701838 0.777434407324405274)
(1.03638358473502668 -0.0830271887606256892 0.747851649285681708)
(1.0448287458966885 -0.0683312161974087146 0.710212534857634914)
(1.04495099859646889 -0.052745707008493764 0.665195679684753682)
(1.03548429759674043 -0.0397232439470855125 0.615550528499776983)
(1.01836050774325781 -0.0244711870967635782 0.562683299999283681)
(0.993567983379414543 -0.0083121474739911265 0.50678182793524762)
(0.958948685978027959 0.00540443328212643261 0.444743230652326849)
(0.920065731096973538 0.0205161713154364822 0.381704885754546419)
(0.877217956413427258 0.0299307392332930217 0.318420458569121267)
(0.834508383358722794 0.0375686770231915129 0.255122917771562707)
(0.790286760301458058 0.0412575481760377727 0.199719816519797144)
(0.700306982106034925 0.0451162559583360989 0.161184263254665505)
(0.530963959391957174 0.179024106421927509 0.353396996782137707)
(0.475301626110024578 0.877687198780067623 0.849332959322886549)
(1.14830911834138449 2.41498264835093357 1.3995801737322644)
(-0.207659637974346806 -0.232013836461599926 -0.610637334820882893)
(-0.314081937356390895 -0.0904637108138394153 -0.483412319247394751)
(-0.346906130510579502 -0.0639813613867515479 -0.503828840729704797)
(-0.36018902950381293 -0.175971410593583899 -0.444597959457665948)
(-0.0600982923041941536 -0.317313600278188723 -0.0466533393615963105)
(0.187774703328640769 -0.334261390204626974 0.218290673761924847)
(0.178789638500051556 -0.253442870099992335 0.283680654442754032)
(0.0669277912797597435 -0.158079283787011443 0.306190226386237996)
(-0.00805550558925654907 -0.102939226299507844 0.350571873142370594)
(-0.0132425920730842653 -0.092639832079838183 0.419244486864619237)
(0.0296293662651681451 -0.0917032188240474999 0.485631908508985355)
(0.114379217303006833 -0.0880931519671219049 0.549076254011859666)
(0.211600348430360824 -0.0947685970983145332 0.591626832549285608)
(0.316023789752260864 -0.108866550161566072 0.624453858286309171)
(0.414233028461569897 -0.134487145298803262 0.646640555635244252)
(0.495589440143309967 -0.15339200055387292 0.657303554167546267)
(0.559655770969726296 -0.162510431544730383 0.67057438430784877)
(0.604334166310161236 -0.158533765539117244 0.687032292057062954)
(0.631252525197941283 -0.140675648427584843 0.683047146124380555)
(0.645750214151663338 -0.115859018472187436 0.661328340899997147)
(0.655816977834048465 -0.0892048659062174426 0.632795573590314464)
(0.660886212086892466 -0.0650880689115068412 0.598670924355612311)
(0.657056151542574463 -0.0411516942148513892 0.556290402344411183)
(0.648859006716241526 -0.0204343935873488904 0.510695094229327684)
(0.638442582199467368 -0.000315051470207723672 0.465796304000276384)
(0.619888205628723599 0.0201895966107613761 0.418611698222602246)
(0.590871227118631492 0.0362705583222665134 0.367883106856376263)
(0.552403326319798826 0.0515934649410423468 0.312924089576171016)
(0.516050321443416671 0.067202165540370104 0.25887735667595968)
(0.480609958276159766 0.0769960755378704537 0.206043132847590432)
(0.445109492590916589 0.0833277258705667212 0.156407513451678692)
(0.413072070157674442 0.085343925558031275 0.108595390288577232)
(0.387132954663817308 0.087224643815550687 0.0617397915848567347)
(0.364091837062343493 0.0901815219953432945 0.0280277684605248108)
(0.296302144375599874 0.120199167812581137 0.0400045520244474498)
(0.31917225643866215 0.250208093244058127 0.228175516110570242)
(-0.113522731313588476 0.875435480293969115 0.767544239343426304)
(0.986238867194379809 2.55039540624269367 1.4317029326886479)
(-0.113717162711701597 -0.0521094042736331142 -0.797044806290227892)
(-0.272112544824966551 -0.106958676034118211 -0.486548948089180144)
(-0.365622696711493389 -0.134970252026855309 -0.424173577504835975)
(-0.419966661304322697 -0.189586801218658757 -0.367421638763878455)
(-0.398201421507218656 -0.2302228559242252 -0.136706319678940535)
(-0.389179625272790153 -0.176181239911823551 0.0158413088860913653)
(-0.409209807453190133 -0.0924589691029981675 0.100618417340584743)
(-0.362123328028142843 -0.074618254522478944 0.190010882422705002)
(-0.271646915965967628 -0.0891259019426260402 0.26765609830709175)
(-0.176124559416477255 -0.113593664874947861 0.330684581167685177)
(-0.090931341427163942 -0.130939857962656336 0.376191148482810656)
(-0.00799316148433433689 -0.131551416193305987 0.415682146059688562)
(0.0696171269406265225 -0.120921240879213188 0.443431491197446459)
(0.134141813325793835 -0.109109723977749568 0.455157941541942612)
(0.180542653187611396 -0.0947757114175767773 0.460839600864669185)
(0.21131159250511497 -0.076816368994210571 0.463158362103644972)
(0.236943632195011522 -0.0608052947802513177 0.467267170647858665)
(0.255406769241701026 -0.0440394503972066226 0.457477749121786847)
(0.268556213170763336 -0.0236939869433675371 0.438712012577248289)
(0.274660781959807587 -0.000870363691559889949 0.411072846403479519)
(0.282022573402406385 0.0192086629043265178 0.382479161476588614)
(0.287812210634598054 0.035420969140456976 0.352878331581880644)
(0.286494947609647943 0.0524434940826371751 0.317805221533894899)
(0.274850603368795687 0.0682683536544524683 0.277326435115610448)
(0.25974667567907006 0.0837269619456619124 0.238141726846657575)
(0.239997936979835264 0.0991075714450110612 0.20019001221321639)
(0.214555774947737699 0.10942774275948744 0.161381773624316688)
(0.189087155746695018 0.118111960953172127 0.121702874344514531)
(0.169265016444946126 0.127021126778369575 0.0836447519917887794)
(0.149080678671436678 0.129955860506564436 0.047588763634801419)
(0.128837917800663559 0.128218750688171373 0.014529496618788558)
(0.118642465877224962 0.124855365047897626 -0.0179524338819915807)
(0.117583501962807091 0.121678490910185899 -0.0468307718429958608)
(0.118754032323458603 0.122209458855742886 -0.0550627327167158009)
(0.0609892149930113606 0.161323519135441296 -0.0111556370302754136)
(0.305417440994569911 0.291378301275921958 0.167953645513108762)
(-0.43789933248488877 0.913258120338755197 0.723021589524694086)
(0.883940646679620801 2.60614106472734841 1.43655725980438187)
(-0.0967975723602256533 0.080633614287137681 -0.903157638921597394)
(-0.286719975291104434 -0.0483343961068889855 -0.487652299460410943)
(-0.380336995274699607 -0.106919237936258099 -0.375771659208407716)
(-0.445601956435575819 -0.137631594545363056 -0.297409416018388661)
(-0.464762584677910817 -0.15363508990198349 -0.193355973104764711)
(-0.463483014219971678 -0.140133674477270237 -0.0786060911816994917)
(-0.432936439087638625 -0.109020300046679008 0.00473277329016614026)
(-0.393925359544077369 -0.0835534041245168391 0.0686759674448551155)
(-0.346984512614997243 -0.0700942678407065617 0.122198128566485015)
(-0.293476720901289734 -0.0631901189069119934 0.168157506356613057)
(-0.240082067823861156 -0.0545225455839983622 0.203252069169653077)
(-0.192740079830435118 -0.0390456629398323943 0.227666386538574933)
(-0.153609144547562332 -0.0200322753191069652 0.238114282790005044)
(-0.126426608276621971 -0.00348132692967520647 0.237689195585142066)
(-0.102939333454590887 0.00596446358407045664 0.241679085475952987)
(-0.0803388965434106289 0.0129871796112317403 0.246736239572558136)
(-0.0553670725071750899 0.0240756378803681538 0.249120302378045749)
(-0.0317263499065036439 0.0377282232381612112 0.244824484896471878)
(-0.00913539892400166281 0.0550165204335132038 0.234118551406035103)
(0.00719714762418912149 0.0740348383910324065 0.215548026466184206)
(0.0195840004964702441 0.089422775699785767 0.195248968893290492)
(0.0274259257961527725 0.101956426992007451 0.174367854784106907)
(0.0288580399510751824 0.115167541552652658 0.148957704689430037)
(0.0230842437439034501 0.127413190264550419 0.118756064016931298)
(0.013347517744174392 0.13808718396748812 0.0902591671312680394)
(0.0022931729879998395 0.147209063743986707 0.0652649433995685646)
(-0.0088633822674314168 0.151931295794868193 0.0407893112441854513)
(-0.017261427332600332 0.15547233378222336 0.0159776125163491288)
(-0.0217204275003220759 0.158669024431912109 -0.00768106248294873201)
(-0.0282308880539288605 0.156170782128170871 -0.029666138957920335)
(-0.0320828263847696901 0.148423510348752508 -0.051435433986593164)
(-0.0268886131483441239 0.140519594213710769 -0.0739855607234986279)
(-0.014852896045036694 0.134322583755300901 -0.090798921607764066)
(0.00339782360362252817 0.13515071301506193 -0.0866198262860084778)
(-0.05121984695180333 0.171727494114955359 -0.0375703092808873512)
(0.35626330342265633 0.317285347347962432 0.135657763569621448)
(-0.578888730465995538 0.946043620596956458 0.690540098400748481)
(0.817018930294933554 2.6163778575087977 1.41983284341882232)
(-0.10613114596662121 0.0930121373746960328 -0.887129250807657366)
(-0.337148819235163211 -0.0395882357991841072 -0.456276438399615736)
(-0.394587349244391039 -0.0859681762866084109 -0.339778024287398284)
(-0.447805990599710491 -0.108688342109113489 -0.247633900723634615)
(-0.46238581455335781 -0.10471158553316301 -0.162711354889446852)
(-0.462067034391794917 -0.0831064540183090728 -0.0910819078622591982)
(-0.45171410593085326 -0.0561799652818906203 -0.0432444224212408662)
(-0.434158713125148532 -0.0354028522547195773 -0.00513375599515871611)
(-0.410601683707294107 -0.0224314434368213592 0.0284786145892329465)
(-0.383121217303840578 -0.0116375897438192877 0.0571079293250279091)
(-0.357615855939552807 0.00277876523915996688 0.0748751550854042935)
(-0.335837985441110654 0.0205493665264535816 0.0851266682392445156)
(-0.312600063342126366 0.0354091720461147744 0.0942445073444568987)
(-0.286386617520000275 0.0446814441403202006 0.105113125852484141)
(-0.258512722014560992 0.0526794022426350095 0.116771810863372627)
(-0.229251384436085587 0.0626996714835125757 0.125427086500590618)
(-0.200872143098208417 0.0759317950806394637 0.12790681776444035)
(-0.176433896842614013 0.0911634552647936358 0.123569257710112929)
(-0.154417761976616025 0.106939958850880965 0.11540177091966726)
(-0.135676678589279037 0.121702781811489594 0.104300367321520149)
(-0.121474387141247711 0.133087907249357679 0.090287772694324947)
(-0.112516220670304534 0.142616368599903426 0.0745042907432593438)
(-0.108329095486878718 0.151741287290939941 0.0562377903764877535)
(-0.108213648866894593 0.15962479048225231 0.0360697562970846153)
(-0.110721611039619333 0.165416571701147874 0.0179409296696910955)
(-0.113072126828253156 0.169261872946196656 0.00238280900115108926)
(-0.114105311085274039 0.170081129688247346 -0.013120154551601499)
(-0.113394078461449971 0.170369958596937876 -0.0290786005173921148)
(-0.110706314745581208 0.170128321154928042 -0.0443046965942435894)
(-0.107942023968226108 0.163849590062891293 -0.059450319391630424)
(-0.101948874699295464 0.153717549105551493 -0.0764571057016333738)
(-0.0901599676989220111 0.143374302572269297 -0.0938709979441813003)
(-0.0706394427619971982 0.135079336051218829 -0.105638305117021158)
(-0.0418554706117253081 0.135146361277427851 -0.101438200799145922)
(-0.0699368100000637982 0.165281706291241309 -0.061695963799620307)
(0.377775014639810558 0.339682214202196575 0.115479631917177195)
(-0.597079133924453442 0.952938157524436447 0.655839401310193915)
(0.773865229503998386 2.60743792815740605 1.3924530382502216)
(-0.119268845686884048 0.0550159749937452827 -0.843882848028482679)
(-0.371370575169497064 -0.027366770822146988 -0.434856641384828824)
(-0.405671377622320917 -0.0610764292330964534 -0.316878426170286664)
(-0.451935009113357711 -0.0765122591733715662 -0.227790053167677309)
(-0.462768333617858574 -0.07098366021228944 -0.153372933319049082)
(-0.463162088757189838 -0.0552574179662011916 -0.0967444510936968233)
(-0.458477102678798043 -0.0341222568668088644 -0.0617967810057012124)
(-0.447467961538078218 -0.0142233015147331769 -0.0341382658992768831)
(-0.432422415881872635 0.00325601074703789004 -0.0104426701538209848)
(-0.412570581357008914 0.0187598540118013024 0.00811253532070278782)
(-0.390935704103830384 0.0321992403748166192 0.0227205896282539621)
(-0.369555163125428909 0.0438229427323605508 0.0343033437085250789)
(-0.348229779200937173 0.0546460009069278663 0.0457266555841389644)
(-0.326143226276251752 0.0648293953460398892 0.0570786791921526343)
(-0.303333724366714685 0.0763984696518633377 0.0666541373071079662)
(-0.280415331744079455 0.0901649389983403826 0.0722291739414275547)
(-0.257199852489811087 0.105123527029714947 0.0728321297490436559)
(-0.23429910003776816 0.119621708434903842 0.068875799207302385)
(-0.213818289855190524 0.133139210112233591 0.0620674092791662635)
(-0.196540983605925867 0.145074072170167018 0.0534605423917088249)
(-0.182860472600083229 0.154107549926802118 0.0420388800230831819)
(-0.173574872807095049 0.161461343124476131 0.0290156007996539393)
(-0.167758270058075365 0.167818047079247662 0.0153328566854459315)
(-0.164245407139941929 0.17278284846620634 0.00171865117336765169)
(-0.161889481899797821 0.1756313141990406 -0.010383651334231251)
(-0.159215362568548902 0.176314992262430276 -0.0214848723936558079)
(-0.155920038393614485 0.17519075026227271 -0.0329756016607351543)
(-0.152117439909220803 0.173715897372197919 -0.0448173670518072775)
(-0.146882339492298453 0.170926124728892209 -0.0565272732657144047)
(-0.139789439969368684 0.163985933256905969 -0.069466419595597656)
(-0.130421965231859671 0.153069527369012082 -0.0846740572260496205)
(-0.116590881402798163 0.141540291679924379 -0.100145811495004872)
(-0.0932410571097437579 0.131071417014870267 -0.111863399697565397)
(-0.0587086637525803326 0.1284452600676807 -0.11283538440442363)
(-0.0717116529993187257 0.152078109849266563 -0.082883926510974773)
(0.37914785002815421 0.359487126524233369 0.102092178597470301)
(-0.58303282661197986 0.953084912275049212 0.624786020055229541)
(0.74059738976346301 2.59104033619622598 1.35530076687334211)
(-0.126734743605481454 0.0572309903261953995 -0.786189677707546886)
(-0.395160960544189199 -0.0104044320721018296 -0.411601914436576122)
(-0.411597374520654979 -0.0349429316956422903 -0.299034746220486647)
(-0.455253517685826614 -0.0459475794579455032 -0.212396122312537849)
(-0.462084051299716247 -0.0418778819799778684 -0.145541975209792285)
(-0.463182072689519553 -0.0309434383830605106 -0.0976293957820706382)
(-0.458050812247169425 -0.0162774004135171867 -0.0676526914919004518)
(-0.449985672309952289 -0.00079383601874039901 -0.0418274188196001706)
(-0.436308637671402155 0.0146711917028881957 -0.0198386397547720347)
(-0.418625950717352646 0.0288407538031165978 -0.00213250368282091873)
(-0.398985844729491279 0.0408333939195925227 0.0125305882457188676)
(-0.378503433380875609 0.0519011411541078771 0.0248576040179466599)
(-0.35740306777827402 0.0636345029595507677 0.0355074142345020924)
(-0.335693508795995299 0.0762758782654913009 0.0445292911181718182)
(-0.313580645019498283 0.0901794925478420495 0.0510235082318750699)
(-0.291253661648420981 0.104956056343922868 0.0538754017281376299)
(-0.269420867102807271 0.119406974427522475 0.052758539759510753)
(-0.249493281946888662 0.132465418644200167 0.048260289491783348)
(-0.231957506467582508 0.144123641258729313 0.0413430847799303169)
(-0.216490860379545264 0.154026473781973733 0.0327530569295595153)
(-0.204060026619008489 0.161526474723135638 0.022263547482276342)
(-0.195035846135123758 0.167422888936578779 0.0110025179778384247)
(-0.137133510183801599 0.0672272114912450952 -0.785691717778804866)
(-0.411800278247963447 0.0136658457960496006 -0.397571255154009873)
(-0.420215760068409938 -0.0100270262307837563 -0.287421182373085282)
(-0.460092617769876255 -0.0204803807484900714 -0.200160142487784271)
(-0.464898919878445505 -0.0199464716009659614 -0.139743898584213572)
(-0.465424337750417305 -0.0136237537691622935 -0.0961324362275240846)
(-0.460258271799086405 -0.0043171814852223404 -0.0668909791878891519)
(-0.451344315691044773 0.0076966492256411688 -0.0411744223633428302)
(-0.437213022368603599 0.0206678922043794719 -0.0190986941157632595)
(-0.419111718812002876 0.0329848945630866197 -0.00117643511443093346)
(-0.398998520386915911 0.0443544728294318277 0.0136552310169308702)
(-0.377884375098228587 0.0559131968941646434 0.0258002711996360955)
(-0.356541693909228741 0.0685893395909857595 0.0354893604743781177)
(-0.334864326412346314 0.0823283409475708966 0.0429096394506577258)
(-0.312745064448313514 0.0968646983710704651 0.047629798090050246)
(-0.290470635231540208 0.111408213665635136 0.0489144181140545586)
(-0.269176298077173526 0.124937492543242767 0.0465189814811803812)
(-0.250119843040886414 0.136889946347901748 0.0409733917456294658)
(-0.233845801116196073 0.14727380235130591 0.0333229256233009974)
(-0.219925363405858915 0.155932203337414699 0.0243923018656669703)
(-0.208658803684900668 0.162555993780704539 0.0144905147566139827)
(-0.200096849679025468 0.167714045150642976 0.0044392098584902142)
(-0.146953399290625036 0.0830036756465449832 -0.757260161122939368)
(-0.422578319492503185 0.0363895871625917189 -0.38633378578096178)
(-0.428699482293865897 0.0130371051836843249 -0.277790067989990286)
(-0.46483496433866317 0.000159799401424508616 -0.193053495275592013)
(-0.467887164634279984 -0.00297830241881116842 -0.13644157904446863)
(-0.466935829482985343 -0.000993294965683313297 -0.095202584654435346)
(-0.460372107741254699 0.00417123454488753202 -0.0648015014661211808)
(-0.449561532065703651 0.0131368793230626935 -0.0385856648927293405)
(-0.434145051283678862 0.0239111622219809715 -0.0160986523766515066)
(-0.415243567872942088 0.0347626102207732046 0.00230023980896995259)
(-0.394696619505383206 0.0457484299123355753 0.017180997637525449)
(-0.373378012845607066 0.0576113637348501378 0.0289806916770955283)
(-0.351607650012845663 0.07060310140729259 0.0380391724004378318)
(-0.329417193942554198 0.0845054333530357304 0.044505995765279846)
(-0.306938346730136757 0.0989007333569808661 0.0480220243943017822)
(-0.284761872362438384 0.112933172003121085 0.0480598707127994768)
(-0.264046733601735972 0.125815248063421342 0.044533182741475226)
(-0.245859781249058829 0.137150146835521791 0.0380843149943633219)
(-0.23053369156802983 0.146860861741830662 0.0298939770775241802)
(-0.21777569912631109 0.154882253965618333 0.0208514866321157823)
(-0.207482085568989755 0.16116079805450198 0.0114579841483324462)
(-0.199472478729421199 0.166095797725173272 0.00222436346590981424)
(-0.172442100270770921 0.0994422050838583982 -0.728665168390879137)
(-0.430084862030401138 0.0578149497723477596 -0.376270171972078182)
(-0.437826526005418437 0.0316292930934387317 -0.270151809744783089)
(-0.470233315027308751 0.0149879932111862541 -0.188452951355998738)
(-0.470634129963170555 0.00851602924352233212 -0.134441768246532922)
(-0.467929621416252106 0.00702015497120005508 -0.0936843340958051912)
(-0.459197793582970359 0.00958737829379987042 -0.0621070899575428825)
(-0.446658519536644927 0.0162552251840549986 -0.0351988782233770697)
(-0.430022541187436547 0.025224096999368513 -0.0125122326108136322)
(-0.410802392074360867 0.0351669724943792367 0.00609854694577148179)
(-0.389967244529929202 0.0459034170802632702 0.021091955339418593)
(-0.368086386389674558 0.0576976068511704659 0.0327864089416118054)
(-0.345565829648192435 0.0705996982119051347 0.041429171110788518)
(-0.322609366422429045 0.0843995150293332663 0.0471046440637160752)
(-0.299748240728625104 0.0985094514990164233 0.0494994667658570572)
(-0.277720776308515938 0.11214087759130649 0.0483548634446655662)
(-0.257654789704040099 0.124610159887481448 0.0438282009484634166)
(-0.240333331032497516 0.135595239841628606 0.0367535921058864817)
(-0.22592074658816233 0.14500728713406924 0.0283127624534930677)
(-0.214123282394658387 0.152815429376166684 0.0193679168886169845)
(-0.204663878592767329 0.159061957581356855 0.0103882174926904543)
(-0.197253441289048148 0.164047476003522347 0.00169218158193159933)
(-0.406476881466445672 0.0344699887636642915 0.00987427454098946042)
(-0.384954971871548313 0.0447493143804300955 0.0250535508328736251)
(-0.36217027435250787 0.0564022615562884827 0.0367279629995771462)
(-0.338734511667974747 0.0693382517849278068 0.0450296593153651295)
(-0.315174378641882802 0.0830353048921139703 0.0499238084530672713)
(-0.292149522226580027 0.0969307015957496382 0.0512510212601468423)