/*--------------------------------*- C++ -*----------------------------------*\
| =========                 |                                                 |
| \\      /  F ield         | OpenFOAM: The Open Source CFD Toolbox           |
|  \\    /   O peration     | Version:  2206                                  |
|   \\  /    A nd           | Website:  www.openfoam.com                      |
|    \\/     M anipulation  |                                                 |
\*---------------------------------------------------------------------------*/
FoamFile
{
    version     2.0;
    format      ascii;
    arch        "LSB;label=32;scalar=64";
    class       volScalarField;
    location    "0.660000000000000364";
    object      p_rgh;
}
// * * * * * * * * * * * * * * * * * * * * * * * * * * * * * * * * * * * * * //

dimensions      [1 -1 -2 0 0 0 0];

internalField   nonuniform List<scalar> 
7340
(
4.90021569224452147
4.76831004488050691
4.73986691333076315
4.58051861023629847
4.39101959030708411
4.18489255520751069
3.96547773601959275
3.74261081101441606
3.68428403415347061
3.26501664649098045
3.58907375935949879
4.76678090546295863
4.30412397494271914
7.47197433693276736
44.6354226237587852
838.964080899052988
4.33989533610983536
4.6289962389086039
4.6078895703924907
4.53768048851453987
4.40478309482697039
4.20601551194337198
3.95549030530723345
3.76490247921400112
3.81690930210143708
3.2443375833752941
4.15157771405706644
11.9187592046789614
2.5581485844016254
7.71920723419897215
71.4051086193789502
918.666230514797348
4.24450061866417006
4.4227150810276461
4.5296885556903792
4.56626663622273643
4.44521467408677129
4.22711560911948414
4.23108962771154395
4.44230519057092987
3.54520256597652272
3.88471801857381038
5.92885421967025472
19.8645122729886623
3.61946440886313292
7.62863601998421181
178.272258583361975
1003.0522518241545
3.97322735725966725
4.2800620792209374
4.55861226043549905
4.62870736314483811
4.4751541457391788
4.26825144997179429
5.77281210264663613
5.75074773647338144
4.70417474732219887
5.09087685012038005
10.4427953658464876
23.4693824572376677
4.24861410606624634
7.23581384298222385
186.352645371276708
1083.63014304998273
2.44245350620530965
2.89440191780675393
3.33710250393643548
3.81665401494766421
4.26597439968073111
4.55060134865544619
4.63677591430520408
4.59825244936020905
4.65803051429734438
9.17192327060766388
9.83364410737234707
7.37331374661020789
6.4095679433263788
9.71984818801663764
33.9888202933812309
3.84792696204916673
6.94257123524011011
177.138502125116588
1143.59278396465311
2.14694144812651322
2.61306271097927034
3.16874086196822891
3.73439585186610667
4.19483258380566504
4.5062516677307789
4.790271185388292
5.31604035097612648
10.0560680383153862
22.2033041802938129
16.4169134059433688
7.14446207283464485
8.85263116301655728
31.1968852070921585
67.1909564447093004
4.18569359482177195
7.61643332358964198
108.611349151652519
1100.66695399385276
1.14523349417148967
1.48744829408294899
1.89145739438500193
2.42692953619469476
3.04903786708228175
3.62458991161118504
4.08276690764926986
4.50077031268939987
5.44277640983374056
12.6979079231514334
30.9382367013753239
43.1046227931235393
47.7336575751878271
30.7337710626387661
42.7629309944937077
53.2246082735718247
70.0673370807669329
6.67364771023281289
7.64118606540295175
114.708196175028064
1227.34868352545368
4.97727674887127236
4.96888960044312356
4.84990456010031767
4.64502090638398268
4.44180198272411353
4.25419908541169534
4.0778235561180125
3.8964764194164232
3.52996586183673244
3.98358255489003543
5.16374955994578144
10.3416159659477778
9.01115815673372111
33.019701397902196
907.615812110269417
4.39102753947517233
4.87922135007824842
4.86964291063771348
4.75693484025425128
4.60217096594290531
4.42982103326193144
4.24336170911501043
4.09273452286194761
3.73947549474023955
3.66345879618979531
7.25232238260649265
14.3374734302446036
20.8606954739749781
8.70347237088249948
68.3882153411296656
975.303507275186121
4.53807178069522887
4.68512102018867438
4.73490519263543774
4.70751675274854531
4.60752633361197805
4.44118426693675872
4.2378288485838107
4.20588555839766087
3.7509179667930419
3.99223311418960636
11.699485166644763
28.4809645464686021
33.8885302511694491
9.03114714315720413
180.965378680823363
1041.03679599900215
4.23913954455713604
4.48336063223591896
4.64437403648251124
4.70794323924855362
4.63472935665174202
4.45683715225307164
4.441934078150374
4.43122940081647254
4.14012180823871034
4.77380800357352975
7.0062370802144569
33.1458472666247062
30.1907780659724665
7.96365584841533902
247.808945694395817
1120.76863847449567
2.49465281915091142
3.07874783954832409
3.55856382420082751
4.00603783480355347
4.36057277675348054
4.63412211952033992
4.74370176295893131
4.66461921059221041
4.49552996688984052
4.3279664847046746
7.14651575545359918
6.18140588983177519
6.83759129251814546
10.260040524235956
45.1415779262592096
34.9539660713171969
7.07493907218251117
160.153200144143938
1175.38366837827812
2.23931059339483385
2.7751054028458042
3.35100512151718855
3.89764148404199284
4.36104354526958637
4.64925180896446477
4.77568888937610314
4.73660860706684073
4.64263814073796688
4.80970397893455548
7.98659320820555774
7.44443979689350233
11.2205497974682711
34.625220847385286
111.54410422090757
7.05620391422499527
5.82416370990566978
66.1064360085506166
1214.52034558176297
1.10423763196020674
1.51035030894535116
1.97772306312874813
2.59138499265572175
3.25118193203123118
3.84019404802053632
4.33991631579999204
4.63072988111499839
4.88652631219807088
5.30378770049175063
5.61222808181501698
7.47057336293644703
19.097892092552808
41.4984507492572661
59.901354158505967
102.987047303911353
166.499952814951286
11.9753689036234547
6.98760484999558784
142.212293438913832
1261.78325134552915
4.99707637276241101
5.00307309768078579
4.97103109690452705
4.86893236726602652
4.71668030242335412
4.58349542792343367
4.47453743952071203
4.31342440927180526
4.12107819860454416
4.48101628522830353
4.67605123007561918
6.50068797725923009
13.33999652689924
56.0454348983296242
996.06000477056466
4.44711734699685213
4.76267191189080208
4.93717595486532002
4.919124795091248
4.81008224789201844
4.67508136054472434
4.5485280784598725
4.46538483571750966
4.28349636862894112
4.29747608448179008
4.84199720410930023
4.63068879320272764
38.5770353900426102
18.011321356994241
110.567382435801647
1052.76744967987179
4.33972610296405392
4.70506028424178258
4.82949291905263323
4.84239464536153719
4.77358257205865577
4.66048225261210991
4.55011894200049394
4.42514798572128409
4.26005773577349522
4.39361813400566348
5.89122677922839966
10.7931587216708582
52.6413731085570404
35.0076090887945242
205.245840693718293
1116.32560395826772
4.24162577305426147
4.54443636699354858
4.73038301890655166
4.79973555277332053
4.77317775908908537
4.6756914838378103
4.54678815358936372
4.39055030879309438
4.24727709622633753
4.48877389149206607
5.89833977403325438
16.1699914030122933
62.4387240926646925
16.2496711234822939
491.630654125697504
1187.49636829083602
2.51340801332821551
3.12395595105701407
3.62266023658849967
4.06082863373880887
4.42743458740048546
4.67550527713916164
4.81401228170576978
4.80213715805261643
4.69854519262693326
4.54068571472329996
4.39327077561098989
4.45449498300058444
5.28328374966901748
8.88045379454135286
57.4779369537318843
73.3189899147845381
12.4734528443060029
357.34810952773239
1257.53077215705275
2.27899546028965805
2.83661436557312152
3.419530129140953
3.92896976652397312
4.36672034970315526
4.67548833834323929
4.85267591183499203
4.8381076750604004
4.72263693157838471
4.63307053877555397
4.72461871732135386
5.56792608909765629
8.67751976074890052
23.9489113366517579
127.391462815604115
170.145596692297005
8.31867980709062316
131.779102662164945
1310.34733493528825
1.0848592986792891
1.5270663977382859
2.02740405227441656
2.65964795717692004
3.29039599166541974
3.8962081980424137
4.42276629125821419
4.69846751530035345
4.82565182163096651
4.80991682597006687
4.77681495459043326
5.01427000989578531
5.9812513614743823
10.1628597541161234
27.8228537858157772
124.568140580334827
231.444853159310384
249.4964750046625
10.3595271021376067
86.4930599156736264
1345.58727590799708
4.81284776598002129
4.98985867007506645
5.16886970716648531
5.16313624691970841
5.09324593706146711
5.01771144008991321
4.91544427708503129
4.86461950494463302
4.85749187845657548
4.84146451370270547
5.11387493263592763
1.61625472845604601
25.2454685806326751
191.714087146640793
281.282254720666231
1110.08776770905774
4.45487154232245608
4.75101153410135435
4.98638643880911747
5.04865227818725693
5.04138548750615278
4.9402920614525323
4.84698054272443013
4.85944845559493999
4.87146701185151265
4.90702160939434862
5.42250051541971523
8.23046354917330447
35.5146465629840407
206.895433145292145
303.338401967811933
1163.24563331200261
4.08553614451568325
4.72258495707376458
4.91072789113314023
5.00038152087331689
4.96429020860351056
4.89318408493011692
4.85462578576808923
4.84715554306879604
4.91088099663370858
5.23707300016721433
5.23628845504535612
8.76636366511073817
49.3756725391913207
273.57003867937766
718.803230270209156
1218.86876177595468
4.22841629231932803
4.57806145699561995
4.81036570706753164
4.92213042983315763
4.92235367891557729
4.91029367399938454
4.87812051042638029
4.86200160671180548
4.89735763361086285
5.16329880302219557
6.3263644832616075
12.592081335435525
56.0748138244351821
228.713220038770089
1035.21781906960655
1272.43324110417234
2.42401708619995437
3.29025310702225893
3.63044203665530985
4.07233138061241906
4.45081889673133979
4.72192636715556713
4.87758373368498788
4.93220863031719681
4.92472368510086778
4.91307002590090747
4.8472461428310627
4.78752031659052601
5.14232869819875571
7.43479285214593322
23.2810780627773788
105.534537109543876
512.788890687424669
924.815756410565314
1338.99908973039805
2.26211060584174461
2.87702541645044629
3.40920050902987937
3.93251006414301107
4.36125541705315722
4.6810292792460757
4.87525350085736076
4.93150400147718582
4.94003877042993
4.92928306914423597
4.84948789004937897
4.91047082086529407
6.29702096707893677
13.4262669136063817
40.5792179089865428
224.894303281442802
592.867849636268943
399.505979706946277
1396.8539699783305
1.07283043005559287
1.50099381721633196
2.01888092268423858
2.65662498690547721
3.27110126598413808
3.8457235876462712
4.31173161383780901
4.69198511358784298
4.89774143571273779
4.92086882580541651
4.91754285454574536
4.99512814511525516
5.20799463590617062
6.17545925116379202
11.3336313287157147
30.5021243096058363
268.325470161582757
494.020677414768329
477.339667432948886
463.145870497197677
1443.57718618529748
4.70071806101595424
5.00869325364647899
5.19917117991882449
5.27432156243005856
5.18661414262254805
5.06386167331294157
4.92443235661609702
4.85650879485611942
5.03840115603429251
5.51744986503419454
6.15275449469633884
5.39157608318249348
20.4746879146955223
646.082709443881413
986.96597959581311
1261.70997233123717
4.43296093083798848
4.76498132326569035
5.03467609935450167
5.11260909241573813
5.10710641862407488
5.02168964924465477
4.94957410253220953
5.01655354184465097
5.31344347309809439
6.02778288322487121
6.85125046725350462
4.56651532701911034
42.8385427680893613
450.132748793650705
921.538475756989897
1283.90016181608803
4.10648198702236567
4.65793695072809033
4.93793723066838997
5.04039026942088775
5.04386735131590846
5.04234059878164675
5.08453451939215206
5.21686238247957945
5.68259136977874491
6.48700914855004562
7.14940666106427436
7.54359131886914103
45.7578094701723899
179.357652012483555
1028.51517112490819
1334.03718874783613
4.17455655590954411
4.50420238933766459
4.81551322944988591
4.97474169976757707
5.05338163653445438
5.13311051728355139
5.21998789633746973
5.37058591512353001
5.77879685431422629
6.41147132462213065
6.01079280234901336
8.01022547630033088
45.7339354315657829
274.755400495555762
1168.17538160371009
1394.47630523258317
2.39108247386850348
2.93936693913702562
3.46222035590455679
3.95479650777216785
4.40376853096323817
4.69739299347504513
4.92808667561690417
5.0625637281935072
5.19311564047349083
5.28637061585782142
5.39114921601007868
5.65800372186983136
5.94517997960264655
5.90314101518268952
8.06750885608417434
71.7152995545374665
811.287628730708775
1231.9018204580143
1406.47583231930935
2.06265511123848366
2.61696612800191231
3.18917273617034791
3.75321619786566085
4.25498455831769284
4.62459344768188796
4.89645508903326832
5.05851970231679715
5.17592090621401457
5.31671443784784437
5.47019146416696422
5.66523523429929199
5.94958688979088812
7.8539972473154922
25.2210719818094482
133.636323161584357
1137.51881075165966
1268.50468311874579
1464.85889918159273
0.961818908093053371
1.36068564124624647
1.86257237641633711
2.45130739868380321
3.0270976600966284
3.61259746080288524
4.14958706864349836
4.56708036309772858
4.88891642340080423
5.03325092846841748
5.18079737825533471
5.36168146391052503
5.47681007416475385
5.66262117956437994
7.04583090596337058
14.5491578395758374
47.1042449050246503
462.008018252505281
1150.30675728413212
1292.02100400810218
1516.08919445086485
5.27786421850716092
5.60912264108368763
5.76312185843530589
5.75848927928201437
5.6716834343779654
5.55255130376580741
5.46727135124738339
5.63074137380814221
6.34770359353273861
7.92821502879777018
11.1362648525592629
17.1927627096263826
35.5901920106254508
583.430555305095709
1109.35336129675056
1372.68729519236513
5.08707629947757312
5.38572372425274803
5.58893422128017647
5.67549940948873211
5.66015843880153025
5.58897893669022405
5.6000426501195939
5.78319949797488775
6.65138843328240625
8.25780344176802217
11.4845294910862261
15.89734768778861
20.4344796685170884
211.803062709505156
923.554352352202727
1369.59450917409731
4.72671407071818628
5.14751684821481348
5.41233290390792465
5.53335957814850676
5.59038911656778659
5.65449244858228361
5.67004531270200562
5.96365308014152351
6.86853749804745828
8.32314129108979195
11.2465722388730143
14.0433384191084336
23.1025922768770791
81.3674925048929083
717.240876792187919
1416.68845047200239
4.495871739626077
4.86554342544597329
5.1543623153555469
5.33466335502057021
5.48707417467040059
5.58724282043394993
5.73935921916333669
6.04392960981118854
6.83626966950272763
8.03520331552096678
10.0698440870126333
11.6111131911667957
19.5635989695565726
122.608321977259948
1319.73673925313051
1470.7117200601956
4.13661088755083828
4.04170775927793979
4.45684024749706342
4.99605984787300006
5.10753280735768911
5.53129677829702704
5.75803100038474192
5.93166939163630769
6.22371809204359216
6.31942435678916414
6.16914649515691149
6.62707234578300142
7.64863318171503614
9.00815403482748245
9.84950734274442929
25.3470033519762055
151.032832818705998
1338.92241661767957
1484.74410057212776
3.06003224613470026
4.02855083999687835
4.61905569812722305
4.9832312496797897
5.4438501545522584
5.33057399872722382
5.43800489588124414
5.64963165032801129
5.90928165321768528
5.93669980118507201
6.04504211634936262
6.88045563465498322
8.19236336986879721
9.61613327848219868
9.72833797876752904
46.1550989937139349
300.028367883244755
1411.90976205462903
1485.68573666643874
0.90959951789548521
1.35062708520447172
1.82627142026232381
2.37589033367276725
3.12480595147508344
3.78427681992508802
4.06002562062579386
4.46575176977503485
4.754578553828404
5.00273233160201958
5.29172563474976432
5.57944274811541252
6.04760550192010093
6.77901105013725314
7.95208465557292588
9.59071347909996419
17.8178375165005214
74.1605385335668217
967.132515497514532
1455.12280263197704
1552.03850919160664
5.14361468037932656
5.48436312889036337
5.69000159665796801
5.72835140703947232
5.38662057570429731
5.37835113321953706
6.06365690466012008
6.97211983773851163
9.64962982195478425
13.4529931994238243
19.2660911976065918
33.0038660566200122
59.6707992202303501
135.710770184434409
1051.80051033040991
1365.09304660879866
5.37679831458468716
5.59398676778959469
5.72530732830471134
6.13403441554428763
5.5968788346935554
5.83119912136251184
6.01804117136359018
7.01173428551999223
8.87615501723988842
13.7590771475094282
16.2982489179886514
26.0800423933699079
47.8983323960875182
117.428023790543037
762.599580815454715
1293.14335107354736
7.58038927338794633
7.67690980309531135
7.8043880670303043
7.75545438537103227
8.29365332965197588
8.92362222689492057
10.5244543727000579
14.7688331617348112
21.4142170953553546
25.0766907123664922
14.0760104438618949
21.045235404056303
35.3387073369604465
78.1241081918014544
294.279763263063785
1343.97434237718744
15.3655040162327179
13.8885113834855787
14.7562446095626942
16.0388317962486973
18.4298421618415276
22.3562802928658542
24.2717716421839569
24.1787777345376398
23.2948423529919388
18.1650315580299342
12.9410837338100944
18.8937570026112738
30.5535684193211985
53.8730018139034854
152.671169522891859
1395.32702033013379
6.75335620823341465
10.5136341123150032
11.2399965272969684
11.143041873241593
12.4909209256291884
11.9330149172896238
12.5560736103018247
13.3164135054989625
14.8224600415410972
14.797310654763109
14.7754344231045813
12.0607187644414804
9.66147708370260894
12.5874863199461107
17.6290250670562365
26.9235029813620059
62.7398165642093844
264.844523742419653
1401.92919652531486
2.72462460935101314
3.95568291169282604
5.25056684953505393
6.2959664616481712
5.69226890536807328
4.88485134705365098
4.88015910212690773
5.04923372754976807
5.25958612054234464
7.94512452714512474
11.2956708637207068
9.74649273794847737
10.7998253997514997
14.2229300090164692
18.9176517210156163
25.1524338510336065
187.826512298613409
888.999446937271955
1424.78838713357072
1.08026747679275892
1.5763481375539421
2.13558555378803616
3.18391448818647316
4.36477593258789653
5.69151350166942205
5.19168429220485539
5.19029049972757406
4.9373277473809809
4.86923550125705606
5.15339981014559534
6.04286183240732289
7.53035835371665474
8.70651826075746449
10.8976388218193296
13.9199675153044744
18.375194131135629
28.3552985336340804
73.8956378027836251
1408.36223897126797
1515.3351623795038
3.24915921106468408
4.15799785836036317
5.60103965115084801
5.35507100699574767
7.76129420188529018
10.5114990905768195
14.5511514797977419
18.0322177721647421
23.1368429390370949
42.4689423994506257
48.9443736015052551
54.3888424629807758
70.598340638946695
91.5831575229075554
983.459089079100636
1393.70070910863319
21.1892815527492964
34.0782058839939381
44.3233617711581616
44.1825238927605
38.438063523487294
29.3208346115700955
16.1737639196162313
18.9515800530244469
48.7450480015610026
58.439715580915724
60.7040597049786115
52.6765885662062487
61.2689867011138389
70.3797905350537008
642.062240335289857
1265.56810618417376
44.0475436229020403
57.5551888460610641
59.5698069649178095
60.0957518624038087
60.8406865256636991
61.5383456657979053
60.5713906890348426
60.0371230270587901
60.3524677022469191
59.9261091215781576
60.7259065675475256
43.0640853135625008
54.2793988444539366
62.870102901481431
277.938266171393821
1171.10966604138639
18.3181696159835248
56.9017075674112149
61.3606136798573232
63.884662864100747
65.0009471693474268
65.2454925394758334
63.5644187927242683
60.6702630501766578
58.6618003435431348
58.3401034009607073
54.0655998737711769
33.4453402404532412
48.7412983016125665
58.4259509224395472
58.8265657302417964
1130.8221806662923
7.43355119802780706
1.43635075911544674
3.09017422251063367
0.925611581106018821
22.2552409435485323
55.4919424518371969
60.9552078145063021
62.5794127655083372
62.3104461992012162
58.8594830540345981
53.9094541952381903
44.1851630749838762
42.5284649348297208
23.2975420776334694
31.3193119551470218
44.2566337037417128
54.044359944949214
72.1539970633513832
835.36271672542648
2.49816695234401998
3.28376113306358208
1.59251583011783415
2.48213650223387639
-0.408169820491878388
19.8203423542041399
38.6467294480370143
52.1079987538385012
50.8458598848953827
43.076166570651452
35.817218125144322
18.691429767494057
18.5262764955065791
23.2879727338653311
28.4572840746816702
40.6857762240748713
53.3199765996482142
101.0092655007236
1280.66597104861262
1.57660031634378317
1.77135316501577877
2.38699354149125664
3.10048936907158401
3.87247328349080355
0.57927264054528127
1.80325022550637493
4.24264681275703115
13.0460898801988883
26.1731229373550782
27.8129217814034959
27.8800300210384755
12.7868055437600923
14.9988331287655843
17.4909288747801099
20.9304741931052831
28.3076549342922981
39.98763110783554
81.8598345764750235
106.641358125543135
1363.87997347725332
2.79919752732905858
2.91289313554225426
3.00163146559819793
3.05095511347298221
3.07149901222754451
3.08515848522042901
3.10064121466599296
3.1286688432781431
3.17303340488523267
3.22235645405442295
3.28627043840425115
3.36233778929400451
3.55413068305171942
88.3949601204101896
878.561219687696394
2.59876255389197741
2.75672608307981148
2.89305521381157327
2.98645703864618994
3.03399079651957981
3.05153976838874241
3.05789880375334056
3.06661254606173372
3.09205869351950957
3.13828046372216463
3.18856407528230923
3.25103683228756157
3.3106721633207461
3.41210308908150584
134.486141757889641
979.568190792921769
2.55739266739674154
2.72691670845812917
2.86053501295531909
2.95001645146762259
2.99709875338537657
3.00838207334689223
2.99753946650004544
3.00329452187276269
3.03094452275098147
3.09448950428642888
3.13906170253283268
3.20698817164737093
3.24235035160119089
3.30673540343598615
142.02151021493836
1055.49538566550245
2.51557449734811955
2.6782286436412428
2.80565677780476452
2.89307892520049537
2.93654122981530064
2.9185607817890884
2.90076805702883345
2.91509749766107618
2.95325163886681308
3.02297848273401737
3.07303928911428725
3.1545031487191193
3.16769079991372049
3.27553801507248199
72.2364977686049912
1130.87463986168882
1.84944772641760213
2.07689494102036631
2.27976479293152678
2.45717616051347543
2.61026825193954304
2.72736028662934649
2.79796387548781667
2.81756471965736699
2.78823288867197316
2.78182088251267468
2.8109489766724538
2.86329624907626989
2.94604189142863371
2.99928829083351189
3.10026573312226761
3.10207592800905951
3.20666234719494803
136.475641963897829
1194.67773788890713
1.8267916062042413
2.04101348602381494
2.22413583346039134
2.38727307108526343
2.52351348383586416
2.61760901429056725
2.66499261967479262
2.65874190945720112
2.63891286739559972
2.65080072305765846
2.69784866364422049
2.76439681486132516
2.86107311646139317
2.92169360270599077
3.03661177645365976
3.05143852935553195
3.07004244209830768
199.261766592515471
1276.28139113377847
1.37789842693998144
1.5881067969329079
1.80433487843913243
1.991906659916858
2.15467003931639756
2.29830514746240366
2.41194090043121756
2.48083887873998865
2.49474493920645735
2.47942913196247172
2.48354551308697502
2.51528539694739584
2.57952053233652601
2.65902804636071366
2.76676742026963041
2.83620073913525239
2.95694431567926852
2.97260456732282918
3.17270315283260196
264.583710661343559
1340.59416834454896
2.77419301830687903
2.9165456249935362
3.01071865169438713
3.05176374137311557
3.06613062799991232
3.08429530699427135
3.10509880309317587
3.13953714599721811
3.19283386577599204
3.25335585316409093
3.32236306747832089
3.42810839604909612
3.62243792546563848
54.849043959965492
593.479841356996076
2.57994915925097112
2.75697294023484973
2.89970426241398105
2.98771421347757915
3.03244116985809331
3.04728952759822036
3.05895048185855645
3.06888451378409677
3.09957991713382874
3.15600870834873337
3.21449941216306145
3.28624013054168218
3.37288434360178702
3.52803086786125908
71.3907069438768218
860.122469114313503
2.5503034887803322
2.72450622844282409
2.86150982233430318
2.95425661510904591
3.0048239739542395
3.00607844052257311
2.98937484446618296
2.99593759542992721
3.03324657350042948
3.10300561552845622
3.16235192767979356
3.24163805160763818
3.29051919837191065
3.46697131165993655
42.4133600812574798
1020.66906624540957
2.5065111748661848
2.67488495311410901
2.80769767982385288
2.89714946906865212
2.9243251806566084
2.89694625874519129
2.87655140285616406
2.89667903258268833
2.9483593890881199
3.03307508120159497
3.09708476756726281
3.19291034896087966
3.21689306347395965
3.43999697546396321
52.4132341368054568
1097.97819344270761
1.8521571846750251
2.05978663594574396
2.26479212728689028
2.45084517841007843
2.60713445574924663
2.72168122266717516
2.7849329796868183
2.77671356244395229
2.74579822942563734
2.7435497375637472
2.78396249415416941
2.8522975199081757
2.95336781975617235
3.02538311872539945
3.14050318436134646
3.15133643268402519
3.35742043580480054
134.92568581523048
1178.37203759320005
1.81936535123447141
2.02230058876019836
2.21139732034839165
2.37921951265120502
2.51579912701749198
2.60420294874837799
2.63082085884485872
2.60513831847837674
2.58862718955406912
2.60927588816885914
2.66961087330797753
2.75279051000524033
2.86800562821398852
2.95405055172225373
3.08103392160668621
3.07996726390370812
3.23184349942884186
156.748655472194343
1233.73835702367637
1.65712638795689071
1.59855784768043518
1.78728027826831193
1.97302563353532601
2.14247490533808138
2.28939539388017232
2.40053654423597695
2.46026756153586623
2.45514759395332804
2.42492695456075236
2.43191917225924215
2.4755275418829279
2.55433698657787467
2.65087292526448293
2.77761881188280091
2.87052523471600374
3.00757474447021345
2.99927280681830943
3.1127810808894596
146.824684739920087
1037.70687990954866
2.64591721411749337
2.82536570109869256
2.97734069760602393
3.07226491927262746
3.10853309934122057
3.08264770128037124
3.09092787835995297
3.11207858361440159
3.15055262228695065
3.21649304201353914
3.29496141718616986
3.3784083243641394
3.56360477501191708
3.74602922883466061
72.2024375295391678
800.757621169349136
2.60460381621100368
2.79595482371264215
2.94758298413557895
3.03700422268014281
3.08329448301392395
3.06504736720909232
3.07408325123556869
3.07531082867684935
3.10543843997503943
3.17446502243607354
3.25456420705403726
3.33490955760735863
3.48563948047946637
4.61625613112689415
101.674411472489609
808.299143368791306
2.57205485809585443
2.75464903004731099
2.903084314119174
2.99905271589220179
3.04610227375051057
3.02434130240020682
2.98456945000600271
2.99054066687110964
3.02735576473676593
3.11320675435568894
3.20555448778097229
3.28927216272153
3.39851803431211197
3.31300895854934208
25.5057946855529707
727.6098770167373
2.52111111132862931
2.70102876863658592
2.85038807219044488
2.94403004942528446
2.93812851918294804
2.8799423082135811
2.840477008674684
2.87312109936298299
2.92937151703164034
3.03880597054557544
3.15076484865688622
3.24838403983479518
3.29954084968693095
3.55654752797899976
54.76287194286801
1055.23832015324001
1.86472246532372865
2.0670791540830491
2.2701087007680445
2.46286825040241153
2.63152366528983617
2.7556485941991169
2.8014882102290013
2.74235316145781294
2.68770802320357838
2.69145199529736434
2.73161026410458474
2.82623284414670417
2.95816904156661087
3.0898099661267735
3.2126834276592211
3.24743403635438721
3.53956833372710555
142.884566083355708
1121.6920350216526
1.8226391418347212
2.02012258855617377
2.21131256287509625
2.39124373224980413
2.53895546970731267
2.63040415860142129
2.63097394557093889
2.55055250654010424
2.51671537402435241
2.54062610015066426
2.61745132704270933
2.72828731140405445
2.87946729735924567
3.01499333637889633
3.21026301490354493
3.21385046258218354
3.43169628422826856
135.82014683804212
1171.46048710000787
1.43776148156448946
1.59717896181594843
1.78064706783345761
1.96338824711952831
2.14140723363920804
2.3040398435650018
2.4421930375239822
2.47422576228108371
2.44446435514065907
2.37279994419989526
2.35742519758076341
2.40990002990586216
2.50872989352057729
2.63455461644705302
2.79737392812339758
2.96450290023235663
3.17913293310595924
3.12889317740386597
3.33201064688516491
163.532081435611559
1187.78775768721107
2.74570086300619032
2.92965403680091807
3.10513700839074813
3.21240120472988044
3.24265157275792681
3.21323963629045606
3.28070617474133064
3.12630049745466865
3.16576954521695431
3.24739853784913413
3.3546378888233388
3.46301024029677951
3.74757539217293179
4.07118468740091011
70.684746864820255
790.754414979810122
2.68226319966608617
2.89184625821365637
3.07455339216247259
3.20697102063695372
3.30519726536210179
3.43920838197501322
3.12566430332519296
3.09844749077795001
3.12242343411307832
3.19089246529818871
3.31125716992177521
3.42836210468415459
3.67802542695288714
4.11693045042448169
82.2766437524301466
862.61527469752923
2.63553173910489802
2.84919068395897179
3.03967712151084024
3.36123803025834622
3.9430002830155404
3.19767265722307226
3.04286165735650949
2.9655463529563395
3.01390286002536234
3.11604708752840809
3.26997733503376642
3.42065872104047441
3.59079299970806032
3.88676483978117204
84.9617589184905881
925.516103879537582
2.58219347630154594
2.80225205774381392
3.0067919661280218
4.01141070084531037
3.55518089636116308
2.98981821688966187
2.85339123008803242
2.82272342073794835
2.9006582111076038
3.0381713663497032
3.23892081675365029
3.42444706016414324
3.49051731807528043
3.90299962216922802
114.946209046669225
955.909595991836795
1.88444555175987838
2.08927069616010908
2.30388641040658548
2.52421561923640292
2.72791080036268418
3.17429497128040605
3.4802732736448343
3.21110852174390349
2.74064541050733324
2.64983640026233891
2.68650232029744362
2.79249055544496549
2.96725200949564805
3.21867639245775372
3.52625843312247644
3.40454674492500864
4.66559681260899151
122.719832752925257
987.11625683361035
1.82531950295735634
2.02806689023233577
2.23945192969622786
2.45187964862629926
2.64098510450753032
3.29558287958664575
2.83495684180187935
2.67812378482661195
2.52149434415564633
2.49550483895996322
2.5626858522346212
2.69692439119464833
2.90871539232755794
3.20879151357112535
3.64981773065124049
3.39942673631610059
3.95264055511110302
124.658547635243792
1132.6829111494003
1.41004843270421687
1.58056454267031321
1.76878985901551489
1.96457772198568259
2.16971397221280027
2.35952209529671775
2.64921009715363409
2.80963898845368609
2.63261024741545668
2.46863400004633515
2.34655874169782486