/*--------------------------------*- C++ -*----------------------------------*\
| =========                 |                                                 |
| \\      /  F ield         | OpenFOAM: The Open Source CFD Toolbox           |
|  \\    /   O peration     | Version:  2206                                  |
|   \\  /    A nd           | Website:  www.openfoam.com                      |
|    \\/     M anipulation  |                                                 |
\*---------------------------------------------------------------------------*/
FoamFile
{
    version     2.0;
    format      ascii;
    arch        "LSB;label=32;scalar=64";
    class       surfaceScalarField;
    location    "0.660000000000000364";
    object      phi;
}
// * * * * * * * * * * * * * * * * * * * * * * * * * * * * * * * * * * * * * //

dimensions      [0 3 -1 0 0 0 0];

oriented        oriented;

internalField   nonuniform List<scalar> 
20856
(
0.000416722866355280172
0.000215032048212262833
-8.64494962460493106e-06
0.000331514027475860818
0.000160570770969648273
-5.28471643938609753e-06
3.7145076823764436e-05
0.000257391026473321463
9.36167258507832392e-05
-5.02764691051476757e-05
9.64614916553836114e-05
0.000202940690321769642
2.1402014792135076e-05
-0.000109397588172922215
0.000161446646114869492
0.00017994248776025522
-4.64193944890027203e-05
-0.00017040824241835122
0.000214118995145084025
0.00019363819758770384
-9.91787975610572821e-05
-0.000220078734255617803
0.000248252296102212757
0.000218607307335085498
-0.000101722222611249407
-0.000268785707901358039
0.000285915554014382631
0.000205476758656653594
-1.0730101318623932e-06
-0.000344156396587680965
0.000345229558512295288
0.000143584192811909979
0.000261432015282362425
-0.000400441550029061275
0.000360567272457846979
7.36156471042434865e-05
0.000654012453708822938
-0.000366592866957490121
0.000313461181894422009
5.56736816525155002e-05
0.000747130013415707602
-0.000331113063526720247
0.000279978177563744207
2.66271882530433768e-05
0.000724274854502268218
-0.000362196383842713107
0.000329260250193896744
1.47450806687315098e-05
0.000736849160740076555
-0.000350546633278396873
0.000326067498237174859
5.65588504208342944e-06
0.000499389398003121168
-5.95337397763294493e-05
3.10320215457470154e-05
-1.77592770674951986e-05
0.000812653038938557768
0.000207636456056112961
-0.000185635792136759907
0.00129060483560843801
0.000211602654067921566
-0.000203282926272634165
0.000330200227658502892
0.000262895128141125826
-1.12088753879467077e-05
4.62534619513814502e-05
0.000241787002327119082
0.00020344669007489339
-5.61059270750276999e-05
0.000101644751726400289
0.000162404979027775596
0.000118195652790021802
-0.0001094235742721392
0.000164228101735153329
0.000121604337466283199
1.04925828950766586e-05
-0.000165910523494079752
0.000217620194108693711
0.000134928774694144073
-9.16174918829144457e-05
-0.000207895032180909563
0.000239769683961594854
0.000169003113912792672
-0.000157190496355609315
-0.00023656814982511972
0.000260509184915226817
0.000181302386793062524
-0.00013180952115323508
-0.000285366844006489052
0.000303156190899576104
0.000143313301804431193
4.15638870572577752e-05
-0.000373328845670714473
0.000368681700000815331
6.98683207672761466e-05
0.000384258548786874077
-0.000425297757481327761
0.000375915445282234474
4.30059401822303265e-05
0.000725417846818910035
-0.000359031323843582374
0.000314486686879481621
3.45873554580109795e-05
0.00079319404872654352
-0.000337745566696624495
0.00030010086026922893
1.40650145985195724e-05
0.000768655887445871921
-0.000361292496466473546
0.000337433636566269036
7.9601335617045005e-06
0.000773006855110572539
-0.000341374851217177394
0.000311321823075704255
-8.81157958246476559e-06
0.000539782758896528562
-4.16784373448211279e-05
1.80575209302536997e-05
-2.0792731379395957e-05
0.000798807227551536761
0.000210599950161320968
-0.000184773347655922172
0.00126164128220451559
0.000207482100373101476
-0.000199311292307816871
0.000221963230087062456
0.000301976953504921311
-5.46690697007033062e-05
9.65659924464247997e-05
0.000133992735002901845
0.000239208530387384217
-0.000105604157140089786
0.000157813632284917757
6.51908424541422721e-05
0.000129338359358538207
-0.000157332201885741703
0.000214990652181869924
6.41698826634690231e-05
-3.12549514509747041e-05
-0.00019821679445587053
0.000240983060999305413
0.000105662827054574951
-0.000159651668516618412
-0.00021537339888757736
0.000241914441143962236
0.000108023995145457662
-0.000189744454994889114
-0.000237878713852768145
0.000268072161744520342
7.82604727354554899e-05
-0.00012294655921679952
-0.000293639386021930565
0.000314537999635304045
5.19517981045694029e-05
8.4324781778715753e-05
-0.000387849414033940982
0.000371396873709407035
2.26345224739861814e-05
0.00046603255872038063
-0.000440692999496244248
0.000388236007897781741
2.25792156619260701e-05
0.000774093918364924909
-0.000373703083704877742
0.000325081647096109024
2.27426593673072752e-05
0.000823984258166276812
-0.000347080570045180917
0.000316126865344110186
7.0913579741196703e-06
0.000806077098100626676
-0.000353868106659992437
0.000332097968321124241
-1.29685332047006294e-05
0.000824146240280072091
-0.00032223200302561127
0.000291151787034256795
-3.02312937038255042e-05
0.000586258028646731888
-2.05018589155985934e-05
-8.71233403627009065e-06
-2.21359693657753164e-05
0.000765367981872876494
0.000210664773510365461
-0.000185321099468292228
0.00123155290696234194
0.000203297483614790591
-0.000195345103901928003
0.000103358637611001848
0.000334955998169827942
-0.000102818086118187794
0.000146812668094697935
2.24722201843797733e-05
0.00026615703215498212
-0.000151654577268198231
0.000205592676530222325
-1.52147129889516096e-05
0.000115743481622766116
-0.000193527430216034027
0.000244807828087561185
2.0079501147702318e-05
-0.000101123998643463998
-0.000205489794465215021
0.000240062956629223163
4.44346955761545649e-05
-0.000222896247932601006
-0.000207513475934011186
0.000246401584925013089
1.66492695959596882e-05
-0.000201866400848891604
-0.000241080379193457683
0.000280986783374251206
-2.19520647167509631e-05
-0.00011364827287908911
-0.000300178665256440659
0.000329480743429254894
-2.17007865489451792e-05
0.00010367109570702472
-0.000388883165289303752
0.000369284400240219328
-5.5570360485699886e-06
0.000499018307480444913
-0.000440428060046368897
0.000391298679346221197
4.09864216749420242e-06
0.000812413321445529702
-0.00038431273361717107
0.000336337080238940196
8.46468287191116334e-06
0.000853839549116022084
-0.000356554063149978223
0.000322331749969355472
6.39983607181356519e-06
0.000834729772920074498
-0.000345204538639712582
0.000318616477359134019
3.77263778668443116e-07
0.000866412416265002067
-0.000295302315913266358
0.00025905819788321719
-1.74912672918799399e-05
0.000645544098771605001
-2.55825424507760904e-05
-1.58331217588144692e-05
-2.36048063150742652e-05
0.000744970521821059634
0.000210495388090782868
-0.000183984909386108753
0.00120010908689738142
0.000199369943665649821
-0.000191530963437548549
0.00018986029325226221
0.000338104935929063783
1.08012591383652517e-05
1.66490871206238282e-05
0.000126929934670364018
0.000369007599028110236
-4.50002346739732974e-05
7.42584596748203766e-05
6.04264871474700008e-05
0.000388560329642195844
-9.91232729584386543e-05
0.000133555439748727793
-1.42120036723508743e-05
0.000366035357707885029
-0.000149013019725797091
0.000192573232936866547
-7.61164298551283134e-05
0.000276870327701378264
-0.000190701516061348944
0.000241893244192830856
-7.65201055409894874e-05
6.74898663272929068e-05
-0.000206383730309102668
0.000255040771622197721
-4.92663490141334836e-05
-0.000176731768435717766
-0.00019934110092925401
0.000247693420384381008
-4.93007668463028194e-05
-0.000275029641089330913
-0.000215884329185241818
0.000268051520145546804
-6.8429634426853044e-05
-0.000235580148815699771
-0.000249791523058373111
0.000302634679622093279
-9.21856591016616077e-05
-0.000107298396036393487
-0.000319737514076477627
0.000337143181170783054
-9.68660722274075983e-05
0.000121614341917916484
-0.000371690542777510695
0.00035842716074035774
-5.3553871209110381e-05
0.000493996103346609826
-0.000406834957564295992
0.000368545003804748958
-2.53616067623355184e-05
0.000830998084560436454
-0.000385874222926308027
0.000339096639682382578
-1.54928436116613286e-05
0.000884564429108879516
-0.000362754190592612185
0.000322160655102535849
3.94255083759555863e-06
0.000851147280512699347
-0.000333520251434364938
0.00029766722601901654
9.05686155585226426e-06
0.000894062096918463753
-0.000248601044919068777
0.000215835720320000393
1.80750431808310817e-06
0.00069463093919406335
-5.98836177576135393e-06
-3.58477315425712476e-05
-2.55440245094407125e-05
0.000742498124471746785
0.000214161314239199045
-0.000184338456547058441
0.00116699352359699569
0.000195672428590924665
-0.0001881010667493612
7.41720906120157145e-05
0.000372965305626006874
-3.78686205289517467e-05
6.38109406632399423e-05
1.42295329975767676e-05
0.000401311884233357657
-8.8832869820071336e-05
0.000116471696061964581
-5.26418568039789685e-05
0.000422002251435238558
-0.000143327442532298951
0.000176756978069024967
-0.000116836566569473226
0.000386331210657091229
-0.000186513161100273795
0.000230413799853829875
-0.000148985515582035044
0.000258949842804590783
-0.000211340986521025534
0.000261411945658558318
-0.000142951213904614122
1.92663738505163755e-06
-0.00021545381685777337
0.000274983435233178565
-0.000138740995516966297
-0.000242582169497535828
-0.000220674878557137761
0.00028231417038266488
-0.00013557531153953896
-0.000343295259827131191
-0.000233542322757044935
0.000298642563521896794
-0.000137910961419988258
-0.000281677244906923443
-0.000267458492347156032
0.000315891615716032415
-0.000137573842190055642
-0.000123245426643479677
-0.000315463372856428226
0.000331073393443989878
-0.000134574722192344029
0.000132244281510947694
-0.0003535302704345354
0.000339901251629990103
-0.00010181384166331601
0.000492504311080164394
-0.000371168710341735527
0.000339899793348577811
-5.66687111766582335e-05
0.000822836401312754045
-0.000362360548119305254
0.00032537685606775043
-2.73308293379404964e-05
0.000903338907606735376
-0.00035165297047245862
0.000303541043361665549
6.50044591883044759e-06
0.000861512859049859935
-0.000315171132985134347
0.000270974698832143301
2.94077049696375687e-05
0.000898400866436916182
-0.000198013822384053166
0.000170766304661478755
2.26610451227768177e-05
0.000736830708637141213
1.05382876653792116e-05
-4.59952770934942909e-05
-2.79518530366674707e-05
0.000762554494270739928
0.000214494966703038497
-0.000183938100139413498
0.001131710682341612
0.000192230551957684956
-0.00018489967449100193
8.90738654262176739e-05
1.89834835952986235e-05
1.00518774901665654e-05
0.000329965446104701183
3.08804185034466488e-05
-2.89578151853233789e-05
5.53634426270951919e-05
0.000365128797739385608
-2.86800895990767811e-05
-7.81215468077566867e-05
0.000103037035099182224
0.000407610609296374946
-8.9872338936629613e-05
-0.000128731107400804868
0.000155749241406943727
0.000435486370598960764
-0.000153007238340671913
-0.000176125500112006534
0.00021028182689665926
0.000450981939801084106
-0.000194737355587715227
-0.000206262411540392339
0.000251662020968563139
0.000382663530452548252
-0.000201238257334780641
-0.000222718359072603632
0.000275228192869899767
0.000212941840493600763
-0.000206221483808143589
-0.000229162684480149114
0.000299393852012623171
-6.33208559398993178e-05
-0.000221647995123560541
-0.000238743058757359927
0.000298539753416030961
-0.000286951851900283468
-0.000213721752117039461
-0.000253222809123527072
0.000300794314789997678
-0.00039879175060653332
-0.000205529497154913893
-0.000279525682490168253
0.000306315439140196195
-0.000316658755826651961
-0.000184369557138756661
-0.000310358551398662189
0.00031370830010143166
-0.000147755385013478439
-0.000160411120926368616
-0.000338478699366817517
0.000320954874155484357
0.000125809535138329538
-0.000133186575879372463
-0.000343511016860583687
0.000312170759514629589
0.000496619547079550508
-0.000101173475516757008
-0.000332958786591343173
0.00029152445450399112
0.000832257339407852176
-6.46329913807173876e-05
-0.00032477416163311922
0.000291481863672970174
0.000900090715648489454
-2.36073444672640453e-05
-0.000267459369135390334
0.000266705860057610798
0.000821240862596431774
-1.87052725712986393e-06
-0.00013224723070010035
0.000117091503240579912
0.000891820774503025281
-1.54036530961010592e-05
2.94361156291472355e-05
-7.13629107758592164e-05
0.000792287499632796099
-2.90968398581611465e-05
0.00020789670052213748
-0.000185682723683951363
0.000754033026819090442
0.000189125253755601332
-0.000181739342538635873
0.00109522808180663195
0.00040305997878574125
0.000190316724335759936
2.20768689566851852e-05
0.000324856989894599499
0.000129548970686790848
-1.55293751724794207e-05
0.000255000710534400432
6.25423678239025603e-05
-6.48213601340295534e-05
0.000207584020965522175
4.34068268782979941e-06
-0.000125071806371758248
0.00019429497150624613
-3.86766058103535766e-05
-0.000186062323053230673
0.000206791867698795606
-5.617547455409037e-05
-0.000249152074172617364
0.00019548559323875493
-9.77452990850495937e-07
-0.000336313797997189355
0.000119198759064420904
0.000249762096933301282
-0.000422778782692223272
4.36917312953535365e-05
0.000635352019216204092
-0.000378431283477226104
8.45289926508280528e-06
0.000797788813956851152
-0.000333811132119638464
-4.42645397977678469e-05
0.000757566830996514754
-0.000350609255098556147
-4.77258892544145922e-05
0.000730333782445937579
-0.000381490887199060049
-7.38777891298161501e-06
0.000426735277869302518
-0.000118111145353921155
-3.32508026068206535e-05
0.000911168078553381859
0.000214832865983026857
0.00127084949589175919
0.000204841910675595439
0.000373156078711923728
0.000263549939213022751
1.75525987404718113e-05
0.000297470486941022534
0.000230311315599400479
-2.04142043577824981e-05
0.000220312087863341481
0.000162079000656098471
-6.47952712504107695e-05
0.000162163210924664371
7.21482217424398e-05
-0.000117367713753073873
0.000146950466706646495
-1.95907484864033777e-05
-0.00016874987720767097
0.0001676894745377156
-8.07734116542419245e-05
-0.000215211763054980079
0.000182408668251950336
-8.48135234439647027e-05
-0.00027145217842575967
0.000147038995646384807
2.44919814063736415e-05
-0.000363431095718418703
6.0066509344526968e-05
0.000347007988326676717
-0.000435571571999066325
1.98258569262988485e-05
0.000685419032627723702
-0.0003688568022284044
-4.52236448046534889e-06
0.000821209152670757049
-0.000336817999130742656
-4.79948763924113346e-05
0.00079736566646395517
-0.000357618886469542063
-6.7585155830974451e-05
0.000780469282829520761
-0.000371919800460995028
-4.85742381195538187e-05
0.000478936494325501549
-0.000112889723856985971
-3.67952978669018821e-05
0.000891216075244218421
0.00021877317886394987
0.00124119873157655346
0.000200337543462494709
0.000248676575555816036
0.000308200901243686895
-2.27938901525061084e-05
0.000173480268466133167
0.000263242782151123448
-6.33401010715008053e-05
0.000110687043856345644
0.000176263114909130025
-0.000108725962705503301
8.74090598524531425e-05
5.1071119386227615e-05
-0.000153862731911017523
0.000113768182894327598
-6.98902679270667462e-05
-0.000191434045704055243
0.000148200498409643063
-0.00012719533530880739
-0.000225893905173566866
0.000152253551561174155
-0.0001016718834866419
-0.000280839346081250692
0.000104746508510826996
6.4404153730321579e-05
-0.000380257794058011024
2.656600813064926e-05
0.000421876617666736887
-0.00043738126943213614
-1.00403690280681187e-06
0.00071933497011545766
-0.000380048587789253594
-1.55948900011167093e-05
0.000841844514228076582
-0.000353125213814390053
-4.69894644320701066e-05
0.000839019313244656869
-0.000364127115597617367
-6.7375714830073658e-05
0.000836273217615481957
-0.000357649944929370404
-5.99584810203354721e-05
0.000550876112480655814
-9.9857434414058697e-05
-3.65763077189895007e-05
0.000856741699895444391
0.000221756526356230421
0.00121155236392145446
0.00019636751871139095
0.000119580684049079089
0.000344783009040305487
-6.48973293245635221e-05
5.28214923141153927e-05
0.000283574327912518623
-0.000105227707134070538
1.5703484684859212e-05
0.000164152967993383241
-0.000144301323877145209
3.69353508364998913e-05
-1.24497968271510643e-06
-0.000174407075461168305
8.70996743869075922e-05
-0.000132901081333538314
-0.000194670425948932326
0.000103720441068455566
-0.00015976996112432342
-0.000225128583881572977
7.73166422904031852e-05
-9.02191470647872667e-05
-0.00028522947321550651
4.89715876465403723e-05
8.20619692045959463e-05
-0.000378198618030752985
1.12642584110751775e-05
0.000449618853128156163
-0.000430462401458857314
-1.42413330791619431e-05
0.00074894912650038249
-0.00038842124789796996
-2.80138966843137324e-05
0.000871006916857933341
-0.000371943459376994356
-5.02666758905575753e-05
0.000888278199540828029
-0.000372210549745701804
-5.29263675152497743e-05
0.000880668145454794834
-0.000337037498684944297
-4.74070734570882467e-05
0.000586922918161904175
-6.71469478882800173e-05
-3.72317207266835307e-05
0.000828962729384418568
0.000228097747706399151
0.00118071832875741244
0.000192972316312557115
0.000212746556184121991
0.000357941977568871251
2.61530909320786039e-05
0.000141381556530443739
0.000385621818164798497
-1.84097820779005142e-05
6.64940284006227593e-05
0.000403689094749731163
-6.46810671999041424e-05
-3.15375663280231935e-06
0.000371356431506819737
-0.00010593815464724934
-5.07940555074384574e-05
0.000280986785123879914
-0.000140473408984185529
-5.16727809643421481e-05
0.000125342334963975794
-0.000166694518005618218
-2.86841702501800513e-06
-7.27235252700487582e-05
-0.000176666842522665721
2.76378002653066279e-05
-0.000191994394924565101
-0.000187297343272265762
1.19699173634792427e-05
-0.000171536697926722456
-0.000222357119564635115
-3.46068993514748167e-05
-6.59532563679236588e-05
-0.000297427317365356878
-6.34246981201547379e-05
0.000114618967732073681
-0.000375429395522302179
-3.57378672854061577e-05
0.00043176563371984236
-0.000416667768548619345
-3.25023501596405628e-05
0.000753148638030086155
-0.000393309218568994228
-4.61909665320718899e-05
0.000907111653612457719
-0.000385169705392238908
-5.34243195894746578e-05
0.000929728662461732714
-0.000367737473724197598
-4.33283199862952216e-05
0.000924327516420144456
-0.000302356289161117566
-2.65517158725758285e-05
0.000590756820705557123
-2.65969886452775734e-05
-4.11162185437169273e-05
0.000824211122500941723
0.000233476264864886817
0.00114561004850510296
0.000189664595036474689
8.95104769353416993e-05
0.00039835441792617697
-1.30929541363917344e-05
1.99243498623416065e-05
0.000425128154712028656
-5.87536163596292878e-05
-5.34076994302035659e-05
0.000435499269815772534
-0.000101805805157711572
-0.000109266724429827548
0.000376842449143216659
-0.000136139287551381461
-0.000127238579865493137
0.000247329755684526907
-0.000159710743966418256
-0.000103719131940859403
5.55838103218707873e-05
-0.000169214355780765441
-7.18137310622922307e-05
-0.000154026386565216718
-0.000171277777491965347
-6.88226145674482954e-05
-0.000241433347526121125
-0.000187093819161416209
-8.80580082979365731e-05
-0.000199898156567942343
-0.000219860607705139275
-0.00011313722963351683
-7.91616550729202888e-05
-0.000277176361723248431
-0.000133633858647240819
0.000128299355037674728
-0.000346714280988689322
-0.000112574696113884603
0.000420027832297593592
-0.000380489753533336228
-8.07800815719291116e-05
0.000733025092211744096
-0.000374031801551845497
-7.80807561399550905e-05
0.000926923998168745428
-0.000374164561422221501
-6.79439810818756752e-05
0.000950449297934071314
-0.000346028447578482917
-4.94554025725176054e-05
0.000956276270996759799
-0.000248452679037618153
-2.7759902117386573e-05
0.000574724256678298606
4.87847720704191794e-06
-4.12675538430243901e-05
0.000812376694598111629
0.000239835939511029477
0.00110971677399601698
0.000186856348168659974
9.87612227843824391e-05
3.38851044221404274e-05
0.000357955985145986351
4.33912038212016276e-05
-5.44277021742581582e-06
0.00038933345702095787
-2.41723315197507366e-05
-5.0461639628385959e-05
0.000438257895794455054
-9.47520801053087694e-05
-9.10936455944680659e-05
0.000458069376061470777
-0.000160091412249734901
-0.000126973033307239269
0.000451685932131556142
-0.00019126317931826659
-0.000150727021659667599
0.000352479507938011527
-0.000180068748682418928
-0.000167531478303802983
0.000180949512550416706
-0.000164124021208159336
-0.000165712983304256095
-2.38094431429998905e-05
-0.000153350720059964983
-0.000175956693562793305
-0.000227584716060807161
-0.000156636159370271113
-0.000204703522040438257
-0.000286666229412668532
-0.000171477481203184977
-0.000222795038982728962
-0.000241788046868382598
-0.000176655361289451544
-0.000255081744350744662
-0.000129261337058747105
-0.000170224771332707546
-0.000321643860897476825
0.000105034101481925237
-0.000152717390357160111
-0.000353347479809103964
0.000412356903530079375
-0.000127484640979768152
-0.000352888821511189573
0.000727722494679908672
-0.000117437208846348995
-0.000343091819851523163
0.000935194140824630689
-7.69865047889800092e-05
-0.000299786753702127313
0.000942326197599687321
1.72001638896677651e-05
-0.000191104529873985718
0.000920945723932148439
-1.91157946075801426e-05
8.69337805265318377e-05
0.000553545285182526371
-4.06614702797586532e-05
0.000242527828706698266
0.000799290743718676948
0.000184578688615604473
0.00107360174527247371
0.000401535634899249504
0.000242017200489079518
3.34042932737280233e-05
0.000347205592740132537
0.000198218959855537641
4.11433760119814648e-06
0.000286814270910052023
0.000125529897428879294
-3.40261506392565034e-05
0.000232841873082205913
5.58633913793108404e-05
-8.46191374205264529e-05
0.000198748172897625743
6.00997244599759723e-06
-0.000144784234784407453
0.00018353595038068761
-1.52876097468653182e-05
-0.000217019522625822356
0.00015898592677736096
6.87436811262732376e-06
-0.000309369844454897378
8.47328701897430994e-05
0.000194180454495104272
-0.000411001962436939312
3.47191223773859255e-05
0.000554215427747891298
-0.000372294142496701135
-1.11988048646467275e-05
0.000797053047736071322
-0.000298659880620902427
-9.26757329211000072e-05
0.000799289850494530932
-0.000317096836336010755
-0.000128703894386335938
0.000811368124380663024
-0.000405827309867022926
-9.99998936257599812e-05
0.000740350357334831725
-0.0001989203650724851
-5.19099525622387437e-05
0.0010073976389118602
0.000155990041873890263
0.001250848060272067
0.000179460835134306022
0.000323100650567480631
0.00029198418810596707
2.48572777770939319e-05
0.000277828099831241618
0.000271824826348772549
-4.9493378647767558e-06
0.000231611052599003117
0.000217629561049128352
-3.7988793303515126e-05
0.000187813189157738679
0.000132525207567764825
-8.05660396324021921e-05
0.000162831294867361187
4.26957403858204594e-05
-0.000130603749357610221
0.000161639007833164336
-2.12970619746027598e-05
-0.000186717592529533937
0.000165698207252691881
-3.91771396229994833e-05
-0.000251624593332241725
0.000127329903630303911
1.93619528358542577e-05
-0.000337551196392644017
4.65216682723114885e-05
0.000251113467803179352
-0.000411693939333202777
1.46934620513807918e-05
0.000580539075423465141
-0.000363350647030165526
-1.8491734808379101e-05
0.000802144082966426992
-0.000308723719458296709
-8.90780325061952215e-05
0.000838928459519834037
-0.000326670839043484255
-0.000133022477377447198
0.000873497972155850167
-0.000390105330377521801
-0.000117428248494747079
0.000822184311714081414
-0.000210316969526215926
-5.20688896647719776e-05
0.000997161872598024751
0.000163649655590896408
0.00122252963359769317
0.000176587110415517761
0.000197654990808701295
0.000334732084919923598
-9.26833341964445999e-06
0.00015456579236248008
0.000293040747701909664
-4.14681338392735907e-05
0.000121663431496369469
0.000218833118190831942
-7.70269399502772573e-05
0.000105290466165780256
0.000113158200520781176
-0.000118122921394926507
0.000115774840484275933
4.68633417318216937e-06
-0.000163914118437370374
0.000143575526199899226
-6.25513727597853643e-05
-0.000212445899211550235
0.000160593355142051589
-6.72627614871255605e-05
-0.00026977400072396594
0.000114729241398500871
3.82149580326364888e-05
-0.000353248703784757052
3.60202159263636599e-05
0.000304687262732243017
-0.00041224618967536375
4.15937511637649374e-06
0.000601523202686511747
-0.000369171807043919926
-2.8139864604275066e-05
0.000811536230660070109
-0.00033021822047763264
-8.20683597837123586e-05
0.000880045102251017963
-0.000351315064376270312
-0.000125672494521643916
0.000931808357479561801
-0.000372356314789676053
-0.000124076528062289489
0.000889504363947354946
-0.000168773931469544907
-5.05453701489495886e-05
0.00096349953680173548
0.000181887649582601483
0.00119396955724102049
0.000174382283695547602
8.1611725275648094e-05
0.000364521498374804724
-4.07512264218974971e-05
4.64814427587372436e-05
0.000297338733772365804
-7.43964456567196004e-05
3.18037028042046107e-05
0.000197273771174313948
-0.000108063004831112058
4.74772062292203731e-05
6.70128849439110392e-05
-0.000143934602453083292
8.69136493484200451e-05
-4.94509813014158402e-05
-0.000179972918134008034
0.000130305114327595859
-0.000110583326918702011
-0.000220490184230694337
0.000148872811311643092
-9.36173494144306795e-05
-0.0002774464279321334
0.000109309781351576478
5.61314781606162401e-05
-0.000356555347740312501
4.70060267352877882e-05
0.000339232832513972928
-0.000402704509975612668
2.96133548792408712e-06
0.000626817494088916047
-0.00036967109145583999
-3.97608559818273151e-05
0.000838023140265494013
-0.000355708513193542339
-8.43129982021426631e-05
0.000926705997188135015
-0.000374319374596756519
-0.000118938719406714598
0.000978048881801400587
-0.000348652181666747206
-0.000124337338410399122
0.000929979259109494868
-0.000102224804991711814
-5.03511442145971119e-05
0.000918067334511981324
0.00019954411360934292
0.00116355102128157771
0.000173039655501805391
0.000158009316899205171
0.000426824956104313578
3.52758460231655086e-05
9.2095632551800251e-05
0.00044067682843414532
3.69620675950107074e-06
2.73914164651044569e-05
0.00043508232509771106
-3.37727719906401975e-05
-2.14044051631430603e-05
0.000377125107638614078
-6.97468330581216641e-05
-4.31364289195341555e-05
0.000278920367751069932
-0.000100322921117353066
-3.48355119384827498e-05
0.000153144651658799536
-0.000130865845376761867
6.70598164438230975e-06
3.35162377365549589e-06
-0.000154548386617151012
5.80773068789882784e-05
-0.000111627122506640757
-0.000176494037538967182
8.74037176294118579e-05
-0.000146743985307748898
-0.000215523075233116411
8.8627126020911402e-05
-0.000106090820309773581
-0.000286179069504805461
5.5981451314600063e-05
8.28549410258243242e-05
-0.000369508870430451729
1.67270870524914133e-05
0.000372021186735557079
-0.000410201296905518141
-2.08530762714166914e-05
0.000650819405979411944
-0.000379730392559611877
-6.421068002657819e-05
0.000868157645114920077
-0.000371946839541621775
-0.000103578236709035772
0.000971881105103306877
-0.000373545261543899577
-0.000107355969641187863
0.000990098427424178536
-0.000310628360543757089
-9.93901290238489326e-05
0.000944157412389770166
-4.87409154308267615e-05
-5.21264353505575468e-05
0.000891578305351789068
0.000212701423902174845
0.00112965369765478116
0.000171435407635926507
4.97672442517255412e-05
0.000461130703094502078
9.15110355113852398e-06
-1.29186154679750473e-05
0.00047112566044444032
-2.65184320676462307e-05
-7.52667742983067128e-05
0.000454354855687913667
-5.8731580229847063e-05
-0.000111955147783753559
0.000365871341754299645
-8.81969664667791724e-05
-0.000113922703968813118
0.000234296630651595854
-0.00011311823245479006
-8.57595032423043313e-05
8.94305494582667976e-05
-0.000133663135920369588
-3.12574493848958343e-05
-7.88379814082569661e-05
-0.000143591189001829041
4.47261011731354399e-06
-0.000174662676358803426
-0.000159786356946800925
5.17282221686250227e-06
-0.000160119688531369496
-0.00020718339867067671
-5.60988985788533854e-06
-9.65605393621166527e-05
-0.000275922384745344476
-3.2770797064038286e-05
8.35826989144052056e-05
-0.000320278648649956405
-5.94860762594544119e-05
0.000371083856832515988
-0.000352837921930005587
-9.03537914028023888e-05
0.000673647139802663461
-0.000365991931294556907
-0.000114159948404787378
0.000879257981060561824
-0.000361458731485822375
-0.000126631108527469334
0.000984511535400615966
-0.000346187593841868445
-0.00010326783264209637
0.000975915210403786567
-0.000257633149453566118
-8.20088445326267655e-05
0.000925479574871323173
2.29673508322654051e-06
-5.40981958263578788e-05
0.000880821905244668236
0.000222682108306374374
0.00109301391102677669
0.000169397897059931415
4.89249028399412844e-05
4.13417333213336998e-05
0.000402886334129252618
6.07282795431190726e-06
1.44318297104350836e-05
0.000441558236321095061
-5.44760186498209232e-05
-1.89188848339430346e-05
0.000490135838902154173
-0.000115951273651956227
-4.72068242369139455e-05
0.000488712708557591919
-0.000169108971225244442
-7.2139164914810115e-05
0.000452678427031817817
-0.000188735567727471874
-9.36433630489859727e-05
0.000328414614639140436
-0.000163955934358443479
-0.000107250730988270543
0.000149235965897990229
-0.00012849931302991158
-0.000127703649132590244
1.59632702522070837e-05
-9.91228287839331963e-05
-0.000138147322134266341
-0.000146023363133993234
-8.50569511788924385e-05
-0.000155956425340352114
-0.000237473708744831549
-8.64069211782302521e-05
-0.000204141155202642726
-0.000177423325977180699
-0.000101679435812337566
-0.000253595688190138137
-8.27725520356911525e-05
-0.000129865909094938357
-0.000287965838416809393
7.80923181181582098e-05
-0.000146605825141072694
-0.000328724488574083336
0.000363200221198838264
-0.00015238339031046027
-0.000346162553144739387
0.000672698631645763257
-0.000160480973426450457
-0.000335182082704556803
0.00087944644003246867
-0.000150464267652404907
-0.000296928306964285818
0.000971636345607544217
-0.000121377746634017294
-0.000193763249568135317