/*--------------------------------*- C++ -*----------------------------------*\
| =========                 |                                                 |
| \\      /  F ield         | OpenFOAM: The Open Source CFD Toolbox           |
|  \\    /   O peration     | Version:  2206                                  |
|   \\  /    A nd           | Website:  www.openfoam.com                      |
|    \\/     M anipulation  |                                                 |
\*---------------------------------------------------------------------------*/
FoamFile
{
    version     2.0;
    format      ascii;
    arch        "LSB;label=32;scalar=64";
    class       volScalarField;
    location    "0.660000000000000364";
    object      alpha.water;
}
// * * * * * * * * * * * * * * * * * * * * * * * * * * * * * * * * * * * * * //

dimensions      [0 0 0 0 0 0 0];

internalField   nonuniform List<scalar> 
29184
(
0.999999979859536259
0.999999979304052156
0.999999964880389669
0.999999937591756427
0.999999950014743955
0.999999968790541427
0.999999977557144315
0.999999981889154732
0.999999986232573468
0.999999991522130816
0.999999991926268872
0.9999999916716652
0.999999991372401031
0.999999988690374542
0.999999981602485821
0.974364962722354733
0.999999979308816345
0.999999970197276378
0.999999949859798898
0.999999928460585275
0.999999942666625508
0.999999961149667049
0.999999973096816097
0.999999979667373751
0.999999984234451023
0.999999989975137504
0.99999999170256415
0.999999991372396035
0.999999990867254107
0.99999998378103272
0.999999953904201377
0.974841791998460661
0.999999951505321283
0.9999997615004379
0.999999674769391111
0.999999688888728144
0.999999764825615922
0.999999850353027853
0.99999991143212219
0.999999945423376224
0.999999954425728421
0.999999965161093574
0.999999989260450084
0.999999990932574079
0.999999981970917329
0.999999968187465393
0.999999914562466508
0.982531376124170075
0.999999325971803965
0.999997162095372594
0.999996454086537367
0.99999680063921137
0.9999976725132802
0.999998522176214211
0.999999162268694342
0.999999436151111976
0.99999956253251332
0.999999627394429824
0.999999703469752754
0.999999896656865506
0.999999966802062157
0.999999848880105513
0.999999802268805471
0.998607321801114667
0.999991682038545271
0.999976098705962935
0.999971912553920816
0.999974873731366731
0.999981569232437639
0.999987922382358341
0.999992927680087629
0.999994921142236981
0.999995932612275373
0.999996705979056655
0.999997212938605773
0.99999821287916868
0.99999977772170201
0.999999666980743052
0.999999525182914129
0.979564741779668458
0.999927850509785721
0.999847698555126563
0.999831945039255543
0.999850173539431619
0.999888040830752001
0.99992388458396908
0.999953294048245622
0.999965740432882
0.999972246567583545
0.999977058479441627
0.999981666174494799
0.999986845104047894
0.999994092669855061
0.999998687204249004
0.999998106998938097
0.972022990833708356
0.999531358512330659
0.999218645999205735
0.999182109783239847
0.999274625635794722
0.999443631054648507
0.999606192116566428
0.999744282152764563
0.999818448440033869
0.999849020799719157
0.999872582182307346
0.999897668499187819
0.999928277528174703
0.999956054058696697
0.999992659496234726
0.999991326560693006
0.968882825284731464
0.997620580911236843
0.996759983741239863
0.9967177526747657
0.997085327669361754
0.997672345193135301
0.998268115478271989
0.998807868262202136
0.999180835746361184
0.999313980525007306
0.999406084330621725
0.999516684978279946
0.999657287125183092
0.999759735365342239
0.999960210734543664
0.999962394594342774
0.965994293021562478
0.989494663769791671
0.987533282853356287
0.988275082168991625
0.990015117401294442
0.992151938366045871
0.994142336079478217
0.995661680744338473
0.99715617302020787
0.99754282536854344
0.997679626189739377
0.99799811916789527
0.99854868915138284
0.99884936046325401
0.999725853964391842
0.999855604976825019
0.969685138151246351
0.886940965081785437
0.873532415598831435
0.886157274931559824
0.906787847815122783
0.929847283144506598
0.951734992300357963
0.969565663189719595
0.982094731027845058
0.990248527174298898
0.991859947511349649
0.992555136681140926
0.99424316047644945
0.995280248846621363
0.998632720614865299
0.999495920893833878
0.981757647286024215
0.309706178374994867
0.292388151873303082
0.312432716091247897
0.346467581491405441
0.390925111997596719
0.44728030718525702
0.521397246680966209
0.623431015410798817
0.752547497322187509
0.884270698910296638
0.959090258706631116
0.975572247603853526
0.98426703873777055
0.996778728705968287
0.998345325666547767
0.991095534094245889
0.0258137885323307149
0.0243531100265215253
0.0266488266360870966
0.0286479090407066594
0.0327471413713966708
0.0390387569986406294
0.0512601433276802243
0.0823995817577790057
0.162782913450465361
0.350288987732800261
0.661189057111990275
0.877352770619281852
0.960510814995312212
0.992973251659712952
0.994782538478790945
0.984063393393055597
0.0105612182657893825
0.0100049326631055507
0.0101951944764894463
0.010084521312968683
0.00994294461385286134
0.00991249700121466654
0.0116442871383700235
0.0136928730540651702
0.0174959672258657717
0.0658010708478193318
0.231843408839594034
0.560429194699871625
0.881466024322661301
0.980050123223526803
0.98418895801749251
0.972516166241716107
0.00402184313895158439
0.00404692511366241351
0.00450789712284161564
0.00475773918601457568
0.00578991292697143226
0.00811888985609476518
0.00943163876985535221
0.0116441965406584164
0.0180798177362423429
0.0316883087793042167
0.148001064285432304
0.398224268162243211
0.599508780843422406
0.825586428609196843
0.953857341731347841
0.956802771440904642
0.00172524107069296079
0.00162867548631872531
0.00193173368739675642
0.00253770230341357483
0.00429138561382409571
0.00550627366111856864
0.0074687921724219293
0.0116559240303169137
0.0199985675686144282
0.0402940004259243617
0.0199935336856227573
0.00594015532457817068
0.025070052852800704
0.377140633044135809
0.603445405183161254
0.912116961126089754
0.000936005027227470774
0.000890625433208057675
0.0011103767373404896
0.00175553826124032718
0.00279633965422212798
0.00384090877108660654
0.00496244247968067459
0.00963380076175361644
0.0253113318491420027
0.0256611683005215849
0.00703130381823837206
0.000966358892088015065
0.00231060490741110021
0.00876595356817293052
0.17402536730605575
0.483078836847628479
0.999999979275934536
0.999999978396730604
0.999999964521676721
0.999999945488759256
0.99999995668351449
0.999999972548420435
0.999999980277679779
0.999999984711076872
0.999999990199882838
0.999999991926266762
0.999999992022244655
0.999999991793979914
0.999999970107531277
0.999999981601833676
0.999999965005561986
0.97169811974138165
0.999999978403979251
0.999999969846920966
0.999999951411249421
0.999999937369723924
0.999999949919199049
0.99999996623050591
0.999999976630366327
0.999999982829183565
0.999999988901049575
0.999999991548012224
0.99999999193106115
0.999999991436185232
0.999999903548686064
0.999999373077611331
0.999999911372055683
0.972520459527019154
0.99999995038155598
0.999999775951944336
0.999999708779579777
0.999999727511506453
0.999999798620755387
0.999999872666335055
0.999999924219543646
0.999999952233124656
0.999999965545925962
0.999999983230213996
0.999999991368599739
0.99999999091996572
0.999999984698707545
0.999999062074658385
0.999999811204214772
0.985400133388178778
0.99999934118621292
0.999997374963059515
0.999996834278598312
0.999997181803222945
0.999997985969408365
0.999998723968171799
0.99999926071212708
0.999999532335710595
0.999999654177133324
0.999999715516142418
0.999999854543467182
0.999999977929765027
0.99999992968766116
0.999999705135868666
0.999999645210888022
0.986861425375145207
0.999991895945810727
0.999977617767979998
0.999974597421533051
0.999977545956200586
0.999983755458258905
0.999989314450676181
0.999993552420531229
0.999995675992750743
0.999996703132944198
0.999997378291819783
0.999997795758067465
0.999999078512044504
0.999999764811480008
0.999999467446259338
0.999999359409455391
0.979468538468298733
0.999929762114245113
0.999856166558674819
0.999845689360130185
0.999863997076608335
0.999899268263604868
0.999930780477041536
0.999956049143022496
0.999970205504491783
0.999976630917754017
0.999980762217450581
0.999985330996624233
0.999990709990461579
0.999995073222134656
0.999998456953399506
0.999998262285447748
0.969284711355610673
0.999540730419508971
0.99925522489920382
0.999234218916918215
0.999332898590576724
0.9994881799803772
0.999631391837498606
0.999753171438285682
0.99982971311324742
0.999865410421876932
0.999889943436224726
0.999912528337828732
0.999947800548013799
0.999965215049836376
0.999992725157346496
0.999993069595519479
0.965976033810040269
0.997634326350169021
0.996853393726672921
0.996866342272574202
0.997256227745842327
0.997800619155166268
0.998332255508449062
0.998818226718449997
0.999195918766827451
0.999356226783525758
0.999457796400015308
0.999567877265940208
0.999746223608071749
0.99980219740637799
0.999955784698328465
0.999971130117272233
0.96283266789723565
0.989576562914413316
0.987803863359507206
0.988654627518537055
0.990347710488715949
0.992339807980460176
0.994227035029676021
0.995615468942616211
0.99703748509674206
0.997524830784379146
0.997797522099324707
0.998211102482682744
0.998855072665486343
0.999098310583067306
0.999682570898409395
0.999890303606336905
0.960190134969764131
0.894075861288874729
0.882472754908661283
0.894614713399867978
0.912576417351794733
0.932439124735273017
0.952632256159223645
0.97011082262682613
0.98275567005825426
0.99096306281435198
0.992427689073965946
0.993531806424004071
0.995192494486121237
0.996373091371589359
0.999154420439493318
0.999605884162920066
0.958442785730451607
0.32190579969887867
0.306960946681567315
0.326694652196951263
0.356437308684485976
0.395615854812703449
0.449955593063184889
0.529103993146630147
0.641865546517314423
0.782348994823107158
0.907824765721810367
0.965367571301313232
0.980191217564249984
0.987967508577730413
0.998156353852183598
0.998772302005544121
0.959094667477546903
0.0276535227639594164
0.0262848900728274368
0.0279951927757336946
0.0297661222255646181
0.0333013490104575385
0.040363423984159541
0.056806358944233519
0.099600260904628507
0.20305913674815726
0.420268767683704025
0.724484697782795228
0.911747344458412545
0.970499517139989054
0.995358592601990555
0.996237200365826858
0.97034424067754077
0.0104772705922158947
0.0101404305393710467
0.0100487989642252737
0.00974321194617036937
0.00966267631812673181
0.0101467609351743159
0.0120069129340211779
0.0156152735369728436
0.0229066636981308594
0.116535581002382482
0.331013545789291708
0.664320202808559301
0.928636641764213122
0.986789657913118901
0.988733422477548141
0.970866847387318543
0.00420004572937131976
0.00422339152713109133
0.0044778661060621899
0.00462325986143092248
0.00518576520302452444
0.00676480856267553006
0.00928900099963885645
0.0121379047059928039
0.0181841263078670046
0.0335981736545528029
0.161589644999114324
0.451334324410205157
0.67814861801130677
0.959090107731407016
0.966865242641076206
0.954512111812682917
0.00186255138951405171
0.00181047834168145431
0.00202990733469335816
0.00218763802619927668
0.00317694513022968384
0.00564577807881900921
0.00867294277784715767
0.0110895458473789389
0.0202101227617823703
0.0157184874714420449
0.00604711831477167464
0.00829940788583732186
0.202376877158471719
0.507304553829568405
0.818298936088881712
0.926432231958834174
0.00101963646141575649
0.00102818871706006126
0.00119291669286786641
0.00153008752636609271
0.00248703940298493614
0.00414522741082813326
0.00484935797386234352
0.010039674608538043
0.021669314520465912
0.0128817222106207621
0.00247352115833733045
0.000805044815909863312
0.00299212012141162817
0.0190264501067933314
0.301445651735406606
0.683139143634979962
0.999999978161220437
0.999999977565717568
0.999999967925153221
0.999999952041517259
0.9999999616052202
0.999999975581575939
0.999999982867901371
0.999999988369446369
0.999999991881065364
0.999999992022244655
0.999999992052789666
0.999999985226903032
0.99999990193014654
0.999999964998306456
0.999999935506821092
0.970051794360302089
0.999999977574825949
0.999999971337276694
0.999999957558971309
0.999999945083293484
0.999999955608744662
0.9999999701119755
0.999999979696315822
0.99999998646629451
0.999999991137606736
0.999999991881679873
0.999999992022377993
0.999999991634418661
0.999999448494553356
0.999998894307185027
0.999999835328730047
0.971276078270238097
0.999999957988700228
0.999999826132533021
0.999999760022756035
0.999999767419952779
0.999999822319700082
0.999999886140846783
0.999999932079260745
0.999999958876567341
0.999999982594999781
0.999999990755278123
0.999999991635541874
0.999999991155665624
0.999999883876162121
0.999997798571511942
0.999999702195217943
0.975669472637673119
0.99999950321172526
0.999997937984306806
0.999997362862057981
0.999997581112345602
0.999998196495047953
0.999998828683467345
0.999999310619096304
0.999999580951070999
0.999999709859324737
0.999999799553810798
0.999999981663708626
0.999999986521148188
0.999999912492761656
0.999998892631182912
0.999999506394884996
0.969075036667048417
0.99999375076091368
0.999982063356731787
0.999978376052054418
0.999980335210808979
0.999985134681816934
0.999989949231876896
0.999993811348999451
0.999996058795914466
0.999997218870607107
0.999997868461608319
0.999998349365869066
0.999999447024352062
0.999999746808906576
0.999999176520357635
0.999999223922228397
0.971028458123759708
0.999943892131627377
0.99988072451195964
0.999865233331136083
0.999877847288115129
0.999905620401165596
0.999933349535852112
0.999956795353113437
0.99997169664091079
0.999979448207909183
0.999983882234222854
0.999989014837034951
0.999993698908761441
0.999995076305535302
0.999998040139502997
0.999998324997773969
0.969771003816846777
0.999617669624343064
0.999358674146654025
0.999317394527771574
0.999381332140662826
0.999509251365920282
0.999637157590624104
0.999752453734583435
0.999834609963511811
0.999876636849650557
0.999906671996857455
0.999933137824351226
0.999966625258020825
0.999970333310883031
0.999992823084474125
0.999994117080710732
0.9659106813703221
0.997913118209117433
0.997174018058277545
0.997112356563256585
0.997381877494663338
0.997839900043014039
0.998322937093812035
0.998797719580786003
0.999197812139295927
0.999392465781643979
0.999539707148626277
0.999684034140046252
0.999832400789876896
0.99983946149948677
0.999914965583298843
0.999976528428677902
0.961813302970176198
0.990396879855741541
0.988682693301074389
0.989236915871228417
0.990608837048705948
0.992348161267598172
0.994081779398086729
0.995478067466947891
0.996965273693708465
0.997665667356279595
0.998158818203658704
0.998714158372003391
0.999177558709424041
0.999277554446296623
0.99966759966123353
0.999911866347683365
0.958709605960194611
0.902312249404608524
0.891260868810678231
0.901533885366850862
0.917302669753587541
0.935548924431659268
0.955083710192700774
0.972330907907307918
0.985093328902951093
0.992472211435780238
0.993809393925802032
0.995325315377303399
0.996424581862922376
0.99704854115247965
0.999221151162492882
0.999623254615925161
0.95697629120344474
0.332807602871578401
0.318748137271509302
0.337248588895080359
0.365489400632207584
0.404123898241878332
0.460738286300990785
0.549745960084575103
0.677109853297371389
0.824183951713666541
0.933935461522879207
0.976357581584159417
0.984951859057612733
0.989981327607541761
0.998437159913020511
0.998921305198966492
0.957909492822165309
0.0284377182160111194
0.0267190457958612106
0.0289069079860960476
0.0312672849661586802
0.0358785680862921952
0.044658664731077366
0.0659825651630659149
0.122687655372085341
0.25575478135311297
0.505875947191293474
0.779419026439051921
0.932189375074296001
0.975632451452208449
0.996449902566194035
0.996934791641471252
0.961343453942184789
0.0101058678089319155
0.010125195941987462
0.0101437784263166998
0.00978532481571848037
0.00979136069026715489
0.0104665876482904797
0.0119142423277275485
0.016166670907242997
0.0304118317930226201
0.161429037532692998
0.425448416961846654
0.741330296196492711
0.950905675426464869
0.990071973562623775
0.990762107924294422
0.96517896667507852
0.00436016292465883117
0.00436895746994031813
0.00464093899869501367
0.00480214251325520626
0.00524662594255963753
0.00617556621874498952
0.00835374498713318744
0.0108593407451426423
0.0159470010385346014
0.0291420053818794988
0.173329359529176885
0.485369822211692559
0.748878419501250114
0.969429659103210883
0.972814417589543901
0.955041819101699829
0.0019992258942755272
0.00203014979610650773
0.00223372782122052043
0.00224803200650187506
0.00271570289973573423
0.00489260901907804038
0.00736965589450358505
0.0129741790444615548
0.011286786922498189
0.00803868153207489694
0.00505287249917422358
0.0108439158215187098
0.295665855915446141
0.600939311521838437
0.895333913365266243
0.932304321689766846
0.00112526274631163806
0.00120955285417036294
0.00134305440801723002
0.00142606925977860235
0.00201876642030385679
0.00270618318284370028
0.00598256105024668004
0.0120277276649991948
0.0151355861264133411
0.00479388973715594736
0.0012020657590307896
0.00132061233626856365
0.00479953613372108463
0.116101571092895955
0.366279668232247335
0.779902080045842716
0.999999977769393755
0.999999977436937026
0.99999996839405747
0.999999954875730235
0.999999964834524357
0.9999999782993233
0.999999985177600026
0.999999990527784322
0.999999991982135183
0.999999992052788889
0.999999992062482135
0.999999977880564161
0.999999875393859483
0.999999935496163728
0.999999904963988273
0.967943282180025788
0.999999977445456434
0.999999971771125429
0.999999958217352214
0.999999947688384516
0.999999958566426317
0.999999972966458262
0.999999982218368499
0.999999988789542105
0.999999991631235652
0.999999991982255976
0.999999992052798659
0.999999991755489814
0.99999926890712576
0.999998854466162879
0.999999771830473616
0.968982549082977096
0.999999958577097781
0.999999831774715853
0.99999976308029237
0.999999770855311443
0.99999982584742142
0.999999890319799412
0.999999936946717294
0.999999964278261988
0.99999998826630665
0.999999991212340733
0.999999991756635898
0.99999999130329642
0.999999697530497222
0.999997768287920197
0.999999635253071451
0.967734698685254302
0.999999516266158017
0.999998004599107815
0.999997402570259708
0.99999760270864857
0.999998197900724528
0.999998841726540189
0.999999342096144828
0.999999618060267048
0.999999750401950882
0.999999823574208913
0.999999937119963933
0.999999986913529093
0.999999918889016737
0.99999969753752338
0.999999511572486344
0.965834829280582063
0.999993921896497162
0.99998264652026303
0.999978736130513468
0.999980468041340775
0.999985038852433616
0.999989981553641827
0.999994076285933953
0.999996372957515534
0.999997567954394873
0.999998070114748616
0.999998739312292662
0.999999515181104748
0.999998773604084845
0.999999511784629869
0.999999278890701615
0.964486608920036792
0.999945701346189986
0.999884979341657321
0.99986745178252856
0.99987828955157898
0.999904503883996876
0.999933320130965586
0.999958794773192938
0.999974137304804223
0.999982279421117282
0.999986465277511116
0.999991108622174885
0.999994790294160829
0.999994191872590754
0.999998367588159631
0.999998457946659092
0.966284205351695347
0.99963157711943551
0.999380591053695699
0.999327226522637391
0.999381140871963058
0.999502341027793673
0.999637794863470264
0.999765900061034385
0.999852225941047834
0.999897900832055764
0.999927000104803065
0.999948358638824475
0.999972542567415523
0.999971476171142015
0.999988054131815352
0.999994694882830659
0.96429504440522984
0.997993543508195469
0.997248775923927022
0.997144498437173787
0.997355009248532376
0.997802583200017024
0.99833187149191005
0.998871065604224562
0.999300882801409829
0.999513365317549196
0.999655862186481392
0.999774422675836272
0.999856638424230004
0.999852089938158439
0.999912549141894758
0.999979317789367217
0.960851066598738646
0.990703628180962692
0.98897428585439473
0.989388998347957793
0.990565617926070785
0.992284647153025667
0.99410096882929011
0.995718243816593018
0.997337152254206494
0.998122763930879175
0.998633941884866649
0.999094180444311641
0.999271521754209191
0.999327862791300481
0.999714592668450308
0.99992209133020582
0.957810357774424137
0.904665616806048623
0.89477401336606488
0.906033901856169832
0.921576354647803853
0.939080800842146513
0.958614210045448889
0.976000017937801889
0.988364165765380553
0.994369645300641092
0.99530922211642292
0.996534348876238152
0.996862951798323738
0.997256450314695453
0.999339091492893461
0.999691271409376969
0.956194304206526846
0.335801046156137151
0.323741556959851184
0.345648012423845574
0.375509292767196134
0.413905166398303104
0.47263754118856971
0.569993812494311691
0.706917456649073461
0.855024325943648522
0.951073228685666572
0.982485809920481623
0.987054654806171938
0.991220021949307251
0.998745557459395084
0.999082263675179827
0.95698103971193671
0.0281742318137997369
0.0266534342069830975
0.0301423960860201061
0.0336282101762996749
0.0387036407062117255
0.0479336491078657806
0.0719406610154830761
0.137701820178686707
0.292880530501245351
0.565693275372287863
0.823400871151878433
0.945791283861542098
0.980823638611903803
0.997053727457376748
0.997108924162916188
0.968302195841352464
0.0100266369138245198
0.0099154080047156104
0.00993738448574041713
0.00960950666290291342
0.00952302771865333811
0.0102155794697311939
0.0116461515302043739
0.0164947050282388298
0.0365337542691445971
0.190531268926781461
0.477813402014682698
0.788816528655908122
0.964127273420835706
0.991576243784922484
0.99121808918123766
0.969641051653076014
0.00429072509304836026
0.00427994658113153587
0.00452588413771853014
0.00459526696962890384
0.00498208537419908646
0.00580263322141314451
0.00772712492964909743
0.0104337471695611431
0.0155295758100005895
0.0295632293706049737
0.212405086724105935
0.522778502309551807
0.79682304220663891
0.973293285324424828
0.974470320365813492
0.957573052356583965
0.00198302492321583744
0.00198170227837619114
0.00212908768544545386
0.00214392693619734273
0.00244666246410539089
0.00415112395905315595
0.00685457291295654345
0.0105614228029343345
0.00973509339441221665
0.00878157799399929134
0.00589196014161391668
0.0219882403588636532
0.346076404570734297
0.649273598867764923
0.922632014421118418
0.936221761579280498
0.00111041269882594597
0.00115204596414114993
0.00126051867635714908
0.00128812724877888553
0.00153901193489701491
0.00232033499071873737
0.00575143177511886969
0.010846479764117227
0.0120818946066671429
0.00502013376535601682
0.00122231535792046331
0.00139161207730548468
0.00581854752708579372
0.169627976719268936
0.393376029566436691
0.82757923692452362
0.999999977597775924
0.999999977597882728
0.999999969768978758
0.999999957862522271
0.999999967417709579
0.999999980130603872
0.999999986522760009
0.999999991273158306
0.99999999202211709
0.999999992062481802
0.999999992064711352
0.999999963015754778
0.999999863695949509
0.999999939934599236
0.999999911388693041
0.96619863924643834
0.999999977600290912
0.999999972823391925
0.999999960227384355
0.999999950535545912
0.999999961262117321
0.99999997516556749
0.999999983885423105
0.999999989883415985
0.99999999179264687
0.999999992021997075
0.999999992062482468
0.999999991794570109
0.999999249339015628
0.999999219443275189
0.99999975881079628
0.967300160750838023
0.999999965467559981
0.999999848905711808
0.999999771988924868
0.999999778238331638
0.999999831429828401
0.99999989682160173
0.999999942930377306
0.999999968651336002
0.99999998984068017
0.999999991420248646
0.999999991808486532
0.99999999119846672
0.999999928799049975
0.999998470764867031
0.999999686779007524
0.968507188664832208
0.999999634408728411
0.999998194999601298
0.999997484742683684
0.999997663004401405
0.999998240381975378
0.999998908972140832
0.999999414339405535
0.999999648674650188
0.999999772245354857
0.999999826454859742
0.999999857081405596
0.999999985874949204
0.999999882146206942
0.999999662602290118
0.999999539614184751
0.965703660408612663
0.999995380487684216
0.999984122978170298
0.999979320123610904
0.999980869037388143
0.999985394568992381
0.999990614579335579
0.999994797305582939
0.999996631954887638
0.999997681394825588
0.99999809811788265
0.999999052448359405
0.999999290757384474
0.999997354487266676
0.999999052807953426
0.999999304831125313
0.963610861509293426
0.99995774375195956
0.999894281960615139
0.999870645068860808
0.999880262666697273
0.999906929014878321
0.999937942267936419
0.999964202748532371
0.999976367931886934
0.999983641587641525
0.999987265035181427
0.99999128100634449
0.999995097706505631
0.999993425414575698
0.999997048806968936
0.999998506746241689
0.963000993440521702
0.999702468521914023
0.999425586874337135
0.999340552034081453
0.999389476069045934
0.9995159700048597
0.999664774564834824
0.999797630384829272
0.99987027768167891
0.999909318186099516
0.999933639652393902
0.999951204929268478
0.999971537508700159
0.999971382194611902
0.999982273720321557
0.999995017552539167
0.961325037883254185
0.998299551500658966
0.997408172538047366
0.997194427360229341
0.997377725416357608
0.997868499558349109
0.998459928317118273
0.999021357557992706
0.999400582919842018
0.999573171092708712
0.999691000517403228
0.999794085312847636
0.999843247112545908
0.999850385332464175
0.999919869885640189
0.99998071895455376
0.958428504278567184
0.991610427347857204
0.989353534139925772
0.989560374307663304
0.990709760601854672
0.992601825963164597
0.994511469752730859
0.996206083126949804
0.997767460606610257
0.99837318835293809
0.998784129393438302
0.999161230039572246
0.99925710624030506
0.999325693462692621
0.999793242519037229
0.999926374802471596
0.956449632115101367
0.907920445353527228
0.896394099022784108
0.908296073497683709
0.923474652806637097
0.941181914462263847
0.961924663470070551
0.979439711470576402
0.99076102780821218
0.995246456903553289
0.995794732825691864
0.996776396692273137
0.996883608266921684
0.997458140784616809
0.999548377004388033
0.999549577943833922
0.956142723225773428
0.337728569502800169
0.324759628962964009
0.349564197145864619
0.379475396215590843
0.418386303784952451
0.482252865578258638
0.588788413997683779
0.731612235134146971
0.877140485399009684
0.961313581835826159
0.984999052755387905
0.9881946943505312
0.992901676923237719
0.99908579214557236
0.998979322707081785
0.956194304206526846
0.0272767744142924061
0.0262000133185843996
0.0303583487779153713
0.0339021879822181821
0.0384990978311580342
0.0486955233790353145
0.0767338690015997305
0.149864742053696959
0.322322898323137763
0.612554448830644915
0.854810114756373363
0.95689073225957888
0.98602950661390365
0.997443778087379052
0.997060220020195009
0.982740669712433679
0.00987035496540230282
0.00969937016429323583
0.0096247378018891501
0.00923735966511721532
0.00923154897882423262
0.0100818428863523671
0.0115930776702510927
0.0170449084769090584
0.0420601028203655622
0.210596354406718311
0.515321448942952287
0.821276341412561561
0.972729660804898755
0.992050048822326058
0.991078832747992688
0.972200112245287684
0.00409691330098314443
0.00412312411055726098
0.00429595907639669823
0.00426794764975260178
0.00459410128844436189
0.00557832142075815034
0.00740670442534287037
0.0107565668786363047
0.0170894990774842215
0.0369009640022266439
0.254309583822920737
0.550987318808969784
0.830761272150083885
0.973879053684102547
0.974258210555212223
0.961470716526979352
0.00181624865275263462
0.00182064170858424815
0.00191615080549634468
0.00180673875143175255
0.00215636239421312242
0.00412701115760709565
0.00670195768288192606
0.0092689833689603273
0.011586505948213097
0.0112979460603323187
0.00820093641949059399
0.0561693122211847987
0.367336124672265618
0.662299511548412156
0.929641011389142569
0.93848175275554091
0.000986790523690400049
0.00101562156947219507
0.00106938396563465007
0.00103511060212273286
0.00151462710391389111
0.00235245321857938377
0.00485906314002305419
0.00932947733156175817
0.0124138277946123886
0.0076351361999406047
0.00240420934169058732
0.00148361267655435164
0.00623061787880219847
0.204568689262536962
0.401946789205099353
0.846961024832984299
0.999999977597775924
0.999999977202806201
0.999999961479893562
0.999999956976738824
0.999999967478628626
0.999999980220951601
0.999999986571088795
0.999999991289465151
0.99999999203138501
0.999999992064709353
0.999999992065640608
0.999999950701164542
0.99999993192006853
0.999999954128468538
0.999999939917757374
0.965184270706318292
0.999999977204951151
0.999999968620623125
0.999999948893764312
0.999999947540613388
0.999999960317671022
0.999999975263320962
0.99999998401582102
0.999999990028328622
0.999999991821856948
0.999999992031251561
0.999999992064709464
0.999999991794191301
0.999999293978079185
0.99999953906626482
0.999999781622469053
0.966290435156585303
0.999999948966551866
0.99999977422502706
0.999999706268523858
0.999999740679651916
0.999999822880414113
0.999999897645574398
0.999999945132225676
0.999999971676525989
0.999999990095187474
0.999999991471030691
0.999999991799376153
0.99999999136725215
0.999999328045070079
0.999999864559476759
0.999999788559831071
0.972539881089648839
0.999999337550012468
0.999997385327466626
0.999996890846903908
0.999997306588600754
0.999998195916637855
0.999998948920704733
0.999999454969954238
0.999999659145376363
0.999999785409954267
0.999999817848440831
0.999999855336349164
0.999999969898315078
0.999999720373389023
0.999999788559832958
0.99999959044307507
0.966561965195275485
0.99999191582259539
0.999978087497692014
0.999975458864618805
0.999978873306128779
0.99998550440676548
0.9999911806791556
0.999995151554950334
0.99999681657261652
0.999997788571481694
0.999998201652843699
0.999999230225917191
0.9999992157108194
0.999996972403677242
0.999999224384631069
0.999999039220371921
0.962636467014168051
0.999931157363370793
0.999861686699758945
0.999853203742545604
0.999873714529851965
0.999910304317750853
0.999942645573383082
0.99996704017209681
0.999978092200506818
0.999985000613038966
0.999987608062483213
0.999990079464647463
0.999995115882431507