/*--------------------------------*- C++ -*----------------------------------*\
| =========                 |                                                 |
| \\      /  F ield         | OpenFOAM: The Open Source CFD Toolbox           |
|  \\    /   O peration     | Version:  2206                                  |
|   \\  /    A nd           | Website:  www.openfoam.com                      |
|    \\/     M anipulation  |                                                 |
\*---------------------------------------------------------------------------*/
FoamFile
{
    version     2.0;
    format      ascii;
    arch        "LSB;label=32;scalar=64";
    class       volScalarField;
    location    "0.660000000000000364";
    object      p_rgh;
}
// * * * * * * * * * * * * * * * * * * * * * * * * * * * * * * * * * * * * * //

dimensions      [1 -1 -2 0 0 0 0];

internalField   nonuniform List<scalar> 
29184
(
1314.46530447740838
1319.09370075383345
1325.57703456153899
1334.2373677099979
1346.19257984537558
1361.86099321628171
1381.70318296946266
1406.41673568565488
1436.11616644189667
1470.00273208044882
1506.36385097572565
1541.86620657359322
1572.38720773451882
1589.53868662924378
1593.52897324869127
1515.71359866732382
1313.58657171031837
1317.92709825068346
1324.28940161213836
1332.93189542522646
1344.78628668457918
1360.41359850928188
1380.33746957036715
1405.17298544210848
1435.07148936193357
1469.31528263842688
1506.134791111612
1542.26038788590813
1573.30460909947533
1591.2693319012285
1594.36259558114944
1517.15468730782231
1311.73105053749828
1315.59309882981279
1321.7274449575973
1330.31119043497142
1342.11847779033792
1357.75270714279736
1377.76046014567146
1402.75679353573287
1433.00143090754727
1467.89615216933271
1505.66401157791393
1542.96206859832432
1575.15520031427377
1594.4072020413771
1598.21017252232787
1522.42304532240564
1308.80977037577077
1312.09344309717426
1317.9416314891098
1326.45180482991668
1338.21073428974751
1353.80804374882837
1373.85034341881055
1399.03422282334441
1429.77723988550338
1465.64383307682169
1504.87971768739749
1543.95895133997533
1577.94661496234471
1598.95819247514123
1604.01014180938432
1535.28148718258353
1304.72282908271291
1307.39431282353098
1312.90680396087873
1321.31949113904852
1333.01896991326771
1348.54828982338813
1368.58691256061252
1393.9684410028799
1425.3397863394739
1462.4992647294348
1503.77452346415043
1545.30615816482054
1581.76238811243456
1605.06938113602814
1611.8032434382917
1535.71983261616106
1299.36761793071332
1301.40137857825653
1306.52535886382839
1314.82909326433605
1326.46511463517118
1341.89268705700943
1361.86980676464941
1387.42323991410262
1419.52926874041282
1458.35716384725788
1502.26470770644141
1547.01490795803738
1586.65760528119586
1612.85648809388522
1621.71287527138043
1543.19213686911507
1292.60569283501422
1293.84504810019757
1298.52020039191871
1306.72882588293646
1318.32717959936053
1333.63004218880587
1353.46936225713785
1379.12076144486628
1412.02926807173139
1452.94724715715802
1500.264383029172
1549.13758319901808
1592.75132919539192
1622.43563624086323
1633.76390450837948
1555.20852950589688
1283.39710887820456
1283.46205515721681
1287.79454226872144
1296.11648588605954
1307.90097160130927
1323.24039737462249
1342.99586519147147
1368.68375302078539
1402.29825817638243
1445.64717271786571
1497.42832201552415
1551.59793826500709
1600.11754106668013
1633.94979082093914
1647.95812606298364
1569.37219249093118
1266.07152517190775
1264.10431335563317
1269.22809803514792
1278.91738965105719
1292.10742130090739
1308.46885959655401
1328.69256949796386
1355.131125956495
1389.45597448612398
1435.39365673242514
1492.78568551780677
1553.77220862713057
1608.32114834356094
1647.3508908033341
1664.23878766821872
1592.14172411821596
1141.83406632272386
1125.39404399248087
1143.84709133567753
1174.27857488817176
1210.20247760289817
1247.8058026023059
1285.07801744021822
1323.18356185021162
1366.94763983171879
1418.52115014619881
1483.24758946378984
1553.22404110779485
1615.08116145663553
1661.7533189829112
1682.41298629863741
1627.69202965897398
426.657688851923922
403.520255926507616
431.047084041694745
477.427362903596304
538.579711245331168
616.805342905358202
720.557150209644306
865.778002219635141
1056.31181092357997
1271.35138399173093
1437.94883250459475
1536.45305312189384
1614.70758513915757
1677.62411630908559
1702.09235572445778
1664.38885819502298
42.1732914549600508
40.0108269059903066
43.650954641717739
46.8931648744479475
53.6050364161831325
63.9459459559102754
83.6481027708023248
131.415693814130321
251.970392144842037
536.863666218951835
1026.51457378557825
1410.68928896615398
1600.22221895467464
1694.84779936877521
1721.40315996663094
1682.94622930557534
19.3145871968626928
18.448377433429954
19.0165165792932171
19.2313368615508331
19.7625747244061145
20.8089760848457068
25.1114569520760043
30.1673275869288275
37.8976257791156854
116.365394768724684
391.754343530328072
947.641849694270604
1497.65972995926813
1697.98671862629953
1733.200550281593
1696.18977146350289
8.71502321280728864
8.76583695209128777
9.74994898824386524
10.5110463824639666
12.8411731587050877
17.5360747134164967
21.0540129057583947
26.5466904216974022
38.8749322668556871
62.4578070067514517
258.532563593964255
688.730625220384695
1046.506282483831
1467.73110433231454
1716.42563843926882
1700.48439885787138
4.6690453012488522
4.51241082660976911
5.20577706683255848
6.52136057067342545
10.0087858948687405
12.6723986829624184
17.0862184804744892
26.0688452505027364
41.8953913295977713
77.2929033083798913
37.7873331090411213
12.0477491466505882
50.9438448230631309
701.57616436333069
1138.49530078363478
1653.32161298858364
3.13278123598909897
3.0647434813482417
3.58269318460306208
4.93312601860265687
7.07674547337167059
9.34953504563152471
12.0088035708919403
21.9319063805077086
52.0232743799431319
51.4080726127380245
14.0129887415555174
2.25044283459381678
6.04551436586707336
21.6345202667852838
346.661054732723471
905.758225146964946
1315.12727219242902
1319.79292342506392
1326.38719806640393
1335.30138075476316
1347.69532696025749
1364.05282389429408
1384.89270940044321
1410.8692508326003
1442.01355924242966
1477.47799911760012
1515.43614290504001
1552.95466748559829
1586.33398195801237
1610.80389871622219
1622.13591697755987
1604.74933183159328
1314.26189307382697
1318.63342123682901
1325.10861284324506
1333.99905515155251
1346.2909434633184
1362.61738678787651
1383.55199190132362
1409.67810687013116
1441.06014850525526
1476.8959761551173
1515.33428648384165
1553.4211032667481
1587.2165644448869
1612.16790398589433
1622.9337752135184
1605.15002949616451
1312.4343340073342
1316.31887076570183
1322.56846727133188
1331.3895126674895
1343.62643946252115
1359.96741400968153
1381.01315343429656
1407.35513893392385
1439.15600354691878
1475.70350535494435
1515.11969394081871
1554.3311309788744
1589.14256390662922
1614.98522664099346
1625.95195935983679
1609.82061322652976
1309.55940805548903
1312.8696323871261
1318.82697034649073
1327.55181742000923
1339.72063271250431
1356.0298480509573
1377.15340502143158
1403.76857447244674
1436.18147926920506
1473.80721307037561
1514.73236080306538
1555.66728005882146
1592.08660041336452
1619.26565105682971
1630.87707578188315
1613.89587260682288
1305.5456462556117
1308.26647148376424
1313.86866065004779
1322.45605621944355
1334.52878381080518
1350.76744873544658
1371.94271055658578
1398.87444470611626
1432.07796549461136
1471.16376868839257
1514.17758146926758
1557.49339417971123
1596.14218077521082
1625.11244248289245
1637.67449097471786
1615.35733373138487
1300.30402570199772
1302.41613548962982
1307.60581724802842
1316.02303797663012
1327.96785285425335
1344.08291093339608
1365.26009605739068
1392.52420123712977
1426.68797477796966
1467.65520538246074
1513.41179243953457
1559.84153640943168
1601.38144245298599
1632.62704058728173
1646.47171269632236
1615.6614368094788
1293.69222911470865
1295.04221409695492
1299.7721899102005
1308.01400943304907
1319.81221537802458
1335.74232791762324
1356.84439218748503
1384.41645227635513
1419.69796678635885
1463.05732422655797
1512.36792148463655
1562.77558073598652
1607.92223996861526
1641.95278759252983
1657.40577152991818
1621.53834417022495
1284.64985759868023
1284.90635970819062
1289.31409930794848
1297.55101423958399
1309.35268911216076
1325.19413643502003
1346.25573959278563
1374.13152653157726
1410.56314657560551
1456.82867179326968
1510.73900714585602
1566.26765497376664
1615.84852011759563
1653.24326201136569
1670.59360772754053
1629.62929882795152
1267.66678612632609
1266.11863791658448
1271.31967085379711
1280.63265722165761
1293.45313339930112
1310.1124929624732
1331.64990172088528
1360.52645439965045
1398.27478703547604
1447.94404089703312
1507.66227863926383
1569.82522788249457
1624.90109761352687
1666.47536320479026
1686.11936692413542
1640.33963697325476
1151.70393473899298
1137.70728232958368
1155.47432716703952
1182.36676667633606
1214.06214185610906
1249.84582809738572
1288.27476151083033
1329.47917285217977
1377.30193377374712
1433.0077685700544
1500.64505231402427
1571.25863683824446
1633.34960321679819
1681.5913274800821
1703.93787141788039
1654.24736256604137
443.121259659516625
423.22425507601946
450.192848937819861
490.807524695450638
544.814448445782205
620.427743605203204
731.807625623862123
893.388129868096598
1102.8332570873788
1316.02820349531567
1463.75420045955434
1560.11826413523067
1636.8563762754095
1698.62830991747819
1723.84769445038046
1673.56788799269566
44.7425759116497659
42.7307026348771473
45.4028470939759643
48.2142521701858016
53.993105849211112
65.5198556610670977
91.5497458783691087
156.38899848589179
311.362242312091212
644.825978580504511
1132.55884534908841
1476.73792522841177
1631.32666268168236
1716.96466014475163
1744.74630944130058
1709.89290752777947
19.0974759091202699
18.5603161544786239
18.6004231432490492
18.3949527636948567
18.8980092849972827
20.8129997618387002
25.4644019634256402
32.7898005076487919
45.7091542477373451
195.039296043347889
549.34241678938497
1118.27300131980746
1586.01949298612271
1728.28737897545648
1762.05225029274129
1734.36351273511127
8.94017138954052015
8.9710468140289148
9.55335135117936218
10.0462732224788152
11.5165546148717102
15.0882820665039983
20.7439782318902743
27.094558918181388
38.2830735993919546
63.3628624455195322
280.227624310688213
780.815895071301952
1192.4728244105313
1706.50211816655064
1759.86091478608068
1729.56026844745725
4.83731690358521771
4.74512086544592204
5.25931011922256353
5.74499979181167131
7.88048831835233532
12.884591082703361
19.2174962885978964
24.8321096188291079
41.7319569211166623
32.0284765195398293
11.9693416722922361
16.9741604593977016
373.526151904321296
942.526404371660874
1534.8534340646147
1699.51576774717478
3.21580961966860679
3.23536708464166267
3.639742732186662
4.43305588876043455
6.4737257076841761
9.93769695590387592
11.8362998447381589
22.6469026930284301
44.9578204122809879
26.6863244351547486
5.138862315844972
2.01255738800060824
6.86702194257635767
42.1986133147222091
589.615475745822664
1290.08515501662691
1315.73615637023477
1320.43100178872646
1327.16615164770769
1336.37797579296853
1349.22732577654551
1366.24164332248779
1387.98362676796228
1415.07629115380291
1447.47677746834802
1484.25425217738348
1523.50650553770151
1562.47140009753502
1597.71759188893452
1625.91867636623169
1643.67987158268966
1645.59239322436724
1314.86345980743044
1319.2692868727413
1325.8944944625573
1335.08241636802154
1347.83191869636266
1364.82416348371771
1386.67390883971461
1413.94000544581058
1446.60600513688382
1483.76873225776103
1523.50149228920782
1562.99496217977844
1598.66268521909342
1627.33510182944497
1644.99318132953795
1645.65253256172946
1313.0304959933369
1316.96407679588992
1323.37717780112234
1332.49580356935712
1345.18895406661909
1362.20411117213439
1384.18989296527798
1411.71851111607702
1444.86065677332977
1482.77885613960689
1523.50089011257046
1564.07363974331156
1600.68501778352106
1630.1315908458032
1647.91101798777345
1647.07804916503892
1310.17157923716627
1313.55372589231411
1319.68595950170084
1328.69985603847863
1341.31388424377337
1358.30544583146593
1380.40875698290893
1408.28401786201744
1442.13002459368181
1481.20091519606035
1523.45222178315839
1565.68497673127445
1603.78509145400972
1634.39776715311791
1652.5707968027391
1646.07114921618449
1306.2197190534871
1309.03738725073185
1314.81566260462455
1323.66764565175845
1336.16013135986418
1353.08653661220387
1375.29552689701541
1403.59137604912394
1438.36097476670875
1479.0016692088077
1523.37147345742596
1567.89233586968612
1608.04723451379368
1640.20331069396548
1658.99785381747756
1649.74194150763628
1301.11520642483583
1303.34088231914075
1308.68846321511842
1317.3208627022359
1329.63857204232727
1346.44045153945626
1368.72078355887038
1397.49272166138439
1433.40952214862205
1476.08066209617118
1523.23452966688865
1570.7319568529424
1613.54608365777358
1647.64223996829969
1667.29700716806451
1653.42539595695416
1294.74396357228284
1296.21437340117086
1301.06025043647901
1309.42342726850779
1321.51874461063812
1338.12317840257447
1360.41214069721445
1389.68947760558967
1426.98935526460673
1472.25668316180463
1522.99424946398199
1574.26890345800416
1620.38628043091467
1656.86049448828498
1677.60965536016488
1656.89306966515801
1286.11177843821383
1286.49283614704154
1290.93728664855212
1299.11709116246129
1311.07564478452241
1327.54762738827026
1349.89865183729216
1379.74810519918833
1418.58513921421695
1467.09164217116449
1522.43045872813104
1578.51728455017337
1628.64419557277029
1667.97756996176167
1690.11812929954158
1661.82048644092652
1269.98506125250628
1268.60268103585645
1273.5838397862708
1282.49222788604607
1295.15954686560826
1312.29287025612916
1335.27997007426757
1366.50786056410948
1407.28282723094662
1459.72951547616049
1520.95388454802264
1583.10443593316745
1638.15487567396644
1681.07397634676454
1704.95409215644031
1669.77443307911972
1162.66123911928412
1149.46448042660722
1165.18520395792939
1189.42679621584307
1219.30182976746778
1254.90139436619324
1294.70620783767936
1338.87395149613599
1389.23243164271389
1447.71929534304513
1516.68447559651349
1586.32148004107785
1647.49881769049034
1696.14182320767554
1722.01675327624821
1681.73932030128526
457.705211347409261
439.040884111686125
464.538766259161378
503.223999274978894
556.629388228439211
635.488353040291145
760.597845480860769
943.593847348578379
1166.12454751563155
1363.98201005952478
1492.72788493299731
1580.1013942466011
1652.795171354074
1713.19756505346277
1741.22928716653973
1699.37539564660551
45.7745164578980592
43.3154891269782993
46.7036587132241223
50.324059299470008
57.568903830451724
71.4556063260770458
104.351542281123784
189.497243121777217
388.822118096334691
775.257024232497656
1225.08046545449179
1518.20400531594373
1650.96640435347103
1732.02252419219553
1762.04266276092585
1722.99935298914829
18.4662578169056815
18.5046877986651914
18.6959955557294251
18.3416008992878403
18.8507682775667114
20.9185057840540978
24.719735355550295
32.7764420524058551
56.37050998062292
265.200402701462735
700.52027224301753
1243.91745066698559
1631.7660381808173
1746.56112485142626
1780.43147507331878
1749.98679326293268
9.16708262652919537
9.18519686559110937
9.77254581906679576
10.2318035793076216
11.3981105038028261
13.7901414106691149
18.7353972777388833
24.305976693478037
33.2470723666110857
54.4610812421304118
300.011423799403985
839.35723025356674
1319.72908715327367
1737.41879785004699
1782.58242328148322
1753.09812419914169
5.03268419039392878
5.09345707585754148
5.56167818886356891
5.75904616250330026
6.92289223623098149
11.3397225659889553
16.6564399661037079
27.7146797177823956
24.950767250326173
17.3323802788540036
10.2240160101463626
22.5468312954642798
544.599907329474718
1121.60655987605082
1679.99049464037216
1730.05352984803244
3.36272252833945862
3.52514331654941726
3.85727159299623956
4.16489945122941041
5.53156244734082669
7.14181041335243272
13.8508232654526697
26.0176467731124532
32.1221928519640514
11.0521942970619964
2.79264573336950717
3.3176020169796292
10.684713459070279
230.851958630615741
719.054604222659918
1488.03579204000243
1316.32018883614683
1321.08162467300281
1327.97403139315929
1337.46468595831379
1350.7144213956467
1368.29468655109781
1390.80256815012854
1418.83802923575922
1452.27910373482246
1490.09362892064564
1530.28631089611076
1570.14492294708066
1606.36859972876027
1636.12277803345114
1656.35754440617757
1661.42674579162554
1315.45631509580244
1319.92409766357878
1326.70924124564931
1336.1765936007032
1349.33041108000634
1366.89494514639864
1389.52100059451186
1417.74630030433264
1451.47137485203825
1489.68092864820869
1530.35934218440502
1570.7362066238843
1607.3975064184458
1637.6461151056385
1657.6220192698247
1660.93039394007155
1313.63554105883281
1317.63014912860285
1324.20821498699388
1333.61033164948617
1346.71170323088722
1364.30686376578365
1387.08894000058172
1415.61323772885407
1449.85909109895533
1488.85756762583196
1530.53306201453393
1571.9573025814957
1609.51539222828001
1640.49068732210822
1660.43752090377097
1660.61326742065557
1310.79302274537054
1314.23837079848954
1320.54386174488764
1329.84540381291981
1342.86833868237795
1360.44998263047296
1383.3828317182174
1412.31407081049883
1447.33834828357567
1487.54766683153753
1530.76709873305526
1573.80019826603893
1612.76772015640381
1644.808358672743
1664.98717290706145
1660.90328814106579
1306.87133541260528
1309.74864949940479
1315.71354561462044
1324.85571590165137
1337.75104688538568
1355.27752003746127
1378.36249170626706
1407.80103429093379
1443.85746139461799
1485.72063123011162
1531.08067639428236
1576.31399326052087
1617.2185452659819
1650.66734253956179
1671.34066027474455
1662.47514649517689
1301.81661974024723
1304.08854391601153
1309.64143721246728
1318.56482204092822
1331.26899829793251
1348.68080430492523
1371.90279394406957
1401.93808804317973
1439.28945882037101
1483.28980505557388
1531.46718824147092
1579.52874051957679
1622.94093376314163
1658.16006894017528
1679.58226632628566
1667.49415030938781
1295.52452288235304
1297.02673403713584
1302.09058174685651
1310.74233113329092
1323.19671534072904
1340.42534182997133
1363.75178009732872
1394.45922866224464
1433.39203731021485
1480.11434864351168
1531.87824249618666
1583.53208715798519
1630.02845789793355
1667.41494148780953
1689.79542116272614
1671.92037075880557
1287.03434327046443
1287.44514222092494
1292.09538283925554
1300.51758328200776
1312.79579504538037
1329.93461238760324
1353.47193170328342
1384.97499467955481
1425.71935472781161
1475.86388972098916
1532.10316507455536
1588.37269370777426
1638.56169616087641
1678.54569265712234
1702.13564321026411
1676.96295029555517
1271.17482504839927
1269.89932476642093
1275.04755044280182
1284.04626270197764
1296.949998614175
1314.79197821959997
1339.23876398025482
1372.43591363571318
1415.49374004557558
1469.84855873605488
1531.83699663680886
1593.6614097941067
1648.37840123240198
1691.66200644481387
1716.76135550309527
1684.45546408121959
1166.10020679115246
1154.38601390676649
1171.68779665264833
1196.00260657097033
1225.18985709414028
1261.36033968952029
1302.7085145964063
1348.58147993062016
1400.02729548917796
1460.19987787531568
1529.62488666234935
1597.84842257421656
1658.12867444508129
1706.73016830998381
1733.64120545134438
1696.00842915999351
461.728766651968726
445.687682806380565
475.892438811059662
516.917278984461291
570.092240161191626
651.896392450629719
788.703364909704192
986.006805206555555
1213.37619079733759
1397.49381158764049
1513.1263935795414
1594.11451129145007
1664.71452424440486
1723.78944765588244
1752.62160853748378
1713.07038667011329
45.3223886120893624
43.1061341928834452
48.3742433902249473
53.6163460250121702
61.4856696683512425
75.9579199035081416
112.678478650403434
211.18543578093761
443.957006462592062
867.361644969129316
1298.67022220725471
1548.18012112920906
1667.89004068303825
1742.5097695574168
1772.77934072388462
1747.37469472968246
18.271067775275796
18.0897843944185439
18.2636448551300958
17.9167509656476795
18.2219454145062478
20.2320745582205639
23.8755821823814465
32.7215239400395461
65.5576442402848869
311.550059805563023
787.314992696697232
1324.75059045491435
1661.05277446796322
1758.25958168276406
1790.39493298574075
1770.98332574529559
8.98383706239360613
8.96366232763949711
9.48960974834045778
9.76488314034054561
10.7822188518989908
12.9158351994141736
17.3332988056253932
23.0224967647502936
31.9361701523903498
55.1611952194944095
366.473383514861951
904.129686200382707
1406.04073667206671
1753.03596342504306
1792.87256039859358
1770.59685521129882
4.94158856842506911
4.94017424044982612
5.29438245302444876
5.46805188871433767
6.3010104798423292
9.84105262931631586
15.4982385492853307
22.9924029579323275
21.6617101286579192
18.564343677170779
11.7382714725575195
42.7042809162224231
637.290269634670608
1214.70944455064478
1732.75511819235476
1749.20400567857132
3.27872442232509576
3.35639778578155612
3.63099200540055156
3.8122583144271478
4.51399414070429295
6.29569179794768363
13.2536575068267251
23.5122930734015085
25.9654281080106415
11.348723031976709
2.82346256135642459
3.40393806677495236
12.671091150555716
335.022630513960792
774.546916093434675
1587.17427586775943
1316.82209989367584
1321.66387143145516
1328.70353336459038
1338.4265676524185
1351.99917391052713
1370.03702923452101
1393.16699951434316
1421.96574978411331
1456.22664765719696
1494.80207535564455
1535.61756796184341
1575.9621599678344
1612.63554189523461
1643.0404066703029
1664.12821121698039
1669.97863734298676
1315.93467521520984
1320.49910730793704
1327.44140071656784
1337.14603153027451
1350.62917819546965
1368.6595049500504
1391.9213635970757
1420.92823444544547
1455.49288081984582
1494.48427642894785
1535.8028912352479
1576.67781594627195
1613.79580726217455
1644.65265068279336
1665.50407796283412
1669.64236058354595
1314.08158357020739
1318.20594831601034
1324.95405040860123
1334.59828160952566
1348.03060495763498
1366.09743647119672
1389.5356028681565
1418.87669543696848
1454.00277284888239
1493.81450653682919
1536.13854266324256
1578.04824551963839
1616.03662988782162
1647.58503732565055
1668.3626348039877
1669.98745639869571
1311.2233750423411
1314.82265750474357
1321.31309229588646
1330.85847367477572
1344.20955339072225
1362.27256448992443
1385.89612707109814
1415.7011440833096
1451.66928898579363
1492.73808589952819
1536.6112101902213
1580.10331223081766
1619.44554165505224
1651.98964375164701
1672.96564950418065
1670.01326019830071
1307.31923251304511
1310.34710771092023
1316.51329383761185
1325.89751245612592
1339.11415112382133
1357.13680570030056
1380.96229495707826
1411.35316874936098
1448.44122938990336
1491.226714703065
1537.23703621609866
1582.89267106478655
1624.08529956022744
1657.95852428210969
1679.4116077172805
1671.23991467604947
1302.32075863364162
1304.72016519927138
1310.47659317942316
1319.63348486329937
1332.65072759764598
1350.58642337653873
1374.621204918697
1405.70911899367638
1444.20317802276531
1489.20835471780083
1538.01020901099423
1586.45836216565885
1630.0333354105444
1665.5811538495168
1687.74759496239813
1674.68891870990979
1296.14402692032036
1297.74885054127867
1302.96835733876833
1311.83220738119462
1324.59637701229781
1342.4037516168446
1366.64922570697945
1398.53113498331277
1438.73964503065099
1486.56162644992628
1538.91953264041217
1590.87634001804713
1637.3776021000283
1674.9722204598238
1698.05298967075305
1679.18078253561134
1287.94465588020807
1288.37602813204921
1293.03869022483309
1301.62450140917235
1314.24278434220037
1332.0707891438949
1356.668901513827
1389.46595157159049
1431.64010490793999
1482.99806282832878
1539.86532804305648
1596.17769053398365
1646.19445953828995
1686.24326067231709
1710.44706755859488
1684.64453759942921
1272.74422280650469
1271.09772444847295
1276.11988634933186
1285.25499910467738
1298.62326632285453
1317.29586724858405
1343.00974194682931
1377.63254497321896
1422.20196240938185
1477.91965400561321
1540.48285963988405
1602.05988859797799
1656.31937669620993
1699.51639001918647
1725.04163108246553
1693.1790837931303
1170.27584152546183
1156.76618625753167
1174.98625981857413
1199.02302096704443
1228.6572537226491
1267.06088426591486
1310.02304630762092
1356.43274444909707
1408.17452980296457
1469.56632666676182
1539.45581291076178
1606.99467861648691
1666.57716772582171
1714.7418449236477
1741.62994197375633
1706.17475316734863
464.17712026398749
446.995529660221678
481.063502347563883
522.217814711137407
576.088007112247169
664.948813451705064
814.734255973668041
1021.38707776131469
1248.30300684606345
1420.13664379834859
1526.99059637938967
1605.37404242521689
1675.1552393615043
1731.84367423842104
1760.398399536233
1722.27562131098739
43.9326894216964092
42.3441410606583446
48.5357242598631444
53.8487451647782294
61.0163644006949539
76.8946778219909106
119.475466570353163
228.98289620597447
488.118427468430639
940.303046417334031
1353.06057718038755
1574.02230320972581
1683.22518572299464
1750.33381544912777
1780.06171599628101
1777.51966513272555
17.9495403018090514
17.6640805216183345
17.6563991904223556
17.1875262199689125
17.6085693070437017
19.8377052276473904
23.5211217560692845
33.3077687831088056
74.2717459565360514
344.559155568334688
852.060119511353719
1383.92471142197678
1682.12896278394624
1766.13230242481791
1796.72755987838127
1783.62041891598255
8.59020283027766851
8.62242044343818925
9.00795526936543212
9.09199535207265086
10.0005671085211816
12.3829405291333607
16.5701154001361175
23.2733541023131352
34.5055734000501033
68.18961430313324
438.884592353054074
956.895469696485748
1468.22967473477365
1761.04224700330269
1798.10039099304072
1784.24057915569756
4.58629011263644148
4.58693906901510307
4.83563841881765288
4.76742086408840127
5.67247799325074542
9.66433645710549705
15.0354930303027867
20.4682802177698093
24.8741910847339618
23.4470689277984405
16.4086437124129993
105.507870263731547
677.489017121004508
1243.61460474191722
1749.30899910077324
1759.06307456152831
2.99993132423366715
3.04490197364320414
3.20823529210166569
3.26045546499508809
4.37108562733675221
6.23636873015864435
11.4370493222252723
20.4944083878893579
26.4289658825047731
16.4433095143640955
5.3035554845772177
3.69750212936884548
13.9837897425085185
403.724651554787613
795.006084225753511
1629.46981230964593
1317.36158035417293
1322.29343534913846
1329.44359383813025
1339.30411521836027
1353.07397148028463
1371.43511591405172
1395.03751042669751
1424.41654841686864
1459.28387505874048
1498.39841789706247
1539.63160783632679
1580.25713408229535
1617.13148841593102
1647.65929694028864
1668.70362520025719
1673.7082785729458
1316.50639547794799
1321.14224865732012
1328.18211080303809
1338.01553331326659
1351.70201244463192
1370.06995267818638
1393.8222648593794
1423.42949602962744
1458.61884450199636
1498.16367785348666
1539.90114460605241
1581.04559564031342
1618.33468088071504
1649.29543943181534
1670.16179796391566
1673.4289271485809
1314.69558738816249
1318.85107200126367
1325.68265550482488
1335.44971464406854
1349.09268604450858
1367.51521992579205
1391.47214149966135
1421.44930318702563
1457.2349927595094
1497.6237955646252
1540.36840613459981
1582.53338349386581
1620.66763693468329
1652.30283044403427
1673.06970259018158
1675.13221239747486
1311.84233953789726
1315.44740995298798
1322.01250497747264
1331.68077896840236
1345.25472729373973
1363.70015892972401
1387.88478416667886
1418.37947809634966
1455.05946830615176
1496.73873501961361
1541.03188910311769
1584.7553316398396
1624.19853325858458
1656.79379689817119
1677.72613046001243
1674.27830666877662
1307.86749729570488
1310.92290375880089
1317.171445709718
1326.68954047775605
1340.14732179036355
1358.58393795716051
1383.02260947829859
1414.17346797375149
1452.04476059147282
1495.48677798016752
1541.91295426561169
1587.77003088525703
1629.00008796100587
1662.88251185870558
1684.27861184007998
1674.87145335366176
1302.70693917729795
1305.20021567787353
1311.08868453191417
1320.40964798196069
1333.69267382208091
1352.07448747320632
1376.77947475070437
1408.71342033854125
1448.08478403174558
1493.80890769720736
1543.01325258778479
1591.63003740025761
1635.15604613337996
1670.65868092395544
1692.74433663051286
1678.16029294870918
1296.22068167927091
1298.04081617499855
1303.53282692981657
1312.63374246706167
1325.6964073887732
1343.97763832920509
1368.94691993385459
1401.77524254323316
1442.98019665714992
1491.60457065505557
1544.3400919188357
1596.40871162954159
1642.75443890473866
1680.23041114827015
1703.1914472167789
1682.68821592558515
1287.42000598495679
1288.34377485507775
1293.55073699924515
1302.54793953626222
1315.51442515088684
1333.82836060343084
1359.17915839304146
1393.02465782374406
1436.34409405736506
1488.59151729609175
1545.81922015512737
1602.14057223142845
1651.86256700232934
1691.70319796937588
1715.72536183723469
1688.68936021370837
1271.24111186555956
1270.86906121076026
1276.7548286591857
1286.51408174014
1300.35657300987464
1319.42024200660467
1345.85261591185667
1381.58597143469933
1427.45323777918406
1484.14503598947636
1547.02875160566236
1608.53734625923698
1662.32651693896264
1705.18059474005418
1730.43460292260397
1698.09053822250212
1165.8445292699796
1159.19658243632853
1178.20582675126457
1203.73645790176738
1234.68769767321487
1273.66594927170831
1315.74885015570749
1362.03098880908124
1414.04246734363414
1476.41148041216957
1546.50971765228132
1614.12152158403273
1673.40299907922758
1720.60707382379837
1747.13163866183868
1712.11603643323724
462.960691543675921
454.937989707912607
487.919408088018713
530.591026585434065
588.813532484565258
684.487297635081291
841.893023762160738
1051.07144069337164
1274.99173870451887
1435.47919103012237
1535.92170985955818
1615.15582558428628
1684.29167657358562
1737.7405357970847
1765.63752828071642
1736.47960239357576
45.1676691683240534
43.9955865118077298
49.7744452429217077
53.9361660599531376
61.3440198207091498
79.7445301457763804