/*--------------------------------*- C++ -*----------------------------------*\
| =========                 |                                                 |
| \\      /  F ield         | OpenFOAM: The Open Source CFD Toolbox           |
|  \\    /   O peration     | Version:  2206                                  |
|   \\  /    A nd           | Website:  www.openfoam.com                      |
|    \\/     M anipulation  |                                                 |
\*---------------------------------------------------------------------------*/
FoamFile
{
    version     2.0;
    format      ascii;
    arch        "LSB;label=32;scalar=64";
    class       volVectorField;
    location    "0.630000000000000338";
    object      U;
}
// * * * * * * * * * * * * * * * * * * * * * * * * * * * * * * * * * * * * * //

dimensions      [0 1 -1 0 0 0 0];

internalField   nonuniform List<vector> 
7340
(
(0.90408627345582282 0.26722490250790909 -0.141575079938996901)
(0.684930248677150244 0.183370377531144546 -0.243393037144971736)
(0.457881769818344553 0.126294748907772203 -0.382504713953317477)
(0.259888914862505815 0.0672848425558067731 -0.512331479462990513)
(0.168027643403530047 -0.0140940340926528559 -0.564996813677017595)
(0.247664728911282633 -0.122458149766472069 -0.545795723918844455)
(0.355585229172344919 -0.170584023007611385 -0.609480873854684413)
(0.377180648705205956 -0.104754625492745113 -0.784525634042822717)
(0.229516971345677362 0.106380252637090694 -0.883184537298073669)
(0.184502686850939485 0.605046959343672142 -0.796465697787547611)
(0.0420037747506791515 0.769276122741132551 -0.707876106242714465)
(-0.0189896488482540204 0.984324654922834386 -0.792426817056492205)
(-0.0611530674922961537 1.02046673439124813 -0.561809100898029823)
(0.302778108618505182 0.787392932050323013 0.340661614076142649)
(-0.625053862589736164 1.31882130824196731 0.686190365237270283)
(0.613538336109106464 2.13911732588651127 0.719793838028083499)
(0.628894614911181815 0.355194375529029327 -0.351881278116537799)
(0.402601713731572719 0.267016079727633748 -0.454122425672548957)
(0.17375361836527467 0.185908777877179604 -0.553830442957132352)
(0.0361091859180068045 0.0746552481803580831 -0.598961001619402245)
(0.0696346510183163125 -0.071931646553182696 -0.55091500637568469)
(0.200244242230856795 -0.211819260180912683 -0.534242193446991087)
(0.205272101382172889 -0.239886761985031199 -0.67433331168961641)
(0.0737231480572235753 -0.13650072182425621 -0.886120713125155945)
(-0.0326585612379136775 0.22165882794361913 -0.97804117373187982)
(-0.0325446535209589355 0.766023413927863994 -0.87757496177308647)
(-0.0865381015692871097 0.948086461946080705 -0.847085349871791182)
(-0.147310204331798561 1.11356271120851713 -0.863887232179498143)
(-0.100838995765351311 1.07428447902109547 -0.476228172958158058)
(0.145409950301969071 0.837285986168524454 0.465517651687961331)
(-0.634232129505945208 1.27809111547008269 0.684574702260816959)
(0.617281567270744125 2.09628708061253688 0.704354349366063892)
(0.351613818792036181 0.423585574038621293 -0.494391005636176828)
(0.147363892367987609 0.330559626391821793 -0.573284317752964734)
(-0.0385916616637861365 0.216352820384298428 -0.624262433678644091)
(-0.0885763267908686036 0.0408233794379525838 -0.586446522865441522)
(0.0183851610369511198 -0.1617346226843423 -0.513736848758146292)
(0.0620011484036279148 -0.283621162065077981 -0.570941026198560797)
(-0.0958042184952200698 -0.28230916493734759 -0.780912418099369621)
(-0.252332064270028911 -0.100851173747688205 -0.971808757043545079)
(-0.263550658571228114 0.370266698210661271 -1.03451148417739858)
(-0.212450151954645172 0.92812640406644098 -0.971187935907764088)
(-0.212505547219835694 1.09625727416632857 -0.959829089739785424)
(-0.236714099641052361 1.21553056462647002 -0.845274295535779152)
(-0.120747457151641049 1.13253240602494509 -0.367517943926181756)
(0.265922277350865155 0.822480039617972114 0.444456019187111806)
(-0.631521163905587546 1.22259831809419306 0.682129223067643675)
(0.621097669507421957 2.05015591662622088 0.689589195519797582)
(0.113319213035290897 0.473468173318520813 -0.576104804674505422)
(-0.0568591124798740466 0.372454769491249005 -0.62839126226284725)
(-0.181785470705446206 0.217266854840190038 -0.626803775915377281)
(-0.166332135370972439 -0.0195110004273615321 -0.553382418697986211)
(-0.109686193386269185 -0.230069222013883773 -0.514468868502035215)
(-0.169744652038954141 -0.303495283198553789 -0.655540201301573533)
(-0.333876095000183837 -0.225060838425188536 -0.865195843286772348)
(-0.462362644587612726 -0.0923163472912194444 -0.985316136786549279)
(-0.450840961263789142 0.369852101891478657 -1.03450661394619181)
(-0.36902191093926956 1.01783491400705728 -1.05731359408067349)
(-0.305710889801342312 1.19245605527416432 -1.00701198582064277)
(-0.296697707549399003 1.26128020113022932 -0.800620194896541459)
(-0.129318737327638628 1.15255384419411877 -0.247585268575587519)
(0.389758130741286624 0.855061437125667623 0.406079118983501297)
(-0.635660730449895017 1.20487125258200667 0.674986794866459627)
(0.625005865601905297 2.00167794305438651 0.675980630049972442)
(0.389126632765708635 0.632048135648080267 -0.374170323350795031)
(0.213428744134052051 0.623885889267261629 -0.486109016607912114)
(0.0650710093883898333 0.582904868822964661 -0.562856220627684367)
(-0.0706440986403954613 0.507065103418324448 -0.615036511750557735)
(-0.202605541815287282 0.393221618082254643 -0.64091603621103721)
(-0.276783220217076131 0.202899157002881858 -0.611940225898463641)
(-0.267936104779562645 -0.062429989335868942 -0.547117120325834261)
(-0.326840407338046757 -0.292307360459319321 -0.573880631402769681)
(-0.362814097036341321 -0.335077527054382152 -0.743850200544102447)
(-0.514299713429818062 -0.238712270202841415 -0.893077468958268339)
(-0.603744512354882246 -0.00809260683978066386 -0.993875578689012329)
(-0.600333481263791047 0.456712489207911243 -1.02561454892088233)
(-0.501233868773579117 0.991964325726840901 -1.06741900405111423)
(-0.398585300505576445 1.22910101863180476 -0.999547789920987695)
(-0.351893580679191575 1.25729327501235089 -0.721747401454953752)
(-0.144287389905167374 1.1280218794957404 -0.0935491365508785977)
(0.430482842873875671 0.888855761830248836 0.403194572550454045)
(-0.652291284310635322 1.21329060880379402 0.667426457031211173)
(0.62861744667901176 1.95091452059649262 0.663340808901348278)
(0.166252874778247295 0.668209268413361701 -0.431658395455113919)
(0.0268384496416437801 0.654245101376193849 -0.523640203543127236)
(-0.0917087222147878744 0.605928649265179642 -0.585148388655971075)
(-0.201318728885515386 0.525206839977248485 -0.624844364455500623)
(-0.295765323182943962 0.394333795624992378 -0.63495227644556218)
(-0.346263747734377292 0.177074870849086158 -0.606597637413963109)
(-0.434958528493205598 -0.110544152826313649 -0.605372231598067634)
(-0.542431440787990882 -0.3652392191198226 -0.696788975388084153)
(-0.571253861660471762 -0.376175500792108819 -0.845704163723377977)
(-0.620814246768280564 -0.244229087787172616 -0.89858717766710916)
(-0.644045115608962604 0.012034485643495435 -0.942450520649737111)
(-0.671461794113556998 0.598483020006745137 -0.979226392944619217)
(-0.598139944161278025 1.16189136693767359 -1.02591593620274635)
(-0.474049609688553086 1.35213252791130145 -0.964142417025334542)
(-0.363287192571064732 1.30251855635176117 -0.590495136433246581)
(-0.149495497437846347 1.02604419105576583 0.0236196892678490825)
(0.503426639177973478 0.920245646242549231 0.417610263912970125)
(-0.658229088267774043 1.23533491341231749 0.656878724390504098)
(0.631283637439820966 1.89872640858232677 0.651431968720036281)
(0.240487870145042137 0.656716251705330101 -0.267518285493810515)
(0.105370397440292862 0.682914724273922968 -0.37386261945873478)
(-0.0139555751433491221 0.692929710764891293 -0.465324250124872996)
(-0.116890574748786627 0.671596025195945523 -0.53797193836618673)
(-0.207085426670545081 0.618481555961779339 -0.587268905606436409)
(-0.293994765206498698 0.532382783815438576 -0.617509480733704708)
(-0.377094648872390359 0.386207388333842327 -0.618396751656723032)
(-0.459408746788677602 0.150683617930584379 -0.61370277664153039)
(-0.604697968759738691 -0.163545703105202112 -0.671247681067027258)
(-0.751660703095802463 -0.476617811021241955 -0.780384614636228102)
(-0.797429687093562878 -0.459418477338394471 -0.873028395972558879)
(-0.833281883941957235 -0.306601461780235507 -0.924014934933241938)
(-0.801769225602452007 -0.000296497767993036954 -0.896759865506735254)
(-0.761439753212378334 0.700937072502858971 -0.828327555017828066)
(-0.671083390732196916 1.20867266237724613 -0.93646127093740783)
(-0.539049186384993884 1.36875036082533352 -0.857045959913773303)
(-0.326485622015003585 1.34829627100755522 -0.404442366904956163)
(-0.0524170125453082419 0.939195536824558919 0.188026385537415075)
(0.0991914636877621742 1.00823406938261817 0.551700024976520487)
(-0.652571685497319698 1.24997419939794341 0.645224912623949876)
(0.631564221690633643 1.84940119504246869 0.640006889287244252)
(0.797028728239145501 0.278068098585657564 -0.192409383055795247)
(0.566488571814131592 0.180195731474846188 -0.303007756245121329)
(0.350548589710881153 0.112037763816873526 -0.419620070833854109)
(0.228113798145822666 0.0427290371031367536 -0.498086996832780016)
(0.251289089894760898 -0.0288357582202410229 -0.523454605896191638)
(0.365828151920953748 -0.0878441098727162639 -0.55230263283489589)
(0.464823824465981528 -0.0720819422573818619 -0.721100555513603303)
(0.195596003111503547 0.14230217145436061 -0.949519981964637272)
(0.0414401030913694457 0.654247402073221629 -0.971148748412078766)
(-0.110730026764382525 0.998797150320338334 -0.940185461188552618)
(-0.301326018295710096 1.13953701470727009 -1.00811109552872358)
(-0.316610515264375392 1.03273593481945647 -0.708488539092259617)
(0.194259723510059712 0.755350056896685218 0.289179080028081792)
(-0.65852046224940064 1.4505667003371423 0.75431328603189518)
(0.595692229765806269 2.09789333386338672 0.734702111205735031)
(0.67666171632392913 0.448955526479382472 -0.289720550771553564)
(0.483144800752410897 0.353742422860599093 -0.372673221199588234)
(0.269027877132083149 0.246373147302748896 -0.461453150017883951)
(0.113441361848978184 0.129990353439987744 -0.518633282616566382)
(0.112152573416158585 0.00554577519581188685 -0.51347479440349586)
(0.231483057933401459 -0.0960151441250283039 -0.484979093993435695)
(0.344571759649879239 -0.15108967545886734 -0.550962132791120052)
(0.253942786975427437 -0.0537543881511073907 -0.803444837237210274)
(-0.0205227445020198795 0.310634032466634957 -1.07643578075673596)
(-0.166243976778215397 0.812121081972536296 -1.05684401676934447)
(-0.284710653262391589 1.13988184985588381 -1.06318560669902107)
(-0.416789428530682571 1.22023060999041366 -1.02379596368855452)
(-0.350427554711187861 1.05809006406360062 -0.637566868991843227)
(0.0394933450091139865 0.82803261392025429 0.378816266402417667)
(-0.660569671205018305 1.41891289479155702 0.74977416175491518)
(0.596950602342434689 2.05426478319721362 0.720137813764220924)
(0.373394694207190514 0.505800897636989655 -0.411387842432959727)
(0.200726192128612368 0.405226455462998181 -0.478104859148368588)
(0.0385470290171429156 0.271114322713584932 -0.529562762797268438)
(-0.0202241698833405016 0.10632721539310451 -0.524703084113381735)
(0.0673430951587852822 -0.0601531589542752196 -0.471194888134164325)
(0.190128509336794149 -0.180914133216233536 -0.454501138563599028)
(0.182498221940107508 -0.154458280582412677 -0.61255625554683113)
(-0.0433190785622391411 0.00810172370227620758 -0.887252949465766161)
(-0.250044980916633408 0.430088078717078659 -1.10618066546046379)
(-0.338813145100826607 0.941311342178241084 -1.13489570720521993)
(-0.377124052436453971 1.23784286200780236 -1.12529543815024624)
(-0.485115851822049637 1.26931586966149434 -1.02716752128850963)
(-0.377024553974385723 1.11168664683541918 -0.536041019401479302)
(0.130075629929860603 0.829561737535713051 0.366236013041273234)
(-0.654381835307973447 1.36209522072634526 0.745648117702182422)
(0.598426770517530238 2.00756558634500015 0.706572914091260218)
(0.12411672649666658 0.543234808907346767 -0.482351541063647804)
(-0.0162839347632633066 0.425417795929183828 -0.52770685042996468)
(-0.119162920011828599 0.263676432158383545 -0.538466008110349392)
(-0.10475533061781718 0.0530961543974799444 -0.48546395110403856)
(0.00129732696857554064 -0.148237689935197481 -0.415980703304017208)
(0.0539250708589796637 -0.210887821705188105 -0.461941012186521838)
(-0.113683307327122812 -0.173851674855189431 -0.676493746889804348)
(-0.396325363276167242 0.00619503748854861175 -0.914751062571673046)
(-0.495479703831924245 0.438983289530211263 -1.09342038167565336)
(-0.466765721423139213 1.02135372791135381 -1.18441316981333977)
(-0.460510142882931295 1.29957845492482749 -1.15572695934021352)
(-0.534594646044547095 1.30220094789257224 -0.993083768130453737)
(-0.373747165103810342 1.16329823660699705 -0.421658776026241022)
(0.295032032642355335 0.847101273158600176 0.339171365709826422)
(-0.651860732372556595 1.342231876569286 0.748796854760799935)
(0.600741459090296304 1.95760280360969685 0.694738026628171967)
(0.429037269622105144 0.731647569500165074 -0.260654984463070949)
(0.232336933385989791 0.705697620805400549 -0.378645838830376169)
(0.0671588471100747209 0.6510320858035894 -0.464431325587156996)
(-0.063240566057040537 0.557259458464524182 -0.515185270461923639)
(-0.172046471304120985 0.424197347397581748 -0.540319812041987202)
(-0.227261007503091694 0.232001876937974721 -0.519233909613353917)
(-0.189627164986145597 -0.0108253328168914521 -0.439965787681442455)
(-0.12655076994680528 -0.195941977883945795 -0.409260442277564029)
(-0.209841873185991096 -0.207246020264952896 -0.496983169147343307)
(-0.388135524525441422 -0.0837730496647127176 -0.745298096928871057)
(-0.617660136099658974 0.0875709580327491965 -0.937244417469879632)
(-0.688411907109431231 0.437895048239682061 -1.04475055193411115)
(-0.63300626055656628 0.965052796068050722 -1.14268464218736843)
(-0.547702603738336125 1.3118147761230623 -1.14817647124814637)
(-0.575396681410180189 1.34383404650319727 -0.959711968485195466)
(-0.364120147563452456 1.15745654752291904 -0.261283316813013256)
(0.330673457043308028 0.893900184254995178 0.353486204172514751)
(-0.661280635536786066 1.33568663380099628 0.742801578722958045)
(0.602310592484188723 1.90574105228127211 0.68396659085080036)
(0.189188474839167176 0.765557764203983027 -0.32150173511902469)
(0.0343235312645329693 0.729651900759692995 -0.418936162717385652)
(-0.0953421537924014351 0.660790235014756866 -0.486062294713273835)
(-0.200862260430621165 0.55592066491621539 -0.525896550122345596)
(-0.282822196001171144 0.405920925598841575 -0.53654254751746866)
(-0.313200530367633512 0.193159692562831442 -0.500326537799327453)
(-0.303170849458071379 -0.0654618819612569486 -0.445910508367097114)
(-0.358070165244957106 -0.229387953157522778 -0.467221879405496032)
(-0.446127874918736789 -0.217237751603334583 -0.57670264783315206)
(-0.579701355735069201 -0.102119094366497049 -0.749825680350960533)
(-0.728344647153349789 0.171584517503122203 -0.925982517776158476)
(-0.786044361236737377 0.538928731384528459 -1.0074516215788849)
(-0.737072841410541191 0.996524580148429817 -1.04593933030665842)
(-0.641684703624394448 1.36144277381196876 -1.0641431699420496)
(-0.592305925430218205 1.3444270267151206 -0.873925243047580014)
(-0.271112492150512696 1.14412545990841119 -0.0695729591061103603)
(0.409769669817750481 0.899455858696384669 0.303931943785702763)
(-0.667549229651997922 1.3159182070725306 0.729716731321548129)
(0.603268635711894041 1.85378359335515741 0.672911698516696521)
(0.235275452514833755 0.771109506009433843 -0.164770168332616235)
(0.114378554618533718 0.78837608058980202 -0.270551743637766517)
(-0.00811835458594854786 0.780150380091176987 -0.362692941513804157)
(-0.121774917577118141 0.735795145730227529 -0.439184110299630059)
(-0.219418406736349103 0.656657292037371887 -0.492863961685983121)
(-0.304201099503061401 0.543635220872124902 -0.523626415175886484)
(-0.372695566344281026 0.379148067054876803 -0.522238406555046719)
(-0.408387286641448188 0.140088992773937993 -0.488272280673768211)
(-0.476971625408082689 -0.148013936792802003 -0.480442141641839626)
(-0.580576552276302116 -0.298852525956668946 -0.558085543246799487)
(-0.706681348373082163 -0.319275955620776264 -0.681488147342793504)
(-0.764154343464830355 -0.133505911925612508 -0.809794314582756303)
(-0.855060392337431696 0.132650634861143785 -0.928285801160369628)
(-0.842022429895449287 0.568250154167583288 -1.01240713055741405)
(-0.816686734629364919 1.0618873839013212 -1.01199331165372497)
(-0.737400749164150549 1.41396000913135378 -0.962944485519077298)
(-0.62182087282244336 1.36275138758513692 -0.663354228090232034)
(-0.15558432987732207 1.06596748197556246 0.160579332571468392)
(0.496712819449950937 0.904612532260993474 0.269809360212979799)
(-0.661486252658192608 1.30054690746369706 0.702895760524031576)
(0.602016694211470416 1.8050331304503715 0.661667897265022731)
(0.769180249298819119 0.390215697573706555 -0.182759426189355173)
(0.604406677653198887 0.279254344089766848 -0.250632743705581307)
(0.415885843763166785 0.173239378514807835 -0.342289261651672949)
(0.280996576978850554 0.0899961845677766104 -0.426260356413034558)
(0.260796964645368889 0.0207856997042557209 -0.485392630374335277)
(0.326601879796492856 -0.0225399196286861676 -0.543580394778891085)
(0.406431438600318662 -0.0263400026639460869 -0.67849070740081352)
(0.167266700007010827 0.14445310591733701 -0.984577303420263394)
(-0.0893371215928348283 0.702877684515719636 -1.05017947067350037)
(-0.271861785052246174 1.15609009073133318 -1.05383243547031014)
(-0.512057834086053987 1.25231331068079621 -1.09269326981650017)
(-0.549542148432984323 1.12944104851476834 -0.942139900650528883)
(-0.148545686984032532 0.929756472435153247 0.0629195178012900147)
(-0.653456090492179564 1.61838878593137725 0.780694302622577663)
(0.54363656883363054 2.05397286055886363 0.708209119315111435)
(0.58310071748928638 0.533401679633829007 -0.264535354285124535)
(0.450880952693396897 0.443813335312649604 -0.314686726439529607)
(0.309648459504795581 0.32578572499070324 -0.374922130270213705)
(0.183102879097633869 0.193044408995555111 -0.432791804886906606)
(0.155645674551787072 0.0656219461832589362 -0.465272509551078739)
(0.234505708333810126 -0.0299863006670899115 -0.483203200870171656)
(0.343307297362490549 -0.0596415126652366442 -0.534369179163193597)
(0.34912865995795328 -0.00323101891117757653 -0.735195026692444853)
(0.0194323878671019828 0.276437927643472747 -1.05104434405533853)
(-0.293456755013082937 0.81659972628200983 -1.10758812796465134)
(-0.381224476673087787 1.2353481814983962 -1.12256923431100675)
(-0.570607953987199656 1.29304492156587747 -1.09512109550814474)
(-0.599088758788500653 1.20786169928955611 -0.915634465308715728)
(-0.170153751635098771 1.00093929416793692 0.0580339248558469911)
(-0.671461634778792504 1.57840981158954641 0.794570156720650567)
(0.544014480033314096 2.01030677897345722 0.696163857318585877)
(0.307220391871441567 0.577309122305806888 -0.345030533429041719)
(0.190007229602642991 0.474618220579701378 -0.390857775197152035)
(0.0883886853392483324 0.336809694130208503 -0.432232338145203732)
(0.044213647753702609 0.172887871271023619 -0.454877491853838967)
(0.0983771479816479694 0.0201604806966316392 -0.449924704688781818)
(0.21868415822318768 -0.0810321360246229888 -0.447479949858431314)
(0.321929464639244711 -0.0852157544847139958 -0.529658678699594709)
(0.261314325054801955 0.0656638606246605638 -0.806285317350501018)
(-0.14443936508689692 0.39462348741542036 -1.05801457619302997)
(-0.398247743155922929 0.898010136731448028 -1.13927035113406605)
(-0.480978846085389489 1.27674162604701968 -1.16118887793978498)
(-0.614008920560548677 1.36445716224048663 -1.11189095983555064)
(-0.642647672226918099 1.28208036191115982 -0.88765031275494477)
(-0.136481720293362752 1.06956373810511307 0.05290095070298724)
(-0.671286529659587572 1.51802266758468818 0.821809376057626495)
(0.545288141697462425 1.96490372022967752 0.685326695997977242)
(0.0918572141709049078 0.599860250208401058 -0.38739051730240176)
(-0.00197443762660630406 0.476311793298483055 -0.4234119973372239)
(-0.0606672221586796664 0.316080046925410696 -0.444209151370417221)
(-0.0474260019100022356 0.130614970995883067 -0.434339946925858866)
(0.0451483317511136295 -0.0429981690186292814 -0.403854943038861547)
(0.165815533565267986 -0.154734650256099338 -0.412688641661808853)
(0.205609020131800907 -0.10910562280264155 -0.566432936826924305)
(0.0360328829609644144 0.126670892040143923 -0.863414482388657811)
(-0.320537348280365064 0.491260647854021959 -1.05023936166171561)
(-0.529264130616743378 0.926312414940789863 -1.1371358588514664)
(-0.539661554510004193 1.30115497181084838 -1.20252051785414427)
(-0.664261568050244167 1.42973264862816318 -1.14417311418665246)
(-0.650137517415762756 1.36298228991435977 -0.831596306200653612)
(-0.026700894095243996 1.0875161437030767 0.0146628583299995424)
(-0.661056085813821692 1.46915759452816674 0.852790341447842826)
(0.54776576339969596 1.91481456892132051 0.676229442999564223)
(0.29544806816981084 0.821821376100049905 -0.181412615354502621)
(0.156845338669005852 0.776729315509210094 -0.281297369075545034)
(0.0293940395427447765 0.704512473599549938 -0.3565448456561226)
(-0.0709095883448120912 0.595868570124904462 -0.403473852488098583)
(-0.143160109413334929 0.456552099091199759 -0.427680492303883053)
(-0.173010605472647544 0.279042313911174733 -0.426051719033098242)
(-0.132768126105391571 0.0715486372288982875 -0.384502138944495142)
(-0.0400527720623803513 -0.125063802203378233 -0.332815815862799069)
(0.0079837984563663339 -0.202964675399837202 -0.39622234023085845)
(-0.0927333503649195312 -0.0925316064744610423 -0.579817160792463371)
(-0.328835192936861864 0.215631747976243959 -0.849472224684624133)
(-0.620015328353746287 0.511756959871549011 -0.993766792828626344)
(-0.710343249643100916 0.904811567188542054 -1.08994227550975387)
(-0.683403247779790668 1.29264121574901814 -1.17673699442439417)
(-0.725975893383853488 1.45509823624639978 -1.1273635918927718)
(-0.625574398104352891 1.41936384290261719 -0.731710326291604596)
(0.0529149875435124054 1.05227714337824385 0.138765311126855362)
(-0.65662313644035375 1.45920126036079845 0.896151547484254074)
(0.551124433891997945 1.85974515138614693 0.668163923226968492)
(0.0898579211299894015 0.839738427259080655 -0.224731532827691149)
(-0.0168848074331928166 0.78209535926103968 -0.306657537788645351)
(-0.116892955690259343 0.697862565194936391 -0.368562205041899627)
(-0.198506614754760197 0.575258466657202483 -0.404932073465119835)
(-0.254226518048839112 0.42107578251197475 -0.418535676499003528)
(-0.271873181099807903 0.224552304539657105 -0.394177151025976003)
(-0.227426423104008235 0.0079650371737324064 -0.332121180793486848)
(-0.183865957958109505 -0.163939081561287198 -0.313509621442729369)
(-0.240281114592829581 -0.205719394611693668 -0.38925117767185663)
(-0.358685996967404053 -0.00156229070330134168 -0.578363385632700067)
(-0.560079769758627166 0.241068565550259406 -0.799051116870555522)
(-0.769727782484338818 0.554188576278100364 -0.964359872789393835)
(-0.812251343665306713 0.936577524371064674 -1.04857314977955607)
(-0.799492322238994579 1.27545258897955627 -1.09878202660407176)
(-0.781491577558286243 1.4739561511211503 -1.03869974273016807)
(-0.573771920581342743 1.42756006178695394 -0.602780680965017468)
(0.0905058202582697674 1.02139808256273046 0.382870118840037577)
(-0.663775959370361157 1.44908137669048309 0.899955395819457937)
(0.552620274742687712 1.80427089675035113 0.660059121515321756)
(0.0701729385449817028 0.850330397108270852 -0.0869339940284835355)
(-0.000401834295088845939 0.858431534649561456 -0.177028834341624836)
(-0.0781381177927346071 0.835491612714345355 -0.254578587913530163)
(-0.159675843143741059 0.773320444963983444 -0.322810531719276872)
(-0.236883538686786077 0.674576797515996196 -0.372347332047659574)
(-0.303674025986268081 0.544467861816004817 -0.401841825955390752)
(-0.355513731054034665 0.380092617212812123 -0.403513770407068817)
(-0.357520764084033937 0.175852586945298123 -0.37078835781548497)
(-0.319856704092668087 -0.0606185114412118309 -0.325609140407626063)
(-0.361483393705021916 -0.247494481597630323 -0.368307685912378835)
(-0.418392994179229261 -0.188430495982735369 -0.468232413345725074)
(-0.624080681363348488 -0.00852137719888011735 -0.600652582349114561)
(-0.749309837403676848 0.288531576885142249 -0.854807341013966493)
(-0.860642665796904738 0.58952140578690948 -0.981717120190038206)
(-0.894354686420500977 0.966489829827928859 -1.04372920339944075)
(-0.856003653647009033 1.28670622346520624 -1.02299231134317448)
(-0.809292452906004711 1.41203335288138487 -0.879003365185283658)
(-0.494264985654870537 1.4071532077036375 -0.378046407679745622)
(0.129498627652486015 1.01243489392942076 0.569595215460439452)
(-0.670587735354140069 1.41099205661787863 0.891924369863542843)
(0.552616894379373669 1.75429552475052075 0.651676237223541732)
(0.804147078991904185 0.557754696238796921 -0.104637905080488453)
(0.684362048970955872 0.491719396924154561 -0.141958128612109408)
(0.584551617580716165 0.397288165392617465 -0.183523173776832527)
(0.469865433782417963 0.282796547492156825 -0.257742669192248641)
(0.3597842424558374 0.167813547402824864 -0.353066325064634534)
(0.306926988344416563 0.0721565766404041464 -0.438458663799996762)
(0.321922210038643852 0.010102620109458867 -0.525714385038326459)
(0.367868514389226908 -0.0145298612665075762 -0.651405451033620797)
(0.181129486921051464 0.0834716648959113322 -0.935117975933766221)
(-0.12852223911167468 0.592833676357691908 -1.0191758890759437)
(-0.246237244231709423 1.14956102594713916 -1.00409084754034383)
(-0.550667430179338724 1.29549163873949702 -1.03472740274502373)
(-0.708108504924176207 1.37819095767111488 -1.09897113493247689)
(-0.784544446761415992 1.44395094319673212 -0.516579030884994572)
(-0.659022856618705744 1.75764975927683742 0.581517983903261926)
(0.430020512886430173 2.03065342214500699 0.618777201393793441)
(0.515259803168736763 0.617794540442600404 -0.210241274543001483)
(0.401789802535066132 0.525819085996575564 -0.258714986384734169)
(0.323071263952403154 0.412276225816998965 -0.305005831951366657)
(0.257538223006050337 0.277548580048350479 -0.366337073757251053)
(0.23933221466491561 0.138840812000701419 -0.429592663773850081)
(0.281407245631767999 0.0242784934720197861 -0.490710888711415993)
(0.344614210896319884 -0.0374225409236331463 -0.558187194307374956)
(0.394558849497170128 -0.0239876139861812283 -0.700436039990043002)
(0.13718693961317785 0.141459350028068948 -0.972108560936483013)
(-0.214789666204497326 0.650295418463139763 -1.02987970188666056)
(-0.342677124003455957 1.14509455104902802 -1.04947142183351549)
(-0.600508331481543811 1.37249932903433081 -1.06079179317817829)
(-0.752720187712663691 1.4826538358926713 -1.07599046540542775)
(-0.803032500740092581 1.52581873440373039 -0.421182520488161571)
(-0.685615781697638482 1.72842781066816453 0.629272902773924558)
(0.427980192274061866 1.98734594676834386 0.613686005678921731)
(0.282619154819307827 0.650157600600699492 -0.270119892067341771)
(0.191466639919607023 0.539600576850837066 -0.320008285072467646)
(0.145046264356944093 0.407195932523913062 -0.363840558985195517)
(0.137351523752260951 0.254276980864401203 -0.406117045133640664)
(0.178074706699614227 0.106068213591010235 -0.441667271465992384)
(0.255348282331621768 -0.00527345027995226867 -0.475716423905748087)
(0.341158417642740797 -0.056706793894884977 -0.533508301844460631)
(0.378983214295686655 -0.0011897324083219073 -0.696957658590233065)
(0.118508205665458083 0.244445545020592875 -0.946988657048091875)
(-0.256695935024082833 0.725700493789992018 -1.01484584873087647)
(-0.403038153233433394 1.16676951560680697 -1.09508951389683906)
(-0.655155084969995083 1.42924505111038624 -1.10049724249173853)
(-0.787832438785604938 1.57022074590315719 -1.03790985824817228)
(-0.784168236239806249 1.5694361018123506 -0.346219417342969349)
(-0.686095638251508877 1.65638789987308943 0.66442025574563468)
(0.426879492609812394 1.94101919230310638 0.6078671738384398)
(0.101278510903094976 0.658026421079283663 -0.290087432843926851)
(0.0373078672347043686 0.530907351719703158 -0.33500751658785527)
(0.0189927737830120937 0.382052488631684894 -0.368562058175205209)
(0.0397434659192567943 0.220453806558100679 -0.386760593810564213)
(0.095759428018219156 0.0699890512176975371 -0.389293126999297079)
(0.190893025718382819 -0.04729807759770744 -0.402586690383227974)
(0.287737003932170499 -0.107010845274463029 -0.481835610003805037)
(0.277085278511245148 -0.0091177243911034038 -0.692600704022636182)
(0.00583679039935171284 0.339406219589780178 -0.900555337319321136)
(-0.312889330300319679 0.790462582590322094 -1.01075215989270961)
(-0.508695550527138995 1.21546592328031933 -1.12911778431258858)
(-0.724843780782654656 1.50336830592470738 -1.13273178199593194)
(-0.821205813947437968 1.63293362484763138 -0.969604407067510277)
(-0.7806465576991648 1.60382009602032016 -0.238171065084236577)
(-0.682825471092571301 1.5961827566976603 0.702784023833410099)
(0.429543772898281273 1.88848546260267969 0.60265030294476607)
(0.187375730235223109 0.901143537474220713 -0.0904424124059458462)
(0.118568877853668195 0.848569400667233742 -0.170220089767866539)
(0.0310695384407044667 0.758425239705095788 -0.235788053315010515)
(-0.044385614453492428 0.638877520343412164 -0.289319460308349041)
(-0.0887430576565021029 0.494974230605641052 -0.323490717791524829)
(-0.0958650450035753166 0.335525621994327949 -0.33998680703103451)
(-0.0701939732024254998 0.167136392500152164 -0.33194387133117409)
(-0.00132900872584056431 0.00317105581783017933 -0.316394656176756772)