/*--------------------------------*- C++ -*----------------------------------*\
| =========                 |                                                 |
| \\      /  F ield         | OpenFOAM: The Open Source CFD Toolbox           |
|  \\    /   O peration     | Version:  2206                                  |
|   \\  /    A nd           | Website:  www.openfoam.com                      |
|    \\/     M anipulation  |                                                 |
\*---------------------------------------------------------------------------*/
FoamFile
{
    version     2.0;
    format      ascii;
    arch        "LSB;label=32;scalar=64";
    class       surfaceVectorField;
    location    "0.630000000000000338";
    object      Uf;
}
// * * * * * * * * * * * * * * * * * * * * * * * * * * * * * * * * * * * * * //

dimensions      [0 1 -1 0 0 0 0];

internalField   nonuniform List<vector> 
20856
(
(0.791664280076012195 0.225297640019527179 -0.19248405854198386)
(0.766490444183502651 0.311167703234702109 -0.246728179027767114)
(0.825990336315743034 0.231994521150368532 -0.145920157702436076)
(0.567147895312130834 0.154832563219458375 -0.312948875549144634)
(0.543765981204362037 0.222617435238604555 -0.348757731408759986)
(0.740979488458147761 0.230719238058400944 -0.221721778099539718)
(0.616487729370573612 0.164843452872422747 -0.27372662298141992)
(0.354525211783481786 0.0967897957317897517 -0.447418096708153412)
(0.315817694091809931 0.153355494992224478 -0.46816757845522472)
(0.512185170816238045 0.153245240191309195 -0.343250301701136351)
(0.394065753814175412 0.109996559982295072 -0.432714911466311858)
(0.208832856386580973 0.026595404231576962 -0.538664146570004054)
(0.14799905039025657 0.0698170360863989009 -0.555646240541196268)
(0.30521875228669354 0.0896613031863401772 -0.466191061032893539)
(0.205910554799331846 0.0465515373278860695 -0.559247955078727377)
(0.204574557900825293 -0.0682760919295620494 -0.555396268797931136)
(0.118831147210923124 -0.0427391932581374506 -0.557955910026351143)
(0.198070720774676412 0.0143175015052420147 -0.531833357484049363)
(0.13433206390711705 -0.0497702274615440809 -0.592364024356397456)
(0.3078045692193348 -0.146521086387041505 -0.577638298886764101)
(0.223954485571069839 -0.163251152888611695 -0.540018958682917827)
(0.249476909403021752 -0.0756469539933566498 -0.534055265373690524)
(0.228223654887497601 -0.164845944013902262 -0.575590777698575362)
(0.363036757892319428 -0.137669324250178221 -0.697003253948753621)
(0.280428665277258959 -0.199367711633636091 -0.641907092772150412)
(0.360706690546649333 -0.129214066440163922 -0.579206496059488263)
(0.301361472869677682 -0.21597504936583789 -0.658883687481527369)
(0.327929903905231357 0.000812813572171847132 -0.833855085670447749)
(0.225451898381214405 -0.112032299979145281 -0.835323173583989442)
(0.421002236585593714 -0.0884182838750635219 -0.747152231987870397)
(0.334862486077900035 -0.119230867684130132 -0.808206257592749222)
(0.231915019891964808 0.355713605990381432 -0.83982511754281064)
(0.0984292050538818492 0.177062592662767776 -0.930612855514976745)
(0.212556487228590441 0.124341212045725652 -0.917511812904092339)
(0.242792705736020492 0.104969267464100444 -0.835153288078485212)
(0.0869204129463311825 0.687161541042400903 -0.752170902015131815)
(0.0759790166649907672 0.695826803144624306 -0.837020329780316819)
(0.112971394971154465 0.629647180708446941 -0.883981608898537941)
(0.224364434876646479 0.55908479828676183 -0.674711310455860303)
(0.00388757938443746228 0.876800388831984412 -0.750151461649603668)
(-0.0222671634093039722 0.85959212932486595 -0.777480728057252879)
(-0.034363126006851534 0.884036636530735165 -0.826263844971519279)
(0.0799197883641642737 0.666391130256138942 -0.562054211624405609)
(-0.0350378523960168387 1.00239569465704115 -0.677117958977261014)
(-0.0831499265900261381 1.05030206364807754 -0.828157024617995119)
(-0.160157833571982045 1.06193083481505224 -0.911031602890159387)
(0.0525695173645541955 0.857301268705834896 -0.640760655628937803)
(0.0335908070062763409 0.903929833220785572 -0.110573743410943559)
(-0.0809960316288237392 1.04408215064278109 -0.519018636928093913)
(-0.188881791378335773 1.02660133460535219 -0.629883575206839019)
(-0.0202592452290031172 0.973434229535541817 -0.442803903156100243)
(-0.0406488948717123877 1.05310712014615104 0.513425989656708937)
(0.22409402946023721 0.802057773789403461 0.403089632882051907)
(0.248518916064282475 0.771371494473504282 0.353650471121976173)
(0.326415157169393233 0.764958874163402025 0.373512972579643443)
(-0.0458093704603789245 1.72896931706423596 0.702992101632676558)
(-0.629642996047840686 1.29953505844766082 0.685382533749043676)
(-0.641787162419568347 1.3846940042895548 0.719044750347034411)
(-0.60487146067079911 1.29224868730838827 0.647362149432634704)
(0.615409951689925294 2.11688727990200354 0.71207409369707364)
(0.604615282937456366 2.11850532987494899 0.728180923859386042)
(0.616536325020300868 2.15760246675744982 0.692723119798772435)
(0.514113659814025681 0.311105227628331538 -0.403001851894543406)
(0.490254216851608693 0.38939047912318181 -0.423136141876357452)
(0.652778165617555417 0.402074951004205761 -0.326365159655926496)
(0.55314382224147296 0.314459074080284173 -0.38021496499723112)
(0.285355800561096495 0.226462428802406301 -0.503976434314841071)
(0.2749828030497804 0.298884307733029209 -0.513703371712756707)
(0.442873257241991669 0.310379251294116254 -0.417609643655455498)
(0.334403874433520376 0.238516723921797985 -0.493839502953351772)
(0.0997964565375721036 0.130282013028766935 -0.576395722288268075)
(0.0675809783507442668 0.20100980780198438 -0.589046438317888166)
(0.221390747748679062 0.216140962589964347 -0.509663738983942127)
(0.118511665079559403 0.164556315941510545 -0.599921643126844817)
(0.0459065519530624661 0.00136180081358912189 -0.574938003997543912)
(-0.026233570436430903 0.0586891363021097567 -0.592703762242421828)
(0.0747752738834924491 0.102322800810172879 -0.55897467411003543)
(-0.00761771682346115697 0.0470811070864814024 -0.635129975364511989)
(0.136721414619756343 -0.14187545336704524 -0.542578599911338166)
(0.0440099060276335982 -0.112074949502338622 -0.532325927566915436)
(0.090893612217237546 -0.0331929356786852398 -0.532412902912716923)
(0.0374232303728170568 -0.11492927858857345 -0.580277103711130726)
(0.198849251353351714 -0.225853011082971677 -0.604287752568302472)
(0.13112269531724266 -0.238965240673170598 -0.552591609822775887)
(0.215863650082129155 -0.153917202152970445 -0.508541219719309434)
(0.143621199482812462 -0.265948997679621213 -0.59784118053156432)
(0.139039234667513834 -0.188193741904644163 -0.780227012407385234)
(0.0547339414434774019 -0.241211957198763455 -0.727622864894492682)
(0.274921930516026092 -0.195488218721949242 -0.605340228621109144)
(0.116791154307591072 -0.272688746437664054 -0.748842151976870984)
(0.0650161978014209552 0.0425790530596775324 -0.932080943428517106)
(-0.0893044581064030008 -0.104875870594664702 -0.928964735084350623)
(0.163832967516325312 -0.0951275549876818699 -0.841000529332337154)
(0.0299326888604730321 -0.121917025171948454 -0.9007052883676544)
(-0.0305024631969870522 0.493841120935734346 -0.927808067752484478)
(-0.148104609904570639 0.292435673883734482 -1.00627632895463903)
(-0.0265906528699667716 0.266146430205127071 -1.03777377492467071)
(-0.0109094808021679354 0.196799426385749293 -0.902542680711580614)
(-0.0839424280714687748 0.857054937936973182 -0.86233015582243866)
(-0.122497402737801825 0.846021397494385319 -0.924381448840425168)
(-0.0993943151495871591 0.789072247950200145 -0.968772879651041641)
(0.0197586260591889051 0.708738897173189386 -0.721820072716343852)
(-0.123391216544496196 1.03082458657729892 -0.855486291025644663)
(-0.149521824394560854 1.01687655600286875 -0.903457219805787748)
(-0.185624377415839231 1.04398415590098215 -0.95865687408872946)
(-0.0314029779547752089 0.826532528490735885 -0.68353636455004152)
(-0.108866875117243314 1.09392359511480608 -0.670057702568824576)
(-0.192012151986425572 1.16440160902281953 -0.854580763857638592)
(-0.282049816431240219 1.16689666059946529 -0.949179786613655319)
(-0.0428343173190637305 0.992481733573850944 -0.70644720225209523)
(-0.0860020719776490861 0.955785232594806855 -0.00535526063508595662)
(-0.11079322645849625 1.11744780964216206 -0.421873058442169657)
(-0.225633275238269287 1.06618727154234816 -0.558099098482117917)
(-0.0513099367923878363 1.04549979105542246 -0.388501516783007095)
(-0.105310262301960889 1.05768855081930946 0.575046176974392087)
(0.205666113826417252 0.823022095431990564 0.454986835437536541)
(0.0924516476555415218 0.832659300044389372 0.44222817421592775)
(0.24299016869925863 0.822695262286254003 0.464853807205294178)
(-0.0540205891651911879 1.68718909804130979 0.694464525813440425)
(-0.632876646705766377 1.2395669731850012 0.683351962664230372)
(-0.647400900355481701 1.34850200513081986 0.716663782508193181)
(-0.62523013124392679 1.24867109992868519 0.648018618488821807)
(0.619189618389083041 2.0726066389315716 0.696971772442930626)
(0.607116084806589407 2.07527593190487547 0.712603944139314938)
(0.621403787856334655 2.11461968312975435 0.678063439074553242)
(0.248530264837136444 0.377072600215222375 -0.533837661694570031)
(0.232466515913662991 0.449402168265222557 -0.535247905155341264)
(0.36250425649961332 0.464693235837805418 -0.457703955506589266)
(0.296379603226721244 0.382137710254864149 -0.531651182070000505)
(0.0529544285168717932 0.273456223388059583 -0.59877337571580469)
(0.0452523899440563371 0.353252017838443344 -0.600837790007906158)
(0.174045042248300086 0.367893040927410098 -0.529481892918695962)
(0.0970695760900925075 0.30172511636520738 -0.616329365524691086)
(-0.0691342966712430312 0.128588099911124631 -0.605354478272042584)
(-0.110188566184616019 0.219169182469727913 -0.625533104797010631)
(-2.23163233215237233e-05 0.243733571548941735 -0.579096878502284529)
(-0.0816132911490467239 0.194003514059534199 -0.664878525490158911)
(-0.043241924171465787 -0.060455621623196662 -0.550091685811793241)
(-0.127454231080920521 0.0129228316689600845 -0.569914470781713867)
(-0.0544002483371047174 0.0735752974155284012 -0.556682630526169842)
(-0.12644122809193567 0.0150985043711127104 -0.622332054376466215)
(0.0422130861212726902 -0.22267789237471014 -0.5423389374783536)
(-0.0456505161746593099 -0.192503601668751939 -0.514102858630090753)
(0.0428641280978682843 -0.110943890819308583 -0.492938393829314314)
(-0.0374134104102454429 -0.213555805610615046 -0.568346755685776417)
(-0.0217501295247981043 -0.282965163501212813 -0.675926722148963322)
(-0.0538717518176636406 -0.284402541145423626 -0.613240613750067332)
(0.126064828870210976 -0.232267647640655828 -0.507238061941213791)
(-0.00788072590663019441 -0.335434312409179647 -0.662085946174407192)
(-0.160206997383575578 -0.191580169342520201 -0.876360587571454963)
(-0.21484015674770196 -0.243645927810127561 -0.823054130693070984)
(0.0433470017224435455 -0.218383722759880217 -0.692025931860099974)
(-0.141438286167170052 -0.305968829658543606 -0.835358848865914938)
(-0.224822867832868922 0.134707762231484451 -1.00316012061047166)
(-0.357347354428820596 -0.083484546388229261 -0.978562446915047124)
(-0.14782557141613345 -0.046374725022705704 -0.94035966772777746)
(-0.257582764753399085 -0.112353686318202806 -0.96219118463019282)
(-0.246043249326142549 0.649196551138546352 -1.00284971004258194)
(-0.357195809917508822 0.384353097818663614 -1.03450904906179519)
(-0.256797819743930733 0.400177388463870132 -1.08956282810505178)
(-0.219576930430393197 0.33784782651928591 -0.92694388534251293)
(-0.231937312390089911 1.01219183911638488 -0.965508512823774812)
(-0.290736031446957532 0.96670317636275338 -1.01425076499421896)
(-0.275631648527736084 0.934718873122341032 -1.05177804170402101)
(-0.161909015849298399 0.860106456882004489 -0.796306706988109014)
(-0.233621448001813253 1.1558939193964004 -0.902551692637781233)
(-0.259108218510588906 1.14172405752714434 -0.983420537780214099)
(-0.294814799828145013 1.16705006808706568 -1.04496985776504037)
(-0.137101445744776618 0.975845437868432031 -0.796958646516968128)
(-0.138304989146576879 1.17403148532570811 -0.606396119730980065)
(-0.266705903595225668 1.23116855971768069 -0.822947245216160361)
(-0.360914975731551124 1.24242321714398218 -0.940556342021061309)
(-0.120988847612818112 1.09888602204566643 -0.711696018830652033)
(-0.0455667944397841473 0.977506222821455828 0.0384690376304722137)
(-0.125033097239639845 1.14753561745065613 -0.307551606250884346)
(-0.248886005563013241 1.12210952643018214 -0.45428281376256946)
(-0.0730804200440107604 1.10921034413766706 -0.301368438598232924)
(-0.0427197196737255369 1.02253917885608248 0.563292621127377768)
(0.327840204046076056 0.844180990548286547 0.425267569085306496)
(0.197998953640362657 0.826020888576842638 0.411160225790420941)
(0.358772686761142046 0.83666989160146954 0.456324763938405209)
(-0.0585805098844821015 1.6363771173602164 0.685859209293720684)
(-0.633590947177741337 1.2121736730239947 0.678558008967051651)
(-0.642951499606780552 1.29234676941026927 0.713495774631664914)
(-0.627852230494788333 1.194489765607746 0.642849999185701071)
(0.623051767554663627 2.02612152390830547 0.682784912784885067)
(0.609762220012476042 2.02886075148561051 0.698192680948937494)
(0.62603660690416274 2.06826601918599984 0.663802755070482919)
(0.0281527590716905696 0.422961471404883993 -0.602248033468676836)
(0.0213375571974481482 0.491347558387733307 -0.595570658212531523)
(0.118717969765978745 0.508351491112933873 -0.533431712421505777)
(0.0794520729733456249 0.436299960895532357 -0.615329388083511786)
(-0.119623060100037135 0.294860812165720243 -0.627597519089112321)
(-0.129732327147580817 0.383549490121288861 -0.63465364923694223)
(-0.0365715236215686523 0.398936282710216417 -0.581622039729160267)
(-0.0889918120855580919 0.348043648346783696 -0.668811965566742272)
(-0.179670536393718827 0.0988779272064121417 -0.590093097306681136)
(-0.229284345461260974 0.208949574048617803 -0.619372000906920461)
(-0.150474195358637403 0.240471643499286791 -0.585333634326603458)
(-0.210854993814404507 0.200631152155939269 -0.66583059404688083)
(-0.144214807120293276 -0.124790111220621835 -0.533925643600010935)
(-0.217134120075267445 -0.0457458773799400559 -0.550249769511910292)
(-0.135543732994394872 0.0167925769850591246 -0.520945665129262325)
(-0.211507970974804282 -0.047425814955402934 -0.602829023059601954)
(-0.140157982838082035 -0.266782252606219128 -0.58500453490180504)
(-0.218263300362157964 -0.266249982842670097 -0.544174749952402448)
(-0.0541944332088468983 -0.189153455974540696 -0.461584135741991364)
(-0.171011663916162099 -0.293191199945709191 -0.605024692657703644)
(-0.257363133453249848 -0.264278060811871884 -0.760368022294171109)
(-0.266279374537647495 -0.319464583556116177 -0.699695200922837879)
(-0.0579097905899873602 -0.257191552451870975 -0.550098459323002831)
(-0.21159433548131254 -0.358068526647502494 -0.737436501642381836)
(-0.374749707078521788 -0.15868859285820397 -0.925255990036661036)
(-0.42408790421500131 -0.25114610892734035 -0.879136656122520455)
(-0.223779701163653588 -0.199456256640189039 -0.766798877454369032)
(-0.343834094935900891 -0.26539154934270387 -0.899186613791639)
(-0.434166766990783937 0.1387678773001296 -1.00991137536637066)
(-0.533053578471247347 -0.0515531400429896161 -0.989595857737780804)
(-0.429344003931889817 -0.0430606549013352047 -0.96550769598410735)
(-0.424792127843313216 -0.0433753657924033156 -0.961055687331718422)
(-0.421683076880227492 0.693843507949273519 -1.04591010401343287)
(-0.525587221263790427 0.453460588171070933 -1.03006058143353707)
(-0.473160332547856721 0.404417695710845071 -1.07930364484352737)
(-0.374048493541086047 0.374778712522032209 -0.928593562440954701)
(-0.350349559572470659 1.1051454846406128 -1.03216278995065758)
(-0.435127889856424366 1.04840816023808348 -1.06236629906589375)
(-0.417893816181204358 1.01959432095920555 -1.12097995033321696)
(-0.301215136659704508 0.927165542476800053 -0.886227075081147064)
(-0.315918190916986918 1.22686812820219715 -0.903816090358591229)
(-0.352148095153459462 1.23581365829058298 -1.00327988787081512)
(-0.383110516342136886 1.2460172550994959 -1.08542588302804122)
(-0.227476238181756607 1.0822905665287188 -0.862810410662789296)
(-0.154330422221797686 1.2069170226621726 -0.524102731736066918)
(-0.324295644114295234 1.26164456932793811 -0.761183798175747661)
(-0.415646176796973021 1.28174057451140078 -0.897042647589012421)
(-0.181484092728971036 1.1564150657970238 -0.674496727507854721)
(0.0128555436248111304 1.00380764065989192 0.0792469252039597616)
(-0.136803063616402987 1.13511213379782472 -0.170567202563233045)
(-0.251532951215724776 1.15792604040055802 -0.337823075869380429)
(-0.0852591097875345649 1.12179623456027455 -0.195480904863758492)
(0.0113771294519890986 1.02996634485383454 0.540532956924978714)
(0.410120486807581175 0.873560301016028884 0.404636845766977671)
(0.342395081691820979 0.8510813551421339 0.37082481820623503)
(0.441938174720396204 0.869280808818019946 0.428106943159010211)
(-0.0665845495161106471 1.60327459781820836 0.675483712458216035)
(-0.64397600738026517 1.21541261546900214 0.6712066259488354)
(-0.643760731411225806 1.27355156457564633 0.707745490235950458)
(-0.636045485139742794 1.17853723599134397 0.636264131924722087)
(0.626811656140458529 1.97632301446995418 0.669660719475660415)
(0.612873662346100745 1.97964037333204157 0.684783686916838663)
(0.631746033593761913 2.02025696690814138 0.651770980778961007)
(0.300723405882701744 0.627967012457670948 -0.4301396699793536)
(0.277689753771978243 0.650345584763533213 -0.402914359402954392)
(0.409081951193906834 0.681847852574122504 -0.326405532269358589)
(0.31524552308621695 0.593943197469169237 -0.422839419057785382)
(0.139887639376502088 0.603395379045112756 -0.524482618617798879)
(0.120133596887847915 0.639745284751976451 -0.504874610075519703)
(0.222882838760020907 0.664791755036331034 -0.439544476195834422)
(0.170261586171018747 0.583376585333213571 -0.525749621070217388)
(-0.00218572978131547366 0.544984986120644166 -0.588946366189121329)
(-0.0133188564131988263 0.595070353609346792 -0.574002304641827665)
(0.0661149282492322771 0.616968477313277086 -0.518733066494086459)
(0.0414056794443425774 0.543633882921509715 -0.599184104584742028)
(-0.135991929402657724 0.450143360750290045 -0.627976273980797361)
(-0.135981413762955278 0.516782064879089287 -0.619940438103029123)
(-0.0669423323487179922 0.53216228094142437 -0.568782232896590578)
(-0.0881793246329043157 0.477715471335896869 -0.651722939489708608)
(-0.239752871027143655 0.29806038754256825 -0.62642813105475037)
(-0.249185432499115844 0.392830059331135628 -0.63793415632829964)
(-0.187326006559704161 0.40870948273991814 -0.593832312049928812)
(-0.217029010523004634 0.377268529028171096 -0.679038607218593881)
(-0.275280066244619148 0.0702345838335030059 -0.579528673112148063)
(-0.311523483975726989 0.182948463695096347 -0.609268931656213319)
(-0.252022113860083885 0.217450516970428304 -0.568711842704982429)
(-0.297102050484906122 0.196891273242860876 -0.656243558032466479)
(-0.299007518775555758 -0.177368674897593087 -0.560498875864301804)
(-0.351447316636383733 -0.101891663901696183 -0.576244675961950836)
(-0.228781634882854218 -0.0366276610763802551 -0.49325290926589821)
(-0.323475247253255938 -0.0812884628586885011 -0.62926894389681709)
(-0.344796115621071653 -0.313692443756850736 -0.658865415973436064)
(-0.434635924063018819 -0.342096456092761847 -0.635334803395426917)
(-0.226695588642426005 -0.24412466917163253 -0.483543250194903962)
(-0.362437344589903787 -0.350115910472950154 -0.68102480786345132)
(-0.452419214296909677 -0.286894898628611339 -0.818463834751186115)
(-0.467033979348406292 -0.365121427615216543 -0.794777182133740157)
(-0.286327985111166194 -0.271161773659667538 -0.6090043051801034)
(-0.402018000159410471 -0.399975477125336654 -0.807940762576269345)
(-0.54047831167978555 -0.123402438521311206 -0.943476523823640445)
(-0.567556980099049202 -0.258781660924049084 -0.895832323312688694)
(-0.451217618977629908 -0.16124265993377726 -0.803976904227176714)
(-0.48545818723101275 -0.266325142672860726 -0.907304763740739539)
(-0.573189203151454718 0.22430994118405756 -1.00974506380494677)
(-0.623894813981922369 -0.028365358102858465 -0.96816304966937472)
(-0.610702324227270665 0.0397391755964844329 -0.967044479030806148)
(-0.517503605393778598 0.0253239219227082493 -0.953379830262302774)
(-0.56585679608906081 0.72433840746737399 -1.04651677648599795)
(-0.635897637688673911 0.504059182854156962 -1.00242047093275088)
(-0.64437269418661125 0.447303768723796624 -1.04504495956421639)
(-0.516128431752291728 0.476333876271582024 -0.936511836405536591)
(-0.462520982558806193 1.11053267217932494 -1.03348339698605041)
(-0.549686906467428793 1.08784506183191598 -1.04666747012693029)
(-0.567120064665072587 0.978508560897445867 -1.11309516335451719)
(-0.41372360730343205 0.971239078065649242 -0.930882829369133469)
(-0.388065655490449635 1.24319714682207749 -0.860647595687972)
(-0.436317455097064655 1.29274271339905633 -0.981845103473161118)
(-0.473143952121956257 1.27045789737743364 -1.07849155901632754)
(-0.306723906915441102 1.13269340069030733 -0.890172606140159695)
(-0.189383184668100557 1.1926575772540482 -0.40764826900291895)
(-0.357590386625128154 1.28902426809349091 -0.656121268944100278)
(-0.463645131044686132 1.30056366075777419 -0.848731638427349666)
(-0.232888151056498072 1.17847598699776657 -0.59528481988060622)
(0.0344339274750581348 1.00843882066299351 0.154822717999789916)
(-0.146891443671506888 1.07612866864530021 -0.0349647236415142337)
(-0.254203768734310054 1.14273921350932972 -0.18475169176664305)
(-0.106356936539450941 1.08299003758834012 -0.0788989412921270172)
(0.0127310014056551818 1.05107318531702165 0.535310514790833247)
(0.466954741025924824 0.909040095059526432 0.410402418231712141)
(0.380578149958591849 0.891377973042622007 0.377473377748927419)
(0.466887114355358013 0.910357632469797728 0.426729619243793656)
(-0.07225090184534258 1.58210256470014299 0.665383632966279448)
(-0.655260186289204682 1.22290756610354778 0.662152590710857636)
(-0.656785959923710694 1.27448862130239515 0.700287797317577843)
(-0.649532320443374278 1.18412018163044408 0.630296240564702237)
(0.629950542059416363 1.92452632243580246 0.657386388810692224)
(0.615464019581600241 1.92832778643888236 0.672323242289807443)
(0.636713418181670043 1.96994707770288624 0.640980426170200124)
(0.0962908419430401619 0.661227184894777942 -0.477649299499119329)
(0.0761486498174486631 0.680066581305635576 -0.448491322789993541)
(0.177720674808707235 0.716883516308672419 -0.384245849887490665)
(0.117446513940429667 0.625522669301948109 -0.473040236828566663)
(-0.0320318056898776932 0.630086875320686968 -0.554394296099548933)
(-0.0450260625535714304 0.662770089570506649 -0.530806070954656928)
(0.0305809904530883782 0.691948501067943367 -0.477121393000920546)
(0.00161224022737677499 0.612948657028267063 -0.559392654665765821)
(-0.145185322155236218 0.56556774462121473 -0.60499637655573546)
(-0.149397074442666616 0.612467269918282708 -0.586208647131203797)
(-0.0935254380035946548 0.633359442139968309 -0.539776563882981453)
(-0.101701534984868822 0.571515385630949946 -0.618134523392684154)
(-0.247672506363870559 0.459770317801119266 -0.629898320450531513)
(-0.24765674704600682 0.528283404021879566 -0.621176922594602665)
(-0.201090494658068275 0.540563752446731938 -0.578634450497871322)
(-0.204751707169787939 0.502881657101003299 -0.658121544646017242)
(-0.321695596320762223 0.285704333237037367 -0.620774956929762367)
(-0.336429986027666883 0.388210138247927328 -0.626674514051142717)
(-0.289293759592057553 0.400127360611916949 -0.588761996465732795)
(-0.297079681297766129 0.384788628973198099 -0.672026843979346644)
(-0.387466640097241022 0.033265359011381182 -0.605984934506015316)
(-0.402836247261527336 0.163332440497143516 -0.610150207027746694)
(-0.329732139051005402 0.185117281705958786 -0.556103162301250675)
(-0.359710822961392895 0.171919992310972242 -0.66110263158162097)
(-0.491712249110744015 -0.237891685973069228 -0.651080603493076282)
(-0.519828248626471923 -0.135066574769806158 -0.63830995633254739)
(-0.369064688975638655 -0.0880030173937853544 -0.524184844979291631)
(-0.461707433626760866 -0.139275176251802579 -0.694779824866271545)
(-0.555682317139810866 -0.370707359955965654 -0.771246569555730455)
(-0.64704607194189645 -0.417704958812138372 -0.738586795012156072)
(-0.450250803016474022 -0.297313586138672703 -0.571166490703244767)
(-0.572566225787761396 -0.43750386034003852 -0.786352265604310929)
(-0.608107534777840186 -0.3102022942896413 -0.872145670695243291)
(-0.684341774377017042 -0.430511066041635304 -0.859366279847968428)
(-0.508690868289604414 -0.296706626197721868 -0.704757561006405298)
(-0.595974781606332105 -0.445099221493911901 -0.887962026311025165)
(-0.630307591929847755 -0.116097301071837467 -0.920518849158423302)
(-0.7270480653551189 -0.287433866773005364 -0.911301056300175549)
(-0.600257801251674827 -0.173174091076834735 -0.813828284569764526)
(-0.594463539670490149 -0.258887990697233561 -0.893332432413546873)
(-0.627086156530648142 0.305258752825117663 -0.960838456797178053)
(-0.722907170605706972 -0.0142796138850562054 -0.919605193078236294)
(-0.686194881381156363 0.0918095015733090963 -0.929938907076386045)
(-0.550635440233244067 0.098828497503536894 -0.898545617029992139)
(-0.647736443483743929 0.88018719347221186 -1.002571164573683)
(-0.716450773662967721 0.571385772563915317 -0.903776973981223475)
(-0.728753077675147409 0.568705875695636687 -0.996236867801413739)
(-0.539478047207744504 0.655953823883691278 -0.882232893106804417)
(-0.54669127328716427 1.25701194742448874 -0.99502917661403989)
(-0.634611667446737582 1.0886010747555448 -0.981188603570076978)
(-0.667606392785909497 1.07920797354305198 -1.03147404841461365)
(-0.501424688880476865 1.11898132287941854 -0.928917830841267667)
(-0.421662142042864285 1.32732554213153109 -0.777318776729288841)
(-0.506549398036773568 1.29652139212189299 -0.910594188469553756)
(-0.557867156656473684 1.356787650861635 -1.01295295755234882)
(-0.36291695676348551 1.29154799858375235 -0.880364834358115411)
(-0.212735590670683372 1.16428137370376317 -0.283437723582701473)
(-0.344886407293034158 1.31019812039537764 -0.497468751669101372)
(-0.477796559000641441 1.32347279153344077 -0.742226182511864674)
(-0.232169144978638498 1.20474248044851251 -0.490954271014511778)
(0.0645233976654832203 0.973144918649154644 0.220614976590413098)
(-0.100956254991577177 0.964041342243650123 0.10582303740263227)
(-0.210303994794179439 1.0850848254820884 -0.028399170347736289)
(-0.0997411734697500607 0.991026436215894369 0.0246877770063901811)
(0.0553383038097763347 1.07779027982743725 0.537244494151738694)
(0.301309051432867847 0.956442190213549703 0.484655144444745334)
(0.456598154497861952 0.909850752469466895 0.360219793415073042)
(0.51092641284203999 0.958053293892785818 0.445849127669928458)
(-0.0737104677535129482 1.56703066099731969 0.654155346555269968)
(-0.65540038688254687 1.2554282569624251 0.651051818507227043)
(-0.662889158959885982 1.27562656024242416 0.68732957467062139)
(-0.651957654436699618 1.20164346432974778 0.623321175061060773)
(0.631423929565227304 1.8721289812989832 0.645719429003640211)
(0.617276136575857448 1.87625500096874198 0.660956052526892934)
(0.640372085731416796 1.91755079655937144 0.629871981726943031)
(0.171731113164528992 0.669815487989626424 -0.320690452476272148)
(0.237881661329937932 0.713912878857382083 -0.222524116118439502)
(0.176860368545881996 0.612417814783996706 -0.315228892828737617)
(0.162133273868878908 0.663112011773421939 -0.282788716554683517)
(0.0445510407192775404 0.687922217519407075 -0.419593434791803055)
(0.10987447602941329 0.735645402431862383 -0.328904091464471693)
(0.0598179648529975211 0.638534990372854772 -0.413254517874229399)
(0.0429806367125170063 0.687652232788045992 -0.380771586954788188)
(-0.0654484173033970523 0.682262867980418353 -0.501648094245530141)
(-0.011036964864648835 0.736540045428034196 -0.419904435162118173)
(-0.0403467975466938258 0.649038363670681684 -0.499538305003927874)
(-0.0624402072054968948 0.695249313576071115 -0.465683771169453142)
(-0.161140842007641089 0.645038790578862375 -0.56262042198631157)
(-0.119332746162952391 0.703695585463086526 -0.493088345214872215)
(-0.126590606984938375 0.633415792468686623 -0.568543687306618972)
(-0.154811412421281214 0.672888295276865556 -0.534060269513441321)
(-0.249354484304162127 0.575432169888609346 -0.602389193170070447)
(-0.21325191670344712 0.637569423999575724 -0.543580013076404689)
(-0.205318799306676375 0.590776113545137482 -0.616075820798171581)
(-0.238837432286431561 0.620325747791631521 -0.582296908672856328)
(-0.336346590867050099 0.459295086074639147 -0.61795311619521387)
(-0.299097932354780049 0.538009002343781795 -0.573813428705088446)
(-0.286264981451487877 0.519453475624825245 -0.647393623483463521)
(-0.323194194182685079 0.534990180167324469 -0.614422471593226494)
(-0.419373478246379772 0.268445503132215435 -0.616049764149126711)
(-0.37489510760833572 0.382677727694359593 -0.573641614398855748)
(-0.371352122690059627 0.389066889389924175 -0.657636121019453901)
(-0.407607216370720671 0.387725320748529667 -0.625320975897751596)
(-0.525087397465340944 -0.00643104258730753994 -0.642475228854278546)
(-0.433898016715062784 0.145386305352261158 -0.555711414396335868)
(-0.46673924774845571 0.158838956891074912 -0.673588171003755232)
(-0.496184162663963924 0.157247481437379349 -0.641319675415415791)
(-0.678590827078936143 -0.320081757063224837 -0.725816147851628624)
(-0.540834797083910801 -0.155779819949002085 -0.577309242577760062)
(-0.626079548090414773 -0.171871266669192696 -0.76178004668220578)
(-0.648392362455578741 -0.150552771438977412 -0.709446063807429583)
(-0.776937624582554665 -0.468018144179818241 -0.826706505304393491)