/*--------------------------------*- C++ -*----------------------------------*\
| =========                 |                                                 |
| \\      /  F ield         | OpenFOAM: The Open Source CFD Toolbox           |
|  \\    /   O peration     | Version:  2206                                  |
|   \\  /    A nd           | Website:  www.openfoam.com                      |
|    \\/     M anipulation  |                                                 |
\*---------------------------------------------------------------------------*/
FoamFile
{
    version     2.0;
    format      ascii;
    arch        "LSB;label=32;scalar=64";
    class       volScalarField;
    location    "0.990000000000000657";
    object      alpha.water;
}
// * * * * * * * * * * * * * * * * * * * * * * * * * * * * * * * * * * * * * //

dimensions      [0 0 0 0 0 0 0];

internalField   nonuniform List<scalar> 
7236
(
0.848111664247495289
0.99662394952080946
0.996725720093723844
0.996713562342910975
0.996647484176998777
0.996578962623880682
0.996519796624747434
0.99656693003760255
0.996793489716135683
0.996958041879153822
0.996928806832824144
0.996869009255457628
0.996466217053068481
0.995769334904988312
0.995021616542465681
0.99402570339532148
0.992988415265322111
0.991642706550608266
0.989510654268853873
0.986890469530618764
0.983687916312181887
0.98062406336945096
0.977716498451481231
0.97458136472446677
0.97116462038572382
0.967784412941813499
0.96450592760405518
0.961388125051803266
0.958163560127252012
0.954286409002978453
0.950298343636781784
0.947209840701936034
0.948244688905169664
0.955226287941609797
0.961406674100960812
0.967763252122927686
0.970753882176020877
0.97084549795968389
0.341040292196829908
0.410437700665125416
0.876106267746435741
0.908074730347559367
0.802719056757017047
0.856467557789916789
0.873478659534724478
0.913034097777294162
0.926044433195359673
0.928711837286640862
0.933786856385238284
0.940623649334633383
0.959312908533320519
0.96684984008899888
0.981218873998532359
0.991605176768136864
0.991239592746910869
0.983779309011290515
0.971015615865165715
0.945913042978881569
0.961243704539110344
0.933419981825609257
0.917679846341406869
0.924937979750152905
0.850103108595846368
0.821287926163940751
0.834612513401475686
0.81926053131254184
0.82220526589666032
0.696778110007180818
0.722860963685520996
0.716831680823616257
0.701205880057075959
0.68509327809099041
0.903800726632054574
0.962283122205603192
0.967782015574933929
0.970753882797036116
0.219353251180739145
0.300404487507579254
0.34869258569896644
0.429477418277784295
0.346819078705437156
0.213842286395838826
0.131591782761550535
0.0916776871761023904
0.0736231970792654844
0.0881871721871831105
0.0869386968312163277
0.191284614748780973
0.230144794687609899
0.308249139474366385
0.364743360517707171
0.481861022291671326
0.514798430912031257
0.519106818435825845
0.391959427023318319
0.344939627726264741
0.243695936329097168
0.208221148579805782
0.247502036170448525
0.106300009203417922
0.0989084273499424294
0.100585225496280836
0.0584381011283162041
0.046506911021384531
0.0453024929938909693
0.0446272715035075929
0.0460130538137971806
0.0488933769771919269
0.0574278742765725117
0.0765843028782577651
0.17679436944171209
0.526493412314656073
0.943846344972397722
0.961824738353960873
0.097099276189259065
0.0478120319258428378
0.044873270461262639
0.0382959925354594694
0.0284936161940332125
0.0244426096748975828
0.028095147374344695
0.0318150938896403224
0.0204467216473054672
0.0107048065096580665
0.00765005629099685391
0.00582124452176836955
0.0143948448516626436
0.0211185008060626178
0.0281216984023241121
0.0375074567093122702
0.0384250634270867017
0.0375165331124081985
0.0385770989811122234
0.0397880883657946161
0.042400987137332341
0.0302941325786978549
0.0229625754794596446
0.0216786167225808402
0.0225794254866654581
0.02320422957153008
0.0187240598719504436
0.0205259067727858249
0.0234568636514469395
0.02349202487537419
0.0239437728309128163
0.0227391117627908472
0.033819106517643964
0.0500245391133559009
0.0787763933159589952
0.124362490888293098
0.766272290824103974
0.928028312692933288
0.0308190943279965102
0.0316888928395982206
0.033461040969185625
0.0484725573701024204
0.0390289829844720632
0.0132608255716172782
0.0109075359868339924
0.00912359565344624673
0.0103115484925614953
0.0114039464867861061
0.0111617744173554689
0.0113322662427156919
0.0123802811529625436
0.015073191032600507
0.0202476892829758885
0.0548984808623897633
0.0541991135446956707
0.0536033763017161047
0.0388470610899696867
0.0268545705052899084
0.0133019754356736349
0.00906412247592390183
0.00189350270548201442
0.00411819046845408702
0.00889059541398938731
0.00724552785392272667
0.00995878715669900119
0.0114883438064676026
0.0123764644984273274
0.0160379978742811735
0.0184941822495984717
0.0204841422580912952
0.0236355381400187858
0.0373579812832368491
0.0626073900014315066
0.110743397073501462
0.819222049357013926
0.88665351822571925
0.0280111619292874696
0.024614835396587844
0.029961356283080269
0.018480218226417041
0.0168922261652945764
0.00872032793001296588
0.00906039173247047587
0.00896165271863868379
0.00918623995118673063
0.00999181852359794231
0.0103014992334521591
0.00997070010875871979
0.0104946318073882734
0.0173888057750128042
0.053420262284533282
0.0554870078794678784
0.0591038004667645278
0.0536193559947625714
0.0294141263930632647
0.00643644430742360777
0.00455463820183685773
0.00534033495775518632
0.00615145333371795548
0.00572648820248139283
0.00540611508157245579
0.00521175464802523837
0.0056822963889305066
0.00697170143016508006
0.00860374494777177597
0.012205330780587954
0.0233567923617605151
0.0240680271485912457
0.0238087244395184319
0.0237223322387971267
0.0374912593909094774
0.10304760077054656
0.800571561824882538
0.87108352603589323
0.0251634010302248974
0.022544042050716244
0.0340520255534351446
0.0193710111420921996
0.00849992316523063597
0.00698236392927166234
0.00647053472205037002
0.00882389756519514831
0.0195164115670935327
0.0302687987861576906
0.0337005596581788913
0.0298415787426470659
0.0431618715561771157
0.053621671186938738
0.0561836588821136088
0.0586991002302112153
0.0294964115321884532
0.00638607317122043099
0.00572836371803199865
0.00611282132831055675
0.00659434782661795244
0.00640319918611985395
0.00591938499970927519
0.00550279357938560781
0.00525149790332411597
0.00516379108046031467
0.00467210577873660923
0.00523905515194644615
0.00704703592452900554
0.014592707147516433
0.021244646171836315
0.0225675904073371139
0.0195621119115043235
0.0220765023984347761
0.0368134217035552477
0.111031355939669771
0.343599501355772774
0.829547804544634948
0.0224923884103021554
0.0210716370219574782
0.0392849000773762558
0.028490877982548464
0.00649194232798370671
0.00552991932641641766
0.00473241625868738025
0.0134374506607078462
0.0217924440311814682
0.0291541697925074006
0.0384437139866710617
0.0457049630334571966
0.0504484313077073615
0.0534367039869953486
0.0428946782162360762
0.0104897306863846601
0.0062975450700873941
0.00707690621280942893
0.00703462830279321348
0.00710174153314957479
0.0071079617260169101
0.00688007247588367718
0.00625999661387577604
0.0055227586340913775
0.00516345867118134325
0.00460530168889804366
0.00404731852922322194
0.00402758338264061315
0.00644050782241489296
0.010295113978701512
0.0176743545617792513
0.0165071694259034014
0.0228031205481203647
0.0584506681765263603
0.233817819165489438
0.16995297959975586
0.23834350326258319
0.807212736706328537
0.0208416441919975284
0.0207206258828438739
0.0394745236512578992
0.0249517263331784783
0.00482574745108780082
0.00338147508282178383
0.00335549946715656524
0.00820506036170531687
0.0168205657911070991
0.0253750842374876502
0.0335904763239996823
0.0378545887901144129
0.0424417716077386126
0.0192913581048714741
0.00812269864451065082
0.00736142477200131973
0.0072518223548233892
0.00729402868576263085
0.0071265848452768607
0.00713339897100285017
0.00706497882441780613
0.00707847106189762008
0.0067482170893741391
0.00586585728955908454
0.00486656966962534243
0.00441921665202010122
0.00406853758896925672
0.00360876569953237289
0.00328791696526017137
0.00404658770662953953
0.00591119705812840745
0.00769366756459486951
0.0188078904003980939
0.0683270502031536886
0.463998142560204885
0.213088510023851541
0.286309463196979475
0.725970716903568403
0.0216288476327459248
0.0206082313317885804
0.0406970169113379659
0.0143751173581714992
0.0038307365740492998
0.00212551076777666922
0.00261721735697040443
0.00376639890783473773
0.0134939275802437551
0.0196284662908412719
0.0281668207534613337
0.02720149633579853
0.0107233572622421839
0.00834174956290146055
0.007880046641608969
0.00781120860996283722
0.00751951768281905637
0.00733521047240363704
0.00734527594674996669
0.00753553821833110975
0.00729173400100234601
0.00647049660873562187
0.0208567066321274364
0.0345609915469713702
0.0390132036701969012
0.0103352575962200252
0.00196540899332077815
0.00164395033596683045
0.00192530267533793861
0.00319193602635556642
0.00627348909335612333
0.0150818063804946043
0.0198028394085475942
0.0105767604755677321
0.00810215584002433112
0.00759454409173166561
0.00858767235996738681
0.00801303191844113423
0.00780583056576856019
0.00776319380339916994
0.00812743741687093485
0.00802866608571058474
0.00599773040941626104
-0.0005465128092959088
0.0238453271256473809
0.0411320227652569939
0.0399610748203856614
0.00818844914573571211
0.00156981137304400969
0.00153973184369031696
0.00177311035211853187
0.00270117977657483629
0.0038427166457853084
0.00582384765778997619
0.00656921959988376707
0.00748650179143955062
0.00809298301683579642
0.00821742494256942797
0.00827042949280107006
0.00756780511550585698
0.00800650082205679042
0.00874379887726278379
0.00917218764018948481
0.0264239149466320884
0.0368622876127135818
0.0346880504264816952
0.02468216166041836
0.0445620601450000819
0.0223418545962906223
0.00394220498981498121
0.00135269942237509731
0.00124668660782971679
0.0016732508245929944
0.00241722521048697838
0.00356917054340078225
0.00514913404842672756
0.00631842544099984072
0.00849344617618122584
0.00877682265795071831
0.0059461566579513854
0.00756549074050344092
0.00932014412791676988
0.00949880007004589959
0.00936391597556085128
0.0233736000212359206
0.0528728101380981572
0.0748925235447436277
0.0913020192704576267
0.00509329634007224877
0.00623762731538996668
0.0102863124434749223
0.007775523360662593
0.00619462603470138408
0.00653889934080752015
0.0093048935146306036
0.00770254358732264284
0.0250809325480928214
0.041088975376402409
0.00775247489073829787
0.0084396244963588947
0.00871152180771818732
0.0174496887251915575
0.025700865054779129
0.0363064334834195049
0.0208857094605444417
0.0288859100526067114
0.017574443263692674
0.0193480116503298508
0.0221929250351657406
0.0258306616271166516
0.590683752421519936
0.743845222430173703
0.952464310778419865
0.965144681306218333
0.972334919657835361
0.978461613325552704
0.982890166053011827
0.986173921124268826
0.988749750052620002
0.990889903542473638
0.992969698382054289
0.994258313021935347
0.994734563580476072
0.99478391696064361
0.994194483472885748
0.992999024210553305
0.991601164958290315
0.989442891239213251
0.98724789033275373
0.984857784029692152
0.981703142709119292
0.97836913579914464
0.974997815985473082
0.971483320727206445
0.968110161993015028
0.965217956369580632
0.962599126749588141
0.95985043598085229
0.956535227506417063
0.953903715714211953
0.951429620995059788
0.951208246830294146
0.955701289003565435
0.960522918159281258
0.963787612196548515
0.969031921519563522
0.970845497963244375
0.970845498379668159
0.0641248122087372668
0.158077808118253366
0.412162231825685288
0.636980557873941922
0.757777087209867251
0.751104647387960567
0.741442126462589668
0.719334665760851477
0.717251105202337591
0.723477410192534087
0.739862434301430616
0.774768712494888767
0.830753324071137
0.890378436025446529
0.926982115051460109
0.952227340946093848
0.956118050579479739
0.945449855523019522
0.951865852609035779
0.953758923513142509
0.91939285980645935
0.926289511549778566
0.907683909152177781
0.820974809112600235
0.791973348989630455
0.828536646296402002
0.809358487223934664
0.818432956767983333
0.727857547319775589
0.718287708903311728
0.729413173725323327
0.72835690015349952
0.702598289337251214
0.648247833739842516
0.964426216692229277
0.965921069028391033
0.969070032366767586
0.970845498379668159
0.0585205345283472955
0.0548022376866705158
0.0747932262472320725
0.0458081335747544324
0.0291216519193104005
0.0246170455831088673
0.0231319431090473981
0.0187687730833749795
0.0171775521401685942
0.019622474222844577
0.0201017799653272454
0.0206653433903782949
0.0232457200017790744
0.0357729096351628029
0.0720602516307748825
0.0998441023071185429
0.137287580242083068
0.175462407121405761
0.217881471664476911
0.211069288751907863
0.170420338988894693
0.181171816102136396
0.0701000267753996986
0.0724873061168290339
0.0602937474268901777
0.0599388332845211813
0.0629183644680550158
0.0649871302779060911
0.069258346417464256
0.0686372054592179204
0.0715099438990094427
0.0726986532254893097
0.0808159293680541374
0.1162544482900323
0.341631243799401352
0.677746180256010522
0.949873588858099138
0.964422678192401683
0.0492666146461219895
0.0365507366394825367
0.04061043628318034
0.0430824435401691505
0.0328869743966272304
0.0205028991214304054
0.0178425332493172238
0.0176258683227719301
0.0155344854713058353
0.0187618964792581368
0.014937998831927729
0.0151794833028888673
0.0149150747602159114
0.0209342039826405993
0.0282169446991636236
0.0310752863016219641
0.0366907876567836438
0.0422410339680780872
0.0546659308372971636
0.0597512863369634994
0.0470900190925528789
0.0375191336774853695
0.0319990832575900164
0.0312088769035303304
0.0286392335364382723
0.0325942859491349171
0.0341003663564130519
0.0302924211651086767
0.0329699599403802668
0.0363037805242002257
0.0339696060856352344
0.0365078310718548182
0.0546087495301760817
0.0759926030119229268
0.115566911250039622
0.472746858253758284
0.841836437982110164
0.938424522426409724
0.0498742816973641104
0.0273707216179412197
0.0345456190797669566
0.0409048115471052076
0.0214580830062975347
0.0116544510521509343
0.0100198806496060704
0.0105473676238552784
0.0106446610514446642
0.0108637807858526451
0.0113701423946242618
0.0124391612768611319
0.0114604929086215036
0.0187809280571351982
0.0283325698018248168
0.0348504889728710743
0.044190000797791687
0.0611047235864666388
0.0709593065851333582
0.0792377304003769878
0.0327346220385788325
0.00815846595181991471
0.0122651669160508819
0.0175317984415420611
0.0119700836745731086
0.012726598467382829
0.0106351644532685571
0.0133745945018743061
0.0136538059147184483
0.0141626995732001253
0.0181136090056290312
0.0201774595643501482
0.0300784970587535325
0.0586875232129839275
0.101779177576542479
0.161396539001833872
0.861947026987696319
0.906761688330881332
0.0386210810649663533
0.023099682477210795
0.0252706213166482251
0.0260532415192470806
0.0112950974285311173
0.00855817775202540737
0.00960444780390972384
0.00928435438501878929
0.0118667858081675896
0.0242734407394656834
0.0280206337265989959
0.0306573496771048414
0.0430723532090617547
0.0540390880473174476
0.0561152736255927584
0.0596659703659860666
0.0652428238219420475
0.0703920136257565748
0.0760706737135195682
0.0640758660996279261
0.00780228973706633463
0.00781147789016064815
0.00584996428408512958
0.0059512314084047991
0.00526307345559861445
0.0054068176644342901
0.00498525812513672846
0.00585509279186158943
0.00685754707422215129
0.00876295856318462171
0.012647113924471081
0.0162831987332111086
0.020586524981997055
0.0312621305285990386
0.0713419778436729102
0.155197473994348578
0.86713056001860167
0.890335375070083312
0.0230206491014978004
0.0212160005073034411
0.033039258478286683
0.0251236213489604843
0.00903176280351610308
0.00709883931560064546
0.0076001159767280493
0.0145298043160516088
0.0345422319531229066
0.042533924017774935
0.0488563532104370618
0.0528934749746245297
0.0546875853143421325
0.0569715372340188278
0.060124835825297436
0.0644684829013286165
0.0679151029671949402
0.0685140193466967778
0.0286297789344670955
0.0084145124877185902
0.00653467757721137594
0.00656150848016920189
0.00640504331536456434
0.00592092472727550473
0.00550273425843189959
0.00469177286003455256
0.00404288715628955964
0.00396417055143732933
0.00458274822651161783
0.00654340260084390179
0.0152413152275191234
0.0163081780720510799
0.015425260952221527
0.0374684379488876423
0.117747083682893355
0.169784937988472273
0.484766739967854132
0.854743652590994385
0.0211982790256691131
0.0204583852412954445
0.0394634090084091949
0.0349133177322363333
0.00793674548108615555
0.00603670952460906053
0.00551001134190280337
0.0206009631187539545
0.0333202158533833295
0.039693249762462135
0.0457232351984464408
0.0528308994836905257
0.05773058307714133
0.0614808471711483923
0.0640215587344061393
0.0529593564956695462
0.0213612059488693419
0.00812796156185659896
0.00619550087392248434
0.0064198932887278258
0.00638277423295808763
0.00669741216032096291
0.0068951955947926212
0.00604645825924565034
0.00471255519929392186
0.00405036552123691496
0.00388493307215668398
0.00361781028581881475
0.00361021499015937945
0.00676337539454189944
0.0125478009474786316
0.00825156534663683792
0.00996203440767056553
0.0619667395844533675
0.352494599059412883
0.234357701706157801
0.3171996404105768
0.846961089910995391
0.0203968054620567753
0.0204103201728616512
0.0406399215083447715
0.0396463639290708034
0.00638013616841270892
0.00485032976044681534
0.00473910665411651257
0.00615671086497903905
0.0133493740570344663
0.0181193665053999108
0.0214157810044598614
0.0285496783945948449
0.0462792462638388427
0.0381526485535492385
0.0182099092284924956
0.0101395489693851711
0.00718155202004242509
0.00614490162660950596
0.00659292198053426128
0.00552792414521205595
0.00727030230232922348
0.00785350099143169306
0.00748064223903866302
0.0067778723913769004
0.00549126989484162789
0.00413921922761688495
0.00361757141498147364
0.00310362357072025471
0.00268625155499377551
0.00295111623083980229
0.00361075029729714461
0.0047288149938654947
0.00738631698648581705
0.0460752669640124568
0.479820280152504053
0.279581721401697569
0.370999010043772337
0.859306707342298859
0.0204556231430256738
0.0203994565271195284
0.0430496041048860772
0.0284495339889124996
0.00600197733742252083
0.00380014079226291199
0.00442863212902017654
0.00562034398178721563
0.00656834868501128717
0.00716304974879615995
0.00780403914308770447
0.00844213528201983449
0.00873632091617329229
0.00889095001075464707
0.00870533906723454723
0.00735119312269423911
0.00635657975534345988
0.00597231741212154565
0.00607200701365191633
0.00759651841846218159
0.00900540443926572606
0.00863233937661426164
0.00823625911537692601
0.0225244228003258842
0.0204965796932097578
0.0412195179923733057
0.00811005220036937688
0.004616823644346622
0.00303661946448252704
0.00379147370746584595
0.00568310541839061635
0.00619764055016365587
0.00687711045652571271
0.00725482779666410636
0.00780418453444835149
0.00839924504018288443
0.00806931170348160545
0.0077946393873387183
0.00823244386282398141
0.00826934202139504616
0.00922287413467052543
0.00996026780351118995
0.00816812850635594348
0.0101412961264819908
0.0127417342962527248
0.0246803961145314089
0.043517519939859757
0.0411626680049434618
0.00856908130824272571
0.0022385622792667286
0.00261883597025526363
0.00332474436418729851
0.00591234383215188258
0.00624345052902053506
0.00676761060889175588
0.0073713192540436354
0.00780906514210906628
0.00834133505166572559
0.00878347651353062961
0.00708907394218647596
0.00694024152111437191
0.00875766738357634106
0.0118286882981056603
0.010978497372348104
0.0148085360083390193
0.0301097165590984255
0.06112758098999789
0.0249850043518974954
0.0471457468652367179
0.0375262893444665777
0.00577284921996212667
0.0019564660066858767
0.00224145689035140953
0.00311427588488691473
0.0105214355345947877
0.0106839210503714751
0.0067064870339040572
0.00755083904976985854
0.00826040233268921301
0.00891694493178446165
0.00846507453765322354
0.006501145128313718
0.00577618664738198395
0.00759476735353181026
0.00663002773477267167
0.0100737062070097635
0.0432999468285120911
0.0675463908286076387
0.0776818354637344999
0.0078791422851365242
0.00759336546223958117
0.00852464893943313817
0.00888580141886458411
0.00739091103356360156
0.0056343975928349263
0.00575667955081320473
0.00613870526018410988
0.00803899456480706466
0.00961803556487219116
0.00861546130456536038
0.0100092986950113746
0.0131776385004272849
0.0182499928138310785
0.0131393444218629932
0.00935580494479386175
0.0114241007753397641
0.0154253066272312389
0.018941380346569895
0.0204187825696956621
0.021654060453057216
0.0230215056993951367
0.419301045174151565
0.566280559334298106
0.738093905624089941
0.878458301896708815
0.912923775198916432
0.926931662121776467
0.934882721254165716
0.940678713520273879
0.946589270614172862
0.952928855734443525
0.962091939215323988
0.976097605305893623
0.987566485254191884
0.990007413978542194
0.991211769651757058
0.991136541071000465
0.989786674407799327
0.987339918822300322
0.984872506243942514
0.981706831071626373
0.978377587347831756
0.975014230636165768
0.97150112997091731
0.968119544196309079
0.965229967377325915
0.962602510851016779
0.959851926417950918
0.958108881736488116
0.95771196145002413
0.95284860729927745
0.959071863726522866
0.95970056553313321
0.964782342734016418
0.965943641829977939
0.967252905238883964
0.969721151558406325
0.970546197108999253
0.97084549795968389
0.0732926314394465317
0.0872355912905194986
0.0951335248345653445
0.304457228370047961
0.35002440736269963
0.378133373901780923
0.367777963252557738
0.370300741945656764
0.378089425221786846
0.392602411480920455
0.405088279395486306
0.444380465667702063
0.534738918034986743
0.624172420658643201
0.746005576080777777
0.865723959457825987
0.908253763886338383
0.924928522188701696
0.94057861354924488
0.899137095992535107
0.892658128454024591
0.871984926556308659
0.787479910787475923
0.749990521948010747
0.79154192074095675
0.77323139651651851
0.803369246140787419
0.688725343529025924
0.716838780561562361
0.761587498976407096
0.719350704934580198
0.750846382912679577
0.61907497647609433
0.895692387731571005
0.964796719624660959
0.968996018302958784
0.96977287503806342
0.97054575830174139
0.06412635945526865
0.0761426028577303488
0.0629747981627115372
0.0394975442945554173
0.0311899440152575286
0.0243097507469413644
0.0217269110228359777
0.0195546192220859977
0.0193773020555689998
0.0190334682385812776
0.0201995711323853556
0.0250341662107650409
0.0272202777781972577
0.0456591230161029413
0.0385033680145481089
0.0288728683166678407
0.0328792983772720968
0.0407775938232895208
0.0459111359145389225
0.0464710335875524044
0.0535775362184516407
0.065676081594831362
0.0711852261902172767
0.0700210321372707334
0.0729759539799064855
0.0751641050217321527
0.0772930354714747997
0.0836647115130649821
0.0883798295529845679
0.0926223860957042511
0.0941385515420326002
0.100072776832585697
0.114996716659562834
0.168669416882183704
0.423412460398588153
0.93997103350945177
0.958578766611413169
0.967027342906107812
0.0727905297595370648
0.0981455919840279745
0.0756598969428075308
0.0467700531930511781
0.0298387059615752744
0.0242525803472105235
0.0187952237907611577
0.014193394474378276
0.0115791430642242787
0.0118142527647186468
0.0115024199466175116
0.0117282001462937734
0.0113981598912634725
0.0145126371094002754
0.0211228618071000081
0.0283953838437818185
0.0310777720524101284
0.0347963480409771708
0.0413863361508298583
0.0466766413965754717
0.0518361042569190078
0.0530715701580559418
0.0469121624242123808
0.0519278783859422055
0.0528948061460951247
0.0592005485815827667
0.0629027960664982344
0.0641466001580200812
0.0461749300944325064
0.0457682167478369248
0.0494841907803387493
0.0648821113391404858
0.0916578628362362813
0.116103422455929944
0.170760234994316334
0.804907342665460934
0.928245964342929608
0.949726576403174816
0.119628266086804477
0.055809066911129579
0.0630478783897404499
0.0234114014053864901
0.0199774572384534381
0.0110775388472073993
0.00972455029511382248
0.0100338018301259421
0.00939727774879413856
0.00909009252592921264
0.00867526986610600397
0.00851464697877731339
0.00925575692545888527
0.0113638006747561124
0.0145468940586895579
0.0260303936688382441
0.0412497818397035768
0.0626153810108645847
0.0779549037731622207
0.0884314175302363947
0.0547405280906080663
0.0463741230127362458
0.0428238746408548115
0.0331348499819490577
0.0226836966373675092
0.018769789758928887
0.017779024624051603
0.0184256944983067217
0.0191931093036750364
0.0182900124987074898
0.0187376245005753048
0.0249324549914709259
0.049489284552463722
0.0995575633533354043
0.158086902899875814
0.276941418262532268
0.905752446081933504
0.92535684749592928
0.10359440044529386
0.0246543318695082586
0.0226141033419969134
0.0213574961948105602
0.0110577944212961743
0.00940875034584445769
0.00926956764377793313
0.00796112744313476166
0.00950393501282404719
0.0276032851319985249
0.0339555109940042552
0.029727181967481444
0.0207291490850047867
0.0383534249924327234
0.0526263622190125471
0.0609693533663049139
0.0705248917993709923
0.076883199754428061
0.086246060269146857
0.102277247793238019
0.0429293948785619411
0.0144562674688779608
0.0102638418090195919
0.00813689110049764866
0.00722049023795837304
0.00726031853794657268
0.00761129168777410943
0.00654614661877074219
0.00708756714763041779
0.00770171729848565315
0.00845909716209840463
0.0106176594202258591
0.0172704514092696035
0.0494766683838045798
0.134441723535786789
0.241172120179244359
0.886688989445074682
0.897129691552605024
0.0626051585300556879
0.0219486832203499016
0.023872832258270249
0.0376204076166743451
0.00955878958232374287
0.00807936163258171983
0.00753905072169120706
0.00855675746215758294
0.0368015376289950874
0.0486929113645936523
0.0535949388319218317
0.0562122837005276724
0.0588255489224721526
0.0617559187806296581
0.0652103428807982305
0.0683144002387415794
0.0760463143375909451
0.0868613652024606553
0.0945839990512185591
0.0758701568958756178
0.0108599689832890225
0.00775870282281095232
0.007041978732715155
0.00663682130682031329
0.00606936844396460846
0.00567941785171854289
0.00465095663828327816
0.00397742095864039337
0.00369933750627288432
0.00415457378544155029
0.00525437554670892849
0.006982289302539379
0.0103311125840800915
0.0176661320993125801
0.420033943365461404
0.270274836214227987
0.557456174428907381
0.90306694117807651
0.0217174179132409995
0.0207149504323889747
0.0222157673578301101
0.0417137372490954811
0.0223927943378297092
0.00724379312170195157
0.00690304917560960116
0.0133933947075951954
0.034647561608745242
0.0464459736166993667
0.0530448253532237318
0.0603544065445880615
0.0652700826300730563
0.0679396436352709965
0.0683419410127539539
0.0750539389695351888
0.0835134074586633135
0.0904938277833424454
0.076596000949571974
0.0139079789472782347
0.00411573956330263738
0.00775629563548358401
0.00771402612380423479
0.00721663633237757361
0.00603905160679338998
0.00468997950211183165
0.00378374172462022425
0.00310629851111991241
0.00270028378569895288
0.00299407546347706284
0.00404309105034156898
0.00475868482569406608
0.00683758855745558464
0.0120088314315798545
0.555435515138016034
0.380563560974446824
0.428114620961618564
0.909499000107073741
0.0207158974891342544
0.0204026079459336679
0.0340070059543386496
0.0411748184268535752
0.0146062956083098487
0.00626369291598139095
0.00625614386530042119
0.00807871924689982854
0.0111363970541257205
0.0326728805314760243
0.0428179186389269079
0.0495776794041085656
0.0568430668113266563
0.0640851369366713386
0.0701628583797535565
0.0766565248243602781
0.0833190338482839715
0.0642866543722342282
0.0155450232974045539
0.010561308713522774
0.00941007186674894941
0.00962996388628500725
0.00915375157103208437
0.0086500595348112299
0.00725330759694933942
0.0047181003572803748
0.00310719254158666434
0.00269890815966727969
0.00270053454436649642
0.00270009587565913376
0.00295518276649368687
0.0034194420835223986
0.00488469656172513342
0.00792956035605341808
0.497801818329802526
0.643164255999719048
0.483759961393791516
0.840312982475865722
0.0205348246951266022
0.0204555827947349098
0.0454571078008853824
0.043498431254382755
0.00854233534053153859
0.00511987268045658011
0.00616487801281685038
0.00684231706704714702
0.0117273649545867643
0.0115125823293613875
0.0091184518318082608
0.00894557636206328236
0.0100107776165234662
0.0198016718388402541
0.0570964870303581964
0.0761682190432341893
0.0831369750274354169
0.0204478224306698445
0.0132743608806027945
0.0159674985101988555
0.0140396838418975003
0.012750647364259262
0.0107787706552686744
0.0480142029727188974
0.020546952037082563
0.0439549485095013376
0.021653131267083868
0.00644303815528327137
0.00433865307137857887
0.00498137842248027023
0.0167252430890705156
0.0229304308322183514
0.00878041692693520663
0.00785297274095728484
0.00844803490868293455
0.00794434063517913611
0.00722750680926167403
0.00662973826337257162
0.0172534075296307474
0.0503496048656856127
0.0629269793011458939
0.0328386051552511035
0.0255120725281311814
0.0241427910209508073
0.0196154212678935243
0.0426909097827802425
0.0436785888606236739
0.0444702349348309323
0.00654035088627746668
0.00309468227404770171
0.00362803737153955842
0.00870374481176880085
0.015718661490590962
0.018438858347550189
0.0111600293667071318
0.00792650757148802461
0.00845028279076628225
0.00896578610294944747
0.00742950794718530948
0.00537523703704779685
0.00845821133328911005
0.0525458624142421948
0.0594721725594711259
0.0667922776663553847
0.0864421517875460232
0.0563375444260843516
0.0422662151547218354
0.0268259795295561695
0.0476443594380281943
0.0455928638084259694
0.00507995123622022489
0.00273209282248223877
0.00329178841107345254
0.0104158984103667092
0.0135837920225837933
0.0144631168299978706
0.00897444758218197969
0.00814036705325661518
0.00895702658153405343
0.0102314559786649498