/*--------------------------------*- C++ -*----------------------------------*\
| =========                 |                                                 |
| \\      /  F ield         | OpenFOAM: The Open Source CFD Toolbox           |
|  \\    /   O peration     | Version:  2206                                  |
|   \\  /    A nd           | Website:  www.openfoam.com                      |
|    \\/     M anipulation  |                                                 |
\*---------------------------------------------------------------------------*/
FoamFile
{
    version     2.0;
    format      ascii;
    arch        "LSB;label=32;scalar=64";
    class       surfaceScalarField;
    location    "0.990000000000000657";
    object      alphaPhi0.water;
}
// * * * * * * * * * * * * * * * * * * * * * * * * * * * * * * * * * * * * * //

dimensions      [0 3 -1 0 0 0 0];

oriented        oriented;

internalField   nonuniform List<scalar> 
20390
(
0.000152881772492515026
-8.90071450724438007e-05
4.48027852233617849e-05
-0.000103376661094932331
0.000235324267112257794
-9.22672665639417803e-05
0.000157603764305661406
-0.00014814305732636728
0.000279278877469103771
-8.32152154694753464e-05
0.000195906003186819845
-0.000157044541681618162
0.000321889264795009603
-7.79103870168894064e-05
0.00019695838449935871
-0.000162092049281022886
0.000353479209004691885
-5.94624259639247579e-05
0.000196642197463893021
-0.000169254609239001346
0.00037747249460002338
-4.56656750926516457e-05
0.000197559283327917887
-0.000176436967669289481
0.000396078574673449681
-3.58046174386543272e-05
0.000198955954188983694
-0.00018229269717972489
0.000411673460350293625
-2.9959688146290055e-05
0.000201222009236380194
-0.000187233858087403814
0.000424401288530932143
-2.49322771656180132e-05
0.000203729493752547543
-0.000191733010900246284
0.000434483930261976385
-2.06423126053297343e-05
0.000206936325392798981
-0.00019642394026680925
0.000441014891042690305
-1.5782129308952359e-05
0.000210962493345133657
-0.000201727392467199949
0.000445009132029278035
-1.29563522859774749e-05
0.000215503076781899279
-0.000206499649143120268
0.000447308794281943217
-1.17335564316023012e-05
0.000219681999321201581
-0.000210160751572834411
0.000448736455714201544
-1.19246991223988936e-05
0.000222856618383665003
-0.000212256667914188281
0.000450043812266356404
-1.37641441652493547e-05
0.000224924500199051548
-0.00021237247830079771
0.000453660489886184885
-1.90803394956283942e-05
0.000226045436004805768
-0.000210460297259586969
0.000459772919007745611
-2.47939778143067558e-05
0.000225636587014218625
-0.000206863648216849637
0.000468651656900755738
-2.94841418964903167e-05
0.000223037660719508984
-0.000202353308174642522
0.000477999419378397788
-2.93608448523505342e-05
0.000217575040149972935
-0.000197476962702552094
0.000487233948138685025
-2.72707224876522971e-05
0.000210536691174085974
-0.000192435610328985102
0.000494904505008782951
-2.35808185529602474e-05
0.000203416162195761967
-0.000187396228541454498
0.000501880810041981855
-2.16879507396666859e-05
0.000196945444159964415
-0.000182215033922457538
0.000509503327206352634
-2.23953399142259353e-05
0.000192086179684817972
-0.000177413044064938049
0.000516202960963556994
-2.0770196513291255e-05
0.000187876241774082568
-0.000173902547252313103
0.000521998441146807207
-1.86506445053019306e-05
0.000184053704421456517
-0.00017117781343797318
0.000527814771116689313
-1.81224537839267255e-05
0.000180875088803650027
-0.000168392223354406432
0.000533441390183159061
-1.75752502426192563e-05
0.000178445258476458908
-0.000166232914666961112
0.000538499943212661196
-1.64715110226413701e-05
0.000176510465449545038
-0.000164958020005783341
0.000542847955540081361
-1.56248773941914244e-05
0.000175049198088210125
-0.000163844522639296653
0.000546019965107593145
-1.34819694828430128e-05
0.000173288111361165635
-0.000162986122069128
0.000548486018082234216
-1.25225683846990866e-05
0.000171539417629546707
-0.000161297192523678583
0.000548832283535624957
-1.00493032397912822e-05
0.000169350282687423135
-0.00015928818364026979
0.00053938716446027071
1.51388689577570687e-06
0.000165333895987998297
-0.000157047723885947308
0.000498616066898721925
3.66829813747574106e-05
0.000155591161372653123
-0.000151308245427222797
0.000391666889517194698
0.000109654670635255341
0.000132775093947009475
-0.000135445943570590302
0.000194382983917895641
0.000212917556349789583
8.56710651064967321e-05
-0.000101397395413873104
1.08914063539530765e-05
0.000205547324929897268
2.03091024594121245e-05
-4.24127318962853376e-05
2.76849054322473472e-05
-1.10151677642125887e-05
-5.75663289460088705e-06
7.48900114333640038e-05
-6.03971496381742725e-05
-9.13791856887922509e-06
-9.14702136608273018e-05
0.000181022225189365557
-0.000105257156439274199
4.06247650884135043e-05
-0.000126175188389590349
0.000245906169788220701
-0.000123992821902690724
0.000142257293881316435
-0.00015368910760132123
0.000277758283665254446
-0.000112209393928696489
0.000166467868824235867
-0.000164519022394843319
0.000302955131739193273
-7.94407332244161042e-05
0.000161864363443067262
-0.000173099725572718678
0.000332302227226040641
-5.23418461282684625e-05
0.000159619398136608376
-0.000178084620511031024
0.000352832599371557891
-3.56419517598918116e-05
0.000160668952964111689
-0.000181080434014582433
0.000369350155253446119
-2.80533955060986533e-05
0.000162374742278258892
-0.000182349969813584581
0.000380311303169101299
-2.2626741936465505e-05
0.000160329239231961243
-0.000184471898587134676
0.000395530494609851722
-1.81253950366706421e-05
0.000162107840736220644
-0.000188697507682724188
0.000410877902291649846
-1.30260631630217289e-05
0.000168692294657433209
-0.00019620485917754845
0.000424537142828851073
-1.05527551963338162e-05
0.000179990890733853581
-0.000203732119152793623
0.000434374238426362758
-9.00288787401766961e-06
0.000193614070558271323
-0.000209665884284247219
0.000439284384833558592
-1.12172464922458696e-05
0.000205327753317200931
-0.000212758799042269157
0.000441423298939492984
-1.73422074415590315e-05
0.000215581459549795253
-0.00021334466640458727
0.000444774154155505141
-3.16258611234806645e-05
0.000220020843846434024
-0.000210365961297333411
0.00044891667060085582
-4.52585945118216278e-05
0.000220516330671350112
-0.000204013150838825113
0.000456350321708985521
-5.63852339179230188e-05
0.000216602235397764714
-0.000196058101528388546
0.00046314323779107037
-5.50463834393151446e-05
0.000207583741013806042
-0.000187034543709033022
0.000468133901884715102
-4.93120758384287019e-05
0.000195986223798578075
-0.000177601011964745786
0.00046515470416642142
-3.9801258349781991e-05
0.000179827178331549422
-0.000166773977393334775
0.000471447080953173582
-3.29108711503600009e-05
0.000169540510853639209
-0.000159309482233789009
0.00047289609137795847
-2.63029569670597165e-05
0.000156322479592432525
-0.000150658489887638207
0.000460803740216021804
-1.74459842369692932e-05
0.000144335395332874584
-0.000142561770352233805
0.000459293787664589309
-1.48332753059454434e-05
0.000133833818590178095
-0.00013221022426152852
0.000467571024018011822
-1.44748264162960566e-05
0.000129961450386285231
-0.000122461965438101485
0.000471114080266499843
-1.16041941240556527e-05
0.000124219206415828939
-0.000116486001228064887
0.000459978738895892001
-8.50203622587008123e-06
0.00011564058050371042
-0.000113998779104365145
0.000423851472489937412
-7.92867349206764657e-06
0.000102160822765705864
-0.000107839659043328464
0.000434978384226216634
-7.50449258347479562e-06
0.000101383270031250305
-9.56003727915196653e-05
0.000429598438965694417
-7.24787058421883913e-06
9.80324095035434466e-05
-9.35275848812980304e-05
0.000440379035434235698
-6.49050243459023213e-06
9.89753953606038815e-05
-9.33882069511162045e-05
0.000422521831863162801
-1.92364032573601716e-06
9.50755569851799225e-05
-9.29871696576810205e-05
0.000435158820366595399
2.39579603711194362e-05
0.000100210311834062361
-9.5898464564731135e-05
0.000429062081797102314
0.000111898076806280972
0.000112321988927144734
-0.000108487378808018258
0.000328020139516979126
0.000316158609806704404
0.000105740323610902385
-0.000108067817501947627
0.000148003260967418559
0.000401907983684030782
6.62615250150785392e-05
-8.26924092709325744e-05
0.000190162210105082353
3.75380692107234209e-05
-5.20599109129745165e-05
4.83905800706641259e-05
-2.58374768274930683e-05
-1.08542698802118688e-05
-6.91863898567414919e-05
7.52051302210654938e-05
-4.80320015877055295e-05
2.15418121649714407e-05
-0.000106306531986405335
7.71327025849637246e-05
-5.24775222248019416e-05
5.43493746043236122e-05
-0.000130175569058129157
7.96529006596669666e-05
-3.97256509432500029e-05
4.14107064798929295e-05
-0.000119847837807501346
7.09416368123671722e-05
-2.04518656950101343e-05
2.99613798247217606e-05
-0.000100167842555142183
6.48925264522479941e-05
-7.77638144980119717e-06
1.75366971826811232e-05
-8.35470359944422408e-05
6.42143490955672649e-05
-1.91546494934741134e-06
1.15039804706140997e-05
-6.82541192508821868e-05
6.4173346651230233e-05
-3.04012318647397365e-07
8.11167353434902385e-06
-4.96944300683650644e-05
6.70855651780766064e-05
-1.79524278768308133e-08
5.28356209123758123e-06
-3.85867449275484448e-05
7.17356053924755605e-05
-2.90884394926507057e-07
4.29836288106403032e-06
-3.71971535246191343e-05
9.0309398984158082e-05
9.85013302571959915e-07
3.98276428831490002e-06
-4.38241182714312966e-05
0.000110291752164724783
4.39379430024513413e-06
4.14669303651065264e-06
-5.45669048766608911e-05
0.00012905244227465174
5.46605849884039567e-06
6.3298818911618085e-06
-6.85613171291973427e-05
0.000164120496885228676
2.74445403459442153e-06
1.01872842802013359e-05
-7.7429142028210624e-05
0.000212681983658166848
4.41225141837450984e-07
1.81082600381966539e-05
-8.67114360733027968e-05
0.000237845457874408131
-4.20554917682069138e-06
3.40347581465416532e-05
-8.57345759293521583e-05
0.000240039103817731806
-5.83030611242463545e-06
4.48040551055839685e-05
-7.31090126984365346e-05
0.000220503422915437736
-5.89497291293137402e-06
4.25650957468413059e-05
-5.38422749755702851e-05
0.000184587820523190489
-8.34023393786892872e-06
2.31754787238321763e-05
-3.228525411950334e-05
0.000162859174697703359
-7.90639961678690515e-06
2.37888659113256104e-06
-1.11452875562353837e-05
0.000147994670365841267
-1.87883458361700135e-06
-1.62701485188375601e-05
3.46863936664734408e-06
0.000123329297014521604
-6.29849699609055506e-07
-2.34866114918359792e-05
2.03092553246347849e-05
6.30374061179740208e-05
1.88230950156709556e-06
-2.75625296138305384e-05
3.1457683826082816e-05
4.54427352769465093e-05
1.7968161303815919e-06
-3.31263191095384433e-05
3.02660326388251596e-05
4.1433584571386436e-05
2.34017774699438239e-06
-3.51526108278542581e-05
3.36490237433624965e-05
3.7425207742316271e-05
1.58973937559530196e-06
-3.79446364319741935e-05
3.6436093149421717e-05
2.98153403357845703e-05
1.12187589707881634e-06
-4.07078868760734095e-05
3.32639390431828968e-05
2.77025122046237603e-05
4.94060600857378896e-07
-4.10053729146953711e-05
3.22654304561938052e-05
2.76570884466630079e-05
-1.1738110232449452e-07
-4.01256850631161248e-05
3.05189596652153311e-05
2.88944596051934335e-05
-1.14682088877624147e-06
-3.86957188375506493e-05
2.97223438556876107e-05
3.13037211119015707e-05
-1.35851904972377161e-06
-3.8423646262635137e-05
2.89087232200688085e-05
3.45260911915672448e-05
-1.02487799185041919e-06
-3.83034637867065854e-05
2.84216810567844389e-05
4.13096535612611274e-05
-1.29354268313933641e-06
-3.87973106036291354e-05
2.78128780496296856e-05
6.92766322974994392e-05
8.57953874035789948e-07
-3.8717348805148707e-05
2.77044502558685638e-05
0.000136498308152197586
2.67363145213380811e-05
-9.32264079674285687e-06
9.32967269454682674e-06
0.000240902036073504242
0.000165080464642470534
4.84142460683692407e-05
-3.85553287399449806e-05
0.000162650195019442757
0.000486894169923498209
6.61799038887186789e-05
-7.28927071028911657e-05
0.000363078643028297515
5.66755981516797868e-05
-6.70977419598325198e-05
1.9046836568035467e-05
-4.11439284140511015e-06
-1.35066904984727975e-05
-2.10706369060319697e-05
1.64182481582882955e-05
-1.70059907615496492e-05
1.51647484200594564e-05
-4.35702099118483722e-05
5.10907381764209769e-06
-1.64789081356604217e-05
2.58151848876502838e-05
-4.92369532027806306e-05
1.08037862147140005e-05
-3.39034612198445265e-05
2.18733464717699368e-06
-1.19851820297969445e-05
1.26638971755804984e-05
-1.49204510135229893e-05
-2.00242818199017065e-06
-9.14371068563396299e-07
1.33619936043615647e-05
-4.13185615124374396e-06
-2.66796685241034908e-06
1.8882718875465537e-06
1.47966525061842521e-05
-9.6840178989772781e-07
-2.90758833109078418e-06
3.77910914422691683e-06
1.364502928326353e-05
-2.40297448660094584e-07
-2.65469345563948854e-06
5.43542144775983182e-06
1.65716439329276175e-05
-5.22513342890875146e-07
-2.96122311794614218e-06
6.22585805618963402e-06
2.26141499931133521e-05
-4.78595127750678042e-07
-3.65285047776361167e-06
7.11143647831471232e-06
2.60417398586784391e-05
1.13603310063457041e-06
-3.47101468117682458e-06
6.63176010329355238e-06
2.6494302285966597e-05
3.58023418965518324e-06
-2.97251006902750392e-06
5.50607676801871446e-06
2.56549048469561467e-05
4.49833932124721038e-06
-3.28580720124404387e-06
6.10160466781098094e-06
2.19681042554821503e-05
4.25640728212752798e-06
-4.02125084686787222e-06
7.10174198400580552e-06
1.6456674670512782e-05
1.61911513121249688e-06
-5.19630576671250767e-06
9.80747616150826121e-06
9.103583285643539e-06
-6.53234233134431206e-10
-5.11995109656756094e-06
1.23620246522399064e-05
3.52912806015935194e-07
-3.60686799414842588e-06
-7.0644367989363775e-06
1.34420489160325974e-05
-4.72201034105452689e-06
-5.25616350114511137e-06
-1.61708816529509321e-05
1.9575045416381913e-05
-4.90144591961193431e-06
-7.59337940811124577e-06
-2.87984573207511309e-05
2.67093904693859316e-05
-2.12913809785102851e-06
-8.50490489044552349e-06
-3.60618724121834213e-05
3.17568040937634148e-05
1.11140922638603365e-06
-5.45382099692163338e-06
-4.27794294803280695e-05
3.96753504051194596e-05
2.79396356558317385e-06
-5.01858339050274137e-07
-4.31341341498524245e-05
4.03166300089976735e-05
4.37284348983667837e-06
-1.75149132654789772e-07
-4.62378617557014638e-05
4.9107347924299962e-05
6.14791576677456997e-06
-1.04911790193521127e-07
-4.09944240600180584e-05
4.41833258016462752e-05
6.57960283499235286e-06
-5.02694992313576745e-08
-3.81209057892710566e-05
4.04776236149355823e-05
7.20960430646470316e-06
-2.83502961705104595e-08
-3.29105601636180546e-05
3.40464584483459148e-05
7.4141634649057117e-06
1.12077770252039463e-07
-2.91560180136632065e-05
3.03851348603257008e-05
7.33277890933651005e-06
-5.26083405777357618e-08
-2.62587316394662882e-05
2.68553145544806271e-05
7.59005090314020329e-06
-1.47353810356951615e-06
-2.13566873131257048e-05
2.22252814476515561e-05
8.9194275362666981e-06
-1.82477475214627177e-06
-1.85758785424702631e-05
1.8000979516230774e-05
1.21205104934689853e-05
-1.76127290033061446e-06
-1.7692520760854394e-05
1.51449117407048316e-05
1.69555301813856302e-05
-6.47590778118054959e-07
-1.97836034985716223e-05
1.56750865858888984e-05
2.40647676311754607e-05
7.67065487438736901e-07
-2.82348345623188707e-05
1.88877268122085089e-05
3.5330609914710434e-05
2.27772967130630445e-06
-4.56071204948309766e-05
2.9877789592782124e-05
5.87005613314051355e-05
1.47076061343516644e-05
-6.85435113906782145e-05
5.14073841982788337e-05
0.000100894371739164706
0.000114982718450632609
-2.64156110399231887e-05
2.46810433309406046e-05
0.000124796059516824075
0.000492008306576512599
3.88889342310656068e-05
-4.52543870911058569e-05
0.000495844557900684694
5.26438738101047286e-05
-6.14010715500651116e-05
4.97932126642091754e-06
7.19693753641111578e-07
-7.05016228603335071e-06
-3.49679121734366279e-06
-1.30688046273540919e-07
-6.08417456607260637e-06
1.02883310607761598e-05
-1.63072853815618691e-05
-5.60595857434589084e-07
-1.41351018394582033e-05
1.24100372802609161e-05
-1.36114998115512239e-05
7.89804980765149747e-06
-3.78041175732727111e-05
-7.58185836298710786e-09
1.78272178939733987e-07
5.95952727201545931e-06
-1.38192051473698297e-05
-2.20775811798535032e-06
3.26431426264225393e-06
4.88319748090480511e-06
-3.280217743646074e-06
-2.06512131665276993e-06
3.02616729669480999e-06
4.6586014811912731e-06
-5.75184915609312126e-07
-1.82544987339749424e-06
2.70017685269692038e-06
4.23079053570502309e-06
2.96939244704720686e-07
-1.9070403047168984e-06
2.69671955276665771e-06
2.80049238277593238e-06
1.7174695836265023e-08
-2.25513853882050605e-06
2.82107019692395441e-06
2.45754210329614996e-06
-1.24178224471010508e-06
-2.87822262403321866e-06
2.90253107033357386e-06
3.7001594989554485e-06
-8.83373574526409215e-07
-2.89492070200858123e-06
2.67634228339356737e-06
5.70153563397218666e-06
9.48713350390096953e-07
-3.06120904413429051e-06
2.51518316360341959e-06
7.110839931393179e-06
3.13785544563348293e-06
-3.41770327582630651e-06
3.00608547949279938e-06
6.48204916678755831e-06
5.19296697296002982e-06
-4.93848391012501412e-06
4.91370905019218126e-06
-9.72769901089874861e-08
6.38466188414706128e-06
-5.44911588378763579e-06
7.76600630813791927e-06
-8.77214198933987705e-06
5.82395556284773853e-06
-1.05973422868504071e-05
1.66207199504342032e-05
-1.8186904775988138e-05
1.22470626006182636e-06
-2.07288613837748573e-05
2.42076343955842999e-05
-1.73266246609011502e-05
-7.08470706942446963e-06
-2.50945385914860808e-05
2.02777920727809018e-05
-1.53964027203691202e-05
-1.07367380936871081e-05
-2.55979787477184538e-05
2.51179967310749751e-05
-1.23977657186683154e-05
-8.58759373575477114e-06
-2.82245805472358231e-05
2.58654932320165671e-05
-8.6546384235148667e-06
-4.06811246734261093e-06
-2.9263698169943429e-05
2.58056960812023636e-05
-6.18970828801053518e-06
-1.89299712027109253e-06
-2.21633152315341482e-05
2.20460984622070109e-05
-3.62050267293073405e-06
-1.48726505832274117e-06
-1.75863606254891442e-05
1.86211902726612879e-05
-1.64711098740662284e-06
-1.40557982211022949e-06
-1.43842340296637477e-05
1.49917519895475725e-05
-3.80701539418247596e-07
-1.17108829626428021e-06
-1.32404922543525535e-05
1.38011338857028636e-05
2.64100287007716336e-07
-7.22331700723511677e-07
-1.19690995924432266e-05
1.34886504052612314e-05
6.32240848872949834e-07
-3.42248616517340453e-07
-1.22768451880717657e-05
1.27348822644765101e-05
9.18518361862098784e-07
-4.99420359075166855e-07
-1.15431988950462147e-05
1.19283707155045315e-05
1.37134350530932866e-06
-6.25434176448712597e-07
-1.0401265595156561e-05
9.75812583685862197e-06
2.10016574071474551e-06
-5.70233086441829977e-07
-9.26798229635567694e-06
7.65560039453273922e-06
3.79578091968086209e-06
-7.65034292219047346e-07
-7.85139688898052582e-06
5.37748856822729346e-06
6.42910448419178325e-06
-8.8644193857339639e-10
-7.59247127965091967e-06
4.37113070254548514e-06
1.09635277377218036e-05
7.84381093672044604e-07
-1.08127698787591434e-05
6.8385776729828542e-06
1.8059218148621286e-05
6.24923951584858271e-06
-2.97934935181045305e-05
1.7708459680246613e-05
2.97773411570947614e-05
1.85636069576023507e-05
-6.67230826423778362e-05
4.7977210116823949e-05
5.11379881171108069e-05
0.000105215984158435778
-7.3479758196867573e-05
5.51045296107044124e-05
8.28295789091848203e-05
0.000474559294160389292
-1.77533875318698934e-06
-1.4425454305253771e-05
0.000585600345171065806
4.27068562410622046e-05
-5.15974856027059286e-05
3.09396787183050687e-06
2.25752559188399933e-06
-3.65105021461275264e-06
-1.71615628422831985e-06
-4.27905267565732996e-07
-2.17932408797668575e-07
7.22566589798604331e-06
-9.73901869152091382e-06
1.681828891016381e-06
-1.76152117980345345e-05
6.36588027168501123e-06
-3.70309232098457315e-06
4.44163883491853779e-06
-3.21505936732913356e-05
-1.64534485101519779e-06
1.91957687767475374e-06
3.72208098047423124e-06
-1.02000266511522838e-05
-2.35234444449974709e-06
2.5534711649514901e-06
1.63149597204236453e-06
-1.01227602207386453e-06
-1.75117312644732105e-06
2.14226412924332209e-06
-2.54102896553249207e-07
4.98823733974309711e-07
-1.4519513221905236e-06
1.89094797895868369e-06
-2.01094639807396509e-06
9.95048503533825656e-07
-2.35192188124886966e-06
2.42541061342690075e-06
-3.24681160062950782e-06
-1.00365190992843833e-07
-3.11841527126659864e-06
3.56394194836921785e-06
-4.09789273396234545e-06
-1.29218698394916902e-06
-4.05296180318991879e-06
3.95427877840268823e-06
-3.73163912674389253e-06
-1.11683876270487461e-06
-4.50025663115449949e-06
3.29010858143728177e-06
-3.19721356223654446e-06
1.74780708054302316e-06
-4.90164305069500736e-06
2.68703326852930776e-06
-3.8218193149515195e-06
6.26836528071447423e-06
-6.72463344046420892e-06
3.58548058953140138e-06
-1.01358845426566232e-05
1.27708551987573757e-05
-1.02671152640676591e-05
7.35665784791879304e-06
-2.00831686133866305e-05
1.17970713436981923e-05
-1.59211011599364546e-05
1.41634007477599699e-05
-2.3612395750153531e-05
7.78653807342193533e-06
-2.20464244184022566e-05
2.35873942046801423e-05
-2.44280974503170527e-05
7.40393499761534356e-07
-2.61492117131922417e-05
2.40804130769606712e-05
-2.50284908363288211e-05
-4.27038424257441712e-06
-2.8550814564688466e-05
1.89911168375875293e-05
-1.82862067349588646e-05
-4.37208303185161708e-06
-2.80761806837338915e-05
1.58833268783821299e-05
-1.15978752947970588e-05
-2.70271461571769202e-06
-2.10198059391851872e-05
1.46921162839368602e-05
-7.23144363879506666e-06
-1.73558772637160934e-06
-1.68689098979096441e-05
1.10868508014188733e-05
-4.59453890112138172e-06
-1.57406267736320722e-06
-9.66567950209410454e-06
7.12510452757582717e-06
-2.81804848787652555e-06
-1.88303957274247011e-06
-6.80077676650616314e-06
5.13123925027984525e-06
-1.43832552695342464e-06
-1.77408323675924333e-06
-5.32102064332353777e-06
4.25023642150455578e-06
-4.44449285129511536e-07
-1.15617481208686889e-06
-4.91142097805860597e-06
3.97725002612294239e-06
5.1816569042871532e-08
-4.54587992465869092e-07
-4.51288908565674078e-06
4.07893092669851396e-06
2.22340305975259242e-07
-1.70524520988591389e-08
-4.79679633277673535e-06
4.80175211550446018e-06
2.47981068585832058e-07
1.19365246462204124e-07
-5.151158733768707e-06
5.02307397642602355e-06
4.63749924308540323e-07
2.05844116786294568e-07
-4.72024044704484024e-06
4.34089001150091972e-06
1.10126162959284851e-06
1.42792374082582118e-07
-3.97533328021707453e-06
3.50632510703884018e-06
1.71018712001579761e-06
1.06455022538232246e-07
-2.75176737170953999e-06
6.10812061067607801e-07
3.15708067212233527e-06
1.13470780836770938e-07
-3.57465065663857866e-07
-1.97874082755574359e-06
3.09229750881114065e-06
2.43025306837373111e-06
-1.22963689403038164e-06
-1.10264172087451681e-06
3.4442950741076019e-06
1.11845710754059412e-05
-1.4450612964720118e-05
9.62395536410517605e-06
5.17080676012276691e-06
3.16059547666787969e-05
-5.40135691494916413e-05
3.97998489197863106e-05
1.49949996184983286e-05
0.00011469668992708027
-8.74193077473639805e-05
6.40176789605112067e-05
4.57303302692125429e-05
0.000385247759110573845
-3.40088528179624183e-05
9.12994360699587149e-06
0.000630775079375274993
3.19249600008869865e-05
-4.28480936017702356e-05
1.55980444554644828e-06
4.43834672044314773e-06
-3.21658692432647259e-06
-1.0167125023854942e-06
3.7702906854862757e-07
8.74724462156212542e-07
7.39421647534507277e-06
-7.51342002032796451e-06
2.41758568404909922e-06
-2.02960911901689178e-05
1.23532046140043065e-06
7.58611131854751285e-07
3.29823678921256374e-06
-2.78599172453987777e-05
-2.53208861572276026e-06
2.86078229689603713e-06
1.08220387103124911e-06
-7.14607533260559378e-06
-2.06161313288205276e-06
1.90516830068629953e-06
-2.43044613663469038e-07
2.04629366239109013e-07
-1.19788819282479065e-06
1.28512277120362026e-06
-1.59849808123183011e-06
1.50770626352310377e-06
-1.27858533860021866e-06
1.09704544596953703e-06
-3.68087340118917566e-06
2.10901117304422087e-06
-2.07624494542512584e-06
2.00110082967318423e-06
-6.88605572367533135e-06
3.47503219877001911e-07
-3.97748704645781395e-06
2.88154813054478677e-06
-1.13737599793604092e-05
-1.26179877839456102e-06
-5.47979917693302035e-06
3.53978665465442025e-06
-1.47852806922761967e-05
-7.79554829435040314e-07
-8.26255175133669844e-06
4.26885669476685846e-06
-1.62855092808251202e-05
3.42411240512214593e-06
-1.12402464080583735e-05
5.38800844883192957e-06
-2.09419288499968071e-05
8.17694488853036354e-06
-1.34507493583500655e-05
7.26643727702570323e-06
-2.44427819605372092e-05
1.07218841114754543e-05
-1.57903706546415479e-05
1.12691273554413834e-05
-2.62169661150871528e-05
1.09351477088323339e-05
-1.78471335842408407e-05
1.77216038395656587e-05
-2.69121590154034745e-05
6.16152190957490409e-06
-1.91642460231132094e-05
1.84336287050709935e-05
-1.92480098703159219e-05
2.15717801535360602e-06
-1.7712864787300654e-05
1.34740845058929026e-05
-1.41079751494429133e-05
-3.83755106367895378e-08
-1.39629201672933298e-05
7.43804404751260739e-06
-1.08731697542405215e-05
-5.39919803111197169e-07
-1.0977904763422079e-05
4.482154594452127e-06
-7.95168741820564131e-06
-8.86733258376490964e-07
-8.07754282603192921e-06
2.93951783889590261e-06
-5.60065947650235192e-06
-1.4301522838590317e-06
-5.01702008268424951e-06
1.92627031763573072e-06
-3.968026424281852e-06
-2.33407327467591414e-06
-2.39379791791035186e-06
1.19079060822835301e-06
-2.47191258272284405e-06
-3.03282696183739357e-06
-1.26668983550007148e-06
8.00311121994252979e-07
-1.14525915137396019e-06
-2.87029447616238399e-06
-9.34130837021419378e-07
6.08811728864043888e-07
-1.96940047310523285e-07
-1.82501272162036776e-06
-9.43057572957977067e-07
5.85669672037043878e-07
2.38074324125299813e-07
-5.72402351483471976e-07
-1.12151736764330011e-06
7.33808239287354652e-07
5.15741613758658995e-07
1.54339593404021346e-07
-1.26720186085978491e-06
1.24576816928664129e-06
7.9460677201192896e-07
5.76728777236047873e-07
-1.75315191955975534e-06
1.49704747800963403e-06
1.57459940970241351e-06
5.4454037342820232e-07
-1.86253054124031224e-06
1.39148143963779701e-06
3.33449828865409636e-06
7.22083908079713324e-07
-1.35861969708533411e-06
2.6485035409973983e-07
3.69775203968340034e-06
1.28075619557855813e-06
4.19374096891704126e-08
-1.64822403605622827e-06
2.7662976195263552e-06
1.93678030118030646e-06
1.83138002886492771e-06
-3.58510762330056541e-06
-3.38890687865684153e-08
6.89519502440337172e-06
2.80544193199163589e-06
-3.74778038951697242e-06
-3.53630996535754697e-06
1.78889811474045959e-05
-1.33224993109498358e-05
1.00791889188540877e-05
-6.01574868672773477e-06
4.81706104600812291e-05
-6.04849095554575478e-05
4.55082685404791521e-05
-9.07529714716096938e-06
0.000143638400002761514
-9.57784583461761073e-05
6.53183166042183879e-05
8.74109263118966179e-06
0.000345039133033450522
-4.07712067660772685e-05
1.70871972907498526e-05
0.000646033635358545357
1.76456257456160875e-05
-3.21476854464675864e-05
4.97081724267990063e-07
7.06879134249880512e-06
-3.81574017959696247e-06
4.364159714977572e-07
4.1099868922516208e-07
-2.12432983837980678e-07
6.11595797184276102e-06
-5.22474187195686441e-06
5.66366417224876736e-06
-2.5119888879498267e-05
-3.21752128758889281e-06
3.85511734707554441e-06
2.62010122036597614e-06
-2.08036785069915623e-05
-3.32602092889199907e-06
2.86955412376594409e-06
1.37972915231821347e-07
-3.25879904107883489e-06
-1.567030644204918e-06
1.27960442363247447e-06
-9.28831329717848819e-07
1.10572571034021834e-06
-7.5999932624395959e-07
5.98342873751138483e-07
-1.40376222751113218e-06
1.93568721411093204e-06
-1.03715392609820706e-06
7.90037992050099478e-07
-2.42096425085615751e-06
1.53844948735119638e-06
-1.75452046617217365e-06
8.93661720475554223e-07
-6.59403509585553105e-06
4.59623629688050175e-07
-2.2691389451985345e-06
1.62548748546910544e-06
-1.14305872723080751e-05
-1.12231029450988472e-06
-3.95057870156384321e-06
2.46281380648597483e-06
-1.70125419768492157e-05
3.06767541632156108e-08
-5.78833353996542775e-06
3.32457651884311675e-06
-2.21506463494701918e-05
2.7892627761264025e-06
-8.2525743342742581e-06
5.39703562479257784e-06
-2.55036694823462894e-05
6.48919511349014918e-06
-1.02037905384997611e-05
8.30634311789074664e-06
-2.6050304314800677e-05
8.8419301109122843e-06
-1.16075818011903706e-05
1.07912541541500221e-05
-2.16645251128143403e-05
7.77635591469755339e-06
-1.13062528606615185e-05
1.10275353298383428e-05
-1.17615298579698741e-05
6.43163076149627794e-06
-8.53449351856036034e-06
7.37281176223170761e-06
-8.91491942821386284e-06
2.59378595705082223e-06
-4.77451980684165158e-06
2.05746936767399316e-06
-8.07181068319612312e-06
9.24165434492133187e-07
-2.52468308541118886e-06
1.18996705587561959e-07
-7.78260512475999712e-06
-8.65071723177226378e-08
-1.06661020101176755e-06
-4.37209393854157504e-07
-7.15855494587982487e-06
-8.72423182608871874e-07
-5.47396372704275086e-07
-6.36973311862204855e-07
-6.31607540781192747e-06
-1.76923727111594328e-06
-1.68749477519973364e-07
-8.13288491058338631e-07
-5.10138804230628332e-06
-3.00423862775769004e-06
1.69255498192790677e-07
-1.10791517861729412e-06
-3.67250314278188781e-06
-3.93596123628152207e-06
5.22723638260094886e-07
-1.37110946761430516e-06
-2.10481191777671871e-06
-3.92780622500004821e-06
7.82180375566166845e-07
-1.59097092380415696e-06
-8.12756976586514804e-07
-2.89457275592675585e-06
7.512806138539767e-07
-1.29532749622722433e-06
1.11820783607683948e-07
-1.33411203314450254e-06
4.57271470253000115e-07
-7.32087997131705391e-07
6.99475572347851171e-07
-8.058610336756793e-08
5.46909578660016142e-08
-3.633873776044148e-07
1.56297846664548837e-06
5.49526775073326927e-07
-1.97377145098164532e-07
-1.93956856226360213e-07
3.51863278908125069e-06
1.0955580747755422e-06
-2.16236792211844177e-07
-3.59520005046956804e-07
5.13687352296764471e-06
1.92806321351303904e-06
1.19958318916223214e-07
-1.13541787970491492e-06
5.28098247028827079e-06
3.26918601222016213e-06
9.86034999373089609e-07
-2.64931971279823678e-06
3.64432013947875645e-06
4.72666993360559137e-06
1.9855544426394309e-06
-3.568984834210308e-06
1.54435398346980251e-07
9.51240563117014051e-06
4.55326074100283151e-06
-4.29938699945428815e-06
-1.60175985040790936e-05
2.98885240470373481e-05