/*--------------------------------*- C++ -*----------------------------------*\
| =========                 |                                                 |
| \\      /  F ield         | OpenFOAM: The Open Source CFD Toolbox           |
|  \\    /   O peration     | Version:  2206                                  |
|   \\  /    A nd           | Website:  www.openfoam.com                      |
|    \\/     M anipulation  |                                                 |
\*---------------------------------------------------------------------------*/
FoamFile
{
    version     2.0;
    format      ascii;
    arch        "LSB;label=32;scalar=64";
    class       volVectorField;
    location    "0.990000000000000657";
    object      U;
}
// * * * * * * * * * * * * * * * * * * * * * * * * * * * * * * * * * * * * * //

dimensions      [0 1 -1 0 0 0 0];

internalField   nonuniform List<vector> 
7236
(
(0.437911035735255583 -0.136719214803328798 0.324284343114860152)
(0.761214042666797264 -0.135992351454969296 0.589328076738887763)
(0.888986226955707726 -0.0927950616462264871 0.596853484588977357)
(1.00829519200382078 -0.0702527751998335143 0.589477164471470583)
(1.12121845600817549 -0.0480724206186345648 0.590431721051959291)
(1.20701682137293176 -0.0325357284288191467 0.601340275157869586)
(1.26910658237372886 -0.0225717881212520663 0.613379012446140792)
(1.31819118674779334 -0.016516434363504931 0.625313619280248756)
(1.35915991305376793 -0.0120657679882052796 0.636418219680383146)
(1.39233775057964593 -0.00895129156772216279 0.64870068133915848)
(1.41625874022734211 -0.00590322096653445039 0.663390710780078052)
(1.43078070546049596 -0.00454289186070612819 0.678577180662938817)
(1.43890579777361749 -0.00467707118993672399 0.691717870587517547)
(1.44360289308228396 -0.00647188195057654941 0.700887289568920324)
(1.44738657383419556 -0.00944539344622175557 0.705265731291144116)
(1.45536126627757545 -0.0147934097972770868 0.705172811927551546)
(1.47237622669198909 -0.019925264730016358 0.700492409923968773)
(1.49997952600850737 -0.0231664223181183571 0.691031054433970726)
(1.53518023577999307 -0.0216175127505975687 0.67590030911375254)
(1.57131155968521363 -0.0176086252889038931 0.657541827246398425)
(1.60387831163836525 -0.0128974081551364063 0.638571945472477975)
(1.63254589994731636 -0.0106390352338713336 0.62077275959053313)
(1.66123071697503799 -0.0116566419431835926 0.606737049758571123)
(1.69068719144160484 -0.010755174011702482 0.596408004503298006)
(1.7174547935346689 -0.00861226081559581316 0.588314483683479938)
(1.74242372917394062 -0.00732000378579530583 0.580994066588255142)
(1.76690071132746951 -0.00651429768730621764 0.575483525390513284)
(1.79074568596577333 -0.00558525964723811247 0.572428510727622353)
(1.81385028349912258 -0.0049397708330938938 0.57093251485772778)
(1.83421138398772721 -0.00298653810264427368 0.569283409365649029)
(1.85056367188135695 -0.00191354831951207928 0.565637684824429776)
(1.86025986202819604 0.000808329010589386131 0.559617715598994536)
(1.85000872101049207 0.0106906248299630195 0.548585193213274036)
(1.7776706378833973 0.0438712150936326206 0.521964855003927974)
(1.57308276848522377 0.122314256671703897 0.45778061168378148)
(1.11596431905041138 0.231491694847272278 0.324585596465169379)
(0.328719447523045494 0.193281586685495249 0.116045853000010524)
(-0.311155833250045866 -0.057069821846033611 -0.00246895511616874661)
(0.428463691735890606 -0.253033618831427387 0.287898073377908181)
(0.741368778621577462 -0.251533500439209023 0.482770369221809603)
(0.907618291269857269 -0.245605677237877129 0.586930415096057811)
(0.995722487491736641 -0.230410866175651458 0.627966769052165419)
(1.09094143386888631 -0.183266262986945067 0.639077992957258867)
(1.18038813408341614 -0.142291055619105905 0.64544986494241896)
(1.24854519664443941 -0.113950913229020484 0.658735688269655895)
(1.30285569161612735 -0.0958242498798093922 0.660213504693708098)
(1.3505839583598005 -0.0806759449892979902 0.659341213257854442)
(1.39483893549834748 -0.0672127973044191473 0.662041577871232301)
(1.43039280014962644 -0.053849131727123252 0.672115974727418464)
(1.45270503743269952 -0.045120984997237705 0.686517266856772723)
(1.46286925382506205 -0.0385972887625781608 0.702168296205162079)
(1.46419872496811432 -0.0361310213991433496 0.716083721313347965)
(1.46370482712046424 -0.0385551076765031434 0.726174008748769251)
(1.46901049017551966 -0.0511932317357231548 0.728656602958779764)
(1.48695889678673732 -0.0673104466206077001 0.721270446238841512)
(1.52054133452296614 -0.083409337189927879 0.704107707035188546)
(1.56402388673730353 -0.0883309110718695223 0.677815393819009904)
(1.60841440842349415 -0.0860638006043826786 0.646187234118245968)
(1.64781913348449494 -0.078684792565958811 0.616623719456173669)
(1.68018665173863235 -0.0725365584888225529 0.589027033239568731)
(1.71320522554474053 -0.0748252342230786294 0.562564181990584666)
(1.74791532162590779 -0.0751432151734894166 0.538844806454483294)
(1.78476451387452872 -0.0741810184399260691 0.517023506560535639)
(1.81439983263454874 -0.0736053275057676482 0.49499995038329031)
(1.84110693845788087 -0.0719499240312156951 0.4748911217577374)
(1.8653562016694698 -0.0693372216489679671 0.460468465994483656)
(1.88710667284420408 -0.0670666786056074438 0.446227503808381165)
(1.91095452643562469 -0.0620622815176600159 0.437852002317919597)
(1.92954132460979033 -0.0582747505239380736 0.430509222542949099)
(1.94968622004616243 -0.0531858573579602548 0.428179092342294176)
(1.95841649819767394 -0.0365660963510985801 0.434717380785598739)
(1.92905248040893951 0.0150829605427918734 0.444354766795262424)
(1.84460122545199678 0.140989036314263905 0.428988988743048416)
(1.58833298446466276 0.410837390291737492 0.398963676295042313)
(0.896280046978086609 0.511479169484153173 0.268892347736080672)
(0.131616763095428524 0.211928791568460145 0.157839292623825372)
(0.385435151602092241 -0.191771345834031604 0.171769913444246747)
(0.762381847078051123 -0.339322114922629869 0.44530388089387507)
(0.747072951986821332 -0.333464128770194823 0.673970830183742931)
(0.674964732303307446 -0.286074330945154776 0.65014504392677952)
(0.852152757047117682 -0.206475859864522659 0.532278968744803849)
(1.06971143055978346 -0.137929637810517036 0.464036204960725618)
(1.19350942116930514 -0.0919107204465913208 0.45179719156890974)
(1.26933309600194666 -0.064397848015556633 0.44249252100871278)
(1.33852174652186307 -0.0417842244201718782 0.418806927592002443)
(1.41466582500002125 -0.0236184536962115062 0.396438635420421237)
(1.46546368110707359 -0.00180493938554899397 0.403473608952407581)
(1.48956052335632338 0.00292455606675239271 0.401684050654950664)
(1.48511740938983827 -0.00156583899617307714 0.429743393887297598)
(1.48375241920508882 -0.0140714153447978087 0.444519276675660768)
(1.49125845307385019 -0.0320589889199727474 0.451286898913119572)
(1.50438348835176794 -0.0633566503920394014 0.444150137852668547)
(1.52538584938286381 -0.0940613750321460801 0.411267626099679984)
(1.5555577457999894 -0.12394397772093993 0.342560923454510502)
(1.56966876831247992 -0.126488115151184688 0.21028687957118547)
(1.59728263680260252 -0.120239174466795704 0.0370534527566681454)
(1.6334159616977959 -0.106936874773312693 -0.111420316675138409)
(1.63396639009356415 -0.0869954898899079343 -0.295435600356904526)
(1.61140712470954117 -0.0539323240669666304 -0.583459085396305421)
(1.54912820639837356 0.0070148133295466087 -0.96662030653962483)
(1.48257754207864734 0.0335624217964106408 -1.20676531442380508)
(1.44134556207677367 0.035687883743586675 -1.34879701363382143)
(1.31057787671051695 0.0441501681626259232 -1.56863340025360931)
(1.24947677716453787 0.0301130690531027541 -1.62237465668175451)
(1.26494192687682827 0.00286271556336863131 -1.57510412849298587)
(1.29989851867735817 -0.00216395668259819745 -1.50963675963909294)
(1.3417955603900813 -0.00517950586310990477 -1.43999553006511349)
(1.38702766188535165 0.00027808496742316377 -1.35651928508418607)
(1.3892208316458694 0.0298341172910815862 -1.26757757923452918)
(1.42348616341255663 0.127421420011937125 -0.872139639068626349)
(1.47486351255369641 0.334320763870477933 -0.162505332202218189)
(1.44506018861353414 0.683718528443734819 0.237696349267057738)
(1.04282445760497056 0.838954224422696293 0.283692746043409827)
(0.310606981910004354 0.478275403707196511 0.229528192841356782)
(0.224651887489789204 -0.137848626052092443 0.00473137773733366129)
(0.632676764461467922 -0.356365409750729056 0.44656684310002831)
(0.211579378622108849 -0.289439973482281843 0.8202787308398789)
(0.248707549594614524 -0.32349238263032204 0.243752700668225297)
(0.810485358272974854 -0.239750824017885694 -0.158981521651176627)
(1.29938868574584188 -0.0929311905810855793 -0.309128878406666863)
(1.50256156679778718 0.016413947853013533 -0.362589656680402939)
(1.59192427433154848 0.0701522813100419751 -0.415242019958396047)
(1.67929072511505884 0.0736390094592952738 -0.459512124476795125)
(1.82175247328062695 0.082784139363373449 -0.466748371132150675)
(1.8826009019321357 0.145330227838222581 -0.435509269932914778)
(1.82480915786568776 0.193828807980377965 -0.359467357129315157)
(1.67587235160819015 0.220782298619687206 -0.29010357521035246)
(1.4505153432765141 0.206786166429071799 -0.289469691183410316)
(1.12294125253174837 0.163935539066038 -0.397299692415323258)
(0.849830835066305523 0.0267035163215974397 -0.537797324888850237)
(0.287586589150679806 -0.0380497229690940769 -0.825447064451948043)
(-0.289071648204130116 -0.0179799259753644219 -1.52453339521346232)
(-0.438475008731421645 -0.031894538587365788 -2.0598042709725437)
(-0.299108244819453029 -0.0391023201465396583 -2.3284748077324422)
(0.0469700217016628604 0.0703092942370504709 -2.36376479799525185)
(0.111481637980760995 0.176397647510496969 -2.49968889238746517)
(0.195067547928818807 0.22881183090229637 -2.47390643412968192)
(0.284803730533585209 0.24011027581605926 -2.44203277388990436)
(0.362103370677134606 0.172700025465999107 -2.3130773220581875)
(0.433000044881737489 0.125730227249189364 -2.18656775213546828)
(0.469814865701315476 0.0718661726522310529 -2.03918764385701223)
(0.488635654958600396 0.00526117941699220937 -1.88046261154138405)
(0.512103016996246607 -0.0438051991613119529 -1.72230357940526435)
(0.562097324764425532 -0.0554828099706437886 -1.56363649266484273)
(0.641942537367597987 -0.0599448464688400462 -1.40797058636641359)
(0.731184709640738562 -0.050403514473218905 -1.30904868741903879)
(0.773287368894851168 -0.0535218201349462394 -1.32464673089690943)
(0.7996925388856162 -0.0138834678809874185 -1.4897648371009955)
(0.780307662856903228 0.2776281439578977 -1.30170097355382786)
(0.913298179471642158 0.855913056402586636 -0.314396504595650161)
(0.894961522277657684 1.09878759593917641 0.180437112505830805)
(0.310429416364232436 0.800572641938544716 0.218586998588635145)
(0.0683933948790309276 -0.0130445869599578462 -0.108242647040195733)
(0.450242939316224833 -0.259198403718552794 0.618011362502975281)
(-0.345788642082206943 -0.226352338925613128 0.884442250596333301)
(0.40962940084010635 -0.75203777832735752 -0.0027482243063433609)
(0.895036182566281591 -0.564160368460261075 -0.26302199205229998)
(1.21350337065702063 -0.240754506774224469 -0.362855254772968316)
(1.21275624170321694 -0.0969359652665833099 -0.431729988135063358)
(1.12667697508571263 -0.0290928782729614685 -0.542286824643968712)
(0.836456409297391512 -0.028972155386057831 -0.71897116712333542)
(0.49879633569805637 -0.0959183645072677477 -0.755425937098490707)
(0.655638251128143335 -0.0267628781431271737 -0.631898732519506567)
(1.02972679090146846 0.122535456732387277 -0.551210180481739087)
(1.06775017757424662 0.233352785954698272 -0.562754288783404388)
(0.927913886649043729 0.268988135609707524 -0.620960341341590949)
(0.386305946493129493 0.247662358529859711 -0.741944437041460292)
(-0.295471833511080195 0.126675789863797933 -0.926071331184822433)
(-1.11418989352362718 0.00370671166719011014 -1.59092368671629569)
(-1.24482850172084403 -0.189230659589721129 -2.08066592309890863)
(-1.10287114898827698 -0.319322974126492798 -2.24221474269741261)
(-0.947670008132550645 -0.334677891417496376 -2.39095151067861877)
(-0.794065756115730936 -0.211677485811422317 -2.53902563687849403)
(-0.691383071470702881 -0.0886741331440655811 -2.51787550003831972)
(-0.541342253404777374 -0.0278201143040166451 -2.32984136640757455)
(-0.321149943442416874 -0.00657485249566654682 -2.17086082130554203)
(-0.126545511494293078 0.00838751138269216989 -2.04385977865706847)
(0.0117323982434377611 0.0112027547493575574 -1.92161552837147287)
(0.061221426987902533 0.0127825815910367208 -1.74995813761281549)
(0.088814555360697392 -0.0138198272160571373 -1.56710442524131688)
(0.118657995051628662 -0.0408675193725520913 -1.34575627512478069)
(0.189557280346194235 -0.0471535331229595497 -1.0918102112004926)
(0.293951151561558377 -0.0487171256035661068 -0.815757016908462584)
(0.420023066574486459 -0.0125177661945442761 -0.677262182635550825)
(0.458208562974083522 0.0873654227890713897 -0.706000043988175285)
(0.505594612689423628 0.129056900615719616 -1.15384968029485124)
(0.384790665080936956 0.241274344659333673 -1.68820126746279553)
(0.368634965147588978 0.854305195943711126 -0.895880421533426952)
(0.645774343455832844 1.2236769404844281 0.0268616676369067969)
(0.241262880512229605 1.05193913566481978 0.185511387712546411)
(0.0540241603575125143 0.0903585722022577781 -0.000706908673712258739)
(0.257222447165883716 -0.0926587676527420995 0.824851362873499472)
(-0.106442043171692799 -0.414436159596416942 0.443600038273017749)
(0.503094551347132102 -1.04326178242241863 -0.180762998308862999)
(0.693517054875488315 -0.676175290861329326 -0.368540698034082848)
(0.790110824464658412 -0.19630777563527585 -0.454123840307767757)
(0.37676349210260579 0.0827181796887661858 -0.580918522186137931)
(-0.405530826159803792 0.178164797982882928 -0.861849325481921724)
(-0.783196937274685423 -0.00216305797273455558 -0.873335975394482933)
(-0.982584936068202408 -0.158930789586763266 -0.824649172225917049)
(-1.00232489527108504 -0.102885804652515317 -0.749023550418695727)
(-0.704083534779887055 0.128389379499517509 -0.691446278474459053)
(-0.4365090122312692 0.350617325465798879 -0.725734822157722448)
(-0.602529283296621032 0.460277727521960833 -0.887139765393308299)
(-1.11692522563842056 0.343951197562255728 -1.17245753121580143)
(-1.4437685981346291 0.182111456611725564 -1.46491095246209535)
(-1.62823663931247142 -0.0459505019039685159 -1.67778240059220818)
(-1.68655653303604192 -0.280060875108637863 -1.69789319150479079)
(-1.67787689323718481 -0.353680647286927163 -1.69172549270008488)
(-1.66497661780462192 -0.332743131313393004 -1.71944963586508837)
(-1.6204894713953355 -0.246787326616463576 -1.73807805195792842)
(-1.47218699764574579 -0.220895394082582519 -1.62651143831764533)
(-1.13785624694401966 -0.275891676324723001 -1.50430762484808644)
(-0.68293739664235642 -0.282222372920592601 -1.44564440991482113)
(-0.278854748109499506 -0.215376801752332758 -1.45386442108841485)
(-0.0261314553251880202 -0.111533802811672397 -1.46636760661384113)
(0.0653895943932600587 -0.0421654044069060818 -1.39766407248835733)
(0.0451941133763560932 -0.0333098359943057587 -1.26629793638520871)
(0.0492690148906116399 -0.0218470984683121483 -1.02053570634209323)
(0.121056219885020522 -0.00048300473904037966 -0.677818222676349391)
(0.237652619871245585 0.0173574728287223534 -0.268589675152180574)
(0.230126238637037905 0.0690964748611435642 0.123528125668408845)
(0.157457381361287063 0.253312192033827877 0.107125376254958771)
(0.179785011724791138 0.299161165556026787 -0.788945697059398432)
(0.0782264455160895655 0.289475799656828403 -1.7667510940765474)
(-0.0432836699897157506 0.83785698744538073 -1.23805459912714855)
(0.377121551961127066 1.27811596573844266 -0.104678245394504432)
(0.15267042270789033 1.19881599109990611 0.149337512542137119)
(-0.0285824081316654321 0.229151393328875352 -0.0516635153648480755)
(0.0763026291928576711 0.066608487744997058 1.00020975813825141)
(0.238388819220948067 -0.705500571896953144 -0.0348922986882972269)
(0.536936719712614474 -1.20932043697791403 -0.337685588959241723)
(0.525782523672512436 -0.676599247684848693 -0.414149516467732182)
(0.366694436768057852 0.0602150894764872102 -0.484789146313427399)
(-0.435355105523609676 0.379987230416962196 -0.654286611001870133)
(-1.05261707698887341 0.25238018676317775 -0.77124042250889735)
(-1.47037610835878207 -0.0389906355935294713 -0.802337063392902339)
(-1.74674361275724133 -0.169347117730882596 -0.82995090039925512)
(-1.90587602239171439 -0.0897108614010005967 -0.880105372767256977)
(-1.87830087823401937 0.134070809220966841 -0.925788684777051007)
(-1.75926372009743925 0.351419352013284836 -0.99399608749043189)
(-1.69357479943796219 0.4437023113120111 -1.11352346230699206)
(-1.73335260611010855 0.377878750197749302 -1.24379324804294145)
(-1.91974941557943746 0.212555359643841535 -1.29378768888370965)
(-2.14470619677448626 0.00307411852510849903 -1.18433259771871846)
(-2.5135063957799888 -0.152651666834446281 -1.00310770981922714)
(-2.75295405927557102 -0.191306023311497542 -0.905332803449055201)
(-2.81990937875054959 -0.174371437156053632 -0.874251484063689355)
(-2.6433588845454099 -0.220981543256295959 -0.820791732221192283)
(-2.16896537427530856 -0.415605400909323963 -0.661594834550542132)
(-1.56915571654950403 -0.571350419448172331 -0.504861573604468594)
(-0.952366842535278257 -0.562467572154661144 -0.45925192231210038)
(-0.366359223136871359 -0.382775745558754155 -0.549708218309623908)
(0.0551978181397174417 -0.111457722279107899 -0.702017486348797126)
(0.245367915999649022 0.0852875145733865136 -0.722669009993096134)
(0.242874857048548026 0.191789401555376604 -0.692191348022794473)
(0.25729694513652962 0.185840951206091592 -0.502766534704490176)
(0.431909862153595503 0.18859604065816854 -0.176176586171237298)
(0.484394249255573395 0.223051170932504178 0.169190633208762237)
(0.352662316410963239 0.270555569970256204 0.553599117231549864)
(-0.0562398927504394741 0.456563856115783318 0.534211040626270561)
(-0.0852317549743301095 0.464057800259490949 -0.708590622570750117)
(-0.166031051791936141 0.302461690118523974 -1.7405092348100446)
(-0.325147590730189839 0.820895399381950885 -1.39087813924567261)
(0.130091404894940199 1.26063862966313844 -0.219505290485467019)
(0.0693685090263869431 1.27881991740451406 0.106073306701642861)
(-0.0798560956626428037 0.398959065798734913 -0.184487988132711361)
(-0.0811979292260837648 0.000689630118502176925 0.869064893597338961)
(0.413858525376211095 -0.969910263995437782 -0.308589714970966822)
(0.534717364686775776 -1.27308008942451378 -0.424060907868977766)
(0.348234175325908835 -0.606941281818351719 -0.38394505463934725)
(-0.0627891021506718772 0.39637827145986082 -0.468063482157384469)
(-0.713851200618767834 0.646149535549057408 -0.575583553172888007)
(-1.09452177086040114 0.408388903050610264 -0.612463984971107989)
(-1.422166030073031 0.0520954346795662326 -0.604028299855114859)
(-1.72166078869903494 -0.0938096656387794325 -0.642870419386557423)
(-1.93740108195392158 -0.0244674722028266831 -0.730967387340413666)
(-2.05756572327142573 0.168148445985178974 -0.833567903615687777)
(-2.05869547720357859 0.33883309354432628 -0.91410199857542207)
(-2.06305450974736226 0.415473561023226134 -0.979663418386157225)
(-2.21235294154954509 0.393207938227296161 -0.973435916373095012)
(-2.61306699659982611 0.339059840651179278 -0.776052260151945728)
(-3.34266431063539748 0.291075936737955732 -0.29061947032629909)
(-3.62205871519145628 0.235168969490854946 0.0477050969049615664)
(-3.64469960447928587 0.00761137921458107658 0.178355204091280306)
(-3.32563176626089829 -0.178430519041655133 0.168536856004697894)
(-2.94786476875904757 -0.380135399067267343 0.17309515361943778)
(-2.48490997953981374 -0.607761319134088707 0.260968032956858609)
(-1.99377530731907715 -0.779891858087253476 0.384518962224343785)
(-1.44402448204828437 -0.81106337298801201 0.47369995139383736)
(-0.834286949886255402 -0.631642706501188256 0.41808046973102958)
(-0.195816051653375872 -0.296927995920905519 0.20621855494186736)
(0.32720997017827913 -0.019306296051622221 0.038057102898404277)
(0.533609632712105819 0.151776745960883586 -0.0138960089899272544)
(0.808798325202998325 0.179741022213639162 0.0956276623340312493)
(0.961633928482327427 0.223143666616046177 0.235074066983747443)
(0.894366787964258725 0.335747574285663486 0.420743252037016791)
(0.671724219065811812 0.454761755284154412 0.731648691884654978)
(-0.020994480646759052 0.602020959807019973 0.734777930849785821)
(-0.17962080781921852 0.499014885551434195 -0.814610388934357221)
(-0.206736495690398647 0.321892829028123884 -1.63587855556186201)
(-0.501710432409420037 0.820038816051950725 -1.3995346880282713)
(-0.0663351970169701738 1.23995153502391786 -0.307224384445019927)
(0.00692644935387119742 1.30422874904878072 0.0611852514913299242)
(-0.086313361029089597 0.511807861739925873 -0.367333986764039944)
(0.0111068752385126198 -0.0925349724653878603 0.173247192738395367)
(0.538001945633689083 -1.16662543747377656 -0.476121573333853909)
(0.497203279038143986 -1.23767568338679745 -0.451899367472053615)
(0.0703994145806599303 -0.306352854205595826 -0.34034214159407844)
(-0.43568975100707541 0.726781334599737483 -0.400292562750615866)
(-0.800016771460082099 0.839304899195848497 -0.43700371036654323)
(-1.09284814242659545 0.480062374988687868 -0.485293997865872684)
(-1.40006008245698954 0.100997013887672238 -0.494898973038003676)
(-1.67211674136012056 0.00382955583853906295 -0.534733603874322672)
(-1.93829364757608813 0.0377391269630575413 -0.583044626508009367)
(-2.16142847218847356 0.182115390877649719 -0.642052165046270051)
(-2.36440593973457025 0.326526629130548862 -0.656169410082340754)
(-2.6388370439643567 0.438830385388870814 -0.573602387849070361)
(-3.14329019865950343 0.522907631418311647 -0.274085535654351731)
(-3.7507535680536872 0.57195864201561486 0.279272539278565768)
(-3.94015523209446217 0.431353036982703775 0.669842974678750758)
(-3.75557077221050495 0.197977903701538449 0.744595240297760919)
(-3.63566838960239647 0.0131250894237723015 0.689454168277551238)
(-3.46408869664797914 -0.147426877011944762 0.516183078995916422)
(-3.21317572440035892 -0.33715649670519765 0.425723947205818409)
(-2.89614599865520628 -0.573745452623025454 0.451361891487269185)
(-2.55428922089520372 -0.79744610328484955 0.604684015258733942)
(-2.16248633598280415 -0.917140955564543336 0.834568975507868904)
(-1.67244529941310405 -0.838622139876451067 0.990050226866523775)
(-1.09992340983224524 -0.513423885069744235 0.907110067830270594)
(-0.506877481633250415 -0.0966552237629419858 0.587968797129232223)
(0.0776201230854279278 0.137395314856053719 0.421357247925365996)
(0.441053873375169991 0.247200685915125201 0.468583986864326341)
(0.667218057433176193 0.379085535599556489 0.58307034133993707)
(0.735880703551858861 0.564271281843391148 0.734943962149249952)
(0.626503502051987016 0.713664263712342706 0.969754573658114127)
(0.0367487212345286307 0.733130843158745771 0.836538268659965167)
(-0.166227794725266942 0.489830617782613331 -0.807357405735075639)
(-0.243190586065305636 0.315577266532447998 -1.47933218793387899)
(-0.614152884956858269 0.837976647410127451 -1.31641288868245421)
(-0.189133118606167938 1.20838450433120714 -0.335251275620977618)
(-0.0336826839268514339 1.28648749483941871 0.0310837448511671818)
(-0.0793078903275902108 0.528741373822358529 -0.589181147687470763)
(0.227983323462216891 -0.219471780306840253 -0.538683818698519223)
(0.636483935961291381 -1.25233306250515919 -0.551297218318892002)
(0.426445645671295559 -1.14599641476823688 -0.440119633144847144)
(-0.331722877707192998 0.251490288682321872 -0.290919787404772257)
(-0.716003604048354281 1.01177181417610829 -0.34210433693063691)
(-0.901378855730239792 0.986540047277660315 -0.358714627223232052)
(-1.182539315075402 0.558113076538744757 -0.433254649549722926)
(-1.56946093154074573 0.191526920721818039 -0.435567687494471223)
(-1.89747264909988145 0.109165258263654502 -0.406445656637365371)
(-2.25946836073764779 0.159219396960774862 -0.361695860153682103)
(-2.63069392000056546 0.29875180738409024 -0.279504477185330114)
(-3.04746526259446604 0.436476485408567316 -0.10187317702549871)
(-3.56955153746287079 0.552886591482311007 0.241424297320779246)
(-3.93385991928171963 0.600123527561069348 0.673973603680726785)
(-4.06067600647339244 0.520704619580557804 0.98662416036661893)
(-3.88313074741572573 0.385566402349109494 1.06211096282432682)
(-3.77911554157873741 0.281846108918057059 0.877476468197807447)
(-3.64608467652761048 0.156932202970291756 0.611589496340051664)
(-3.42800010449866521 -0.0120040244350224923 0.362226797619679131)
(-3.13960525143713998 -0.213661218361631683 0.203072174802163469)
(-2.83857375493146113 -0.436715763635903864 0.180030131654984937)
(-0.0587195432939323636 0.449993742648289785 -0.723528003067620773)
(0.405355718713565183 -0.386862034005810651 -0.757541632168365564)
(0.685002774759286504 -1.26711484880276171 -0.545796985381705846)
(0.282527436946441224 -0.920336978912811854 -0.414277708896581554)
(-0.652349265743424334 0.661041088354483941 -0.313091072113628188)
(-0.904863868918351466 1.23456213931261027 -0.318310318219896971)
(-1.07134712278346855 1.12657498759729324 -0.341734128165600726)
(-1.41309524063456093 0.70665810436205212 -0.374492348183607104)
(-1.89251631435146228 0.398772577583626497 -0.275131711346682184)
(-2.29154255727955158 0.296714174728797686 -0.125687553310717903)
(-2.65646370747131133 0.342231819931855363 0.0260956929190076098)
(-3.07007394483059448 0.428048730712511372 0.216377372343382862)
(-3.52101965701373576 0.499271623050801361 0.497648548865813167)
(-3.81366713794283152 0.519754950502438029 0.819268484600867986)
(-3.89444956445467261 0.479487061499670075 1.03519779043648352)
(-3.78553081131635993 0.453573673885848627 1.10555492219915186)
(-3.64780953081929304 0.442168442533106387 0.997717144653520904)
(-3.50096492701698869 0.394589904601329089 0.694245034655408766)
(-3.26695052347697779 0.236897146426352845 0.380081072032727729)
(-2.96824971330453868 0.0137470187837421542 0.126733013489732843)
(-2.66404168911805161 -0.198671215041407639 -0.0352821160486382415)
(-2.38236948355074629 -0.377225968478923035 -0.109066641223815625)
(-0.0297463261082175773 0.324572934225286991 -0.781706359802149642)
(0.582541099282045116 -0.557389102526182012 -0.736583664167148711)
(0.696889876301538203 -1.16912964250055107 -0.51272869237748353)
(-0.00632471369706134878 -0.564849750879763857 -0.376504182144873911)
(-0.960511008907825925 1.06670043943529325 -0.36377769281863459)
(-1.05354330552258291 1.42341526114093853 -0.329759927178527201)
(-1.22921264789396822 1.26531780628441681 -0.33777780362022386)
(-1.56084568299691151 0.9170864605215725 -0.323567844062571774)
(-1.92910270463355871 0.615957341149462212 -0.180389074473589428)
(-2.26876579324982508 0.468588166165483322 0.0148598433367922028)
(-2.63864313746604529 0.443337678814996583 0.234174282372401954)
(-3.01427215427738737 0.452075665524583115 0.471532615905082442)
(-3.32423500717880982 0.443518720462963978 0.720883553995948057)
(-3.46464909848417202 0.413833042567154141 0.947745900648614303)
(-3.46886153508206263 0.414920587153641107 1.05606948837914483)
(-3.34514780347319673 0.456596127752513403 1.0536316141080091)
(-3.19875489339877817 0.484836301195842423 0.872450827663617923)
(-2.99054253783597224 0.384818492433412374 0.602252880177950312)
(-2.72183507551822101 0.149369391323315504 0.341428762905539807)
(-2.42785954822385364 -0.152011716428042232 0.118478237100779815)
(-2.17574744177883961 -0.371775777842048238 -0.0291525173855181896)
(-1.96434785190780836 -0.511272593810246145 -0.125334244616533447)
(0.0284662267522139134 0.175785482948420058 -0.864413528911814999)
(0.664840034021151993 -0.781841540574233829 -0.6305145318505333)
(0.610023226284183817 -1.02952888145917587 -0.471724715139685835)
(-0.649358103933059372 0.0194215815527871843 -0.326439913205402665)
(-1.16870463491315069 1.33930574209963016 -0.391616353676904227)
(-1.17557723488450927 1.55983054730357651 -0.347386980368708354)
(-1.34367451202307642 1.39883815061541616 -0.332226357223935675)
(-1.58178511888326945 1.08247894917101095 -0.286787436221248582)
(-1.83757537322465558 0.799323048165918815 -0.144803415168763217)
(-2.08465986353737565 0.624155012472230819 0.0417311384180141659)
(-2.36568376538331915 0.5320154019929767 0.26423231592064772)
(-2.64476886559694169 0.458276174735121833 0.509584479470673757)
(-2.85711822074133837 0.403319574658741908 0.737732928361619744)
(-2.94820349854659547 0.369158493753225625 0.926526227216451836)
(-2.96068089600128825 0.383867834159503818 1.02414976192008078)
(-2.86395708962563278 0.437508091656749531 0.975432182815478388)
(-2.72445167606723571 0.4495621578571804 0.788037899178495982)
(-2.55924442627610471 0.319737230398296657 0.556837679787346662)
(-2.37647780511800732 0.0590906106405442999 0.316201639644538568)
(-2.18261524330723899 -0.250403478983501515 0.118863149429110707)
(-2.006489774682231 -0.487482962215200377 0.000295600398445061696)
(-1.8530421683216014 -0.642785453495944181 -0.0846751625507887878)
(-1.83891837849367534 0.749812752106728264 0.0214664232647390624)
(-2.03730999652984002 0.58656797425476026 0.238279389851566964)
(-2.24889069825708177 0.460150689679715563 0.478544306742000269)
(-2.41959521846713654 0.385522405120338751 0.696721012422563901)
(-2.50313892145900319 0.347900328985052021 0.872173538957273786)
(-2.52462680999929523 0.34211150926887024 0.963596825143998248)
(-2.458676925079887 0.399700019247722749 0.915705299098620307)
(-2.37461122552963166 0.427297416974510458 0.720541011747647397)
(-2.28202734555497866 0.302867572336935342 0.448196253616731322)
(-2.15154813943388845 0.0311316944482106783 0.187760114011308515)
(-1.85515494693579308 0.453453077242190472 0.398882414000665764)