/*--------------------------------*- C++ -*----------------------------------*\
| =========                 |                                                 |
| \\      /  F ield         | OpenFOAM: The Open Source CFD Toolbox           |
|  \\    /   O peration     | Version:  2206                                  |
|   \\  /    A nd           | Website:  www.openfoam.com                      |
|    \\/     M anipulation  |                                                 |
\*---------------------------------------------------------------------------*/
FoamFile
{
    version     2.0;
    format      ascii;
    arch        "LSB;label=32;scalar=64";
    class       volScalarField;
    location    "0.0299999999999999989";
    object      alpha.water;
}
// * * * * * * * * * * * * * * * * * * * * * * * * * * * * * * * * * * * * * //

dimensions      [0 0 0 0 0 0 0];

internalField   nonuniform List<scalar> 
7340
(
9.24628262529818453e-25
4.52561316577250109e-26
2.01992335531829477e-27
8.20746382562415817e-29
3.0237948829966972e-30
1.00436862786482228e-31
2.98626334665006964e-33
7.87639194708673707e-35
1.82164663242545398e-36
3.63910407923511551e-38
6.15404183316556258e-40
8.56617456673705625e-42
9.41905173557056964e-44
7.66233572599509447e-46
4.04327214622696032e-48
5.95113336747355366e-50
3.48343170262483113e-25
1.71699877393242984e-26
7.67208762783772392e-28
3.11886130680097386e-29
1.15002782198308137e-30
3.82404027902987912e-32
1.13851527848193079e-33
3.00775948103863969e-35
6.97018303675928177e-37
1.39590110547626389e-38
2.36809578918096133e-40
3.30993192058398094e-42
3.6594164433525993e-44
2.99888588154712265e-46
1.60048628402529312e-48
2.16839755247440142e-50
1.3320163488612707e-25
6.66976558927896271e-27
2.96780678428328156e-28
1.19898099856848065e-29
4.39921078040272454e-31
1.45669018581525993e-32
4.32164260968389671e-34
1.13838803786147524e-35
2.63209653933793596e-37
5.26279116660288732e-39
8.92073125235855646e-41
1.24699559143886566e-42
1.38042043429289209e-44
1.13442779592142457e-46
6.088199905050126e-49
7.85717096039129837e-51
5.63031742477378762e-26
2.92013651776431565e-27
1.27987088033157487e-28
5.06922129076561095e-30
1.82892795052788715e-31
5.96514415649332276e-33
1.74561762307281034e-34
4.5413205484569441e-36
1.03821517037323732e-37
2.05482569288222681e-39
3.45150776631032626e-41
4.78648482972911198e-43
5.26311607420429155e-45
4.30229656335585994e-47
2.30048694038535011e-49
2.97992280521495058e-51
1.509928484411658e-22
1.18517763783773702e-23
6.69753912323834479e-25
3.29809295322795053e-26
1.51736719376940965e-27
6.40606827187867486e-29
2.47625255757339879e-30
8.71861727803813777e-32
2.77873858045155395e-33
7.95605985758931856e-35
2.02745052640028095e-36
4.54506354743589643e-38
8.82994788196493643e-40
1.4573382785131963e-41
1.9878200293356255e-43
2.15213045017904974e-45
1.73413260178210064e-47
9.1472138537763312e-50
1.23120785141589743e-51
5.76475618069034909e-23
6.79865551739957819e-24
4.05044742820652064e-25
1.88292023689853963e-26
8.43338065134732154e-28
3.48531301827724801e-29
1.319847105417743e-30
4.554780691620078e-32
1.4233771472912588e-33
3.99726085566231115e-35
9.99409491827387494e-37
2.19889459538458798e-38
4.19420997462310498e-40
6.7991630875731955e-42
9.1132777684818953e-44
9.70059855381069179e-46
7.68982460065277223e-48
3.99309227152773426e-50
5.44469103211033117e-52
6.19321475907932667e-21
9.98166079040660629e-22
7.2486624678821856e-23
3.9737086361572256e-24
2.06156297435620125e-25
9.91281285300946274e-27
4.40188632857733875e-28
1.7986018924373909e-29
6.73054588682805758e-31
2.2941867609673582e-32
7.0775863626061344e-34
1.96104061888249301e-35
4.83478270781792527e-37
1.04832950524236538e-38
1.96947893268671365e-40
3.14267598770701773e-42
4.1435071989283574e-44
4.33507156905119213e-46
3.37434587111851779e-48
1.72475571025998641e-50
1.66762238068245544e-52
8.29099900354496468e-27
3.68395966404449144e-28
1.48564294979284064e-29
5.4319964670281034e-31
1.79175850931187283e-32
5.29302714031539218e-34
1.3876421009365702e-35
3.19118288366900553e-37
6.34104835618319442e-39
1.06690966462794391e-40
1.47794460307030108e-42
1.61759738047267043e-44
1.31006330890952105e-46
6.90698656140365929e-49
7.70325377259365034e-51
6.46818293610068054e-26
3.16298848603032324e-27
1.40132406783869663e-28
5.64988011586179066e-30
2.06747780612158488e-31
6.8263311340491308e-33
2.0190351971568723e-34
5.30122697986623419e-36
1.22143710991517578e-37
2.43286980570690642e-39
4.1060418710058478e-41
5.71091858268464843e-43
6.28415778261089464e-45
5.12642097404941858e-47
2.73230841479341754e-49
2.81461210387834301e-51
2.49651536283282008e-26
1.24318444978772559e-27
5.47793243094225377e-29
2.19203017889269961e-30
7.97316415436258421e-32
2.61894748857144396e-33
7.71184510602448598e-35
2.01727842630887302e-36
4.63373126762920179e-38
9.20784726464607861e-40
1.55162743959465432e-41
2.15676539294392252e-43
2.3745520373590854e-45
1.94105127453079463e-47
1.03927020141342892e-49
1.02480005354990357e-51
1.09158776746754821e-26
5.64192236931960956e-28
2.44257556212669724e-29
9.55577227024947653e-31
3.40901763289102721e-32
1.10029092137033869e-33
3.18854289125682504e-35
8.21951676397881161e-37
1.86294046781170078e-38
3.65698116021408055e-40
6.09458060437836618e-42
8.38789572625022037e-44
9.15498775401957389e-46
7.4290192054264558e-48
3.95459532979492367e-50
3.92561831051811204e-52
3.22498065726699123e-23
2.53154099605460278e-24
1.40898117997081822e-25
6.81938916862538552e-27
3.08995039046143945e-28
1.28566482643714418e-29
4.90163529823064228e-31
1.70341968950655856e-32
5.36218379527183194e-34
1.51731442625013074e-35
3.82333314952195258e-37
8.47892475388267396e-39
1.63013423393288447e-40
2.66320253510430364e-42
3.59642121021076845e-44
3.85510809528711254e-46
3.07536368773292349e-48
1.61055419700556312e-50
1.64734700583131903e-52
1.23670939409512246e-23
1.51251153228106582e-24
8.90946173361751833e-26
4.0676794133512142e-27
1.79592545420246119e-28
7.32099048949718563e-30
2.73602469479027984e-31
9.32288479899228619e-33
2.8780406426922098e-34
7.98772716604615212e-36
1.97447269251297116e-37
4.29623897574622732e-39
8.1058996027254637e-41
1.2999366889226186e-42
1.72369659243668224e-44
1.81492478098522424e-46
1.4228086465991472e-48
7.32710131801914039e-51
7.40542650414638886e-53
1.4276234992362e-21
2.29025401302247777e-22
1.65798100015146017e-23
9.02822894850067643e-25
4.6271562933330128e-26
2.19805192932567072e-27
9.64527955483223496e-29
3.89555895395778903e-30
1.44139002319827707e-31
4.85967619428735266e-33
1.48343748221820839e-34
4.06846334010999759e-36
9.93156383978998016e-38
2.13277617813256694e-39
3.96901427209163857e-41
6.27417483347261414e-43
8.19513928407652698e-45
8.49342322592151578e-47
6.54781594731825435e-49
3.31295024237352665e-51
3.28979854370712517e-53
1.1908748845607658e-27
5.23706666670766341e-29
2.09513106857564813e-30
7.60534917402473752e-32
2.49181030965053322e-33
7.31499080574883305e-35
1.9064932466085242e-36
4.36021044499473842e-38
8.61868758902772692e-40
1.44290082931921466e-41
1.98920719215642071e-43
2.16706239691313601e-45
1.74711924404916707e-47
9.19241990491710231e-50
7.94596885286360722e-52
9.37884347333752199e-27
4.54705509134150806e-28
1.9973751124043975e-29
7.98961532934669627e-31
2.90239992007214166e-32
9.51836298633954654e-34
2.79752595303324703e-35
7.30189754789102409e-37
1.67305424238195915e-38
3.31485317359712182e-40
5.56646863450052234e-42
7.70472242356840076e-44
8.43835248701448303e-46
6.85224153621194415e-48
3.64371136315365584e-50
2.91316656732959965e-52
3.64051167602471058e-27
1.79890459402157305e-28
7.85700959594534376e-30
3.11789716760671748e-31
1.12539782132500449e-32
3.67027405723423805e-34
1.07357671384709954e-35
2.79078069517983741e-37
6.37283296182879263e-39
1.25931054411016192e-40
2.11077354221002131e-42
2.91890320761630089e-44
3.19758901308099214e-46
2.60101981912610906e-48
1.38875950005345701e-50
1.06453575135775392e-52
1.61902863508310651e-27
8.30046606895594627e-29
3.558487036100368e-30
1.37932244916811578e-31
4.87856546140885127e-33
1.56197420479310635e-34
4.49239072716146621e-36
1.14984843045083781e-37
2.58860187352109454e-39
5.04888655816846134e-41
8.36237803300411209e-43
1.14401376561989415e-44
1.24131174352068401e-46
1.00144160602019783e-48
5.31098032589102418e-51
4.09619227631432856e-53
5.07681539971555469e-24
3.93825847736818831e-25
2.16525021818617572e-26
1.03626708588146798e-27
4.64632397308472907e-29
1.91398473738770219e-30
7.22804156071753969e-32
2.48933409585765902e-33
7.76934091243131459e-35
2.18062274659282766e-36
5.45216666203827467e-38
1.20011670283837307e-39
2.29069424513024022e-41
3.7160804479034516e-43
4.98350900537499355e-45
5.3051964098924085e-47
4.20286841790690846e-49
2.19037082086740298e-51
1.72839496832008713e-53
1.96106222822543312e-24
2.39338136792055525e-25
1.39271068246927343e-26
6.29308737076404859e-28
2.75102058117441905e-29
1.11083083603966444e-30
4.11390474700179519e-32
1.38969829511225363e-33
4.25475841007353829e-35
1.17156357715105391e-36
2.87404126376798597e-38
6.20778053478273141e-40
1.16287103556689386e-41
1.85174098008212422e-43
2.43815271454159041e-45
2.54907961129903588e-47
1.98401223482685076e-49
1.01650282599635241e-51
7.81170779598638392e-54
2.28127365208088952e-22
3.74653462279869466e-23
2.66902847538400511e-24
1.44007547014048919e-25
7.30755564678150904e-27
3.43822243153741806e-28
1.49502590120123178e-29
5.98573759913177575e-31
2.1964127567535413e-32
7.34678826331043314e-34
2.22581659403718094e-35
6.0609601545820106e-37
1.46946302870048074e-38
3.13492200447316903e-40
5.7967432570434296e-42
9.10599908145987462e-44
1.18200362403985832e-45
1.21739690529101607e-47
9.32612448604582585e-50
4.69863847084187847e-52
3.53584630175218322e-54
2.83181496338733772e-27
1.34946541278390142e-28
5.8745533854574746e-30
2.33242953750945937e-31
8.4108502273415867e-33
2.73855433853251348e-34
7.99245047419212718e-36
2.07165931561827872e-37
4.71347325764122617e-39
9.27121565262273221e-41
1.54484103839132148e-42
2.12006068632449858e-44
2.29937622686355156e-46
1.84570126136402982e-48
9.6868991172366467e-51
6.49294582464254617e-53
1.07280973713009957e-27
5.15873952542043898e-29
2.24819109615067171e-30
8.92809826827824636e-32
3.22164336721266212e-33
1.04991763224025887e-34
3.0677402833579589e-36
7.96321116011184018e-38
1.81512301370127166e-39
3.57863365552311782e-41
5.98110127820875571e-43
8.24095737149265612e-45
8.98563709429480764e-47
7.26485252064884769e-49
3.85295463697397973e-51
2.38955604505361836e-53
4.1776654434222299e-28
2.04800337207946733e-29
8.87551253315137379e-31
3.4967922369764607e-32
1.25370570763022835e-33
4.06311404761344559e-35
1.18150609326084592e-36
3.05438447680175886e-38
6.93838446587184045e-40
1.36426206480629942e-41
2.27580715207046491e-43
3.13264556474900177e-45
3.41634024704136925e-47
2.76668190109396834e-49
1.47311580317621502e-51
8.75635649488742275e-54
1.86706728181057804e-28
9.49059503789983264e-30
4.03710545935710769e-31
1.55380324316158749e-32
5.4591239935903147e-34
1.73690903177085556e-35
4.96605095366109005e-37
1.26399795591085286e-38
2.83052055296512236e-40
5.49281231479630864e-42
9.05334081335023316e-44
1.23268287213030045e-45
1.33132190747889285e-47
1.06913249317307671e-49
5.65330662900687655e-52
3.37204657250490238e-54
6.05361198018122252e-25
4.6423515189726857e-26
2.52793029714196323e-27
1.20014479377200408e-28
5.33923655447722889e-30
2.18332880668680822e-31
8.18821480406865793e-33
2.80157244316283282e-34
8.6897438602309013e-36
2.4246495880642948e-37
6.02850694464403792e-39
1.31991193616310061e-40
2.5064440205722239e-42
4.04588103337521092e-44
5.39942197143814305e-46
5.7203678539582697e-48
4.51008623429506282e-50
2.34319805501232304e-52
1.42126391460866421e-54
2.27697716464250887e-25
2.83490762906744518e-26
1.63385690769247117e-27
7.32484228950486501e-29
3.17812946464043895e-30
1.27417218528028034e-31
4.6870553702626771e-33
1.57321238623801277e-34
4.78752861916777823e-36
1.31071763081034421e-37
3.19789686087971045e-39
6.87128422237780541e-41
1.2806890784923428e-42
2.0293721607024717e-44
2.65918901672555882e-46
2.76691378001440112e-48
2.14327223547220043e-50
1.09468904869779805e-52
6.41295792982021201e-55
2.7486242326199584e-23
4.54201002293634507e-24
3.18715259640326908e-25
1.70898007032688166e-26
8.60208431587107608e-28
4.0162835989348776e-29
1.73372310387709076e-30
6.89377814080597482e-32
2.51316125875590901e-33
8.35460703020227798e-35
2.51647157487340965e-36
6.81491289939862119e-38
1.64368797296095713e-39
3.4892646822033794e-41
6.42125203279756073e-43
1.00404181801081805e-44
1.29739278321791844e-46
1.33025517239717085e-48
1.01451527471631822e-50
5.0970556785248334e-53
2.89891926409713702e-55
2.52752306831174924e-28
1.19527707039383739e-29
5.16669143060686721e-31
2.03818900478065993e-32
7.30617250660721032e-34
2.36569625045870784e-35
6.86847637855342365e-37
1.77165033478448395e-38
4.01232440681939065e-40
7.85745639408076931e-42
1.30374688238606426e-43
1.78186642010653923e-45
1.9248040196402386e-47
1.53885360939512673e-49
8.05652372592741105e-52
4.06925840912006934e-54
9.61727449410533042e-29
4.58908987488768464e-30
1.98587187677323181e-31
7.83587682090245479e-33
2.81073285671535758e-34
9.10926911495222113e-36
2.64781883668185248e-37
6.83969591249123604e-39
1.5518566784303204e-40
3.04619105953772351e-42
5.0698126348944444e-44
6.95689668642796795e-46
7.55527403788409826e-48
6.08425409549951201e-50
3.21866071564908009e-52
1.50397226433976888e-54
3.75102742475311869e-29
1.82471729965788643e-30
7.85474197661894111e-32
3.07578148377985904e-33
1.09648357851291857e-34
3.53463423551265485e-36
1.02268817391006887e-37
2.6313621513010288e-39
5.95080761730836411e-41
1.16511376898964629e-42
1.9356734345000125e-44
2.65392267462549949e-46
2.88306487962224473e-48
2.32587453243164006e-50
1.23537081778211271e-52
5.52420350355050193e-55
1.67206778487609733e-29
8.42785724811958105e-31
3.56309583490149809e-32
1.36400323100512569e-33
4.76786620148367954e-35
1.5096946444290387e-36
4.29688993501558202e-38
1.08900293917399263e-39
2.42875387004863569e-41
4.69489326631938364e-43
7.709325521276784e-45
1.04587991537532391e-46
1.12555601433395505e-48
9.00709161361812384e-51
4.75265655327985226e-53
2.12399000383931205e-55
5.48505804500909904e-26
4.18175811039485885e-27
2.25966186034601861e-28
1.06655622182890011e-29
4.71741491628684962e-31
1.91865959807491967e-32
7.159326548089598e-34
2.43796017693094726e-35
7.52839290682069826e-37
2.09186356618122637e-38
5.18072014896714782e-40
1.13009371835316569e-41
2.13842714355214546e-43
3.44015922164016998e-45
4.57602558198232844e-47
4.83251726693522764e-49
3.79806325683184455e-51
1.96995871952897731e-53
8.90257720875070498e-56
2.01607140160691243e-26
2.54905510570120117e-27
1.4575132469961899e-28
6.49460144959383962e-30
2.80163386228293741e-31
1.11710660242341704e-32
4.08833673738269815e-34
1.36571773696972507e-35
4.13762420496634076e-37
1.12808985985836446e-38
2.7416368677530464e-40
5.86941919285046867e-42
1.09017698155105248e-43
1.72178578812729057e-45
2.2489697598026231e-47
2.33284789819643722e-49
1.80157446049307985e-51
9.1873417019344426e-54
3.99075792241185521e-56
2.47000744543497631e-24
4.15611663719074453e-25
2.87691993774583653e-26
1.53516442972808295e-27
7.67433181137396747e-29
3.56020013996232234e-30
1.52765432337596343e-31
6.04035048555845196e-33
2.19048845336131009e-34
7.24625870062719815e-36
2.17266411905719077e-37
5.85880884290572663e-39
1.40746754087249875e-40
2.97664597115717008e-42
5.45849783141834368e-44
8.50616109368751867e-46
1.09555456613202831e-47
1.11973932338957765e-49
8.51308649201076665e-52
4.26978952624328437e-54
1.79477276267912807e-56
1.70904180469400083e-29
8.02973815861206662e-31
3.45034092551729665e-32
1.35370581326091891e-33
4.82816979138352662e-35
1.5560296508491937e-36
4.4979847845034837e-38
1.15544226994668181e-39
2.60659958438026541e-41
5.08562357782921965e-43
8.40805283111850085e-45
1.14512498104227938e-46
1.23269001607587861e-48
9.82072432767749585e-51
5.13057680395918088e-53
1.8079851965833996e-55
6.53740487036979734e-30
3.09858995121979399e-31
1.33287942911469179e-32
5.23076419829882381e-34
1.86686475708498135e-35
6.0220468243262203e-37
1.74280463920617588e-38
4.48345118720052903e-40
1.01330483787351917e-41
1.98169698419075781e-43
3.28641981315884399e-45
4.49404860858579684e-47
4.86388740719953456e-49
3.90346212077052842e-51
2.06055151893589979e-53
6.73411958109999069e-56
2.55208026833968579e-30
1.23276346873529596e-31
5.27724727330517624e-33
2.05629269222980042e-34
7.29664844274790814e-36
2.34199818665171008e-37
6.74872483067014104e-39
1.72980849441190766e-40
3.89780781026604864e-42
7.60522774375921911e-44
1.25930477312510488e-45
1.72099829297965666e-47
1.86363697614608675e-49
1.49868741029948856e-51
7.94475408380990145e-54
2.48376299690277313e-56
1.12937418125111523e-30
5.6475324544309446e-32
2.3767340998561473e-33
9.06375538664197927e-35
3.1566635942231912e-36
9.96085555986530346e-38
2.82586480513974393e-39
7.13993131142745991e-41
1.58775914320421893e-42
3.06069228334878259e-44
5.01241748632396487e-46
6.78235922528103897e-48
7.28035874140853646e-50
5.81116762254243027e-52
3.06243565041413611e-54
9.52266716946047069e-57
3.64673428691057853e-27
2.80691928770741402e-28
1.50805312605249727e-29
7.09070735911672091e-31
3.12375693691509188e-32
1.26588913443058606e-33
4.7077815125834566e-35
1.59818186192575971e-36
4.9210591657535385e-38
1.36376583084384204e-39
3.36923614556554253e-41
7.332723168290177e-43
1.38458085011728444e-44
2.22293901640810189e-46
2.95123475054151586e-48
3.11090302703287809e-50
2.44060007311644948e-52
1.26535136373562171e-54
3.95513344602988915e-57
1.32436200916025097e-27
1.69970981389941509e-28
9.66088221609986162e-30
4.28556209946860092e-31
1.84105327825409894e-32
7.31262012536255042e-34
2.66676793461439428e-35
8.87952697508477106e-37
2.68220752457364697e-38
7.29308054046319138e-40
1.76810015589952965e-41
3.776713427072752e-43
7.00032616398576073e-45
1.10349774153898739e-46
1.43881580955819113e-48
1.49000211785265122e-50
1.14888143650896462e-52
5.85785566638004439e-55
1.75678469960785373e-57
1.20014208217428549e-25
2.76225928048834916e-26
2.00545680276113266e-27
1.02066423783053539e-28
5.0743568035780139e-30
2.34218310519217427e-31
1.00034930981934651e-32
3.93842006375332856e-34
1.42258973280150607e-35
4.6888914377299368e-37
1.40119330818318696e-38
3.76691929146403686e-40
9.02397322616204677e-42
1.90355936028859626e-43
3.48237304963073439e-45
5.41461834368527286e-47
6.95916354177089473e-49
7.0986354827013115e-51
5.38663649804232876e-53
2.70007167104909293e-55
7.83972320632974989e-58
8.02892914814853534e-31
3.75303911505906497e-32
1.60518413361848043e-33
6.27108654163134379e-35
2.2279307994965723e-36
7.15417434312502348e-38
2.06103118853636863e-39
5.2774718826947322e-41
1.18695274546549853e-42
2.30907649381902495e-44
3.80680145495218635e-46
5.17016802415702504e-48
5.54991879257277582e-50
4.40883885668621948e-52
2.29808592817541523e-54
7.28682302496336895e-57
3.09009759049575902e-31
1.45664703143097256e-32
6.23662779607492011e-34
2.43718759993845514e-35
8.66446808647209172e-37
2.78483279023264049e-38
8.03216276389597503e-40
2.05974031354480426e-41
4.64118296807691836e-43
9.05046179172482048e-45
1.49672138503460986e-46
2.0410876740825977e-48
2.2030023264299004e-50
1.76306361869509972e-52
9.28470909744466219e-55
2.91450413415706401e-57
1.20732847719830699e-31
5.79673624975677537e-33
2.47113314290163139e-34
9.59384454813286181e-36
3.39271685534674057e-37
1.08548303261227079e-38
3.11856676585579429e-40
7.97079643861552904e-42
1.79125204446542673e-43
3.48602780517101859e-45
5.75795047862770733e-47
7.84977612031602656e-49
8.47974681237178505e-51
6.80242952403797158e-53
3.59827634971380807e-55
1.12998839178824152e-57
5.2899306113717127e-32
2.62656280075841352e-33
1.10207188591131878e-34
4.19320377227590218e-36
1.45713372146139914e-37
4.58833282018236068e-39
1.29911612569771399e-40
3.27623472905084134e-42
7.27260698324538909e-44
1.39953136534275352e-45
2.28819033163036876e-47
3.09116791131896881e-49
3.31280774754210382e-51
2.63999476422479125e-53
1.38947152978721595e-55
4.40399617648625735e-58
1.66094758566558161e-28
1.29388586440981688e-29
6.92591052189968003e-31
3.25041706100792791e-32
1.42888538934085909e-33
5.77974352239205622e-35
2.14588076240925082e-36
7.27387268451367022e-38
2.23674350275211876e-39
6.19124173340908586e-41
1.5279396633483601e-42
3.32221142326277636e-44
6.26774842644273743e-46
1.00551670032341962e-47
1.33402621686580824e-49
1.40530292756104915e-51
1.10184990259220711e-53
5.71196379106720155e-56
1.81784953978962389e-58
5.93912992625774766e-29
7.75305030091249749e-30
4.38998556297668465e-31
1.94206632609536282e-32
8.32299039992306604e-34
3.29866785075785449e-35
1.20063820123970177e-36
3.99100054121774495e-38
1.20377683511744367e-39
3.26900722030924257e-41
7.91672607435938973e-43
1.68951600611634096e-44
3.12928209997022767e-46
4.92989729110360902e-48
6.42491240968806798e-50
6.6511249807686838e-52
5.12717266108984281e-54
2.61489748520245982e-56
8.16704594995009252e-59
3.13373276757460618e-27
1.24242337520048344e-27
1.03196836618660485e-28
4.63444786347808908e-30
2.29518594500107461e-31
1.05573078682214955e-32
4.49498396237893108e-34
1.76469345338179684e-35
6.35799326066984834e-37
2.09083676213884482e-38
6.23543184994668421e-40
1.67330311499139089e-41
4.00220077497334938e-43
8.43071038095541535e-45
1.54043740315433997e-46
2.39261241843586698e-48
3.07222378730506734e-50
3.13118868103206543e-52
2.3742758081229709e-54
1.18980758296884762e-56
3.09358927234009934e-59
2.02562852967021426e-32
9.43217760907157465e-34
4.02037772961721392e-35
1.56585981828644105e-36
5.54761754169358704e-38
1.77689819136562391e-39
5.10704346469422932e-41
1.30484911068647989e-42
2.92865650301642373e-44
5.68601553160801405e-46
9.35578880125610622e-48
1.26815131986913058e-49
1.35853733535707599e-51
1.07688029789376415e-53
5.42321500597419088e-56
2.19280845221453574e-57
7.85027503562138883e-33
3.68460016137498222e-34
1.57210122038691646e-35
6.12481418614962246e-37
2.17139553320504855e-38
6.96130397836807127e-40
2.00309884972553363e-41
5.12542427205071689e-43
1.15251813460453502e-44
2.2430038491595472e-46
3.70221927754863568e-48
5.03904598309421541e-50
5.42812868588742182e-52
4.33521437007106962e-54
2.20491659879754996e-56
8.16669727122653544e-58
3.07027817283373627e-33
1.46657234624635084e-34
6.23366152499418213e-36
2.41431162424696663e-37
8.51872955590736988e-39
2.7198901786298534e-40
7.79917190318177984e-42
1.98982136389991365e-43
4.46407152544639355e-45
8.67358345271398126e-47
1.43036493705611484e-48
1.94693184482649868e-50
2.09979732638981993e-52
1.68160971564401974e-54
8.59556246086501173e-57
3.18503205648849368e-58
1.32954087346095258e-33
6.55961059320145759e-35
2.74803206991819446e-36
1.04468654394367459e-37
3.62712493315044293e-39
1.14121849380246487e-40
3.22878081786442363e-42
8.13700813552170853e-44
1.80508230028813652e-45
3.4715125066441449e-47
5.67233919804936941e-49
7.65813295494385291e-51
8.20187867097386052e-53
6.53147830596683591e-55
3.31555795511441314e-57
1.33528749770541084e-58
4.29064864622965051e-30
3.17583407409814964e-31
1.69711253658113071e-32
7.96242081791302449e-34
3.49838119089035368e-35
1.41467622208807982e-36
5.25168908975692088e-38
1.78015294073550315e-39
5.47458164023829239e-41
1.51563696066379149e-42
3.74146148794402098e-44
8.13786468504457611e-46
1.53591898130112218e-47
2.46512856199201614e-49
3.27207095650169714e-51
3.44862098711734538e-53
2.70531647850815623e-55
1.35073827571681127e-57
5.86855564216438607e-59
1.5733020138944342e-30
1.88000864493196353e-31
1.0633127408407934e-32
4.69424413919959634e-34
2.00976653235092699e-35
7.95926471404411453e-37
2.89546729130860161e-38
9.62174771005408007e-40
2.90179979103597515e-41
7.88066478270221608e-43
1.9089230685156523e-44
4.07535677687533623e-46
7.55209397976419811e-48
1.19050969942945259e-49
1.55268217567808115e-51
1.60869689237647426e-53
1.24125137881570396e-55
6.15599712052458424e-58
2.04693545929786312e-59
2.20355499074329152e-28
3.14011188289982885e-29
2.11104983084456094e-30
1.12035969564785107e-31
5.53271474114893075e-33
2.53873063682427841e-34
1.07872621133015826e-35
4.22778851070511769e-37
1.52107390849076132e-38
4.99631088428523833e-40
1.48866507386711384e-41
3.99209207024311592e-43
9.54350300202553019e-45
2.0097235878638283e-46
3.67156515985181868e-48
5.70265824077213694e-50
7.32334398860443165e-52
7.46555774692318204e-54
5.66258547549072499e-56
2.81820907518710733e-58
2.81066034673943374e-60
7.12607013045713607e-24
3.32380497493271009e-25
1.40462212055097592e-26
5.35945627100162469e-28
1.83677114126995251e-29
5.61613385011719628e-31
1.51879948289481472e-32
3.59205784908421305e-34
7.3200666529142974e-36
1.25984171071280945e-37
1.78067321842297525e-39
1.98335152747239279e-41
1.62978998795946953e-43
8.48981166576011367e-46
4.05796415431946847e-47
5.98649023268079335e-23
3.06556074960029135e-24
1.42696326174505995e-25
6.02169971613345594e-27
2.29518504081990282e-28
7.86006424571338664e-30
2.40245467828780057e-31
6.49751190517860525e-33
1.53754618798788436e-34
3.13691542185850602e-36
5.40951597227520936e-38
7.66940432737257639e-40
8.58187435539179998e-42
7.10048823435065714e-44
3.72494726855332475e-46
1.57084898670085191e-47
2.54664758758953581e-23
1.29805671950038256e-24
6.01899135824235385e-26
2.53213856407875921e-27
9.62489845596181481e-29
3.28849747327681978e-30
1.00324120161874342e-31
2.70940786553254715e-33
6.4056104900096319e-35
1.30650991173455008e-36
2.2541679031242711e-38
3.20071691907553521e-40
3.59177817504706485e-42
2.98576067930254032e-44
1.5793504506302744e-46
5.93709571942368616e-48
1.07735751581114675e-23
5.45366200340035147e-25
2.51454485019234968e-26
1.05260449521867873e-27
3.98302912807820356e-29
1.35538158668235385e-30
4.12006574479923119e-32
1.10918603612554377e-33
2.61546650101141678e-35
5.32394407575856973e-37
9.1743560152985224e-39
1.30234755444025359e-40
1.46291839834267424e-42
1.21929591187314688e-44
6.50528647183470029e-47
2.20033166148967169e-48
2.11332336482225184e-20
1.38273803430637493e-21
8.29970256127110705e-23
4.56090541353198501e-24
2.28930317477396017e-25
1.04751103614812261e-26
4.35430873942871203e-28
1.63723217273426382e-29
5.53907553209841162e-31
1.6747753373417513e-32
4.48674714340520511e-34
1.05335369896191993e-35
2.136099551140928e-37
3.669846379984681e-39
5.19849183784011785e-41
5.83362625062415671e-43
4.86428250544332195e-45
2.6101281686991275e-47
7.99957112700110524e-49
9.09374469990878536e-21
6.0135055832315445e-22
3.57546933104510143e-23
1.93996286277980559e-24
9.63273623169528629e-26
4.36545927268508358e-27
1.79890239042362138e-28
6.71063587521007131e-30
2.25377263185059599e-31
6.76802452790396904e-33
1.80168243347550658e-34
4.20523617306084717e-36
8.48345700452305571e-38
1.45094270075329722e-39
2.04790070685962718e-41
2.29222111140550914e-43
1.9089095192990191e-45
1.03219390630034474e-47
2.34641378723693818e-49
6.38168808524190354e-19
5.52581850695638391e-20
3.92381615042210454e-21
2.49229115078823666e-22
1.45539570574817067e-23
7.79548133477646039e-25
3.82318216912144239e-26
1.71248822130271676e-27
6.97926127379080655e-29
2.57602003579921445e-30
8.56163068196272504e-32
2.54440490008426586e-33
6.70297256158732834e-35
1.54817519391017614e-36
3.09038887417056568e-38
5.22950791196340928e-40
7.30176153800134215e-42
8.08318863198459539e-44
6.65510024587064758e-46
3.60616838004874327e-48
2.730316884690866e-50
1.04231821077555006e-23
4.85126652316716601e-25
2.04676940701754216e-26
7.79866349144270639e-28
2.66922742472425208e-29
8.1509385932047171e-31
2.20142369402737581e-32
5.19947571279531318e-34
1.05806330221354147e-35
1.81820621791371006e-37
2.56547298344183535e-39
2.85187736964965107e-41
2.33806520853256135e-43
1.21501031983308461e-45
6.13403444414170156e-47
9.10963234641205823e-23
4.64465105785833446e-24
2.15450575900875637e-25
9.06483182613222047e-27
3.44583063966156762e-28
1.17709842931341096e-29
3.58915171370367139e-31
9.68384225451460397e-33
2.28606161373305173e-34
4.65264317492618593e-36
8.00291636687408349e-38
1.13153945859889393e-39
1.26238880920928903e-41
1.04095681746663785e-43
5.4429121939849575e-46
2.48008377014394553e-47
4.11003893105784818e-23
2.07983026523133162e-24
9.58522700659717651e-26
4.01051194369061252e-27
1.51686044713321013e-28
5.15846338509582316e-30
1.56671891619520958e-31
4.21284384250712589e-33
9.91748589753061801e-35
2.01415542791118853e-36
3.4599828067455822e-38
4.8906973688453799e-40
5.4619384625797513e-42
4.51671681628296347e-44
2.36831820061071797e-46
9.92545728151361488e-48
1.8861571160815182e-23
9.44677538733824644e-25
4.3149844926269238e-26
1.79096728208645754e-27
6.72375553650606509e-29
2.27107973530297453e-30
6.85468565927587785e-32
1.83271521757512146e-33
4.29245498396369733e-35
8.67921399629484663e-37
1.48558440619890027e-38
2.09439566562915813e-40
2.33580366989545369e-42
1.93202217544907801e-44
1.01746116571705604e-46
3.93762143303678387e-48
4.26738277973513153e-20
2.74505316928192382e-21
1.62149867231240817e-22
8.78136923341355958e-24
4.35006331611055148e-25
1.9665264704354456e-26
8.08353929088441966e-28
3.00768999217642086e-29
1.00745359373620198e-30
3.01698015806617592e-32
8.00738459109162843e-34
1.86274164558180091e-35
3.743316028721828e-37
6.37282618481551131e-39
8.94435311548414232e-41
9.94191455487782578e-43
8.20743149486332844e-45
4.33693593804215005e-47
1.53921016962014794e-48
1.96802595923333227e-20
1.31022335617513054e-21
7.68739453841180323e-23
4.10481639636024864e-24
2.00941663092255087e-25
8.98669189877688595e-27
3.65734390133431131e-28
1.34825423093481226e-29
4.47675351087083707e-31
1.32953584692796831e-32
3.50106154187234098e-34
8.08459715936495101e-36
1.61366683363872917e-37
2.73053303439709969e-39
3.81234646880167396e-41
4.21981262767870125e-43
3.47353905204431277e-45
1.8495257365112184e-47
4.79060763759164441e-49
1.41707732684142419e-18
1.32980870344785457e-19
9.43683902500804406e-21
5.89660561084797903e-22
3.39350086803807319e-23
1.79331591576731314e-24
8.68407665533298425e-26
3.84330583789083643e-27
1.54842886731441067e-28
5.65197989959925046e-30
1.85820361835420338e-31
5.4636947291068655e-33