/*--------------------------------*- C++ -*----------------------------------*\
| =========                 |                                                 |
| \\      /  F ield         | OpenFOAM: The Open Source CFD Toolbox           |
|  \\    /   O peration     | Version:  2206                                  |
|   \\  /    A nd           | Website:  www.openfoam.com                      |
|    \\/     M anipulation  |                                                 |
\*---------------------------------------------------------------------------*/
FoamFile
{
    version     2.0;
    format      ascii;
    arch        "LSB;label=32;scalar=64";
    class       volScalarField;
    location    "0.0299999999999999989";
    object      p;
}
// * * * * * * * * * * * * * * * * * * * * * * * * * * * * * * * * * * * * * //

dimensions      [1 -1 -2 0 0 0 0];

internalField   nonuniform List<scalar> 
7340
(
0.569496895502775269
0.515661823017439458
0.466547911491460576
0.421692050733575075
0.380833852080463497
0.343850389284520386
0.310680297293213226
0.281292159097303651
0.25561038096469324
0.233461834148656733
0.214624007569474529
0.19893196050589812
0.186328319437158996
0.17682731318007483
0.170460438784679758
0.167262578473669654
0.433719075612166716
0.380588083195172677
0.332012518407353907
0.287592387282051831
0.247120536706196159
0.210493471378105923
0.177660133977834311
0.14858729690746153
0.123185084290254432
0.10127147276133619
0.0826318224790452138
0.0671136188651011434
0.0546620255722174431
0.0452845168324269576
0.0390045275585881868
0.0358529630922821418
0.296791614706368279
0.244392844333064074
0.196377655291027464
0.152434545496368479
0.112396841413630488
0.0761747487486073016
0.0437186398319833192
0.0149767437451868712
-0.0101588339115774584
-0.0318629764508946423
-0.0503234546640436431
-0.0656722277097472329
-0.0779641886573982923
-0.0872056764049178312
-0.0933883841501061962
-0.096490067064340046
0.158717023281496949
0.107075812956895611
0.0596600965747067224
0.0162407513815088222
-0.0233172276721587135
-0.0590949193590637467
-0.0911472953477350245
-0.119545783754072765
-0.144410207248932609
-0.165902122734709945
-0.184180467547161664
-0.199356753707605083
-0.211485702793258845
-0.220587474670181471
-0.226670096820030142
-0.229721505139371507
0.200536390847373625
0.135124632784306975
0.0749023457288453542
0.0195678595390251786
-0.0313253265530863967
-0.0781084541263934451
-0.120958286426382955
-0.159993794964845337
-0.195294675800148143
-0.226924858489206516
-0.254969591190204792
-0.279552387847261441
-0.300819612643155931
-0.318905243228216673
-0.33390365197968741
-0.345868932501256499
-0.354832544789686066
-0.360816657465996338
-0.363818296812584041
0.0571637876363664255
-0.00699841484191421337
-0.0661543074160346745
-0.120612873766955175
-0.170772915044442808
-0.21689022875516395
-0.259127995312984805
-0.297603753364617196
-0.332401362376170795
-0.363594737932289247
-0.391277220259899083
-0.415569147868690481
-0.436600253341004274
-0.454483367306453001
-0.469299612923315346
-0.481102801255321566
-0.489932914777394757
-0.495822522229334428
-0.498775956471735116
0.0526914864151390994
-0.0196065987654803209
-0.0873085949344096779
-0.150153064299447525
-0.208242999110811899
-0.261837616068809176
-0.311234242524195182
-0.356646708057840822
-0.398235217803231789
-0.436120440959233191
-0.470394127939719686
-0.501139127673035478
-0.528451145867352201
-0.552441987352280117
-0.573224617401646874
-0.590895156191984405
-0.605525728614698666
-0.617170311457595044
-0.625874047867039707
-0.63167489747666572
-0.634582290812912175
0.512047624588469086
0.46354606745747029
0.419185737661275093
0.378740716263026522
0.342116826081762637
0.30927969320547799
0.280195172893684452
0.254758348592584394
0.232774057754128627
0.214027821624361625
0.198382850791927412
0.185807296126481392
0.176327763447691854
0.169977617492403921
0.166789026048250077
0.429403128083574392
0.377024642902419549
0.329044191554011656
0.285105028033070473
0.245038499246008401
0.208770773105334317
0.17627113977069242
0.14749910173967451
0.12233752633577355
0.100587263512482927
0.0820428061147959742
0.0665763973316675362
0.054155211648916346
0.0447982996073317263
0.038532500942357828
0.0353882776530902721
0.292581535369477841
0.240899270001300625
0.193454490224205689
0.149980975872327615
0.110345954652033118
0.0744828266603483335
0.0423539698822217314
0.0138999986989671864
-0.0110056560533406955
-0.0325478225484123751
-0.0509064217451791201
-0.0661954398701785074
-0.0784532238803969939
-0.0876754124618261965
-0.0938476014023270633
-0.0969445912053124026
0.154631401356840392
0.103662139782334517
0.0567921353320843814
0.0138335641584270697
-0.0253246313448223237
-0.0607470925506607973
-0.0924827718371752372
-0.120608536547606393
-0.145254260737340379
-0.166585645912683322
-0.184755841267340903
-0.199865002994881857
-0.211956432767790526
-0.22104033271766621
-0.227115953965196349
-0.230165124332516013
0.193233455283525313
0.129257756853410122
0.0701168236494964514
0.0155929470878664045
-0.0346602129362769684
-0.0809116645580874039
-0.123307967851180145
-0.161948928970129025
-0.196902351479032456
-0.228228533951455148
-0.256015043060209724
-0.280389074620110756
-0.301497546934488714
-0.319470702934449902
-0.334396656583327179
-0.346321913183007313
-0.355268498021603429
-0.361247815420571605
-0.364248625054623743
0.0500864894268437943
-0.0127097892405736435
-0.0708306099466959882
-0.124499261983385123
-0.174027708730465802
-0.219619801235808598
-0.261410301490640595
-0.299499058414653074
-0.333960013918691567
-0.364863377906316622
-0.392301571887249789
-0.416394212022676902
-0.437269541536562389
-0.455038292128294275
-0.46977875528492552
-0.48153969053962431
-0.490352170115028629
-0.496237130262956017
-0.499189774349069859
0.0421536475809922706
-0.0281616067155852079
-0.094211617225403721
-0.155753769830390132
-0.212834470923489505
-0.265641564919616213
-0.314405695877273406
-0.359295415187904865
-0.400442738018574884
-0.437950545671706992
-0.471900323039329717
-0.502369638192115664
-0.529450587952347673
-0.553251674328445686
-0.573883340811907727
-0.591440387206306539
-0.605993684681861433
-0.617593479386310484
-0.626276834840210572
-0.632070718562862899
-0.63497603250780843
0.508740893311163234
0.460800217478950724
0.416873777654669375
0.37679291414875915
0.340492830506875732
0.307960940961099494
0.279155429654070808
0.253940971707892205
0.23210378818978139
0.213441359292809274
0.197844387059566973
0.185301597722133948
0.175847276280830966
0.169515154394564993
0.166335767602556972
0.425439017944834852
0.373790809348604425
0.326332555956638348
0.282814528084264216
0.243108243784328604
0.207164874399595078
0.174970177356233547
0.146472548895620003
0.121527555560263067
0.0999226624810272135
0.0814647335764908664
0.0660497979814689273
0.0536626726237490193
0.0443297626018779312
0.0380795535355029635
0.0349425827217428875
0.288735806527655958
0.237719215288962893
0.190780943642639089
0.147725354249680585
0.108451392777322297
0.0729127376240947811
0.0410809312750237687
0.012887255810441145
-0.0118124354555040334
-0.0332099171092701262
-0.0514753855501088875
-0.0667061613255928165
-0.0789276445743019028
-0.0881282168941299737
-0.0942890338515687265
-0.0973817438345521147
0.150884570584909561
0.100538013045929908
0.0541653910364088276
0.0116233239140701716
-0.0271733466041710336
-0.0622745981404297932
-0.0937247846479638547
-0.12160596070351537
-0.146056199366758621
-0.167243206307115422
-0.185313703396724039
-0.200358147304741996
-0.212411427947702514
-0.221476499932595106
-0.227545181570381505
-0.23059299425669777
0.186298440899171025
0.123746100505973233
0.065672167857020014
0.0119295507423948788
-0.0377224620779272879
-0.0834823082857092391
-0.125463578869428938
-0.163745517016837594
-0.19838482029723048
-0.229438301706561099
-0.256994456049292719
-0.281182002478787441
-0.302146867506116079
-0.320015722119239898
-0.334872340279588565
-0.346758275575127284
-0.355688274383857417
-0.361663951020319896
-0.364665429605884883
0.0433480047612724295
-0.0180857156114282436
-0.0751856326236048922
-0.128093561169839942
-0.17702393298207264
-0.222125609019429016
-0.26350345393550656
-0.301238670987155066
-0.335395351335168179
-0.366039240289196544
-0.393259907372368822
-0.417174159151325163
-0.437907753185997395
-0.455570029481364491
-0.470238478603113519
-0.481959116117155473
-0.490755794409132751
-0.496638422215232467
-0.499592470764055108
0.0320636415916266682
-0.0363652709155002363
-0.100794056730714621
-0.161038562592313195
-0.217124904680201736
-0.269170587562449715
-0.317331620669698999
-0.361730122269770193
-0.402468410498123097
-0.439630577951531265
-0.473287325656734925
-0.503509779867277629
-0.530384529042355002
-0.554015047789585324
-0.574508707559131304
-0.591959955635016799
-0.606440370302638199
-0.617998447516653115
-0.626664469115113976
-0.632454696545418305
-0.635360683792031145
0.557317831440514722
0.50581101167927911
0.458377148759260056
0.414833011208468161
0.375069160211488395
0.339051763375898041
0.306784564486216826
0.278217583009372715
0.253191593207321652
0.231480517339424541
0.212893710478385678
0.197344033505045591
0.184835407163305376
0.175407256633862918
0.169093526820809803
0.165923762491492877
0.421926048306815682
0.370938658534247123
0.323947830034692519
0.280799611687609918
0.241407473845782761
0.205746435542627726
0.173814340770639841
0.145549501590944041
0.120786907111516628
0.0993061158298869096
0.0809257407812786766
0.0655605435227748501
0.0532080316471654768
0.0438995473536814007
0.0376650305862096246
0.0345356203169746578
0.285334627768075944
0.234923452195269444
0.188435183467811518
0.145746562593385365
0.106787617687796432
0.0715299506097117899
0.0399520750502349031
0.0119782150205540727
-0.0125478234992746351
-0.0338211612616132751
-0.0520034363314214598
-0.0671794704863006853
-0.0793655585639212457
-0.0885447568850721289
-0.0946941038999502549
-0.0977819796865824209
0.147571221531429986
0.0977925021822119156
0.0518636408828039297
0.00968860218147038488
-0.0287927950703055213
-0.0636174426917328617
-0.0948251329655394049
-0.122500171271525016
-0.146784812834123812
-0.167847003071197154
-0.185828620070987771
-0.200813620169768781
-0.212831123640783604
-0.221878210002804721
-0.22793973337166662
-0.230985266604835981
0.179991708598751465
0.118766493316932786
0.0616951084126118321
0.00868530156008406884
-0.0404156313975105874
-0.085733967039032466
-0.127348153135358633
-0.165317232414095239
-0.199687133373113612
-0.230509784114478755
-0.25787160913060081
-0.281900220124359446
-0.302740155487212892
-0.320516263904968346
-0.335310293385542746
-0.347160482448846341
-0.356075223843362876
-0.362046949039966481
-0.365047901569413691
0.0371926494766166016
-0.0229541813253510973
-0.0790880345236593119
-0.131282373809600283
-0.17966285141620042
-0.224322061412125517
-0.265333892461554033
-0.302760966896061134
-0.336656931397468107
-0.36708102830723921
-0.394117400926909722
-0.417878592139771854
-0.438488333747911518
-0.456056222896053187
-0.470660497358229346
-0.482345329827372549
-0.491127983647932087
-0.497008034851568636
-0.499962207766156741
0.0228643988861383374
-0.0438846410166866541
-0.106813839893826756
-0.165828568016830102
-0.220974575674314666
-0.272308214668600002
-0.319914612320518987
-0.363868936744823568
-0.404243523402457505
-0.441103685328168238
-0.474508507783892197
-0.504520750555167652
-0.531219574752605395
-0.554702775728854958
-0.575075475180809814
-0.592433173309665495
-0.606849176319756323
-0.618370711563162478
-0.627021726607007501
-0.632808420056522936
-0.635713963761562972
0.554292227340713151
0.503375555704216993
0.456351858056078363
0.413123430417549953
0.373625927942598413
0.337846005135400418
0.30579674810556523
0.277421214946561578
0.252544116712390077
0.230933366966470377
0.212409832707503243
0.196903526900027437
0.184428607709434145
0.175026869099517146
0.168731533831281588
0.165571203750304319
0.418997565225581514
0.368556804345421707
0.321957012909124929
0.279118760375794084
0.239990700327135098
0.20456526195078939
0.172847435586042986
0.144767922852957698
0.120148670689655512
0.0987664757680855043
0.0804507567361618658
0.0651303664502356217
0.0528111685238994433
0.0435270218871273151
0.0373083549247947843
0.0341866053114789903
0.282483472343930231
0.232585832599041531
0.186480348087569858
0.144101523570238532
0.105406755344043868
0.0703814526484762837
0.0390090894455448201
0.0112097265095036924
-0.0131793976880225649
-0.0343535246564907748
-0.0524667657238797602
-0.0675948486776987156
-0.0797481179883299252
-0.0889063236216278696
-0.0950436661423126328
-0.0981261897303191688
0.144788959217660329
0.0954989265431394063
0.0499489990436190467
0.00808456220637121525
-0.0301335433411962228
-0.0647313013524823955
-0.0957438594871615756
-0.123255178158482748
-0.147408398188067169
-0.16837016405889571
-0.186278396306279737
-0.201212605385045817
-0.21319808305939647
-0.22222769700942524
-0.228281031462362005
-0.231323323634016864
0.174580104442923156
0.114515132789946295
0.058329488874762081
0.0059597731489842154
-0.0426648937638995918
-0.0876049752950616156
-0.128908424394894805
-0.166617166323490995
-0.200767178392844414
-0.231404470958045616
-0.258611438612626365
-0.28251297749900961
-0.303251846829105887
-0.320951715408175353
-0.335693237335834338
-0.347512305619837258
-0.356412362232800373
-0.362378708522373527
-0.36537784772341042
0.0318885964156250257
-0.0271221304684954312
-0.0823974691468434273
-0.133965373029220514
-0.18186863939762965
-0.226147964789660705
-0.266849993568734289
-0.304021022800335494
-0.337704372647634532
-0.367951587333873675
-0.394840183492435104
-0.418478020936928985
-0.438987079945518222
-0.456477586040129779
-0.471028664756638182
-0.482682967591418821
-0.491452380645891695
-0.497328366689806289
-0.50028129345939254
0.0149722498391662295
-0.0503727190552829551
-0.11200592431120926
-0.16993231748895532
-0.224244468270561992
-0.274953262768896867
-0.322078003219708808
-0.365650835452342893
-0.405717397066626573
-0.442326194379510484
-0.47552481761049048
-0.505366811247373038
-0.531923373478150996
-0.555286869044797182
-0.575560732973103839
-0.592841723528542808
-0.607204647668162956
-0.618695480356092453
-0.627332859365876239
-0.633114998088796233
-0.636018963210566168
0.551959369053443227
0.501486824460196212
0.454773105181606185
0.411791905617434173
0.372507624943804405
0.336916634267963477
0.305034572391363668
0.276798933977203232
0.25202649769225971
0.230486091176022478
0.212010122663454759
0.196540673027990609
0.184096877459032582
0.174719917668914482
0.168441400573881461
0.165289384235929315
0.416731953098572916
0.366708251182686018
0.320410488137985006
0.277817368026471057
0.23890023129154403
0.203660424474690238
0.172105146898213102
0.144159844092677902
0.119640836813702967
0.0983276095566638642
0.0800599357182238958
0.0647764320485721967
0.0524869939096264115
0.0432253998890461677
0.0370214358650109432
0.0339066689072933247
0.280271673221638595
0.230773112724530938
0.184968045770178557
0.142834961741515443
0.104349336412310034
0.0695045911138558736
0.038286627765317327
0.0106134914338329445
-0.0136791937116924611
-0.0347833418575922426
-0.0528458402053471055
-0.0679360738622081239
-0.0800613783781163324
-0.089200423446971655
-0.0953262238213419266
-0.0984034782096492311
0.142628514544584473
0.0937231372820610531
0.0484730809194022783
0.00685483688687327231
-0.031156753051903463
-0.0655802330196098016
-0.0964470835856199304
-0.123839622557426088
-0.147899320019829528
-0.16878964888273984
-0.186644464487445871
-0.201540008015524075
-0.213499399141881208
-0.222513246607320303
-0.228558105172383064
-0.231596668557086716
0.170303061523534138
0.111167327037235975
0.0556988390463644123
0.00384165582054696308
-0.0444048391919678043
-0.0890441075025980577
-0.130101809933913071
-0.167607796206537873
-0.201590079669511812
-0.232089199243142419
-0.25918316990612067
-0.282993334550275311
-0.303659806456914705
-0.321304557621850284
-0.336007117150371792
-0.347801729094942225
-0.356688655127483045
-0.362648773776870881
-0.365645217367101205
0.0276811836395427502
-0.0304124784705177564
-0.0849896363097757401
-0.136053804215047425
-0.18357531181210307
-0.227551859729687722
-0.268009546375268304
-0.3049820113762165
-0.338503567090332025
-0.368618566784286505
-0.395398392114449493
-0.418946508441766063
-0.439382870280275117
-0.456817531434081658
-0.471329718097742489
-0.482960652128439527
-0.491718455376676022
-0.497589386232127451
-0.500540076468620976
0.0087380631987661328
-0.0555239071470623458
-0.116128000650590257
-0.173174646231111007
-0.226810085826580021
-0.277015573723504271
-0.323754142096437603
-0.367023156896570946
-0.40684725561135382
-0.443261297219611938
-0.476302693277827149
-0.506016608309861837
-0.532467320087558926
-0.555742636473113949
-0.575944372864271026
-0.593169726511741047
-0.607493981837260666
-0.618961696185307275
-0.627587600685832747
-0.633364650591402345
-0.636266288539746316
0.550361891295384709
0.500179218210150989
0.453680754455361157
0.410877500733112022
0.371747988426809561
0.336292228904185198
0.30452332750483202
0.276374168472313331
0.251660899528109994
0.230159565243370556
0.211713630988759727
0.196271972178508891
0.183853726287765307
0.174497051348058152
0.168231541805817786
0.165085431501980517
0.415173252203493881
0.365430996319907164
0.319347158709695655
0.276931811381003756
0.238167578527898272
0.203059372171367158
0.171612597937729205
0.143749038080745573
0.119285876329033425
0.0980102907723434669
0.0797718390039179326
0.0645146418746160855
0.0522485434295718587
0.0430050220549742512
0.0368124726686507309
0.0337027970781238473
0.278749339219021675
0.229527391492127419
0.183936725061952577
0.141980763187002257
0.103644849921652682
0.0689261799134708308
0.0378102195765965821
0.0102138629128047942
-0.0140247363627363786
-0.0350906953730529825
-0.0531235915301484507
-0.0681888810048272287
-0.0802936377765275378
-0.0894175444186311452
-0.0955339715749472518
-0.0986070410705077727
0.141142563138848098
0.0925091508986104483
0.0474735903723089159
0.00603126665391684469
-0.0318345106641730879
-0.0661379263545605056
-0.0969090699281529577
-0.124228952184904706
-0.148235474535844292
-0.169086653147062504
-0.186911388209825668
-0.201783284277626596
-0.213724785494727065
-0.222726264123727313
-0.228763644211938511
-0.231798839011824631
0.167340445850833408
0.108844710406784007
0.0538801299940097067
0.00238670275317320879
-0.0455897356913146368
-0.0900140703170062562
-0.130897709771772064
-0.168262205322062375
-0.202129999716310849
-0.232538413590027027
-0.259562508887919652
-0.283319800165707347
-0.303946268080769189
-0.321560674286653692
-0.336240721506204432
-0.348019551359518786
-0.35689621452747522
-0.362850234061412591
-0.365843861781809832
0.0247581143451531815
-0.0326963116062284342
-0.0867803913133446958
-0.137485960221359171
-0.184734732124400614
-0.228496019419081264
-0.2687821577714129
-0.305617321385736718
-0.339028999784449336
-0.369056842151547437
-0.395768341093372777
-0.419263358280512533
-0.439658879024632077
-0.457062937248093215
-0.471553359504598646
-0.483169880623705694
-0.491918738563975833
-0.497784382278164017
-0.500732544407863411
0.00443939343040811174
-0.0590951505392720566
-0.118988968231316994
-0.175420240846409614
-0.22857900699636291
-0.278427773584899896
-0.324892094562092559
-0.367946747334487956
-0.40760192218718827
-0.443882094077832523
-0.476816875416693264
-0.506445762204755123
-0.532828739341618673
-0.556050395201084235
-0.576210415001602527
-0.593404679682346892
-0.607707273241254953
-0.619161034690645984
-0.627778470276972422
-0.633550514316711721
-0.636449703587405047
0.549543014140327912
0.499499844718279684
0.453116609735254361
0.41041154424208548
0.371367411113204371
0.335985216683676979
0.304273561725544539
0.27616180229456333
0.251469159346345617
0.22998061162741279
0.211547820073315629
0.196121866843262493
0.18371917316900066
0.174374486226709369
0.168115841536536026
0.164972135378218976
0.414368375272874845
0.364769043723671471
0.318802748440802475
0.276486091782094823
0.237806046745564936
0.20276890354961008
0.171376429042380041
0.143547603184867034
0.11910330644540279
0.0978393996909532326
0.0796127038554184097
0.0643691813412439195
0.0521164537583609366
0.0428832470084818951
0.0366966937554804584
0.0335893063247565404
0.277962270394737532
0.228886764449962365
0.183414475821263245
0.141555981604098324
0.103301679144431002
0.0686502986429056161
0.0375848113630414815
0.0100208095894716021
-0.0141996047601451458
-0.0352541679951352549
-0.0532765790026210606
-0.0683305743416298128
-0.0804245051672567435
-0.0895398377343898932
-0.0956509745911315878
-0.098721898241535877
0.140374806180693312
0.091889845393020142
0.0469723861192150594
0.00562566462073998963
-0.0321616979713130746
-0.066401875004596933
-0.0971259863980589166
-0.124415052427998329
-0.148403330527438149
-0.169243037127295048
-0.187058431931165448
-0.201921292820427478
-0.213854310915978951
-0.222848721309453213
-0.228881385932944603
-0.231914708645767798
0.16581911392599169
0.107640720842435922
0.0529358915154833909
0.00163789634035893528
-0.0461897990457291741
-0.0904969417568246559
-0.131287391406589515
-0.16857699097070622
-0.202385192930965463
-0.232748950378847574
-0.259742654662679984
-0.283480934493923309
-0.304095474201410143
-0.321701313158802682
-0.336374071360282301
-0.348146207139012231
-0.357016897021561253
-0.36296658696290951
-0.365958513916424311
0.0232530882044574838
-0.0338768879303699144
-0.0877052097437498457
-0.138217938957737152
-0.185318299282634324
-0.228964042370979337
-0.269159798095488068
-0.305923364547859622
-0.3392783449869885
-0.369262975599127907
-0.395943786247666907
-0.419418572212085561
-0.439801272982543345
-0.457196899271156365
-0.471680995242066414
-0.483291931934389796
-0.492035538298132735
-0.497897134127076146
-0.500843703996625811
0.00225871681095624055
-0.060919816537532645
-0.120456308818384095
-0.176572390172895277
-0.229485087703096058
-0.279144936661432252
-0.325462895807718144
-0.368404460825132007
-0.407971939490322733
-0.444183154482298281
-0.477063278267430668
-0.506649686367621754
-0.533001215441115672
-0.556200993431879454
-0.576346609837999013
-0.593531564836379921
-0.607827729410230333
-0.61927627020733067
-0.627888926349929877
-0.633657260852509063
-0.636554983634876503
0.538922183418965917
0.485766170655439478
0.437385040520674062
0.39354758946508217
0.354023564624836862
0.318638810265586381
0.287347832320402619
0.260163856625587275
0.236992987779982567
0.217583001401016274
0.201633649584071595
0.188928173308558378
0.179372295709430585
0.17295795887051213
0.169727325281419761
0.461065179120203616
0.40358590200768063
0.3510532466642029
0.303222684191793768
0.259844731496749137
0.220698679631816663
0.185642733288388762
0.154655467082707387
0.127746477512150181
0.104807064737712619
0.0855828430257987716
0.0697851925322527933
0.0572089383194602785
0.0477628188174847867
0.0414332932762522255
0.0382526021742355393
0.323609151155815233
0.266889623252459351
0.215064478989689833
0.167845931479992938
0.124986649579846176
0.0862913092546930827
0.051648598810726698
0.0210358229017855169
-0.0055674329932153821
-0.0282850627876207739
-0.0473515783196525319
-0.0630209841343221111
-0.0754767064621904016
-0.0848099129188286671
-0.0910492589828728605
-0.094180103782272262
0.184853536534314911
0.128977287134218521
0.0779078629496448016
0.0313421023338082971
-0.0109503753178743501
-0.0491409047276516464
-0.0833214911277402326
-0.113525664899707612
-0.139802823897825279
-0.162286581610981528
-0.181188180452285685
-0.19672536110350558
-0.209058223609292826
-0.218277073178003045
-0.224426330081543224
-0.227509489034070977
0.242669901329029658
0.170768034928533208
0.10503635190011007
0.0449334215882184473
-0.0100660387212812008
-0.0603624503583850558
-0.106243046484977066
-0.14792490841685213
-0.185564403414728574
-0.219247569492627914
-0.249020892577451081
-0.274954251384336379
-0.297185037728916024
-0.315903101129115127
-0.331294656132632426
-0.343498706865298153
-0.352603517395106314
-0.358665840296196636
-0.361703225816532248
0.0980724393723739762
0.0275815843430111673
-0.0369821035087007921
-0.0960880510441539659
-0.15020910089241224
-0.199715352310173122
-0.244879087248468741
-0.285908604636068597
-0.322954227646425673
-0.356106336043353844
-0.385426899158184177
-0.41100049234560454
-0.432962492686456368
-0.451481328272507865
-0.466715813135329505
-0.478787254248588034
-0.487781330085606424
-0.493762430956145693
-0.49675731187775285
0.10843892872665295
0.027220342011835319
-0.0477351774224863412
-0.116757494239382753
-0.180114973100171216
-0.238201105024186788
-0.291424504876903301
-0.340115853249661315
-0.384529921367013916
-0.424867907453666094
-0.461281472605361786
-0.49387290546842233
-0.522721143189642801
-0.54792035763017366
-0.569598638608086461
-0.587903126542156373
-0.602969946005554869
-0.614906816502466036
-0.623796023385740028
-0.629703434062769629
-0.632658987380478433
0.538072406726649799
0.485080964446784613
0.43683779924852284
0.393107641864993695
0.353670593655852405
0.318356801289991553
0.287126145780622011
0.259996706068185812
0.236872890374768996
0.217496732941676374
0.201566151294815032
0.188868809419832084
0.179316137636554629
0.172903436902804852
0.169673771839029097
0.460028575917058813
0.402725041265002304
0.350366501235563677
0.302673277423994858
0.259401447563942567
0.22034093114605624
0.185355432267830134
0.154429998550786651
0.127577663184789802
0.104686112077493121
0.0854953583619115776
0.0697165641713932693
0.0571500118581689254
0.0477098442633046016
0.0413845961262717665
0.0382061248834419942
0.322563530611662541
0.266033575282826895
0.214380848698787929
0.167297545626101662
0.124543129434583566
0.0859314081054987078
0.0513586460047203985
0.0208088186054311564
-0.00573708539571815557
-0.0284076438851736945
-0.0474418776368648043
-0.0630922786443623984
-0.0755361587185132688
-0.0848600371580343626
-0.0910920783661604005
-0.0942191619219434617
0.183822323815492794
0.128137367847687367
0.0772322404633365434
0.0307973610585463575
-0.0113925727425139289
-0.0495009673228787861
-0.083611370982345834
-0.113751639495482948
-0.139971843985309041
-0.162410674191733051
-0.181282149740343623
-0.19680054579625561
-0.209119374052372242
-0.2183254306313549
-0.224464462281535049
-0.227542494461077327
0.241102423976843783
0.169377831706593041
0.103841254830613794
0.0439346009175416441
-0.0108828809395442594
-0.0610258979598490292
-0.106781485178732316
-0.148363297319570764
-0.185921465546697195
-0.219534196602858334
-0.249243620066872396
-0.27512159508733447
-0.297310239367498452
-0.316000361580609068
-0.331373212162849651
-0.343561250097876192
-0.352650536258086067
-0.358700664583051276
-0.361732224060136387
0.0965603080190295948
0.0262491672024613987
-0.0381234179696534614
-0.0970427429731608449
-0.150998293484492896
-0.200362968396952557
-0.24540756164855515
-0.286339273190936883
-0.323304216663562238
-0.35638637316541355
-0.385644524851280757
-0.411165491776100955
-0.43308828130012289
-0.45158077414488873
-0.466796299234694345
-0.478850379609515153
-0.487827689313126811
-0.493796207683502741
-0.496785435009734044
0.106633830446221545
0.0256261210809995976
-0.0491650304290245366
-0.118010967759581975
-0.181187844502948225
-0.239105689668254406
-0.292180916457254414
-0.340741466786791847
-0.385041954745422466
-0.425284641465858204
-0.461618998457350438
-0.494142516220090755
-0.522931557331921759
-0.54808179216877595
-0.569723489371857461
-0.588002486162520377
-0.603050063650014234
-0.614969486111135444
-0.623842794201787676
-0.629739171375586437
-0.632690852383030133
0.594115745268621209
0.53635247683665388
0.483670662807641483
0.435706641065468636
0.392206949050569742
0.352963659856693202
0.317812364325622765
0.286714472325421577
0.259689602935201602
0.236642544724940951
0.217315357448795599
0.201409956100466747
0.188722721397996951
0.179173751593135977
0.172763072505110804
0.169534637371701713
0.457976357128583977
0.400984791465845314
0.348960473909184277
0.301543099584858032
0.258496662218042683
0.219627101674911174
0.184803426610108623
0.154012895323896615
0.127268274659130931
0.104454990496063216
0.0853131112095069088
0.0695598534175667638
0.0570053995223562815
0.047571947934483827
0.0412513006080790223
0.0380752158904478222
0.320507138288737004
0.264326113935165807
0.212998645361169858
0.166180682824664361
0.123644690734041385
0.0852179369716123958
0.0508038583421261958
0.0203886395014769572
-0.00604926710374797949
-0.0286421462636943236
-0.0476280780878159948
-0.0632518394856640409
-0.0756804140002951264
-0.0849933836082779059
-0.0912174167200117125
-0.0943405985569132355
0.181811429169595584
0.126480764256889922
0.0758815034926449972
0.0297002577327960537
-0.0122792032813727747
-0.0502087087320681746
-0.0841638955114274445
-0.114171319590784526
-0.140285387828110952
-0.162648787710115483
-0.181473133308693413
-0.196963600972424935
-0.209263530636659256
-0.218454310148094688
-0.224582030998623505
-0.227654795416251998
0.238057743403857991
0.166691298000444688
0.101532182633519819
0.041993755874861316
-0.0124852634935652684
-0.0623397359008313057
-0.107853447503664546
-0.149232582733410446
-0.186617571291266326
-0.220079230015766125
-0.249659348463514563
-0.275434870532810461
-0.29755129493043575
-0.316195560727949632
-0.331539088870633991
-0.343704920397922553
-0.352775343665482799
-0.358811770400189411
-0.361837249826103768
0.0935950706231361007
0.0236595322314545609
-0.0403366264608970848
-0.0988996158873740594
-0.152540004358701076
-0.20163332286869351
-0.246447211097536645
-0.287184129926327358
-0.323982288756570647
-0.356919217468359529
-0.386053775075748451
-0.411477453757088218
-0.433331487502645052
-0.451778985393676447
-0.466963712516645035
-0.478993058810459171
-0.487949310250930246
-0.493903015153487113
-0.496885966973449333
0.10303761015256474
0.0224483137732807148
-0.0519941506860155389
-0.120463164493890718
-0.183281095195095167
-0.240870294591539968
-0.293654646669940567