/*--------------------------------*- C++ -*----------------------------------*\
| =========                 |                                                 |
| \\      /  F ield         | OpenFOAM: The Open Source CFD Toolbox           |
|  \\    /   O peration     | Version:  2206                                  |
|   \\  /    A nd           | Website:  www.openfoam.com                      |
|    \\/     M anipulation  |                                                 |
\*---------------------------------------------------------------------------*/
FoamFile
{
    version     2.0;
    format      ascii;
    arch        "LSB;label=32;scalar=64";
    class       volVectorField;
    location    "0.0299999999999999989";
    object      U;
}
// * * * * * * * * * * * * * * * * * * * * * * * * * * * * * * * * * * * * * //

dimensions      [0 1 -1 0 0 0 0];

internalField   nonuniform List<vector> 
7340
(
(0.0714236040635271296 0.0296857337817772876 0.00512417151674585906)
(0.0657853427765773546 0.028248167905364583 0.00419137111452627404)
(0.0603262240157105833 0.026866515920521087 0.00343915621127933394)
(0.0550427811780801607 0.0256414290349246086 0.00283305639884248077)
(0.0499835272544932804 0.0245821983162973802 0.00233373100186446639)
(0.0450981963178485531 0.023652328975545419 0.00192099534485051836)
(0.0403705679305464832 0.0228441492404025497 0.00159011741174157925)
(0.0358070028648532351 0.0221479932215790168 0.00132757179874291127)
(0.0313705845323922344 0.021542689309528032 0.0011118522810628776)
(0.0270132411294093482 0.0210183107623179259 0.000930176436858943341)
(0.0227191800523235156 0.0205772644716939665 0.000779903726573861816)
(0.0184897333697362186 0.020223524977716633 0.000661277589268815646)
(0.0143201241157509523 0.0199573189842070786 0.000573356078035831395)
(0.0101974291528200405 0.0197741769592039984 0.000513179245281543232)
(0.00610216594225965973 0.01966690264798715 0.000476956403762402912)
(0.00203338368725855491 0.0196124025394515886 0.000465149734478742733)
(0.0706955673643702154 0.0327001804417511449 0.00502156625396182714)
(0.0651313511553753971 0.0310685406829241152 0.00410383511138690416)
(0.0597278540566880609 0.0295410331819233526 0.00337756249166704147)
(0.0545308231121265086 0.0282230098349280784 0.00278214115255878865)
(0.0495420064512172159 0.0270763473495959431 0.00229154129714471012)
(0.0447178792423491497 0.0260688856182592112 0.00188884456255169727)
(0.0400516906242949222 0.0251969820608733443 0.00156684213174877567)
(0.0355406762757969202 0.0244329990576318754 0.00130920992747835582)
(0.0311449130813482404 0.0237478333592799282 0.00109603757485494382)
(0.0268223667213243339 0.0231461544643232972 0.000916311485566784429)
(0.0225608899906214154 0.0226465100573969777 0.000767727754662778615)
(0.0183628706117160076 0.0222559805901592252 0.000650190538359599231)
(0.0142238535399771097 0.0219689032663596372 0.000562367087923427902)
(0.0101299707820920338 0.0217742593608492678 0.000501519288279689474)
(0.00606120026193641189 0.0216613914015852081 0.000464579945603449829)
(0.00201927843843767484 0.0216035072041041339 0.000451909179252379663)
(0.0698725268414087802 0.0355598913156224064 0.0049134762285268415)
(0.0643821571343744792 0.0337801343332567033 0.00403334077917981426)
(0.0590754179470095869 0.0321605799415578611 0.00331263540856678237)
(0.0539675201831933196 0.0307564305118740201 0.00272707819881470425)
(0.0490518004476741404 0.0295196679748219656 0.00224759616038496977)
(0.0442990482461350643 0.0284337101641009699 0.00185562689822270041)
(0.0396984317311261867 0.0274925177938660469 0.00153993881739036853)
(0.0352381587732923524 0.026665453724246533 0.00128559795793012398)
(0.0308835504736779468 0.0259279710129133555 0.00107625293201028534)
(0.0266014402199618478 0.0252857545158609621 0.00090163005212510279)
(0.022381032583342484 0.0247545980601727444 0.00075783481764313005)
(0.0182222048333254526 0.0243389726151735375 0.000643224989416934742)
(0.0141189447301454506 0.0240314336464815502 0.000555975253993412025)
(0.0100570933093594751 0.023820447272830874 0.000493965453045755931)
(0.00601551827844293546 0.0236966629276383796 0.000455388157676925754)
(0.00200254079050493552 0.0236296411394176439 0.000442030786817661204)
(0.0689891380431511547 0.0383544873645917175 0.00482412913674787162)
(0.0635925637588175136 0.0364616141422135637 0.00395165752071916215)
(0.0583719368695894344 0.0347503109366233548 0.00324411948173769157)
(0.0533534517781321729 0.0332533025698555987 0.00266902522614675302)
(0.048515701924274568 0.0319322949008154777 0.00219947268691341683)
(0.0438381373095438967 0.0307704673759780292 0.00181721154618891094)
(0.0393079962430401275 0.0297574934291651924 0.00150957079295599948)
(0.0349075840079431654 0.0288700714554314883 0.00126156619002948259)
(0.0306032562036650489 0.0280896736139402865 0.0010577428708885533)
(0.026366460546358262 0.0274173239772663203 0.000887900130160694458)
(0.0221886269379485412 0.0268612874490982527 0.000747508278919518151)
(0.0180698841475518089 0.0264226904474613132 0.000634498047036897105)
(0.0140040807994792904 0.0260943793976243475 0.000547190350104741772)
(0.0099769290047608955 0.0258664073320641966 0.000484120270123250963)
(0.00596646932380163076 0.025731198997938149 0.000444295797625445226)
(0.00198527929314901413 0.0256590679275546935 0.000430505675232696009)
(0.085173503118782426 0.0486707279531538306 0.00866257949058412031)
(0.0792304091985534115 0.0459077204501264907 0.00707626187058823814)
(0.0735206423516983204 0.0433974922974892791 0.00577920437405494893)
(0.0680345002388144382 0.0411661863529657404 0.0047248212367125321)
(0.0627268677214010695 0.0391045882894666616 0.0038669899155839068)
(0.0576129402362987458 0.037297575991517222 0.00317351970821963189)
(0.05269061002904811 0.0357090733288757609 0.00260936118792852965)
(0.0479379801176708434 0.034307749145665381 0.00215025698069146566)
(0.0433408765572078566 0.0330754451016500861 0.00177783535163264007)
(0.038883850073064434 0.0319978714534237263 0.00147809886132465175)
(0.0345452327720092225 0.0310524236336526399 0.00123625256712615829)
(0.0302942159775662322 0.0302230687454069433 0.00103793134981657801)
(0.0261074539882356488 0.0295108374377535156 0.000873135904743341804)
(0.02197807696882716 0.0289227877606989259 0.000736605000825478994)
(0.0179050848675084487 0.0284590679721828735 0.000625596325454062427)
(0.0138810620855483006 0.0281115640848616372 0.000538424411175812819)
(0.00989150420103774956 0.0278694408410294116 0.000474289210196038443)
(0.00591450336443092792 0.0277245219773140199 0.000433141023559964694)
(0.00196713059300030217 0.0276464007773110469 0.000418855939255843987)
(0.0836882604509767286 0.0519164803455645085 0.00847344256654544367)
(0.0779295336006255446 0.0489710387651582715 0.00691562910516816103)
(0.0723547108124985711 0.046286180529821648 0.00565001405841272872)
(0.066984837653965193 0.0438527123690954646 0.00461670364749089662)
(0.0617987489704853732 0.0416898172340778306 0.0037807897640334924)
(0.0568060375629746567 0.0397952792943890993 0.00310083883559249176)
(0.0519833014964608056 0.0381208512760710591 0.00254821125657759976)
(0.0473218203350685429 0.0366427954829797384 0.00209986819453283598)
(0.0428091537032066344 0.0353419120149263549 0.00173729948431455882)
(0.0384276596210185312 0.034201517669626133 0.0014455348038947438)
(0.034153555408694608 0.0332007480386869516 0.00121003295832939153)
(0.029959542963501163 0.0323257876389962603 0.00101740580779869955)
(0.0258272365485569221 0.0315767808767879674 0.000857855252976566377)
(0.0217511195125426743 0.0309587379776312538 0.000725412088869808796)
(0.0177285013291926183 0.0304707743467864424 0.000616596962564367043)
(0.0137500475461734828 0.030104534211011863 0.000529645746362614103)
(0.00980069009684507615 0.0298487638503572225 0.000464440217365967069)
(0.00585932675497446986 0.0296941993780138191 0.000421998994168431803)
(0.00194635784850481449 0.0296102487264994878 0.000407204487521547424)
(0.0943140257681719107 0.0624235453041700819 0.0123001944927472844)
(0.0879730120400266657 0.0584148896744492996 0.0100904361235333792)
(0.0821437592196971322 0.0550319947050997016 0.00826286168959278894)
(0.0765281529673779298 0.0518931004147583502 0.00674542006016244384)
(0.071091199359023402 0.0490621724634552892 0.00551771820994606012)
(0.0658629587459370891 0.0465077480248317215 0.00451356213633256897)
(0.0608120806112253526 0.04426499144446569 0.00369519359256191343)
(0.0559307151399163344 0.0422761511830894443 0.00302909065689592168)
(0.051209241811058584 0.0405144595412111203 0.00248839134272844627)
(0.0466405193650823585 0.03895611049200845 0.00205074334140118624)
(0.0422126438197311174 0.0375805987205065015 0.00169749256564279507)
(0.037906627788523134 0.0363700457377768779 0.00141312870759485298)
(0.0336985279898914664 0.0353064497903256766 0.00118352194986309669)
(0.0295651553687822921 0.0343789453670549083 0.000996201289138210497)
(0.0254926522158831145 0.0335871055813785416 0.000841613787842101298)
(0.0214764030859323496 0.0329336217995223404 0.0007132205892928428)
(0.0175116746567361495 0.0324162825741685368 0.000606882831266794976)
(0.0135868856174914225 0.0320267477055362487 0.000520716214121823523)
(0.00968614833858048169 0.0317538953365100879 0.000455150950752876253)
(0.00579002180059291771 0.0315872884582885233 0.00041213895638549195)
(0.0019220870195352719 0.0314921771685939197 0.000397012095571556934)
(0.0648994480075945485 0.0280651814907735726 0.00406002141151639608)
(0.0596019714166870357 0.0267503810187781077 0.00331870966992293872)
(0.0544489921977292859 0.0255482236800654815 0.00272233441020393709)
(0.0494936856051734764 0.0245099858341062023 0.00223590639067134181)
(0.0447021178893551308 0.0235978977994447774 0.00183637260316667802)
(0.0400607829531928264 0.0228048709956450331 0.00152041521652562859)
(0.0355643638449755148 0.0221167588178362295 0.00127447327085418536)
(0.031172277074648716 0.0215144186476572685 0.00107236219926606859)
(0.0268472279142073222 0.0209928892510275154 0.000898462081934216835)
(0.0225833269617373884 0.0205568876044360388 0.000751439879638594183)
(0.0183842920855383819 0.0202097416967455916 0.000634193299186494391)
(0.0142436142538805363 0.0199496612407466904 0.000547771139006087305)
(0.0101462914820816142 0.0197705736288215778 0.000489973895104103027)
(0.00607220546150088938 0.0196649962535772292 0.000456530261155110092)
(0.00202299957264291371 0.0196099566398105878 0.000444786975158594465)
(0.0696479438016621016 0.0324775879920486329 0.00485358701231535569)
(0.0642693439195218125 0.0309080710474365951 0.00397065652162705701)
(0.0590287699326789012 0.0294206990643675545 0.00325406838167392786)
(0.0539488634815742663 0.0281293557632037623 0.00267172058574222148)
(0.0490635767225783351 0.0270082391056129072 0.00219531577898848633)
(0.0443324164078489347 0.0260223433764977252 0.00180612097236157172)
(0.0397502633852133969 0.0251615013924037928 0.00149932692910812251)
(0.0353028531873442186 0.024397236518024671 0.00125815603681392373)
(0.0309490725327122226 0.0237104184203801131 0.00105824650614461937)
(0.0266578685124136579 0.0231129809174012574 0.000886301863270944675)
(0.0224263207363121914 0.0226226913272176006 0.000741449205764224705)
(0.0182587267254493354 0.0222423815146491795 0.000626147783454946718)
(0.014148510479233831 0.0219627513014086784 0.000540741578081637428)
(0.010079667680570845 0.0217715234727814469 0.00048277345345657148)
(0.00603186727942119343 0.0216590942609603751 0.000448512351663835779)
(0.00200914307820591713 0.0216005812098542978 0.000436035560822658748)
(0.0688547596526836309 0.0353743922331901522 0.00474795020752752546)
(0.0635488681728333671 0.0336427363993618 0.00389383781808821288)
(0.058383761576167148 0.0320371365473749933 0.00319012894833060759)
(0.0533995171328926765 0.0306602110136560621 0.00261980100288752155)
(0.0485872710954483034 0.0294485009039357377 0.00215520984704960792)
(0.0439253006232131135 0.0283847053745045555 0.00177766854486862184)
(0.0394031070812663892 0.0274536867315938668 0.00147738826065937369)
(0.0350019002135776996 0.0266256242913717987 0.00123777692422392363)
(0.0306883384772511855 0.0258864506992393245 0.00103898543698272851)
(0.0264386526435033686 0.0252486159092464302 0.000870007966421956248)
(0.0222490677620265885 0.024726825031073766 0.000729067511309033868)
(0.0181204365837857491 0.0243209954018585202 0.000616854154411517223)
(0.0140448423012291754 0.0240199653398886145 0.000532546684714854863)
(0.0100068197802986175 0.0238111973841950222 0.000473703354874146143)
(0.00598561213335413282 0.0236867035481689164 0.000437648396896533984)
(0.00199202002617954827 0.0236179584400079655 0.000423698219781163613)
(0.067983024175234455 0.0381869413844156402 0.00466360763086645126)
(0.0627647795147826953 0.0363053724230749802 0.0038146996933702544)
(0.057694738834538406 0.034624290429347053 0.00312491931603793571)
(0.0527989727248237076 0.0331539168634333026 0.00256576823186753858)
(0.0480644411765737412 0.0318567296444708728 0.00211175552149369533)
(0.0434759138076651619 0.0307146886570525378 0.00174437197661586737)
(0.0390203355619033812 0.0297118945478607004 0.00145138991869564601)
(0.0346756477722178699 0.0288268382467650394 0.00121609389456296549)
(0.0304110270241608194 0.0280487175283227474 0.00102076388229195092)
(0.0262064667894235173 0.0273828866960456607 0.000855479366063400105)
(0.0220591964180765626 0.0268361217221921786 0.000717926790638535785)
(0.0179698227533548471 0.0264058289120397 0.00060783703904744254)
(0.0139304935213087518 0.0260822897416174843 0.000523862687506917004)
(0.00992617923285163059 0.0258553282784023362 0.000463830059121481944)
(0.00593575941521778082 0.0257188361931386771 0.00042598325406615603)
(0.00197435434996386366 0.0256448800459450343 0.000410713171953969072)
(0.0833982190889649561 0.0483392005168148398 0.0083283282697690815)
(0.0777707151187846113 0.0456254893184600829 0.00681909564220707209)
(0.0723202749273312434 0.0431574419057799558 0.00558294701945584969)
(0.0670458604850292655 0.0409619606505678691 0.00456414803514177281)
(0.0619192660378645454 0.0389438108757002993 0.00373309815497546759)
(0.0569518648148504905 0.0371689265511565767 0.0030587175647364016)
(0.0521510176592214839 0.0356082487017500421 0.00251165052548026849)
(0.0475004751505987005 0.0342307364908021466 0.0020686039819800689)
(0.0429896374392016375 0.0330167807396920532 0.00171084037169732411)
(0.0386031153594337054 0.0319484379705332264 0.00142424660768738381)
(0.0343175692240187402 0.0310060391001867226 0.00119277914032491395)
(0.03010581617806566 0.030180604920238701 0.00100110586754655626)
(0.0259515349873137499 0.0294764273749581751 0.000840221455754657041)
(0.0218521719908820397 0.0288983853515344564 0.000706816280100983942)
(0.0178069859219096432 0.0284427102178483569 0.000599221032160822224)
(0.0138075798573505087 0.0280990297270117054 0.000515470459355521797)
(0.00983960181702122315 0.0278568137955512232 0.00045386210229063481)
(0.00588248205203671919 0.0277097808959233111 0.00041382302880457896)
(0.00195565898168335167 0.0276293648175602903 0.000396998730731958039)
(0.0819563001133434832 0.051535186179364631 0.00814275887245255979)
(0.0765014639238056349 0.0486545610387152591 0.00666692110723468394)
(0.0711821606326059897 0.0460263746863655288 0.00545660286819692631)
(0.0660211729891305582 0.0436495107011346806 0.00446055787502085393)
(0.0610109264954304259 0.041527373706398564 0.0036516626180448453)
(0.0561616554504214688 0.0396653329356526571 0.00299219991361178699)
(0.051459175746386622 0.0380188340527328611 0.00245765442523069666)
(0.0468979039187068375 0.0365637734459378638 0.00202543351494349202)
(0.0424682873450345916 0.0352797365895042153 0.0016765581994661299)
(0.038153633951442785 0.0341483050759721907 0.00139582748639965719)
(0.0339306685855408283 0.0331519985439784615 0.00116825397319981952)
(0.0297759299656470446 0.032282832258790542 0.000980678236532453364)
(0.025676329696240674 0.0315431133634653596 0.000824730893993980163)
(0.0216292509157706425 0.0309353692284535728 0.000695893079644886985)
(0.0176322904551343765 0.0304549767298551294 0.000590929460291562481)
(0.0136761595071139413 0.0300916806925127026 0.00050722700686424481)
(0.00974702520443026209 0.0298349210013157465 0.00044367950618294207)
(0.00582556687748776551 0.0296776406290637992 0.000401094809923419299)
(0.0019342087412673797 0.0295909545061553182 0.000382413732698989167)
(0.0917880927951466724 0.0617950098844924495 0.0117687142583327228)
(0.0859291469071499364 0.0579446420837341492 0.00967677565841289396)
(0.0804483207855729993 0.0546303443201729619 0.00794762247527183718)
(0.0751341843775482077 0.0515722666822746728 0.00650888012261067583)
(0.0699471758577731306 0.0488030100046791399 0.00533152932869505533)
(0.0649224387618614895 0.0463051045815559836 0.00436346885263903198)
(0.0600426455750150412 0.044102657014609338 0.00357247967723508218)
(0.0553033263679469506 0.0421478670045281473 0.00292810486097634833)
(0.050700233668240953 0.0404137573890176738 0.00240597464375432975)
(0.0462291711139977898 0.0388767314107097625 0.00198393957821020508)
(0.0418809692813164949 0.0375161814690896794 0.00164287523155600746)
(0.0376386668739220956 0.0363143734986642944 0.00136720917968580495)
(0.0334804058769940655 0.0352566389852964554 0.00114324068042490198)
(0.0293866180048496656 0.0343363463529238327 0.00095971902458141876)
(0.0253470584773040561 0.0335542019499267263 0.000808730153022656521)
(0.0213587925691252414 0.0329106325724549745 0.000684569346897417473)
(0.0174175460749260158 0.0324004113909359959 0.000582501863608379604)
(0.0135128569838683047 0.0320137382619156211 0.000499280675821443137)
(0.00963110445371445287 0.031740155163251807 0.000434334123055421083)
(0.00575490968963871669 0.0315711100826667548 0.000389720886125728921)
(0.00190941642390048192 0.031472507922403567 0.000369324102437606659)
(0.0640778396067597372 0.0279584648032619627 0.00373541564313691673)
(0.058914399806366563 0.0266446459536231993 0.00305494678632548845)
(0.05389373105492197 0.0254720620154740979 0.00250573354588611756)
(0.0490385820249114382 0.0244506587512545864 0.00206162349786542668)
(0.0443326544708136788 0.023553955802881256 0.00169610328273988556)
(0.0397695224342132017 0.0227715760618782473 0.00140708922660533306)
(0.0353318118810912046 0.0220865808619481636 0.00118058691428269292)
(0.0309787701038096025 0.0214853496779403332 0.000992499158046483872)
(0.0266846825522606447 0.0209677544311431541 0.000830467757527006607)
(0.0224507088528372103 0.0205385423766583607 0.000694053148801355491)
(0.0182811442522259442 0.0201984517847047587 0.000585267478531388877)
(0.0141681670309067205 0.0199430634639803095 0.000504550800583642009)
(0.010095519840053746 0.0197655228716485214 0.000450052415904919709)
(0.00604289607013356374 0.0196595621362452809 0.000418382020557793769)
(0.00201317382879981051 0.0196034953443092949 0.00040821275492728857)
(0.0686781040248077845 0.0323380038890152474 0.00447150346997799656)
(0.0634504616828836521 0.0307595970492834797 0.00367365649819029107)
(0.0583558337460299281 0.0293150214140783481 0.0029977149465741067)
(0.0534062684382366135 0.0280533562865318623 0.00246336605115122934)
(0.0486178980967270982 0.0269520794304190896 0.00202639719119078725)
(0.0439725054554425884 0.0259833631154556856 0.00166967378908701534)
(0.0394652363072255791 0.0251280198322315074 0.00138790627215548538)
(0.0350727347985630086 0.0243598517582969097 0.00116419537659691601)
(0.0307567876015057209 0.0236722276860402252 0.000977210794904100283)
(0.0264968758951746042 0.023081965081472932 0.00081687698338510611)
(0.0222956205559371665 0.022602881601953298 0.000682775364826571996)
(0.0181571915066399657 0.0222323177205699558 0.000576032244812579039)
(0.0140737158625480578 0.0219576839415872652 0.000496109280422315363)
(0.0100286840673888614 0.0217667012672336131 0.000440997260753701935)
(0.006002174729647319 0.0216523083967775747 0.000408157319275876112)
(0.00199913180298123523 0.0215922475561445316 0.000397060625353952564)
(0.067893827409514565 0.0351976754580883358 0.00439570290680193175)
(0.0627474470022381658 0.033490243216310063 0.00359502442595629156)
(0.0577312196076859921 0.0319334824155476579 0.00294378245228209138)
(0.0528687587659466621 0.0305799456666636139 0.00241932741639378944)
(0.0481531670477715751 0.0293886873550189727 0.00199213310733548305)
(0.0435737953006223727 0.0283407170612929374 0.00164446331114138965)
(0.039121532842885387 0.027413637689313812 0.00136663077475582349)
(0.0347734930552413973 0.026583283448682847 0.0011434838486031136)
(0.0304991431181030302 0.0258464444220346742 0.000958269745457038095)
(0.0262819660743784621 0.0252179961502739837 0.000801942948201129092)
(0.0221221784565384348 0.0247078291772042692 0.00067221525511161769)
(0.0180209536579919172 0.0243107728151798347 0.000568324276695990598)
(0.0139701143702557432 0.024013491835333356 0.000488938300533672994)
(0.00995467004547278232 0.023804250801250041 0.000432474050474880426)
(0.00595483904963620136 0.0236775683591152752 0.00039766028859493797)
(0.0019816370994485983 0.0236075581354259247 0.00038537689161951454)
(0.0670363331179636701 0.0380039769372482808 0.00431001405557773949)
(0.0619827840450474024 0.0361621091276561196 0.00352681178062969926)
(0.0570564725355818536 0.0345171611090413777 0.00288891999421834285)
(0.0522793951275905208 0.0330697908045059358 0.00237368716003179053)
(0.0476406586020269029 0.0317909486629078183 0.00195481083432621182)
(0.0431329257207547709 0.0306626333644870221 0.00161480004463840322)
(0.0387446277763448255 0.0296660459389253908 0.00134224008250035136)
(0.0344516489935074721 0.0287835161003392737 0.0011225224512651209)
(0.030226052046451922 0.0280106258778198107 0.000940758354130831302)
(0.0260536945617448126 0.0273538873176761427 0.000788268406731734727)
(0.0219351368823812176 0.0268167475029028428 0.000661819397522386875)
(0.0178715767263621997 0.0263932496684867249 0.000559722755904490279)
(0.0138554992783868798 0.0260724778637564623 0.000480342134681574896)
(0.00987293801868509985 0.0258451543539930106 0.000422541474393063425)
(0.00590415426189717929 0.0257070880130589527 0.000386017487715832348)
(0.00196375953846339261 0.0256323416182497044 0.000372813799628236614)
(0.0817414551882792856 0.0480101891920016038 0.00767032694111975059)
(0.0764034521995810012 0.0453540336282183126 0.00629775091138478401)
(0.0711934454319122917 0.042930819002136307 0.00516219914746876042)
(0.0661160232910370516 0.0407707695591262437 0.00422519866067118735)
(0.0611555467086078511 0.0387981526562009363 0.00345650057956266646)
(0.0563291576181556217 0.0370586244190615269 0.00283325790645159873)
(0.0516434755302054502 0.0355215496729128569 0.00232789671006585321)
(0.0470871702550673607 0.034162069755731897 0.00191756608951537872)
(0.0426548317851511913 0.0329611720797732127 0.00158476305865269435)
(0.0383330275255653746 0.0318995291592721608 0.0013169265598904174)
(0.0340981133171176162 0.0309610347981846626 0.00110043907932342146)
(0.0299255458970654128 0.0301417864004954322 0.000922293403175483261)
(0.0258033017348898025 0.0294468308509128543 0.000774062819495946312)
(0.0217313945154078668 0.0288780663989978148 0.000651325792385589342)
(0.0177100682001094661 0.0284287279808962783 0.000551219181867431741)
(0.0137321139675269707 0.0280874718225246102 0.000471769946658340072)
(0.00978496160414120408 0.027844729470403784 0.000412418909732669575)
(0.00584981437150286759 0.0276960381428402527 0.000373965343749266439)
(0.00194479140372781937 0.0276145527673882958 0.000359690159589692718)
(0.0803484753067918722 0.0511555434010277574 0.00749326447319092776)
(0.0751668296232883143 0.0483397647923177187 0.00615819803139448178)
(0.070080541829837889 0.0457766957274487393 0.00504737808764963401)
(0.0651160870136746478 0.0434558139798365758 0.00413233198655065838)
(0.0602691102232213657 0.0413820333505369731 0.00338643939835058753)
(0.0555543775568164144 0.0395528655821931613 0.00277708974058578665)
(0.0509640936151724844 0.037929843774031885 0.00228209515149020497)
(0.0464949708696949723 0.03649230909342141 0.00188017971568406133)
(0.0421414478758657604 0.0352208643594297821 0.00155407914559719715)
(0.0378892610038815206 0.0340968398149926952 0.0012907113805982781)
(0.0337161034695105319 0.0331058156321412528 0.00107757370669439839)
(0.029600765254946395 0.0322436796192080155 0.000903294355008465782)
(0.0255329886382737944 0.0315132308043746256 0.000759586485592391955)
(0.021511964039129871 0.0309144498338660839 0.000640793847116753333)
(0.0175366726177228864 0.0304400389370135735 0.000542779777158917042)
(0.0135999716983962893 0.0300788090576215826 0.000463175706907519469)
(0.00969064663171978653 0.0298211098131816142 0.000402046329519970317)
(0.00579152678339666261 0.0296617159879465145 0.000361415301383171805)
(0.0019229377456780228 0.0295731751163085914 0.000345798632683448084)
(0.0893879989119735763 0.0611591295791407488 0.0107835090168453794)
(0.0840233349855159378 0.057471591262671172 0.00886067950298265704)
(0.0788812086971414639 0.0542311506938839005 0.00730738654027417514)
(0.0738356170796544281 0.051250019265076649 0.00600759793484443357)
(0.0688792611471507887 0.0485559303957589367 0.00493224977633078404)
(0.0640428932353773323 0.0461205530805439065 0.00404578621150580853)
(0.0593195146102981144 0.0439606905724645863 0.00331761134567933871)
(0.0547112216046262978 0.0420374311604790468 0.00272199225629912679)
(0.0502173722248329679 0.0403257420623506363 0.00223735382584254634)
(0.0458360396789049343 0.0388051633182297309 0.00184349878246211967)
(0.0415614872429379834 0.0374564983146374528 0.00152347041686320874)
(0.0373796862374496039 0.0362624604124917593 0.00126417803306005027)
(0.0332706163288770881 0.0352108059724362127 0.00105428447849873408)
(0.0292165025585890206 0.034297744204790509 0.000883822166373325201)
(0.0252086306905227701 0.0335243931113483468 0.00074460568487112863)
(0.0212451654299210292 0.0328892353423745967 0.000629862094379882403)
(0.0173235535718047444 0.032384788606463405 0.000534254035686014431)
(0.0134363727312764511 0.0320002695891310404 0.000454986904685026217)
(0.0095734131254155367 0.031725839058263941 0.000392637011525510027)
(0.00571968488354084037 0.0315545076063945551 0.000350305438194181327)
(0.00189772636501613664 0.0314529519970556184 0.000333374189655037765)
(0.0684903170557329133 0.0292973382390111711 0.00398955234299310652)
(0.0633381925674375151 0.0278556513163006787 0.00327801305380792836)
(0.0583056728889273304 0.0265499816508059962 0.00268008349350040568)
(0.0533963400955693793 0.0254045974326834664 0.00219752732327107127)
(0.0486300367326668176 0.0243980428998038859 0.00180683079070809095)
(0.0440006104593898759 0.0235143195366777844 0.00148668972814079725)
(0.0395071383057833611 0.0227404017652734075 0.00123454741298461971)
(0.0351216743665868011 0.0220581751224575295 0.00103664114058040044)
(0.0308038365027645256 0.0214588258857957015 0.000872134708697203348)
(0.0265376710543222018 0.020945534960030078 0.000730752195609729897)
(0.0223302088941617072 0.0205225930527664253 0.000611739890419030316)
(0.0181865805732648288 0.0201886050683765042 0.000516369901435061499)
(0.0140981793340834282 0.0199372581428012424 0.000444966623240912853)
(0.0100477867198550119 0.019761319531647191 0.000396192308293263765)
(0.00601508271645991369 0.0196554973029308133 0.000367495159159038289)
(0.00200387273602886098 0.0195989226348578273 0.000358274154605894173)
(0.0677981390347039692 0.032206130906672216 0.00392569812609471283)
(0.0627238277399605471 0.0306396342809941991 0.00322114551231156418)
(0.0577562946326979493 0.0292213025431260209 0.00263067283100965705)
(0.052919855239465359 0.0279853182561898249 0.00216052535447684669)
(0.0482174739697593946 0.026901009877493446 0.00177635975553376785)
(0.0436485714933119717 0.0259467965769900437 0.00146370346165233811)
(0.0392080982747226164 0.025095976719154596 0.00121712577288070572)
(0.0348649872041897971 0.024325181910887065 0.00102122701459175205)
(0.0305835093774893194 0.0236380587982644268 0.0008577452673222708)
(0.0263517824787994522 0.0230546804107642084 0.000718004988543884831)
(0.0221771707358583633 0.022585339558521017 0.000601102986054826609)
(0.018064265455515021 0.0222230630698700207 0.000507581532207037125)
(0.0140045370656385355 0.0219528669208711377 0.000437010501037663119)
(0.00998110671820058581 0.0217626737695894024 0.000387966483313616727)
(0.00597439035531302856 0.021647387849786922 0.000358564201720369864)
(0.00198984425995094071 0.0215866165926279011 0.00034881044247925887)
(0.0670258968956915085 0.0350556827380718514 0.0038563714731968189)
(0.0620316816878268631 0.0333600703316909997 0.00315559356533220634)
(0.0571485766741770748 0.031841511168612599 0.0025838786605093143)
(0.0523928339256199901 0.0305082933133683024 0.00212288818119095619)
(0.0477627516882289244 0.0293347129566038922 0.00174722211407293457)
(0.0432570606978660219 0.0283002732285715271 0.00144190439699100098)
(0.0388675067158437068 0.0273768905149337355 0.00119821311428556024)
(0.0345675143586445105 0.0265453771642285008 0.00100264669832013983)
(0.0303287440206214121 0.0258111169015158119 0.000840691827560375226)
(0.0261406757471690683 0.025190634037973933 0.000704317952028607735)
(0.0220071354376697795 0.0246900682270337485 0.000591063925344464643)
(0.0179300726259244113 0.0243004517819189539 0.000499981628802668608)
(0.0139014216165137712 0.0240068188011476162 0.000430006764845868147)
(0.0099065622098827872 0.0237979800054190227 0.000380040246638975411)
(0.00592653232327748115 0.0236702132555476896 0.000349190295744718736)
(0.00197221534136187305 0.0235996334713447359 0.000338631381077758153)
(0.0661832756339644085 0.0378464827694405953 0.00378537926081118185)
(0.0612833380876477013 0.0360390183568031416 0.0030971390965252206)
(0.0564855220960055818 0.0344229826943916878 0.00253735232412496308)
(0.0518130263175056796 0.0329950633639354077 0.00208450147194909818)
(0.0472591182343404595 0.0317320685498014773 0.00171592223294104074)