/*--------------------------------*- C++ -*----------------------------------*\
| =========                 |                                                 |
| \\      /  F ield         | OpenFOAM: The Open Source CFD Toolbox           |
|  \\    /   O peration     | Version:  2206                                  |
|   \\  /    A nd           | Website:  www.openfoam.com                      |
|    \\/     M anipulation  |                                                 |
\*---------------------------------------------------------------------------*/
FoamFile
{
    version     2.0;
    format      ascii;
    arch        "LSB;label=32;scalar=64";
    class       volVectorField;
    location    "0.900000000000000577";
    object      faceTraction;
}
// * * * * * * * * * * * * * * * * * * * * * * * * * * * * * * * * * * * * * //

dimensions      [1 -1 -2 0 0 0 0];

internalField   uniform (0 0 0);

boundaryField
{
    inlet
    {
        type            calculated;
        value           uniform (0 0 0);
    }
    outlet
    {
        type            calculated;
        value           nonuniform List<vector> 0();
    }
    top
    {
        type            calculated;
        value           uniform (0 0 0);
    }
    bottom
    {
        type            calculated;
        value           uniform (0 0 0);
    }
    left
    {
        type            calculated;
        value           uniform (0 0 0);
    }
    symmetry
    {
        type            symmetryPlane;
    }
    interface
    {
        type            calculated;
        value           nonuniform List<vector> 
181
(
(1148.12908963470613 -0.0111827945556790057 -0.0342832256092037643)
(1025.75673184133416 0.000549293064342145829 -0.0350568264170999719)
(902.539985411538282 0.000257456928350061575 -0.034824572479906335)
(778.973200256385553 -0.000440081050156946891 -0.0346321025509374394)
(656.121880674796216 -0.00110778659191148308 -0.0344860051209436233)
(535.234305316171003 -0.00241775960104629673 -0.0347326766753545332)
(417.266755458829095 -0.00489948960387059321 -0.0345602016746470037)
(298.853765974903808 -0.00864603411185154054 -0.0327690107001710335)
(177.544334949393118 -0.0148762517622390462 -0.0299896280092878734)
(74.7162799940350908 -0.0148983268610391548 -0.0190325665975817904)
(21.3563179320114038 -0.00566877832926195122 -0.00499524161949204976)
(5.52578310863714073 -0.00139285296104103037 -0.000522039810408247312)
(0.0436433595050406686 -0.000333023172512754678 -5.23129989896421789e-05)
(-4.53087454716829985 -0.000373266702943067334 -0.000133323710971011553)
(-12.1946732997357881 -0.00282584131469721224 -0.00121426047490268705)
(-16.2127649518683974 -0.00300352658488982176 -0.00155732207980541714)
(1199.54969545549056 0.000136211966411346226 -0.0237261438265688324)
(1076.39536746836529 0.000647773790831772498 -0.0247873451977283291)
(951.495691859096837 0.000697620697827404618 -0.0243985662905662169)
(825.687953829965522 0.000298818994474132991 -0.0242144053126003254)
(699.758520456691144 -0.000318601627376321583 -0.0241654482715113403)
(574.480557758522878 -0.000857715907628318203 -0.0246343294018864477)
(452.042497245220375 -0.00166115906929493063 -0.0246170205433570224)
(332.037670119980021 -0.00507774740673165841 -0.0240258369104564933)
(209.501964972574939 -0.0111129246071564412 -0.023182802162695481)
(95.2529552190919304 -0.014338571556292444 -0.0178941376538193191)
(28.0337092506582977 -0.00660438466556455099 -0.00594453143950377481)
(7.7606890288616821 -0.00207575541990181415 -0.00146263331081415942)
(0.423304498762825387 -0.000827079349139997499 -0.000504256563045766171)
(-6.01748501302005412 -0.000467325507000071634 -0.000257472409995601126)
(-15.3633501884203003 -0.00236407181865070943 -0.00102601160631924531)
(-19.7815999415369603 -0.00334808866024517791 -0.00144781392890901855)
(1222.65744513165077 -0.00658775833540690709 -0.0194523233071604434)
(1098.97825963867422 0.00161403885779318667 -0.0208101899187743862)
(973.323283030739958 0.00226850744130969399 -0.0204098242915935375)
(846.541363584340843 0.00228798338590687888 -0.0201918702184393679)
(719.716557995937478 0.00192798397301864165 -0.0203216969161370067)
(594.700492226682059 0.00108165186942166627 -0.0208002801665041238)
(472.096105897113546 -0.000476866307684272643 -0.0213753280087152775)
(351.358764324417109 -0.00389151697150703956 -0.0205881223531211126)
(228.918047689246379 -0.00986538540219857214 -0.0191994504266973717)
(110.056970084053432 -0.0146570843235332184 -0.0157499157237309048)
(33.1437789306726529 -0.00766408754109846636 -0.00579850881894915411)
(8.12097765782496239 -0.0022838727372875723 -0.0013626032195928658)
(0.0410496539959482806 -0.000980207492684337421 -0.000475033596063462724)
(-7.10935257522105069 -0.000600003035720057766 -0.000230096655447603881)
(-17.0474037162845029 -0.00280713123803605271 -0.000832980541734577645)
(-21.3396524334227493 -0.00388374175331756459 -0.00113575814340794042)
(1230.8610892191939 0.000243978718611603492 -0.0126632023022696816)
(1107.18639865568275 0.00143884254426152654 -0.0141633451726576615)
(981.277622022727201 0.00194085747312303298 -0.0139338515169415804)
(853.787338767858955 0.00203018724615441773 -0.0137528872249785897)
(726.955338707103351 0.00213137577409212246 -0.0136725322682640753)
(602.95398112625935 0.00217912454209947008 -0.0138561583227764171)
(482.040264531079345 0.000497920303726434848 -0.0140585589017828364)
(362.988514440129734 -0.00298907577813868272 -0.0137699227763849567)
(242.459330488528082 -0.00925086394383707079 -0.0131732954256997825)
(121.835294879332622 -0.0150774868936322144 -0.0119114638593902991)
(38.714814848132626 -0.0085064242997865188 -0.00508807533818682323)
(9.57411106590019934 -0.00245811734667010983 -0.00126004693472117754)
(0.425729401404242036 -0.000996674167835736756 -0.000456786018971567685)
(-7.25078473736184126 -0.000669402725299831627 -0.000241768766923610806)
(-17.5215125202709885 -0.00298766479719501758 -0.00081495305582676258)
(-21.7442190345208779 -0.00410073195431730642 -0.00106747986824487886)
(1234.51026532055585 -0.000723643509994676857 -0.0104925922676763431)
(1111.02826131650841 0.00154391107409980466 -0.0114541827086117164)
(985.071824854757779 0.00222451765906921334 -0.0115821375693409452)
(857.444483714554622 0.00237777747008937734 -0.0115875828374972008)
(730.893527574215796 0.00274728935044308122 -0.0116552687614824534)
(607.791328269239216 0.00270918424220453974 -0.0119040785987458864)
(487.630080731549299 0.000900506335166192246 -0.0120200827313182122)
(369.324719180426712 -0.00261458370044768311 -0.011814353817314804)
(249.574258024671565 -0.00876581180617550144 -0.0110988739723196644)
(128.029485015300679 -0.0152803416516687825 -0.0100158278230786761)
(41.7312498808689512 -0.00924359893704907766 -0.00442390769331973879)
(10.2157839216491286 -0.00270364029635256553 -0.00105605045800913648)
(0.291285050095279441 -0.00107449660008274725 -0.000343072372383960024)
(-7.86211262251424614 -0.000753379027570215626 -0.000184129283407794274)
(-18.4549512630089403 -0.00309810806320911245 -0.00058988479586323105)
(-22.5810344234396361 -0.00415633430733706923 -0.000781596485238840824)
(1235.2751431062361 0.000334684559953826873 -0.0058159670231937707)
(1111.66051559373977 0.00178620230174408022 -0.00711840410194816177)
(985.795076112960601 0.00253884024129109789 -0.00696447812154136776)
(858.906953700843246 0.00278383482633109752 -0.00694999987702164899)
(733.318171536053796 0.00329193447483200645 -0.00704983670226814237)
(610.760852071015506 0.00286339147479571388 -0.00725568774993335525)
(490.37508541113732 0.000867614906993503581 -0.00704404840007605369)
(372.316685231819918 -0.00299114084972854338 -0.00647917838342824352)
(253.238823711529278 -0.00883064746681556587 -0.00572980018947560205)
(131.609735318465226 -0.0154036182791170116 -0.00509792344372661608)
(43.49266098407481 -0.00974784935311488743 -0.00246184749626537306)
(10.3330699072451964 -0.00287798481807490262 -0.000681283118165518144)
(-0.0218393670554048631 -0.00115313881064281693 -0.000279893076873281908)
(-8.25224953164974195 -0.000663382982341093248 -0.000145810244245188759)
(-18.5975087486895632 -0.00305432401341470877 -0.00053093387914444391)
(-22.3244408859843375 -0.00400555099951115535 -0.000631384599911490084)
(1236.2050492878061 9.59753808960504877e-05 -0.00363923307752151825)
(1112.16238108626453 0.0019444689187901802 -0.0044572502942071034)
(986.24105023315758 0.00288544195029490037 -0.00432225247832798091)
(860.143543284976545 0.00327205216526865175 -0.00435812198043282299)
(735.339131932380951 0.00370251225652947413 -0.00451832180111478871)
(613.301400756223188 0.00313294781180155921 -0.0046899101294552506)
(493.255094234854198 0.000934618603953124832 -0.00461839208402951753)
(375.475990131626133 -0.00323137713997511365 -0.004367884290623931)
(256.90064775281536 -0.00865075900250083553 -0.00406086310743604927)
(135.677958986292225 -0.0150028214860123445 -0.00367223514373941906)
(46.1189298964792442 -0.0100214007531916251 -0.00173406478997691483)
(10.7992845592870168 -0.00310983776473349989 -0.000439654964087344505)
(-0.433789215309446585 -0.00124172757644348038 -0.000163110008207405027)
(-8.79894283885486317 -0.000617745466392524809 -7.78034956938675448e-05)
(-17.7345552134698856 -0.00192557862592746399 -0.000199995352968319976)
(-20.1372746158964446 -0.00397554821680934714 -0.000352348147818932816)
(1236.52854653643817 0.000735759214662353865 -0.00116696525879687353)
(1112.33649511246495 0.00199886976536920065 -0.00143269865544928192)
(986.36409934206722 0.00294847492283284397 -0.00138942944956070005)
(860.445734135322482 0.00335545522026180557 -0.00138874245163320338)
(735.87866504640715 0.00376418417460547272 -0.00143564572203945832)
(614.02345796678992 0.0031983439487458451 -0.00148104517308085548)
(494.051727265550312 0.0010044144195146998 -0.00145239217691072722)
(376.177616654123369 -0.00321543630897812988 -0.00132226588049236498)
(257.514691350726196 -0.00860097264636097703 -0.00117277614687051157)
(136.499245996345991 -0.0147751647726977759 -0.00104650120033926907)
(47.1017376902147973 -0.00991459058091307549 -0.000513991966798044717)
(11.5061876573357313 -0.00321105716181802536 -0.000139920521509399523)
(-0.104326965946544906 -0.0012868523412394074 -5.21796592512672271e-05)
(-8.48467985506668576 -0.000660220824972416217 -2.51360367906074745e-05)
(-16.9484011380667958 -0.00182963865105031172 -5.74215262583433313e-05)
(-18.7721441732829568 -0.00395849477577288854 -0.000100210305693890209)
(0.04669577656649012 0.0268333404360495652 689.968965570831983)
(0.0464515474195395725 -0.00280124289548222593 572.315801134026287)
(0.0446961843857243898 -0.00723834119719733802 464.24074274305741)
(0.0420188619740175587 -0.011873081923036502 365.714861801412098)
(0.0372911105279831803 -0.0210296596935751583 272.451984547128973)
(0.0294783672503045636 -0.0332974023769815192 176.519876648217206)
(0.0171384269335431993 -0.0368729538192559339 92.499817636578797)
(0.00295059956047035495 -0.0130408482805910581 54.968008081305733)
(0.00109559345320004342 -0.0106659495326267787 39.4774821079304203)
(0.000734685042806276539 -0.00612429001869557905 24.3513179168052041)
(0.000768259936966475846 -0.00221569470809465088 12.0776730679595943)
(0.000817127626126800321 -0.000669199611613694465 4.67313030096666981)
(0.000806144612761451021 -1.54054560611361681e-05 -1.96417445309623884)
(0.00149358924302047877 -0.000772315031746439009 -12.6695836823972439)
(0.000720853336747946942 -0.00413479495817836717 -28.9199480296921116)
(0.0402633213312418442 0.0128589667763409909 728.851624328996536)
(0.0395430886522152025 -0.00611253348107547272 615.291343371164885)
(0.0376958839192238077 -0.0132455237207431391 503.711363893471969)
(0.0354735609908442481 -0.0237469584645480236 385.923197920682867)
(0.0299294989610600012 -0.0351958620642145864 258.63028598903162)
(0.0121127957691418899 -0.0289179921132075683 146.852183881685903)
(-0.000210275458018488156 -0.010316826566576915 84.9872996223705854)
(-0.0013570846600690252 -0.00286205841849768682 63.5386896754369488)
(-0.00238218385177015697 -0.0021568247380253573 51.5589884812717045)
(-0.00258012471920791419 -0.00256738580109226863 36.7637656991896691)
(-0.000238963559848130199 -0.00364545728954300714 22.2784849517070001)
(0.00260056812964703067 -0.00480347544844135759 10.0569930506365299)
(0.00295064943441575864 -0.00635499362558228104 0.746663287014231236)
(0.00144910757065042821 -0.00779599151338898275 -11.8342365506133351)
(0.040069747083412259 0.00243374154389395863 747.00164299689493)
(0.0390751848474193142 -0.0107720378164358928 624.047984599450274)
(0.0382437815392909775 -0.0222022166699054127 493.072657013822266)
(0.0371493684801076571 -0.0321285801935397367 355.94717238673968)
(0.0317086300056266326 -0.0361749616588281503 222.487414748159267)
(0.0126899396478534383 -0.0172969204932678644 120.599203565024808)
(0.00166652211271763767 -0.00137046041029736487 80.3676013893797858)
(0.0016883929078020997 -0.00021891343388433758 65.7563444148214415)
(0.00223248038246997562 -0.00101062714601792133 49.3183684860260954)
(0.00194207261725188717 -0.00391935784134889251 31.6077135372359912)
(0.00238521120722302773 -0.00668845466174379597 16.4100214214100077)
(0.00237978202433728912 -0.00988654281943901828 4.82067946319075435)
(0.0569926202547096847 -0.00425306687875408665 644.712482340229712)
(0.0571496956018912872 -0.0190440211112412154 515.665873695166738)
(0.0567400006253510336 -0.0310686826398421066 382.978519605858423)
(0.053800358224536847 -0.0363553684080455269 260.090609666986097)
(0.0412165198455893625 -0.0298941716037013812 150.654621636225585)
(0.0071701872236334778 -0.00334005070690537734 84.3776975224928378)
(0.00100354975572555035 -0.000136696764464098097 63.1011877991867749)
(0.00128091494085078332 -0.00211295891310845719 47.9526408782697899)
(0.00115297377191254263 -0.00870518406785947448 27.2926065128813526)
(0.00213931168700719383 -0.0111227511336246497 12.322225906826457)
(0.00276738141142018022 -0.0129648505151841575 6.00485682023764955)
(0.00256727611820237352 -0.0129674725104418562 1.95578876059715512)
)
;
    }
    procBoundary0to1
    {
        type            processor;
        value           uniform (0 0 0);
    }
    procBoundary0to3
    {
        type            processor;
        value           uniform (0 0 0);
    }
}


// ************************************************************************* //
