/*--------------------------------*- C++ -*----------------------------------*\
| =========                 |                                                 |
| \\      /  F ield         | OpenFOAM: The Open Source CFD Toolbox           |
|  \\    /   O peration     | Version:  2206                                  |
|   \\  /    A nd           | Website:  www.openfoam.com                      |
|    \\/     M anipulation  |                                                 |
\*---------------------------------------------------------------------------*/
FoamFile
{
    version     2.0;
    format      ascii;
    arch        "LSB;label=32;scalar=64";
    class       volVectorField;
    location    "0.900000000000000577";
    object      faceForces;
}
// * * * * * * * * * * * * * * * * * * * * * * * * * * * * * * * * * * * * * //

dimensions      [1 1 -2 0 0 0 0];

internalField   uniform (0 0 0);

boundaryField
{
    inlet
    {
        type            calculated;
        value           uniform (0 0 0);
    }
    outlet
    {
        type            calculated;
        value           nonuniform List<vector> 0();
    }
    top
    {
        type            calculated;
        value           uniform (0 0 0);
    }
    bottom
    {
        type            calculated;
        value           uniform (0 0 0);
    }
    left
    {
        type            calculated;
        value           uniform (0 0 0);
    }
    symmetry
    {
        type            symmetryPlane;
    }
    interface
    {
        type            calculated;
        value           nonuniform List<vector> 
181
(
(0.358790340510845462 -3.49462329864968739e-06 -1.07135080028761717e-05)
(0.320548978700416931 1.71654082606920563e-07 -1.09552582553437419e-05)
(0.282043745441105664 8.04552901093942336e-08 -1.08826788999707275e-05)
(0.243429125080120545 -1.37525328174045929e-07 -1.08225320471679523e-05)
(0.205038087710873868 -3.46183309972338534e-07 -1.07768766002948851e-05)
(0.167260720411303715 -7.555498753269691e-07 -1.08539614610483101e-05)
(0.13039586108088419 -1.53109050120956146e-06 -1.08000630233271965e-05)
(0.0933918018671574951 -2.70188565995360799e-06 -1.02403158438034531e-05)
(0.0554826046716852331 -4.64882867569969263e-06 -9.37175875290244084e-06)
(0.0233488374981359707 -4.65572714407473663e-06 -5.94767706174431108e-06)
(0.00667384935375357584 -1.77149322789436281e-06 -1.56101300609126835e-06)
(0.00172680722144910961 -4.35266550325322735e-07 -1.63137440752577572e-07)
(1.36385498453251889e-05 -1.04069741410235677e-07 -1.63478121842631551e-08)
(-0.0014158982959900947 -1.16645844669708626e-07 -4.16636596784411395e-08)
(-0.00381083540616743198 -8.83075410842878373e-07 -3.79456398407089535e-07)
(-0.00506648904745888619 -9.38602057778071599e-07 -4.86663149939194029e-07)
(0.374859279829840797 4.25662395035457005e-08 -7.41441994580276059e-06)
(0.336373552333864068 2.02429309634928884e-07 -7.74604537429010168e-06)
(0.297342403705967706 2.18006468071063924e-07 -7.62455196580194109e-06)
(0.258027485571864279 9.33809357731665755e-08 -7.56700166018760363e-06)
(0.218674537642715772 -9.95630085551003872e-08 -7.55170258484728632e-06)
(0.179525174299538542 -2.68036221133849642e-07 -7.69822793808952012e-06)
(0.141263280389131302 -5.1911220915466553e-07 -7.69281891979906545e-06)
(0.103761771912493833 -1.58679606460364429e-06 -7.50807403451765973e-06)
(0.065469364053929599 -3.47278893973638442e-06 -7.24462567584233035e-06)
(0.0297665485059662345 -4.48080361134138987e-06 -5.59191801681853866e-06)
(0.0087605341408307242 -2.06387020798892354e-06 -1.85766607484493102e-06)
(0.00242521532151927744 -6.48673568719317396e-07 -4.57072909629425121e-07)
(0.000132282655863382733 -2.58462296606248814e-07 -1.57580175951801697e-07)
(-0.00188046406656876817 -1.46039220937522488e-07 -8.04601281236254065e-08)
(-0.00480104693388133663 -7.38772443328345557e-07 -3.20628626974763688e-07)
(-0.0061817499817303171 -1.04627770632662105e-06 -4.52441852784069536e-07)
(0.382080451603641291 -2.05867447981466077e-06 -6.07885103348764457e-06)
(0.343430706137086039 5.04387143060371365e-07 -6.50318434961700307e-06)
(0.304163525947106494 7.08908575409280052e-07 -6.3780700911229858e-06)
(0.264544176120106833 7.14994808095900484e-07 -6.3099594432623101e-06)
(0.224911424373730517 6.0249499156832564e-07 -6.3505302862928163e-06)
(0.185843903820838485 3.38016209194271312e-07 -6.50008755203255019e-06)
(0.147530033092848095 -1.49020721151335315e-07 -6.67979000272352869e-06)
(0.10979961385138054 -1.216099053595952e-06 -6.433788235350359e-06)
(0.0715368899028894223 -3.08293293818705071e-06 -5.9998282583429225e-06)
(0.0343928031512667418 -4.58033885110413636e-06 -4.92184866366591365e-06)
(0.0103574309158352227 -2.39502735659327508e-06 -1.81203400592161375e-06)
(0.00253780551807030515 -7.13710230402367639e-07 -4.25813506122771323e-07)
(1.2828016873733818e-05 -3.06314841463854968e-07 -1.48447998769831876e-07)
(-0.00222167267975658484 -1.87500948662518601e-07 -7.19052048273764292e-08)
(-0.00532731366133890397 -8.77228511886266057e-07 -2.60306419292055385e-07)
(-0.00666864138544463574 -1.21366929791174376e-06 -3.54924419814982802e-07)
(0.384644090380998116 7.62433495661260891e-08 -3.95725071945927551e-06)
(0.345995749579900869 4.49638295081727037e-07 -4.42604536645551916e-06)
(0.306649256882102206 6.06517960350947739e-07 -4.35432859904424313e-06)
(0.266808543364955963 6.34433514423255626e-07 -4.29777725780581012e-06)
(0.227173543345969453 6.66054929403787221e-07 -4.27266633383251685e-06)
(0.188423119101956082 6.80976419406084569e-07 -4.33004947586763115e-06)
(0.150637582665962139 1.55600094914510729e-07 -4.39329965680713215e-06)
(0.113433910762540627 -9.34086180668338994e-07 -4.30310086762030193e-06)
(0.0757685407776648723 -2.89089498244907859e-06 -4.11665482053117343e-06)
(0.0380735296497914238 -4.71171465426006467e-06 -3.72233245605946671e-06)
(0.012098379640041448 -2.65825759368328775e-06 -1.59002354318338261e-06)
(0.00299190970809381281 -7.68161670834409497e-07 -3.93764667100368046e-07)
(0.0001330404379388253 -3.11460677448666925e-07 -1.42745630928614536e-07)
(-0.00226587023042557935 -2.09188351656197757e-07 -7.55527396636285108e-08)
(-0.00547547266258467235 -9.33645249123441046e-07 -2.54672829945862775e-07)
(-0.00679506844828779016 -1.28147873572416126e-06 -3.33587458826525381e-07)
(0.385784457912673795 -2.26138596873336577e-07 -3.27893508364885769e-06)
(0.347196331661408897 4.82472210656188935e-07 -3.57943209644116138e-06)
(0.307834945267111693 6.95161768459128962e-07 -3.61941799041904399e-06)
(0.267951401160798464 7.43055459402930849e-07 -3.62111963671787738e-06)
(0.228404227366942325 8.58527922013462508e-07 -3.64227148796326478e-06)
(0.189934790084137356 8.46620075688919161e-07 -3.72002456210809148e-06)
(0.152384400228609274 2.81408229739435263e-07 -3.75627585353694383e-06)
(0.115413974743883457 -8.17057406389901705e-07 -3.69198556791087957e-06)
(0.0779919556327097474 -2.73931618942983993e-06 -3.46839811634988989e-06)
(0.0400092140672814664 -4.77510676614649478e-06 -3.12994619471208615e-06)
(0.0130410155877715636 -2.88862466782784043e-06 -1.38247115416242012e-06)
(0.00319243247551535348 -8.4488759261017685e-07 -3.30015768127855217e-07)
(9.10265781547747797e-05 -3.35780187525858326e-07 -1.07210116369987448e-07)
(-0.0024569101945357036 -2.35430946115692553e-07 -5.75404010649357525e-08)
(-0.00576717226969028756 -9.68158769752846632e-07 -1.84338998707259527e-07)
(-0.00705657325732491052 -1.29885447104283878e-06 -2.44248901637138623e-07)
(0.386023482220699099 1.04588924985570996e-07 -1.81748969474805509e-06)
(0.347393911123043964 5.58188219295025542e-07 -2.2245012818588024e-06)
(0.30806096128530025 7.93387575403468293e-07 -2.17639941298167775e-06)
(0.268408423031513743 8.69948383228468703e-07 -2.17187496156926716e-06)
(0.22916192860501669 1.02872952338500151e-06 -2.20307396945879332e-06)
(0.190862766272192508 8.94809835873661321e-07 -2.26740242185417543e-06)
(0.153242214190980552 2.71129658435470117e-07 -2.20126512502376861e-06)
(0.116348964134943902 -9.3473151554017133e-07 -2.02474324482132933e-06)
(0.079137132409852845 -2.75957733337986257e-06 -1.79056255921112453e-06)
(0.041128042287020404 -4.81363071222406857e-06 -1.59310107616456847e-06)
(0.013591456557523399 -3.04620292284840722e-06 -7.69327342582930259e-07)
(0.00322908434601412503 -8.99370255648407438e-07 -2.12900974426724498e-07)
(-6.82480220481402177e-06 -3.60355878325880424e-07 -8.74665865229006281e-08)
(-0.00257882797864054849 -2.07307181981591979e-07 -4.55657013266215622e-08)
(-0.0058117214839654846 -9.54476254192095821e-07 -1.65916837232638612e-07)
(-0.00697638777687013129 -1.25173468734724069e-06 -1.9730768747234137e-07)
(0.38631407790243949 2.99923065300157854e-08 -1.13726033672547462e-06)
(0.347550744089457686 6.07646537121931296e-07 -1.39289071693971977e-06)
(0.30820032819786175 9.01700609467156425e-07 -1.35070389947749397e-06)
(0.268794857276555332 1.02251630164645417e-06 -1.36191311888525804e-06)
(0.229793478728868877 1.15703508016545993e-06 -1.41197556284837048e-06)
(0.191656687736319914 9.79046191187988185e-07 -1.46559691545476704e-06)
(0.154142216948391919 2.92068313735351457e-07 -1.44324752625922409e-06)
(0.117336246916133272 -1.0098053562422239e-06 -1.36496384081997953e-06)
(0.0802814524227546816 -2.70336218828150746e-06 -1.26901972107376356e-06)
(0.0423993621832163062 -4.68838171437885605e-06 -1.14757348241856808e-06)
(0.0144121655926497776 -3.13168773537238586e-06 -5.41895246867786381e-07)
(0.00337477642477719596 -9.71824301479219598e-07 -1.37392176277295287e-07)
(-0.00013555912978420188 -3.88039867638587105e-07 -5.0971877564814002e-08)
(-0.00274966963714214736 -1.93045458247664188e-07 -2.431359240433363e-08)
(-0.00554204850420933221 -6.01743320602331706e-07 -6.24985478025999089e-08)
(-0.00629289831746765709 -1.24235881775292458e-06 -1.10108796193416835e-07)
(0.386415170792636931 2.29924754581985588e-07 -3.64676643374022968e-07)
(0.34760515472264536 6.24646801677875347e-07 -4.47718329827900711e-07)
(0.308238781044396004 9.2139841338526377e-07 -4.34196702987718778e-07)
(0.268889291917288387 1.04857975633181462e-06 -4.33982016135376227e-07)
(0.229962082827002062 1.17630755456420944e-06 -4.48639288137330442e-07)
(0.191882330614622038 9.99482483983077458e-07 -4.62826616587767732e-07)
(0.154391164770484424 3.13879506098343606e-07 -4.53872555284602095e-07)
(0.117555505204413657 -1.00482384655566653e-06 -4.13208087653864411e-07)
(0.0804733410471018262 -2.68780395198780173e-06 -3.66492545897034376e-07)
(0.0426560143738581102 -4.61723899146805358e-06 -3.27031625106021476e-07)
(0.0147192930281921375 -3.09830955653533878e-06 -1.60622489624389114e-07)
(0.00359568364291741951 -1.00345536306813382e-06 -4.37251629716873928e-08)
(-3.26021768582952451e-05 -4.02141356637314335e-07 -1.63061435160209879e-08)
(-0.00265146245470834156 -2.06319007803880253e-07 -7.85501149706484246e-09)
(-0.00529637535564586592 -5.71762078453221654e-07 -1.79442269557322661e-08)
(-0.00586629505415093514 -1.23702961742902996e-06 -3.13157205293407507e-08)
(1.45924301770281951e-05 8.38541888626550789e-06 0.215615301740885501)
(1.45161085686061651e-05 -8.75388404838198486e-07 0.178848687854383792)
(1.39675576205388789e-05 -2.26198162412416947e-06 0.145075232107205521)
(1.3130894366880495e-05 -3.71033810094890899e-06 0.114285894312941338)
(1.16534720399947455e-05 -6.57176865424223821e-06 0.0851412451709778195)
(9.21198976572019748e-06 -1.04054382428067489e-05 0.0551624614525680068)
(5.35575841673226799e-06 -1.1522798068517517e-05 0.0289061930114309709)
(9.22062362646989578e-07 -4.0752650876847218e-06 0.0171775025254081101)
(3.42372954125014158e-07 -3.33310922894587399e-06 0.0123367131587282779)
(2.29589075876961837e-07 -1.91384063084237172e-06 0.00760978684900164015)
(2.40081230302024399e-07 -6.92404596279580458e-07 0.00377427283373738464)
(2.553523831646256e-07 -2.09124878629279936e-07 0.00146035321905208719)
(2.51920191487953923e-07 -4.81420501910506152e-09 -0.000613804516592575812)
(4.66746638443901487e-07 -2.41348447420763145e-07 -0.00395924490074915474)
(2.25266667733733567e-07 -1.29212342443074075e-06 -0.00903748375927879155)
(1.25822879160130617e-05 4.01842711760655472e-06 0.227766132602811144)
(1.23572152038172371e-05 -1.91016671283608282e-06 0.192278544803488799)
(1.17799637247574118e-05 -4.13922616273222095e-06 0.157409801216709611)
(1.10854878096388027e-05 -7.42092452017124081e-06 0.120600999350213123)
(9.35296842533123582e-06 -1.09987068950670405e-05 0.0808219643715722552)
(3.78524867785683699e-06 -9.03687253537735555e-06 0.0458913074630267967)
(-6.57110806307774793e-08 -3.22400830205528267e-06 0.0265585311319907827)
(-4.24088956271569251e-07 -8.94393255780524826e-07 0.0198558405235739963)
(-7.44432453678172172e-07 -6.74007730632922403e-07 0.0161121839003973664)
(-8.06288974752471922e-07 -8.0230806284133268e-07 0.0114886767809967531)
(-7.46761124525405695e-08 -1.139205402982188e-06 0.00696202654740842638)
(8.12677540514696624e-07 -1.5010860776379235e-06 0.00314281032832391385)
(9.22077948254922165e-07 -1.98593550799445783e-06 0.000233332277191946664)
(4.52846115828257639e-07 -2.43624734793405074e-06 -0.0036981989220666576)
(1.25217959635663431e-05 7.60544232466862755e-07 0.233438013436529868)
(1.22109952648185475e-05 -3.36626181763621931e-06 0.195014995187328399)
(1.19511817310284458e-05 -6.93819270934545014e-06 0.154085205316819657)
(1.16091776500336541e-05 -1.00401813104811759e-05 0.111233491370856252)
(9.90894687675833029e-06 -1.13046755183838049e-05 0.0695273171087998215)
(3.96560613995420646e-06 -5.40528765414621742e-06 0.0376872511140703206)
(5.20788160224262021e-07 -4.2826887821792677e-07 0.0251148754341811963)
(5.27622783688156558e-07 -6.84104480888555419e-08 0.0205488576296317151)
(6.97650119521868551e-07 -3.1582098313060099e-07 0.0154119901518831818)
(6.06897692891214457e-07 -1.22479932542152838e-06 0.0098774104803862426)
(7.45378502257196724e-07 -2.09014208179493765e-06 0.00512813169419063138)
(7.43681882605404938e-07 -3.08954463107470199e-06 0.00150646233224711488)
(1.78101938295967962e-05 -1.32908339961065351e-06 0.201472650731322006)
(1.78592798755910861e-05 -5.95125659726289964e-06 0.161145585529740148)
(1.77312501954222178e-05 -9.70896332495066835e-06 0.119680787376830883)
(1.68126119451677475e-05 -1.13610526275142156e-05 0.0812783155209330782)
(1.28801624517466758e-05 -9.34192862615668135e-06 0.0470795692613204947)
(2.24068350738546562e-06 -1.04376584590793223e-06 0.0263680304757790591)
(3.13609298664234669e-07 -4.27177388950306796e-08 0.0197191211872458777)
(4.00285919015869598e-07 -6.60299660346392523e-07 0.0149852002744593014)
(3.60304303722668985e-07 -2.72037002120608166e-06 0.00852893953527541007)
(6.68534902189747675e-07 -3.47585972925770127e-06 0.00385069559588326581)
(8.64806691068807861e-07 -4.05151578599505626e-06 0.00187651775632426869)
(8.02273786938243168e-07 -4.05233515951308713e-06 0.000611183987686612028)
)
;
    }
    procBoundary0to1
    {
        type            processor;
        value           uniform (0 0 0);
    }
    procBoundary0to3
    {
        type            processor;
        value           uniform (0 0 0);
    }
}


// ************************************************************************* //
