/*--------------------------------*- C++ -*----------------------------------*\
| =========                 |                                                 |
| \\      /  F ield         | OpenFOAM: The Open Source CFD Toolbox           |
|  \\    /   O peration     | Version:  2206                                  |
|   \\  /    A nd           | Website:  www.openfoam.com                      |
|    \\/     M anipulation  |                                                 |
\*---------------------------------------------------------------------------*/
FoamFile
{
    version     2.0;
    format      ascii;
    arch        "LSB;label=32;scalar=64";
    class       volVectorField;
    location    "0.990000000000000657";
    object      faceForces;
}
// * * * * * * * * * * * * * * * * * * * * * * * * * * * * * * * * * * * * * //

dimensions      [1 1 -2 0 0 0 0];

internalField   uniform (0 0 0);

boundaryField
{
    inlet
    {
        type            calculated;
        value           nonuniform List<vector> 0();
    }
    outlet
    {
        type            calculated;
        value           nonuniform List<vector> 0();
    }
    top
    {
        type            calculated;
        value           uniform (0 0 0);
    }
    bottom
    {
        type            calculated;
        value           nonuniform List<vector> 0();
    }
    left
    {
        type            calculated;
        value           uniform (0 0 0);
    }
    symmetry
    {
        type            symmetryPlane;
    }
    interface
    {
        type            calculated;
        value           nonuniform List<vector> 
67
(
(-2.28435265628966726e-07 -9.1183181321467901e-07 -0.00364242372437878102)
(-1.76356342944350142e-08 -1.59410991891505715e-07 -0.00290026906872891928)
(-1.47165055522810224e-08 -2.46869936154355098e-07 -0.00344763730752068983)
(-6.84466453285057144e-09 -2.60420349433338874e-07 0.000114909005223830856)
(-1.13115416627567274e-08 -1.37311706889393698e-07 -0.00106986836102124271)
(1.64879312159145808e-08 -1.76795790316356717e-07 -0.00254875498737702072)
(4.8458308518184312e-08 -3.77400004791829579e-07 -0.0032737201043939821)
(-4.66837544359521984e-08 -1.50570654282565765e-07 0.000532044756748495211)
(-4.56781638057041347e-08 -1.30076493021311635e-07 -0.000522343796647770195)
(1.97926225500666065e-08 -2.19483144936830034e-07 -0.0019243663959423033)
(1.53290297722045226e-07 -5.66746657633563028e-07 -0.00281293729809905906)
(-0.0027179639601202254 1.56066597109021304e-07 -5.3923487165884047e-07)
(-0.00162428869657668998 -1.65843388428687176e-07 -5.02747644866480085e-07)
(0.00053501962650771861 -9.95728302537755401e-07 -7.28150553439011737e-07)
(-0.00385362209688202466 1.5018583597839876e-07 -4.29216550351476805e-07)
(-0.00295055378549740309 -1.87591213191418429e-08 -4.94781332174499324e-07)
(-0.000256137521515258039 -9.76516627794216796e-07 -5.77685336423385874e-07)
(-0.00418286455592423428 2.68185630413621274e-07 -3.5808348472628128e-07)
(-0.00356126380870905356 2.17595454478131771e-07 -2.41354985030030446e-07)
(-0.000830363836685412771 -7.19165511301670118e-07 -3.4620015979626355e-07)
(-0.00353224672322135147 2.58982080834825331e-07 -9.93613431092751239e-08)
(-0.0028550045696355145 1.61264793607748865e-07 8.0583732828910819e-08)
(-0.000292308514703920564 -8.80779296273021129e-07 -2.05738313228449772e-07)
(-0.00187613036474638365 1.28963544796940613e-07 4.0478420790204426e-07)
(-0.000345865253219056396 -5.71468817082823852e-07 1.00817338734855137e-07)
(0.00165515913368443875 -1.15332462370139357e-06 -1.117861646791684e-07)
(-0.000591878004812619379 -3.87905878325778573e-07 4.01451769897259297e-07)
(0.00118036177218674878 -1.07253139981864228e-06 3.75863422687723352e-08)
(0.00271273913086888955 -1.22667863362679055e-06 -6.86615547240505592e-08)
(9.71318802025321332e-05 -1.48682538173945612e-06 1.0063432309339464e-07)
(0.00131670455188332433 -1.49835593280137082e-06 -2.11202132395426528e-08)
(0.00242003119194703336 -5.10917865212460913e-07 -2.99856525322183123e-08)
(0.000342963140016801975 -1.66872548306142917e-06 8.52273218724225142e-09)
(0.00196434381916769799 -5.71839160647984269e-07 -1.68537438817386241e-08)
(0.00238460013950804982 -1.16781368032223413e-07 -4.97647241120701871e-09)
(-4.5458196956357727e-07 -0.00832389294293832752 -7.40640778011726493e-07)
(-5.43066947779446383e-07 -0.0113219612512427958 -5.90668453811296873e-07)
(-5.72247400657226731e-07 -0.0120288425304146199 -4.73494275374209822e-07)
(-5.76235854751729272e-07 -0.0116329117205181201 -3.63779936507397907e-07)
(-5.71630759937798183e-07 -0.0113742030747600847 -2.78877373352687916e-07)
(-5.43638350878813583e-07 -0.0111500216274403353 -1.99997612036587175e-07)
(-4.9564250576170178e-07 -0.0110662896895764792 -1.21426050307733437e-07)
(-5.37567760720209764e-07 -0.0109253529310677742 -3.7726540856873627e-08)
(-1.63231864270044928e-07 -0.0105037595438674716 -7.16328016415735959e-07)
(-2.45649547446452092e-07 -0.0129668945791666362 -6.26904446674045331e-07)
(-1.73130430817292867e-07 -0.0133816199283596157 -5.00821530808014373e-07)
(-1.53007353026888133e-07 -0.0128869033949021612 -3.83460481113545844e-07)
(-1.51690008278368861e-07 -0.0123813282553510793 -3.06776583276652704e-07)
(-1.41628427055934022e-07 -0.0120707773576818594 -2.05564148627945157e-07)
(-1.46251805533565733e-07 -0.0119867748961740763 -1.26526340000735324e-07)
(-1.3908413387531131e-07 -0.011926637250149582 -3.64920275796593796e-08)
(1.89464689865465251e-07 -0.0119721693270589073 -7.05400854382838753e-07)
(1.84744588467483484e-07 -0.0138213415932296677 -6.15417763085361465e-07)
(1.79892540189156652e-07 -0.0139133998170336195 -5.34364696906439567e-07)
(1.76969667275234977e-07 -0.0136842071147103752 -3.97519125565721266e-07)
(1.73486426547404868e-07 -0.0132275396323233412 -3.08814936592424884e-07)
(1.69729716398969909e-07 -0.0127521392684398095 -1.99097567708383439e-07)
(1.67765670514018466e-07 -0.0124494558089548284 -1.1906164666707206e-07)
(1.96074905625906222e-07 -0.012355127957461921 -3.11442567504217851e-08)
(4.47667441755388819e-07 -0.00967907602648925003 -6.46708996075071375e-07)
(3.7512038270735414e-07 -0.0123441519628130665 -6.36464627797926608e-07)
(3.99060485808581768e-07 -0.0129727924400665322 -4.97712384350707791e-07)
(4.13344996434562351e-07 -0.0124290578256305243 -3.7449882176618263e-07)
(3.72947721082060558e-07 -0.0118304182736427236 -2.99637618543944432e-07)
(4.1123291605240217e-07 -0.0112434951108337372 -2.43908064864749948e-07)
(5.45702055054465872e-07 -0.0110341706585855206 -1.76094962560209391e-07)
(4.70294686116995489e-07 -0.0111858721949440257 -5.61456023476356664e-08)
)
;
    }
    procBoundary1to0
    {
        type            processor;
        value           uniform (0 0 0);
    }
    procBoundary1to2
    {
        type            processor;
        value           uniform (0 0 0);
    }
    procBoundary1to3
    {
        type            processor;
        value           uniform (0 0 0);
    }
}


// ************************************************************************* //
