/*--------------------------------*- C++ -*----------------------------------*\
| =========                 |                                                 |
| \\      /  F ield         | OpenFOAM: The Open Source CFD Toolbox           |
|  \\    /   O peration     | Version:  2206                                  |
|   \\  /    A nd           | Website:  www.openfoam.com                      |
|    \\/     M anipulation  |                                                 |
\*---------------------------------------------------------------------------*/
FoamFile
{
    version     2.0;
    format      ascii;
    arch        "LSB;label=32;scalar=64";
    class       volVectorField;
    location    "0.570000000000000284";
    object      faceTraction;
}
// * * * * * * * * * * * * * * * * * * * * * * * * * * * * * * * * * * * * * //

dimensions      [1 -1 -2 0 0 0 0];

internalField   uniform (0 0 0);

boundaryField
{
    inlet
    {
        type            calculated;
        value           uniform (0 0 0);
    }
    outlet
    {
        type            calculated;
        value           uniform (0 0 0);
    }
    top
    {
        type            calculated;
        value           uniform (0 0 0);
    }
    bottom
    {
        type            calculated;
        value           uniform (0 0 0);
    }
    left
    {
        type            calculated;
        value           uniform (0 0 0);
    }
    symmetry
    {
        type            symmetryPlane;
    }
    interface
    {
        type            calculated;
        value           nonuniform List<vector> 
352
(
(1494.26396341024406 -0.0167684806106905802 -0.0525246909478174276)
(1379.4114569753458 0.000810286585181362691 -0.0550611847167033347)
(1265.76487572354381 0.0017302717441860095 -0.0542786239022730807)
(1155.2736637716298 0.00138839810134270495 -0.0535851333981946856)
(1049.2005339454538 0.00139932778266701205 -0.0519952381800538321)
(947.778198325577478 0.00149499407183482078 -0.0503484872994200694)
(850.145557564949172 0.00140749819338838959 -0.0486537296802946953)
(755.368065362134871 0.00136195792979014354 -0.0472197836716792621)
(662.556757599482125 0.00177033160202873371 -0.0463899068212063684)
(571.370721212066655 0.00248428971129339244 -0.0449399994317615376)
(482.692070249592689 0.00328748074709164003 -0.043023247276600847)
(397.091691883444753 0.00426128172983494813 -0.0416972374508691804)
(314.454040502997998 0.00561720573244891153 -0.0409558102385249312)
(237.232053080792326 0.00740188815808853588 -0.0397807910629602857)
(168.683306752154181 0.00850733008300117062 -0.0394682754123620652)
(118.650804865838339 0.00566142613042712548 -0.0389676287662655135)
(1650.20941775718666 -0.0105337456383951776 -0.0346323049990321999)
(1532.76332401958848 0.00158160284527437901 -0.0376206581786716898)
(1415.5934319263597 0.00256148692714436473 -0.0369846915761199782)
(1298.98030572077664 0.00293752505614673382 -0.037181993857275969)
(1184.6206459931816 0.00339054839431916603 -0.0356728414650702846)
(1074.46839313230066 0.00403379709754006065 -0.0350223120766441423)
(967.019249242017509 0.00453524050815816426 -0.034352943396500607)
(862.136083414759355 0.00494079949743573676 -0.0335974917491978428)
(759.725425791895759 0.00540851579692319326 -0.0327272872447075119)
(659.9229873568936 0.00593978622512968558 -0.0318938839674002134)
(563.123236790621377 0.00664228911958055467 -0.0310873531180310761)
(470.021033995401979 0.00739660597393316469 -0.0301866335942483077)
(381.172936852382634 0.00838636637585372414 -0.0295681148153301571)
(297.526060152735738 0.00977695555293508697 -0.0296018308855890422)
(221.381840478257431 0.0111524210067175007 -0.0293002596773268252)
(159.27608294091965 0.00887732966451190708 -0.0291120490512987787)
(1722.8440799482978 -0.0103208449792747455 -0.0278502558805238318)
(1605.2192926342866 0.00186731826369004482 -0.0305054798962250233)
(1486.73071037126897 0.00372229510367264819 -0.0304016911586342635)
(1367.86901394289271 0.00450038781102278171 -0.0303033961763320876)
(1250.68047599909278 0.00517087089615690405 -0.0293928864321566785)
(1136.94137076854327 0.00577278577534423142 -0.0288179272943429564)
(1025.58743246931999 0.00631012173678043888 -0.0283752086043922713)
(916.522641094653636 0.00677230030692964943 -0.0278254900248650211)
(809.963749282005551 0.00723249530838171797 -0.0272517959148379334)
(706.090792921976345 0.00778123223993754543 -0.0267185388783106638)
(605.224465560534782 0.00849069716351330203 -0.0262880426034765718)
(508.234498995999388 0.00920361045128757597 -0.0257034149259075181)
(416.067978789926428 0.0100243756886988864 -0.0252025442064886251)
(329.607972864362694 0.0111225801629064539 -0.0250422739309155082)
(249.937297776175683 0.0126307971730864783 -0.0250625851474023838)
(181.744407572604587 0.0105031046056849129 -0.0248870449764063799)
(1751.41553640428106 -0.00711790028965950377 -0.0170457898221036755)
(1633.22472428601736 0.00227080576185893692 -0.0201031834120033136)
(1514.31053692708338 0.00406029803565589875 -0.0197913166752442318)
(1395.91402515241384 0.00505869659830381416 -0.0194369121168448088)
(1279.04984326634826 0.00602376418331662666 -0.0193504555407318542)
(1164.1030952629169 0.0068113941432774959 -0.0192176566813349083)
(1051.22242437706063 0.00747035734680562714 -0.0189899703548525763)
(940.656623426453848 0.0080116615262681868 -0.0187494354883069696)
(832.604578474184336 0.00856278945613662794 -0.0185093752253867143)
(727.320763826261782 0.00915535035402509703 -0.0182963610831208441)
(625.169234627277319 0.00981399631322551168 -0.0181291105473248317)
(526.773875755563267 0.0104488455717287737 -0.017950231722371094)
(433.080050056357152 0.0111545289879846146 -0.0177764358458995242)
(345.177727138884336 0.011899793331661938 -0.0176660447034158209)
(263.603219040319345 0.0134507066233647884 -0.0180176761942107064)
(192.353510436141846 0.0115471326303495537 -0.018020903443010057)
(1766.65098099766624 -0.00582607439756818724 -0.0138538127099969207)
(1648.78816796510569 0.00245765904467307693 -0.015445108183439327)
(1530.12243672119143 0.00430024883950430592 -0.0155340036927882046)
(1412.05845362088371 0.00555223659025228748 -0.0155066479967059679)
(1295.27984984381396 0.0066935211038480812 -0.0155076497111317924)
(1180.04079768477322 0.00757888439112941459 -0.0154732794262848229)
(1066.641231862214 0.00833200558612053922 -0.0153518587168782732)
(955.481444020412482 0.0089895673253485419 -0.015211489291907479)
(846.863711641196119 0.0095831690221055664 -0.0150913543729211171)
(741.07096661393723 0.0101677009599924657 -0.0149893050756529055)
(638.480144316460837 0.0107328884049258094 -0.0148678054634742655)
(539.486379420481057 0.0113027211104257536 -0.014764024742365052)
(445.036674297499189 0.0118570846610308363 -0.0146079996149784397)
(356.284995177515668 0.0124302046363783184 -0.0145491767222312735)
(273.510513192233816 0.0138636035848957086 -0.0148376984287421528)
(200.171325998943104 0.0122931625813796439 -0.0149143175211117144)
(1773.3518778951825 -0.00463138527695922727 -0.00745062538880407986)
(1655.72426719116402 0.00265806985837572281 -0.00972307093241684371)
(1536.99261740442171 0.00444575442298461576 -0.0097865791769244561)
(1418.87330831414306 0.00575679027542967334 -0.00961388105106312889)
(1302.2012182059284 0.00700525794803358737 -0.00955370756857466114)
(1187.02883760907025 0.00796275451997605077 -0.00954743127251357626)
(1073.59247883350577 0.00878176718913554165 -0.00952382948197040384)
(962.370087905241121 0.00952379052547757191 -0.00948702827266348879)
(853.717363225773511 0.0101689136971908935 -0.00946767573036762407)
(747.957852640491637 0.0107047321614398162 -0.00945674659934792571)
(645.384256132680548 0.011182780528662787 -0.00937136111174182752)
(546.039990021389372 0.0117627087355878426 -0.00934631346273462685)
(451.374682876473742 0.0120838627711522002 -0.00914962928466161139)
(362.830926827653684 0.0125392364378432031 -0.00913257842820036636)
(280.399763049558373 0.0138050150502996051 -0.00933822924434924741)
(207.387625223908373 0.0122291531989835757 -0.00938897634828839492)
(1777.79141631336597 -0.00422635398814974386 -0.00443055519114964221)
(1659.95852391431708 0.00288271434742170098 -0.00577650061281043126)
(1541.22583019375838 0.00466541468079406402 -0.00579394559926979785)
(1423.39178960235813 0.00601270322740610989 -0.00574678756293207221)
(1307.03677022782404 0.00723549501988132032 -0.00578470238026977408)
(1192.0743961581868 0.00829319440554887599 -0.005837430723591692)
(1078.78309797856332 0.00916447157704070037 -0.00586453130165754798)
(967.711624327625827 0.00991536621416237197 -0.00588345387300454829)
(859.310623074179716 0.0104887087977274043 -0.00591739299287898004)
(753.979283429665884 0.0108845811122489349 -0.00592017888053038895)
(650.590690573287475 0.0116451362214154575 -0.00599294393672263406)
(550.51160626632111 0.0117267018069880467 -0.00568752484234827382)
(456.335682540524431 0.0122371126340554918 -0.00559793786367665438)
(367.82893618950061 0.012692659456651139 -0.00555279238960021491)
(285.642385524289011 0.0139259386020815622 -0.00558734899308360906)
(212.746461976812498 0.01242774290420391 -0.00549903352832460147)
(1779.4061186248382 -0.00345811065281090855 -0.00142713731339914212)
(1661.4171144507759 0.00302444825807374066 -0.00183437349200510401)
(1542.61551284452435 0.00488079414955595349 -0.00183256464757073734)
(1424.90689110305402 0.00629403005120405916 -0.00182758879862974957)
(1308.75912411454237 0.00739359200026296591 -0.00184779275553666254)
(1193.98035117986274 0.0084081842937775552 -0.00187969819501518907)
(1080.79940144353009 0.00929609044661733677 -0.0018990558515373508)
(969.853853807350674 0.009982570724022111 -0.00191699800270325889)
(861.677603237526228 0.010436103457530951 -0.00194140021376111973)
(755.935048645955476 0.0110059693321513073 -0.00195301033458918864)
(652.059357190864034 0.0115392383646529192 -0.00190661361850575067)
(552.068886372392853 0.0116967351151196827 -0.00180950037893562931)
(457.880473793679243 0.0123079449786742488 -0.00178868960680770303)
(368.993819081423169 0.0128415524918382533 -0.00175938551244201702)
(286.164253696931041 0.0142996096684563333 -0.00173315804988310659)
(212.12315645075617 0.0128403817688156757 -0.00161023633776877922)
(0.07490216246677249 0.0394961303222816015 323.418928447015844)
(0.0719460978420278924 -0.00265350051778491915 210.305293660940123)
(0.0696753626488116201 -0.00752519641745516121 118.93044746317247)
(0.0658315227731702535 -0.0118139630935690625 47.3523447754095912)
(0.0586363636876716735 -0.0170484440499270896 -1.89975492077306374)
(0.048134350974026581 -0.022157054571276192 -29.1385133008721695)
(0.0381111177936617265 -0.0259026414223593182 -37.3864201319147256)
(0.0299771372271923561 -0.026008324636257435 -22.2290184381037967)
(0.0194974003221359861 -0.0216713024046240668 4.3837934031140664)
(0.0206142157841500175 -0.0186404310615806215 5.15749369919968448)
(0.0161169540810091987 -0.0147076717043549722 0.204191099172827739)
(0.0111629821307418862 -0.0115898663081646404 -6.34776462895296056)
(0.00552340932461530681 -0.00955585850343476477 -18.0364171419650319)
(0.004478000644154944 -0.00731866572407509526 -40.7858369829016638)
(0.00831292197174754097 -0.00875324845959691775 -78.5489711723010231)
(0.014081274890050675 -0.012649176042741855 -104.525004619765738)
(0.056983915857564002 0.0239511998785903214 443.38149676326708)
(0.0522955783281539369 -0.01082954916395284 339.981520674378601)
(0.0466275705342290778 -0.0203587903005473976 241.063003578438497)
(0.0379752036433641596 -0.0301852895545957102 139.611956033238471)
(0.0190734143777158346 -0.0253165390019822363 58.1270850053125514)
(0.00612014805185791613 -0.0142748077523617602 19.4844074881195475)
(0.000836262105618942246 -0.00578989721946838228 14.6177437739660192)
(-0.00142220374019060578 -0.0052560749044346794 13.498364571861913)
(-0.000691924907618607777 -0.000666959494920479445 9.29384535498509301)
(-0.000723663177834135479 -0.000420131086994155443 7.12304699777221106)
(-0.00062764288449602924 -0.000414952190364778798 4.37064478141645285)
(-0.000692371505747095572 -0.000369180200609244425 0.958566487944957579)
(-0.000845606112535564791 -0.000460320155885642079 -4.63179283979561252)
(-0.00092568115580077498 -0.000127602161108091727 -15.2211181588705902)
(5.04247932970697686e-05 -0.00107134632829753774 -31.0988488706712047)
(0.00805355946877314884 -0.016929811116665635 -57.5663358189103178)
(0.048552022109308153 0.00690477779462440964 560.229800024187853)
(0.0397870142931791987 -0.0172747752432842426 432.405566426131202)
(0.0296798436159468916 -0.0259880654226002511 290.696740245591343)
(0.0183937754715476874 -0.0209144657307240543 162.514945686245653)
(0.00956260074325841931 -0.0101075202939454219 83.8575087370353742)
(0.00187997340531408205 -0.00198210824086558811 49.5609944233565969)
(0.000385704370099560921 -0.00129923146151435243 35.4530233246252351)
(-0.000165162273546657306 -0.000901811647218229398 25.3010594357233636)
(-0.000136056507862198869 -0.000650229617124056282 17.2976618958956152)
(-0.000168452468611401235 -0.000650495952144921241 12.226919333501062)
(-0.000105420197219793533 -0.000649075949080087241 8.5273592472385058)
(-2.07395285985692764e-05 -0.000710822440678268459 5.57411858039158048)
(0.000134161363093877873 -0.00102342245053026258 1.54694578258419591)
(0.000349190540253140654 -0.001804942579502238 -7.4300623668340684)
(0.00058561871004597036 -0.00294982989779739432 -23.5233243533926561)
(0.000798838761023146801 -0.00356571083901771786 -34.2031739471879845)
(0.055151897816591279 -0.00683760953689117792 433.746514981675546)
(0.0501106852600670255 -0.0219828629557839578 306.121437864828067)
(0.04493070951491792 -0.0218253009271776634 189.852222796815937)
(0.0257317683433451981 -0.00997298515112677794 111.23063334247685)
(0.00939833012276284491 -0.0040517692110828285 70.5050745668028469)
(0.00461683123134741091 -0.00332574290270646993 47.4963920412650253)
(0.00086293306855212738 -0.00119804241733567672 35.0152347680145795)
(0.000376287089767415178 -0.000952820679369616283 27.3171464613462334)
(0.000184681709086739862 -0.000605714258210967075 20.1200661346163869)
(5.3360816261596669e-05 -0.000381523724783404124 13.9228391944205345)
(-1.07185091818135744e-05 -0.000207391840605080301 9.34761329448912726)
(-5.35746189982142299e-05 -0.000199034356525612451 6.45414410033701103)
(-0.00010098362700854497 -0.000350468577976555931 3.94312347560088039)
(-3.91967000400768729e-05 -0.000921322801999728482 -1.37833540907686114)
(0.000291725979922975774 -0.00216851144476040876 -11.5414189208261124)
(0.000752114339092535208 -0.00292835053670358015 -18.7296599009959834)
(-36.5132788278513871 0.0204934511099536601 0.00510438402887783589)
(-4.30003487431507025 -0.00253390392769268363 0.00205358329236630856)
(-4.01080556938868771 -0.00659084480505863022 0.00387009937672509741)
(-0.900097046870690365 -8.20683247630078419e-05 3.69890052539959089e-05)
(-0.406225368135401055 -0.000204056139784806247 0.000118549481282196584)
(-1.4516861337505087 -0.000272512452965746491 0.000167707137878620886)
(-2.75075857720572836 -0.000168965161677061583 0.000107516328008446879)
(-3.53201675651508218 -0.000110987676015540421 6.72725659928745731e-05)
(-3.82808998692961033 -4.02989413101479782e-05 2.5578146122806456e-05)
(-3.68099911621992959 -3.02642350212121239e-05 1.93104565134048472e-05)
(-3.37131691363638408 -1.7671604731755737e-05 8.99442451511395463e-06)
(-3.13814136539772948 2.17670282726342204e-05 1.18439517752321985e-05)
(-2.95992675566656249 2.34892442455351654e-05 3.35948384979784442e-06)
(-2.71636392637379886 4.70906708420828571e-05 -4.16323755566561579e-05)
(-1.41144447533986694 -0.000270501233013683466 -0.000200938230011810792)
(2.58268374249667598 -0.00160599399895303943 -0.000726247389275287204)
(-24.0938780210788366 -0.00987645379737473947 0.00569686966055887173)
(-5.19662609883010962 -7.53388289811742358e-05 -8.31365862625760543e-05)
(-5.22630916485698993 -2.05432476487151839e-05 -0.000114554172989050413)
(-5.23858938769210525 -2.92513449563966467e-05 -4.80862671721270598e-05)
(-5.2375486249633898 -3.17053024469211476e-05 -4.90168259090606581e-06)
(-5.01144863883718106 -4.01663834647776057e-05 5.8357042280071917e-06)
(-4.6243292133772913 -4.02682548337600997e-05 6.22255770416465921e-06)
(-4.30770211623310395 -1.87043874214864824e-05 -9.97396288118928228e-06)
(-4.09516464116157142 9.30980195978525821e-06 -3.11525748016389806e-05)
(-3.86529448817495158 1.95057826698285213e-05 -2.55769134342702934e-05)
(-3.55888659910654148 2.68270838891962784e-05 -2.16790129479673175e-05)
(-3.23530543282320071 2.20285549671061511e-05 -1.67706394002522716e-05)
(-2.96738364643013819 2.69075253022808016e-05 -1.66832650477829015e-05)
(-2.7387753736092515 6.75922682874216426e-05 -2.12464649858076698e-05)
(-2.23985665011895607 -2.02296393347011713e-06 -4.11698940837867684e-05)
(0.956879983715501536 -0.00107195961875831925 -0.000404173148731429754)
(-8.72673877078725901 -0.000479601400810485785 0.000874937828409399023)
(-5.82727573349778094 3.64287376956996203e-06 0.000101312539729930815)
(-5.4444102659895055 -1.01885517255385802e-05 -2.95234824430779273e-05)
(-5.33124201024802069 -1.32270526371159325e-05 -3.68892061299991089e-05)
(-5.23929830431104193 -1.40092430335467456e-05 -2.50878894346561028e-05)
(-5.06079671863225222 -6.28481177386846096e-06 -2.02299758282775365e-05)
(-4.82313827932969286 6.17402193755602286e-06 -2.36706178473546773e-05)
(-4.54507640193777185 1.49662010668800327e-05 -2.28151712653918806e-05)
(-4.24498534327345656 1.9731897654879117e-05 -2.05823308591835195e-05)
(-3.95669529641726658 2.34454551806226318e-05 -1.90943211577631105e-05)
(-3.65405657840838538 2.77529978245564894e-05 -1.8429175193601765e-05)
(-3.32149376525162277 2.5070139603849506e-05 -1.86347988762451665e-05)
(-3.02622398700056783 2.80662447637310239e-05 -1.71972753327788116e-05)
(-2.82305691470614706 4.33336152502156627e-05 -1.91732854782050819e-05)
(-2.50149604099321632 3.17046578125005428e-05 -1.0734450772577308e-05)
(-0.86842385125831012 -0.000625303814667778563 -0.000219085514190070995)
(-8.15786200664954819 -0.000716494632324112804 0.00154072956978419705)
(-6.08281292125333284 3.57870638337818761e-05 0.000373224896105751305)
(-5.56768778119917496 1.6544502790056608e-05 -2.97487078016273364e-06)
(-5.38760028300945049 9.07673756507861022e-06 -2.68944453184579516e-05)
(-5.23164314362647431 1.98281978292674242e-06 -2.15029151179352481e-05)
(-5.04503685459332907 5.38497583802987731e-06 -1.81434382448750638e-05)
(-4.8253271456029001 9.50447783187619794e-06 -1.64744158837952482e-05)
(-4.58246274777078444 1.37662267900355682e-05 -1.56580547801874678e-05)
(-4.32432272355138192 1.79427207489155084e-05 -1.59398863578944101e-05)
(-4.05603738406511916 2.24197813203304827e-05 -1.61401602948333875e-05)
(-3.77413278908629346 2.70017915713161114e-05 -1.66331394433070275e-05)
(-3.47343780888661602 2.67617313126625543e-05 -1.80233491009173906e-05)
(-3.1862909993999895 2.88786263954215049e-05 -1.76095780522857698e-05)
(-3.00612832105596794 3.41979217727196949e-05 -1.71499002642298441e-05)
(-2.74237278834985343 3.6198617298711816e-05 -6.05858597558153846e-06)
(-1.36681074598702468 -0.000504092953468081328 -0.000125451481757903673)
(-8.69299107148829897 -0.000783571532593145634 0.00216609516582057368)
(-6.16605102352715839 6.32867146340750238e-05 0.000442609402907221967)
(-5.61102387697330496 1.92433182130791696e-05 9.29861233286143129e-06)
(-5.42993925088065943 1.12944945770901982e-05 -1.50160439263466196e-05)
(-5.25375256763765286 6.05542162180467458e-06 -2.05604254195812896e-05)
(-5.06215040358617507 7.91170617884812918e-06 -2.0543182454684241e-05)
(-4.85424195318803076 1.11575702321845745e-05 -1.9612995524172214e-05)
(-4.63098096855370223 1.48451866872801937e-05 -1.84506769989634415e-05)
(-4.39288483044720035 1.88004998879850569e-05 -1.72829352184883837e-05)
(-4.14459407259552215 2.31447170677423734e-05 -1.6163266725698007e-05)
(-3.88897326123608655 2.73663980431554179e-05 -1.54448255593972618e-05)
(-3.62826871763525327 2.82018051633806635e-05 -1.56479424525525272e-05)
(-3.3697981561087027 3.1465168985547497e-05 -1.4964623430077874e-05)
(-3.19657819217308115 4.15534838831612891e-05 -1.15595504856843011e-05)
(-2.96156883538962168 2.73142465196931745e-05 -7.57074788321587603e-06)
(-1.67720769422363247 -0.000423779219699462395 -0.000137584123200519803)
(-8.316263630602581 -0.000486592235346403653 0.00186813546209112658)
(-6.04801895582982851 4.58438857220035749e-05 0.000276288252347454152)
(-5.6012491623876377 2.39724941024605661e-05 1.68696660838314225e-05)
(-5.41667814060878072 1.4726347931203987e-05 -1.57478560078102453e-05)
(-5.25477899255040093 1.20734061470479809e-05 -2.56497265476014883e-05)
(-5.08017139280476382 1.41789700888836959e-05 -2.63338611016771086e-05)
(-4.8852874310218608 1.70182206738348051e-05 -2.46387618358617333e-05)
(-4.67257420808391544 2.03026435898915816e-05 -2.22696232146484019e-05)
(-4.44466450972771732 2.38656599050398628e-05 -1.96532205294859347e-05)
(-4.20538256099980767 2.74106991919852443e-05 -1.7120338053280534e-05)
(-3.96030279282949049 3.09763815234685757e-05 -1.51086120919741501e-05)
(-3.70830770390303321 3.18827394398708559e-05 -1.4165159947860306e-05)
(-3.46146129272775038 3.43953770421154503e-05 -1.2920436395580852e-05)
(-3.28759306995270295 4.41803336189708625e-05 -7.34681311440362013e-06)
(-3.01663443932040432 2.8585527519463724e-05 -1.02035594437759762e-06)
(-1.5243472938919238 -0.00048806555682657447 -8.87433528623131134e-05)
(-8.32270644836899187 -7.96044611710748309e-05 0.000716313655266739412)
(-6.45970741831806272 0.000104555120004824929 0.000281707788098537024)
(-5.67886773193846839 7.12789351550148579e-05 1.71500635526410924e-05)
(-5.41427732466068168 3.90263402435232044e-05 -2.23006500920672142e-05)
(-5.28329291244556565 3.7283969496298382e-05 -3.36977342352586245e-05)
(-5.13305783304407193 3.84370667542096952e-05 -3.65047046342544429e-05)
(-4.94111678673211951 3.71053366968803557e-05 -3.28513054537643272e-05)
(-4.72822358887050243 3.40221389754145103e-05 -2.57654493248053983e-05)
(-4.49920166833481705 3.47596442088231918e-05 -2.15583488037444624e-05)
(-4.25731782374095502 3.56772574772997798e-05 -1.78390934769111513e-05)
(-4.00791938703293926 3.66253323782123107e-05 -1.51756879118781852e-05)
(-3.74380241001534486 3.49977194115572873e-05 -1.49934332280831449e-05)
(-3.50115411818396538 3.60283703111826322e-05 -1.53932256353280281e-05)
(-3.31150685163310232 5.19901418441453248e-05 -3.61591563865804566e-06)
(-2.89340061107326285 4.58500637123889851e-05 5.06272084067427469e-06)
(-0.58190383442715321 -0.000938088963918361804 -6.19654600381621399e-05)
(-9.38661084727604056 7.4912412328577481e-05 0.000246985264044286674)
(-7.8253358980291301 0.000234899748532074135 0.0002390232857316709)
(-6.46352260782759558 0.000258964200603547861 9.86170852635750441e-05)
(-5.84116774948737749 0.000114229522156014627 2.07927617677399825e-05)
(-5.58119006533433826 8.40597441126336416e-05 3.42588554553864103e-06)
(-5.36019513647319279 7.41228227356623598e-05 -6.03309418656355873e-06)
(-5.10620688684767998 6.40227806954534926e-05 -1.01506006398394005e-05)
(-4.84051108888496895 5.59835837937289646e-05 -1.05050214443214707e-05)
(-4.57369785880430602 5.02204762776596218e-05 -9.49511532371586962e-06)
(-4.32290242980873085 4.4825695874711856e-05 -7.90962733338125163e-06)
(-4.08724784458780377 3.83371099656564223e-05 -6.76292469506655517e-06)
(-3.88091386419062223 3.46030875162136505e-05 -6.41191422005896693e-06)
(-3.73506177517546067 3.16369764239107538e-05 -7.46060897813066875e-06)
(-3.58249360174034859 4.13179374371854381e-05 8.87509542923253192e-06)
(-1.83977460033017803 -0.00023500727818858688 1.48132541451549148e-05)
(2.97125670951499821 -0.00209887226423880391 -6.3179193857473205e-05)
(0.011249762884631009 -216.545765174171265 -0.0191021946688024434)
(0.0104632199140038476 -253.326670517925919 -0.0164810726317869347)
(0.0105103305263716806 -265.692702781496052 -0.0132002037481919153)
(0.012059696047895108 -271.254909455125528 -0.0102804526459914173)
(0.0114246689366204485 -274.989646575559846 -0.00875409630387139794)
(0.0115632999174457261 -281.722341128666415 -0.00571775491329656708)
(0.0128368544710022545 -284.992343023415856 -0.00328343805486627349)
(0.0104072233659365694 -290.462564374063277 -0.00096987705321549436)
(0.000334116294791327658 -130.037745630520647 -0.0106364682632381757)
(-6.91716393310489143e-06 -180.46571686429877 -0.00970810106441467695)
(-0.000167402217388030436 -209.161333843684673 -0.00761586122695066467)
(0.00020253755143858398 -222.332496673728059 -0.00617244325672924431)
(0.000568882183885940592 -225.525529832131866 -0.00568558446487434262)
(-3.68074135144337561e-05 -217.992767470805973 -0.00361740561327360136)
(-0.00117775346497116132 -227.722990974014067 -0.0023245001788218863)
(-0.000946030756969895776 -266.513858652383362 -0.000867626419394241155)
(0.00323504976790087552 -70.9419884127279943 -0.00554844861658204767)
(0.00456119448119795927 -98.3600838655824106 -0.00375121438035747826)
(0.00468328366230336742 -110.65590362993035 -0.00269646578723330794)
(0.00482130640649234155 -115.155061556571724 -0.00201085253771140582)
(0.00467317730910865245 -114.807757566336974 -0.00173712872469725804)
(0.00422897657444794468 -113.287216074922853 -0.0013117695636736535)
(0.00465342132939507939 -123.976897208580056 -0.00104191617241302151)
(0.00610871638103517491 -149.29356600728886 -0.000419765833937640464)
(0.00123542095929706332 -36.2857968786465221 -0.00117693653329014334)
(0.00173104293785591155 -49.5602764530090312 -0.000875626201784934039)
(0.00197945673360736809 -55.5373098500720417 -0.000612251715301305021)
(0.00204858047130650374 -56.1200417036205152 -0.000463678632486436138)
(0.00207829109117422086 -56.9439268706420094 -0.000532677659187401776)
(0.00216459224301113673 -60.0294447797235762 -0.000587370363975274977)
(0.00227027386558958846 -65.7761193007767559 -0.000415291779731736404)
(0.00233469697202067688 -68.9033266334828483 -0.000134008010746846686)
)
;
    }
}


// ************************************************************************* //
