/*--------------------------------*- C++ -*----------------------------------*\
| =========                 |                                                 |
| \\      /  F ield         | OpenFOAM: The Open Source CFD Toolbox           |
|  \\    /   O peration     | Version:  2206                                  |
|   \\  /    A nd           | Website:  www.openfoam.com                      |
|    \\/     M anipulation  |                                                 |
\*---------------------------------------------------------------------------*/
FoamFile
{
    version     2.0;
    format      ascii;
    arch        "LSB;label=32;scalar=64";
    class       volScalarField;
    location    "0.840000000000000524";
    object      alpha.water;
}
// * * * * * * * * * * * * * * * * * * * * * * * * * * * * * * * * * * * * * //

dimensions      [0 0 0 0 0 0 0];

internalField   nonuniform List<scalar> 
29184
(
0.999999980060212623
0.99999998021118508
0.999999977199301338
0.999999949211570094
0.999999946498800529
0.999999961409072213
0.999999979697970942
0.99999998395079448
0.999999989795152144
0.99999999197933509
0.999999991927410514
0.999999991875535454
0.999999991519852083
0.99999998104904142
0.999999900035231093
0.982250237643330526
0.999999980245946052
0.999999980173275183
0.999999975670649688
0.999999952624849975
0.999999948879621847
0.999999964692779519
0.999999976591628648
0.999999981862908838
0.999999987744264685
0.999999991930142551
0.999999991931920684
0.999999991589593407
0.999999982544014898
0.999999903937711321
0.999998745657697086
0.979690169563557367
0.999999978981850446
0.999999967744052976
0.999999952240288481
0.999999936533138012
0.999999934322582495
0.999999947402443579
0.999999957872293455
0.999999969698069702
0.999999980428552426
0.999999990356988167
0.999999990726493593
0.999999982610785265
0.999999883403366319
0.999998848381761452
0.99998952967912591
0.977064631786671356
0.999999916152783053
0.999999610210642986
0.999999476687943423
0.999999432920925746
0.999999461967325365
0.99999952429783634
0.999999598615287422
0.999999704006880874
0.999999832667592514
0.999999926807242145
0.999999958404983902
0.999999844264868987
0.999998863753704059
0.999991267968764808
0.99993809739487638
0.976147810850938935
0.999998824144635701
0.99999517761474932
0.999993289063897839
0.999992492309190073
0.999993447673991009
0.99999445843298318
0.999995627656733665
0.99999671671385415
0.99999792464756565
0.999999120133115649
0.999999514499351205
0.999998393636720384
0.999991579716094092
0.999950046481030919
0.99972318589176834
0.973172753540445967
0.999986409804200171
0.999959832535460391
0.99994368838606984
0.999937808044848331
0.999945232476910251
0.999956292558566107
0.999964479019891828
0.999973274722842587
0.999982526670416094
0.999991725226589856
0.999994886409270922
0.999988067682366033
0.999948253879499926
0.999756872582767464
0.998865307895852483
0.975661301899638511
0.999943301511184712
0.999862807830103839
0.99983530127749054
0.999768134889780224
0.999736792865931312
0.999779377051335905
0.999793700882046554
0.999822828258148721
0.999881842606136551
0.999941009267432124
0.99996045213889051
0.999927397281089814
0.999748439620985363
0.998959335724270647
0.996060369048682004
0.972226985972875601
0.999941094474974701
0.999799922028537402
0.999802298368589915
0.999665674925956926
0.999701623837220388
0.999370172284262503
0.999302847931785587
0.999311305582626153
0.999505907548913775
0.999690074271481377
0.999758330926967309
0.999622351487759908
0.998935830163549587
0.996043341150828598
0.987404615686671816
0.970710328202798234
0.828745036346687169
0.843199832384688319
0.881943717988761477
0.932969027102852788
0.975266411429550506
0.995439348684826086
0.999154423038264072
0.999120928504339645
0.999132093440057489
0.998847622659104983
0.998890928620728702
0.998264283384188822
0.995967862193771425
0.987146127475346802
0.963183557421129488
0.955507358697774478
0.181007896057260309
0.214736135381349558
0.278519255458932302
0.375413839365113855
0.505683216114324541
0.663658845898104199
0.816300926741545085
0.921533467158149877
0.973452799942871927
0.994816401412610185
0.9951049461088326
0.992775120668960009
0.985764638076448874
0.940774824848691127
0.761809601915246937
0.919527523925668167
0.0150652694125636422
0.0159713551619335425
0.0207784526439631148
0.0307576668080690521
0.095073699481380225
0.20961239130155998
0.371930263687783758
0.560492062584976303
0.738527552807044962
0.868362761983728193
0.931709274578973567
0.929733010580443109
0.798895673029976439
0.47020626166120616
0.283702748223109591
0.525983429360841304
0.0121123228018270787
0.0119064600908550325
0.0150853146531795441
0.0242092791428456314
0.0233095939853473592
0.0420694098220072282
0.108493818358261607
0.226260106230790292
0.342438734349984286
0.394782992513831532
0.415887587085666699
0.354583376897665392
0.197382975547504336
0.0947330896014597496
0.0863577839515956569
0.119691601507776912
0.0117946615915110395
0.0102028007265787188
0.0105438672313773983
0.0159057919308813675
0.0222982261692404905
0.0196781202104128715
0.0135246969317606471
0.007709094620958621
0.00324337684554099623
0.00260011575905389099
0.0182567816086665093
0.015087348705802698
0.0188366778318739131
0.0211926983977358575
0.0265969637054730285
0.0332817978162422493
0.0271344928063799659
0.00839016609218064952
0.00940126875992609856
0.0184066744070984292
0.0196413703669114578
0.0195329035379661377
0.0177306454458207377
0.00885287599869869803
0.00231885876638156111
0.00194342418762997776
0.00192198131368297512
0.00219164593581479706
0.00331025489802976285
0.00496606023235500287
0.0079610033647563843
0.0143041243816846332
0.0289442440609999456
0.0139218984752043917
0.0080746192463279215
0.0112406273458721898
0.00931300881285905893
0.00816381354831857697
0.00700615971200256767
0.00930633605784973728
0.00539866049220748614
0.00163053080450033814
0.00155214421490260579
0.0013571591105296522
0.00185566813614189115
0.00337768584220231967
0.0169136787889552047
0.0330952681156112954
0.0224767948395777351
0.0114992264760360105
0.00520619056713881451
0.0038286170143418119
0.00393035464749834709
0.0038241242996404053
0.00183375913659784753
0.00258736214921731576
0.00579488310210304891
0.00161603560411212733
0.00113197066363203945
0.00112375349846248582
0.000662146838000185695
0.00146176454019605146
0.0135451809565051463
0.0612404100905961507
0.99999997982155242
0.999999980067820315
0.99999997593730483
0.999999956186721661
0.999999951796135433
0.999999968272503703
0.999999980842549041
0.999999987172345062
0.999999992006691985
0.999999991993034687
0.99999999197933509
0.999999991899716223
0.999999957488776126
0.999999946316749488
0.999999810976443637
0.980133450720727883
0.999999980120865661
0.999999979971648356
0.999999974519426349
0.999999956916763577
0.999999958453946181
0.999999969994572857
0.999999979527493754
0.999999985380795153
0.999999991538155553
0.999999991980809577
0.999999991946736499
0.999999991898185892
0.999999969168038572
0.999999828769913668
0.999998424664096164
0.97725178999988116
0.999999978393360966
0.999999965105525357
0.999999951794260156
0.999999940730088355
0.999999941888698007
0.999999954323706364
0.999999966704806731
0.99999997612355096
0.999999989102211551
0.999999991313402781
0.999999989313963722
0.999999976715798211
0.999999798605807566
0.99999809202559764
0.99998413117933227
0.974133460448414645
0.999999921889199617
0.999999622218449513
0.999999521797273139
0.999999467270987985
0.99999951100907758
0.999999595562543586
0.999999690805934538
0.999999799696606351
0.999999912267078628
0.999999961616287902
0.999999937870733158
0.999999716862828625
0.999998167446071062
0.999985937230130073
0.999906621912429738
0.971651485925323355
0.999998879767715398
0.999995403184962384
0.999994070452898343
0.9999933912441068
0.99999431051837151
0.99999540969896461
0.999996527437256422
0.999997710166697695
0.999998899751445514
0.999999507513983033
0.999999345948922258
0.999997431662167147
0.99998599485070061
0.999922729716269609
0.999503578109915081
0.969990833225244042
0.999986349555701315
0.999960947534826117
0.999948937359124712
0.999945088167495832
0.999953227777233167
0.999963298712508775
0.999971303262045197
0.999980875209825149
0.999990066917551879
0.999994728221376139
0.999994328791425358
0.999981779491959433
0.999921654469551058
0.999634936361982196
0.998412418172327065
0.983353509887570754
0.999938392745407301
0.999846635002681339
0.999832462632088914
0.999787348917446583
0.999766053299722568
0.999803995141402169
0.999821536974952352
0.999859728289155592
0.999923157609200586
0.999959632440287294
0.999959876468027531
0.999894962180710389
0.999631931635452831
0.998540915719858369
0.994745029828809413
0.975279466259446726
0.999945299935434573
0.999845942538018506
0.999732155741638095
0.999658651546301069
0.99968622487687997
0.999396294756203618
0.999417211862383192
0.999541047742942945
0.999695798268191993
0.999763049128671089
0.999756261694591974
0.999480602620606007
0.998510184524391775
0.994693693386187849
0.985002033713508585
0.971656267154569875
0.826375127786942887
0.840684242534806225
0.88345700162943186
0.937420131464031803
0.978199806953772288
0.995553042865932269
0.999303228150259515
0.999188110076269176
0.999205209706771846
0.998965801966933631
0.998748517521348633
0.997725932111050984
0.994608780317431052
0.98364786459099407
0.96212746682612571
0.960190481763736559
0.163000368688470204
0.199565400844487983
0.265727116274867559
0.377399980064571983
0.519037349036818529
0.67913030986945655
0.832154996966504412
0.932390277419685498
0.983108211498899598
0.995131065239133861
0.994192948785995956
0.990952429038878702
0.98185749585948412
0.936990380645709053
0.836234140834894113
0.930747551088448422
0.0139254228217884322
0.0182421176486423225
0.0214452663925235112
0.0326288638563358019
0.111287649095358085
0.241191101465709656
0.411399425805077767
0.598442281782761487
0.76562603527398676
0.888234356367640254
0.937235940069599538
0.919644477409985339
0.78474771896008666
0.47694955083835977
0.34305383707286996
0.611423313871101937
0.00996147405959773441
0.0105130931495596158
0.0213875778435762415
0.0219231977092726946
0.015994550889080323
0.0331528826394551501
0.108595216869628391
0.220149910278473221
0.315284951918453016
0.361239394676184211
0.386878772841508622
0.346401439994553306
0.198665031899064148
0.106688289370474018
0.081813938891657903
0.206731374988297079
0.0091765568519646748
0.00838391577438527685
0.0127427375994300061
0.0131260065584646209
0.0194501744714612144
0.0207601956117298078
0.0110856183662948332
0.00679739172542452239
0.0024165251280199823
0.00203979567724945189
0.00234799550768264535
0.0133493146023513642
0.0260926346729918705
0.0266718614803663455
0.0375448869969708388
0.0695706729499917242
0.0186110117973932454
0.00683370189580658188
0.00728348265625441971
0.0120233855019121118
0.0185787703167319268
0.0189025854143159318
0.0168912365352736973
0.0105110287350667006
0.00203998621354864506
0.0016302035681613166
0.0015988126549928987
0.00221722718082132189
0.00349669068289972526
0.00736657469005147156
0.01286708986467738
0.0187561643451751407
0.0207929895493722053
0.00657764578074215497
0.00585520520042912863
0.0154218514548676543
0.0157106068521993235
0.00595947353676423881
0.00505517483789505711
0.00853410238389362003
0.00286447887448906639
0.00140461735839286718
0.00113370926758386966
0.00124527863246562463
0.00211056822762438305
0.00367191040034806418
0.0131692251451527107
0.0171188627632952312
0.0153164689061769579
0.00744700016171879337
0.00552287610635858114
0.0116305846291191069
0.00591866547703430099
0.00195589868510310334
0.00148168598303295902
0.00254775943922524875
0.00579488310210304891
0.00133382836129542761
0.00073046484994170784
0.000742323576337622945
0.000892969306468152581
0.00172523093599182172
0.00963301680831858687
0.0580973595478228022
0.999999978598045014
0.999999979384236903
0.999999976251337075
0.999999962185140978
0.999999961815151384
0.999999972888112376
0.999999983217072841
0.999999990613180234
0.999999992006691985
0.999999992006691985
0.999999991985008774
0.999999991803463772
0.999999916514462184
0.999999895692758822
0.999999702364793963
0.980586554968911672
0.999999979368337621
0.999999979214235446
0.99999997506062166
0.99999996171272576
0.999999963440134643
0.999999973813679888
0.999999982586493696
0.999999988802114492
0.999999992006691985
0.999999991985803138
0.999999991832316359
0.999999990600336952
0.999999960429933665
0.999999732881787451
0.999998074767080358
0.979178535833376773
0.999999978012660384
0.999999964706793865
0.999999953228383642
0.999999942616161652
0.999999946313913313
0.999999960236055863
0.999999973109047424
0.999999982709245061
0.999999991703775182
0.999999990982885167
0.999999986678956287
0.999999960447375824
0.999999639623213366
0.9999972993230829
0.999982856641197126
0.973152816766105877
0.999999929597525927
0.999999660497294718
0.999999562783830398
0.999999510294050431
0.999999554505530019
0.999999647883502485
0.99999975270732433
0.99999985639228417
0.99999994326425734
0.999999970057735776
0.999999904968600251
0.999999552706381412
0.999997113615244682
0.999980102277861715
0.999894673311690907
0.970477531000592863
0.999999203286170646
0.999996107699431036
0.999994819989006301
0.999994165723042672
0.999994948404770545
0.999995987117713536
0.999997121795761723
0.999998259746465612
0.999999271417239655
0.999999533385271921
0.999999057032092686
0.999996096672684409
0.999980238841579716
0.999891014533148215
0.999523500680758903
0.968910099762650967
0.999988850211767533
0.999967716850235222
0.999956623940066458
0.999951523551317001
0.999958027812396399
0.999967139598194832
0.999974929699932957
0.999984093314756239
0.999992672958833095
0.999995210522506284
0.999992330684724706
0.999974190324713019
0.999890840842193485
0.999519877389232758
0.998260347416882521
0.974066043298659867
0.999966125066750866
0.999866378973560899
0.999865452853970438
0.9998102545226486
0.999777720805281378
0.999813348574267291
0.999835297513516408
0.999879532038054242
0.999943345484777035
0.999964078024881298
0.999948348600766979
0.999859761072629971
0.999506556764599097
0.998125677017394297
0.994643493178792415
0.984964938916300659
0.99996174507335378
0.99988844252173914
0.999697257750201018
0.999684465963714852
0.999636776522987991
0.999392983414122971
0.999502004651194209
0.999656955398900537
0.999730487253298827
0.999784944647627571
0.999704375385364052
0.999339245461821624
0.998086005200968795
0.993602731473265832
0.985369857210187772
0.976250862792160223
0.826886220515376746
0.840260284426312509
0.885336481018257349
0.941072609187738829
0.980631394381593746
0.995989684378434825
0.999324069010303573
0.99925598114947678
0.999211621210392975
0.9989892220722012
0.998521397330393246
0.997244860478682771
0.993371191154156397
0.981166261617964386
0.963637346449256471
0.96828043049576773
0.149954452920146641
0.188459829494916492
0.262298385771412734
0.383709775772474337
0.532096751472041607
0.698005975464230932
0.850177816600522496
0.947926219260858405
0.993487982312606599
0.994701065679286511
0.993380283408061504
0.989548783775583862
0.97908141219644762
0.934473352209626351
0.870897719470545839
0.941376571665847539
0.0156230777371956543
0.0173800911506190037
0.0199246122699311065
0.0362423779203184179
0.121353979692782388
0.257512063141919156
0.432253848389948903
0.622344642812975635
0.790151345651036063
0.903242499437958535
0.938810689839704393
0.917720570707518002
0.777078806047466486
0.475562985704048313
0.38046893237287438
0.708728724290539569
0.00846358251200359998
0.0125433659815547324
0.0221663881841172444
0.0143650845355351806
0.0131797767204317115
0.0301599024227547363
0.112566303246534549
0.205175975409154276
0.284996103293065239
0.345284165743577898
0.379341925580176598
0.351535494489896516
0.195190622932212066
0.115847215882271981
0.0963946802834243222
0.262161426460758351
0.00771052337359207085
0.00992102855696817831
0.0104897943789140063
0.00937031218020866613
0.0172897860629600553
0.0183525673287470298
0.0084555779571643553
0.00497081150057008918
0.00221090108785596462
0.00178857664030690824
0.00201511023003097742
0.0108690744399813164
0.0325511403966714866
0.0303303687686054153
0.0417692505754651069
0.0725782089213002912
0.0105461136359787759
0.00793991409404261848
0.00682854423216186415
0.00994398904976429715
0.0176148750959099695
0.0182261133565873035
0.0165620102687557488
0.00733005306353473
0.00205855350918491891
0.00146089477598025739
0.00129586941783134532
0.00188434621074836783
0.00324476516981025325
0.00915097571274316353
0.0130417517915260503
0.0312084251276949429
0.0114263171545393033
0.00386929273721496256
0.00588922942737586923
0.0141728234643741791
0.0153970523121533844
0.00767454490310577608
0.00591376341764221665
0.010395606871566614
0.00174844220520823952
0.00191131157987877148
0.000968816110203472598
0.00102458122247615002
0.00170590589050970695
0.00345446701213949527
0.0128754100134053501
0.015049769735568163
0.00476081650105985524
0.00276091495051159321
0.00586240425753712519
0.0107075661507019197
0.00366327778967814313
0.00100048694075140134
0.00198796014429380259
0.0021493950742259133
0.00301934692724841781
0.00192585368429628147
0.000743485971884731874
0.000529110047578953643
0.00061604859073933788
0.001757843208072456
0.00773166427628185424
0.0629074547768264936
0.999999977995605027
0.999999978744200879
0.999999976308220129
0.999999963817059578
0.999999964940404995
0.999999976349907671
0.999999985646442768
0.999999991801892696
0.999999992006733951
0.999999992005468741
0.999999991961212031
0.999999984499144068
0.999999930127268177
0.999999896491088114
0.999999626508571771
0.979196689085686467
0.999999978781613286
0.999999978629169894
0.999999975092719984
0.999999963252578228
0.999999966303300902
0.999999976972331783
0.999999984956726928
0.999999990672997274
0.999999992005468741
0.999999991962832513
0.999999991591501769
0.999999984561211308
0.999999844758424405
0.999999658738943253
0.99999740572988105
0.979238915514772268
0.999999977770115844
0.99999996475437869
0.999999953334364644
0.999999945989586969
0.999999951522701158
0.999999965306765937
0.999999976609136976
0.999999987419405767
0.999999991631767671
0.999999990283840789
0.999999982363920958
0.999999928655494363
0.999999434483397898
0.999996561351907287
0.999981753298621046
0.981429485803479107
0.999999933607688352
0.999999665223881617
0.999999564710666311
0.999999533491420456
0.999999592432250894
0.999999686469848825
0.999999780555462903
0.999999877470625353
0.999999955517261618
0.999999959907955427
0.999999850418541669
0.999999285579297847
0.999995917584177496
0.999973381020093477
0.999893380897121542
0.977396804375082806
0.999999230640826409
0.999996228243358098
0.999994897179102393
0.999994470930165469
0.999995273075307667
0.999996239092050931
0.9999973439431602
0.999998365376295606
0.999999303463868117
0.999999453438767949
0.999998582598139008
0.999994218776820931
0.999972713667099722
0.999859564301323278
0.999523024517356196
0.968142127624824655
0.999989504036108867
0.999969863138331583
0.999957965199768983
0.999953158514195195
0.999959147027157602
0.99996719831467562
0.999975394246044313
0.999984270103819628
0.999992735229587204
0.999994728637599195
0.999989269568694272
0.999963682188319547
0.999855406697383264
0.999386917710473055
0.998247956622747568
0.961091209357060938
0.999971302931970785
0.999871200844328789
0.999873344889135707
0.999806383005121813
0.999773863161816601
0.999809529459571689
0.999833343637748784
0.999887815344230546
0.999950610327473788
0.99996321352037254
0.999932883593052879
0.999813478576517145
0.999369939772508875
0.997712902046599459
0.994723511854973874
0.96527502404066301
0.999965580105407037
0.999892003578743305
0.999730780003739383
0.99970482367240121
0.999570790569205947
0.999358193101270165
0.999501450930944668
0.99969289024680541
0.999763635331118339
0.999789497152645756
0.999639859210071924
0.999179164562195687
0.997662153423051645
0.99272296810735583
0.985706546151587926
0.969613964802383932
0.828467999512415454
0.84275451267834689
0.887354514335163103
0.943685838602921656
0.982338621989838678
0.997083305683358123
0.999335386239724732
0.999317986703998296
0.999239339352836931
0.99890842980608352
0.998292151946304496
0.99678444674004929
0.992351667416826677
0.979545450004059237
0.964601595275732637
0.961128752481113402
0.146331929949253536
0.187111063437158054
0.263699726478599628
0.392016830112516756
0.543279828696555889
0.716916504106268282
0.871981435977460251
0.962939006829075517
0.995513561546301773
0.99439206302871197
0.992648784976341791
0.98841800078171671
0.977065200174257242
0.93244513686101449
0.892126556756375422
0.944223520687922702
0.0122498878534567333
0.0147037199890493551
0.0186758370331376426
0.0383688587561261257
0.129433356391647325
0.268033560189333553
0.446730153833415411
0.643473268698844802
0.811860193260748764
0.910010188776788631
0.935535238094246768
0.913212284414533393
0.759574500581849721
0.47608411736008327
0.40510393900011421
0.795158315682783501
0.00752892419520768442
0.0133898031262682654
0.0187607749484682562
0.0112960964416607117
0.0108241119567986169
0.0282418371017155237
0.103494277417838454
0.18961341919921243
0.272931194291142876
0.34342164223308469
0.376578518804187135
0.345341095759503169
0.187806456975826541
0.115595471981022324
0.113181941786525825
0.305717485495654917
0.006311074343793667
0.0106529338805356789
0.00766560112058699283
0.0084158181824361411
0.0138800724426382215
0.0145956477380527472
0.00633767040346647041
0.00364135763011610731
0.00184579193441817679
0.00146043584425516182
0.00149441025244788166
0.010107413031250739
0.0359227523027472809
0.031776169726861439
0.0454950691255613521
0.0759338162231251723
0.00496102149256604646
0.00631024258976404205
0.00646039410405416931
0.011947786586451058
0.0170485624614148679
0.0165620102687557488
0.0109028608417332373
0.00335602884318572181
0.00143549622286651699
0.00108965478818819311
0.000943950447109707805
0.00140645697827664323
0.00295981475575171323
0.010124859245870213
0.0149626493930153127
0.0335564868719657391
0.00371743439307974967
0.00362545766936693938
0.00793875549772713948
0.0121000969710451586
0.0104145991439049956
0.00892853019742257357
0.00940540577107779052
0.00982104757535288975
0.00183736182566681837
0.000867293384247976528
0.000698947728909902598
0.000606698154063070052
0.00111627051423651398
0.00312408579952138136
0.0113941692895206149
0.015398338060919111
0.00302936660871073495
0.00335537599267080912
0.00761113656853463268
0.00538051002013505229
0.00202289885742670122
0.00166055763133530522
0.00280015324632864639
0.00302924470096372104
0.00181087764211245762
0.0013228934594116744
0.000589870744363521059
0.000264846786267359385
0.000136141085403247188
0.00155033875849676199
0.00690865558495307348
0.0645247011275347782
0.999999977772907944
0.999999978268908074
0.999999975857271739
0.999999965608495911
0.999999967046214633
0.999999977977515386
0.999999986562157051
0.999999991947056577
0.999999992005468741
0.999999991998651971
0.999999991903834928
0.999999974181078777
0.999999945992759764
0.999999907944599253
0.999999568797335425
0.978379352988910433
0.999999978405728518
0.999999978237826048
0.999999974820610094
0.999999964988227297
0.999999968301950815
0.999999978443983473
0.999999985866310004
0.999999991201155569
0.999999991998651971
0.999999991905621166
0.999999991066822136
0.99999997670571017
0.999999818659653927
0.999999594361870248
0.999995610694804471
0.978547412630748958
0.999999977892947256
0.999999965179497963
0.999999953012707499
0.999999948275180461
0.99999995385185958
0.999999966377325578
0.99999997689860054
0.9999999893604129
0.999999991454602277
0.999999988992799738
0.999999974741567099
0.99999988375020199
0.999999270691367848
0.999995813622100549
0.999979553205539773
0.988292990022374029
0.999999939824161466
0.999999669863941731
0.999999557561781938
0.999999541946125725
0.999999594046126261
0.999999682676266266
0.999999778007990558
0.999999883445657933
0.999999962046475677
0.999999941691983252
0.999999764160009907
0.999998906480315419
0.999994423415710543
0.999968261496302802
0.999891939250260653
0.980201086830272184
0.999999298163152361
0.999996188841111744
0.999994841677571022
0.999994567923906841
0.999995228273949377
0.999996219359050809
0.999997352866714095
0.999998381122529034
0.999999302638256982
0.999999349572605056
0.999997903662843357
0.999991687526067263
0.999963843427675414
0.999828690015027832
0.999522304604837819
0.967834229889010356
0.99999018582158683
0.999970637492390679
0.999958226976399467
0.999953600664473363
0.999959430868223587
0.999967236507069313
0.999976422518831676
0.999985015436264169
0.999993471384960975
0.999994051010159479
0.9999852099206058
0.999950960767322927
0.999814150717070693
0.999271053820346866
0.998293436349013907
0.959956093146618006
0.999984777797551017
0.999882851108333526
0.999875810583006785
0.999802732096283009
0.999783830773946391
0.999812061567931676
0.999843553005752783
0.999901178269731683
0.999955075761350676
0.999959518310709949
0.999913445732350192
0.999762229158508209
0.999224490542981902
0.997406664264092191
0.994642918947268528
0.958306754142007278
0.999979176309849338
0.999899660039964333
0.999807735219889304
0.999729835863733651
0.999541035816115309
0.99937900838068372
0.999533678288233141
0.99972950879163025
0.999775589519976915
0.99976920858705165
0.999562770028453507
0.999008440012865484
0.997250985824438052
0.992027523295952784
0.985717026738310187
0.961702249375793405
0.837484476794563504
0.846318543424827263
0.889614135372125414
0.947044753082963764
0.9850413216505296
0.998300293220745649
0.999367246825720423
0.999355998686225377
0.999207190805948109
0.998778983907042006
0.998037572513021276
0.996301365295615526
0.991369403320780274
0.9782023387417772
0.964963271651052779
0.957992210368226349
0.148387362613346591
0.185825418873011683
0.268639196873550534
0.398831532163396507
0.554438495714807855
0.738667346518003809
0.891406968527565402
0.971932906665278873
0.995410976769981581
0.994013174866248406
0.991927671225634411
0.987241299647021564
0.975057414285988688
0.92924648369236662
0.905348523041435538
0.943441017914588231
0.0122361990942188806
0.0126547621535220752
0.0171090198579610143
0.0380534823134530964
0.134992595527759551
0.274332544468753547
0.457553652135330613
0.657823017272626376
0.82435777408296107
0.912661529297913221
0.932477747935965606
0.905118467007827054
0.738123839644835633
0.475433131922051111
0.42452957923852408
0.839552262377745162
0.00635571638426965686
0.0127031033635737253
0.0171755564453706239
0.0111300980738797788
0.00949997090212216164
0.0194683330134749269
0.0937819300429618141
0.183435578147646328
0.269270273853918662
0.342484914008592489
0.373550184021663068
0.332726719290783512
0.181620054651730867
0.112512287412348852
0.123453943084683881
0.338447946018070989
0.00570803395153439419
0.0102947344623205029
0.0080388534331479692
0.00796578013327913122
0.0100047354893426713
0.0112154298105272519
0.00575026583223452094
0.00268647072626775063
0.00127762899967013709
0.00109251687031086653
0.0013661872088985387
0.00968035061265488071
0.035901821700554809
0.0321905026088844942
0.0483959823328975122
0.0836741352401234595
0.0041779939646736132
0.00663103611904107982
0.0058222228169588601
0.0109285221544948193
0.0157540608046409063
0.015254962744582861
0.00647551749966364561
0.00204541626247250422
0.000841553365736294207
0.000626383742565275433
0.000653157503354222691
0.00125641387914833796
0.00291596970754948344
0.0111626256627006155
0.0162361124865804604
0.0338926386621178771
0.00316025882574007353
0.0032123860564273396
0.0066786936890867437
0.0111291933776963333
0.00973720757704272036
0.00824696979317942301
0.0101849536984354588
0.00667565413328426518
0.000765657413756141319
0.000618710956819955044
0.000322023890340870477
0.000439174281876513525
0.000996840036709179672
0.00313184910036711645
0.0142998990643003789
0.0164234070617910906
0.00294670492154177135
0.0029719670310477779
0.00659100244520502074
0.0062289531318612569
0.00268452577419683348
0.00252646710490489652
0.00314215147977688547
0.00333214885930340973
0.00119734672609111579
0.000486477539020930454
0.000323155979136816214
9.61082367153067211e-05
2.6749345206941548e-05
0.00134578968519356466
0.00859964959192586684
0.0680307786454175667
0.999999977789305161
0.999999978080663654
0.999999972071349053
0.999999963980559348
0.999999966480851654
0.999999977824883368
0.999999986391588047
0.999999991737650307
0.999999991998651749
0.999999991983186898
0.999999991820587741
0.999999976212346153
0.999999963229990296
0.99999991482262518
0.999999541217461374
0.977995096272180398
0.999999978186136063
0.999999978040903792
0.999999971001654053
0.999999963648673829
0.999999967764934938
0.999999978369050524
0.99999998584383909
0.999999991216806494
0.999999991983186565
0.999999991824981116
0.999999990521232784
0.99999997391594686
0.999999860846600863
0.999999562851137336
0.999994932153406291
0.978338138126130796
0.999999977168008702
0.999999963240974843
0.999999947410062262
0.99999994505465073
0.999999951272767529
0.999999964606473002
0.999999976329787432
0.999999990285895257
0.999999991148842193
0.999999987300089321
0.999999966008479957
0.999999838858104173
0.999999140987705815
0.999995089627702338
0.999978388431396192
0.982722893141063758
0.999999916797107868
0.999999587336430573
0.999999482341161983
0.999999452824067436
0.99999954128083024
0.999999655592229919
0.999999782402078097
0.999999897551560823
0.999999964244508543
0.99999991839529212
0.999999668750014337
0.999998494994004394
0.99999273175990866
0.999963172157701363
0.999889590206144319
0.974994422721347287
0.999998810362866641
0.999995134923126416
0.999993687759744065
0.999993507937910087
0.999994724766460119
0.999996109175134928
0.999997459521400067
0.999998611415225502
0.999999370972530555
0.999999195041295419
0.999997171085527548
0.999989027092412108
0.999953644790717355
0.999804009332201371
0.999515718636895922
0.9661315332426057
0.999987222858752078
0.99996200300180571