/*--------------------------------*- C++ -*----------------------------------*\
| =========                 |                                                 |
| \\      /  F ield         | OpenFOAM: The Open Source CFD Toolbox           |
|  \\    /   O peration     | Version:  2206                                  |
|   \\  /    A nd           | Website:  www.openfoam.com                      |
|    \\/     M anipulation  |                                                 |
\*---------------------------------------------------------------------------*/
FoamFile
{
    version     2.0;
    format      ascii;
    arch        "LSB;label=32;scalar=64";
    class       volScalarField;
    location    "0.750000000000000444";
    object      p;
}
// * * * * * * * * * * * * * * * * * * * * * * * * * * * * * * * * * * * * * //

dimensions      [1 -1 -2 0 0 0 0];

internalField   nonuniform List<scalar> 
7236
(
161.927973807449973
385.837305115025288
524.098807963339027
499.003197689750095
442.108620224545007
397.387023212992858
363.911223914603113
338.695117640900492
322.13163347478951
313.97376715100296
312.197065699235964
312.543393734553717
314.338513028457669
315.523842634434232
314.208379687187914
312.128053943040698
307.395073672164301
303.059881623002752
297.132365118310872
290.132202166525701
278.967015806427526
269.316982303151747
264.794688131749183
261.000606361999644
246.295947910433455
232.66789622247731
232.502527431883692
234.490407528085996
221.204425070271213
206.867936378470489
208.321883356638835
215.398750847492181
234.619146469618926
291.868857080964744
480.761658187490696
973.32148309241677
1740.82654911205987
2221.24999367365899
77.0867339582449205
225.288315660879988
349.186061239615356
337.986506072849124
293.870444404483294
259.785799658538735
231.304946039314729
207.832759062800307
193.518288610858434
186.213265170037033
186.982495310567145
188.10786759184208
190.285911571224773
191.305123565630993
190.148745580137245
188.5454498931378
182.561839093295191
179.477601055657772
173.045087325786767
166.190456926810782
151.257005165458622
141.898038246023049
141.544255477453021
144.246481381457102
120.22864060918161
105.141326920461125
112.920983391955758
118.307880388205035
97.0393650047565188
80.9310370436846824
86.5821517209415674
90.9034337430302912
101.121917319207739
103.664319681813311
184.198537026668959
574.416353776883284
1431.78933937954753
2132.15922302576291
83.0304921500588335
128.817255918761816
185.953008757773489
178.113030083437422
167.63795993767593
162.181672426061311
145.379413728354848
121.920666633074092
101.605206502709777
86.255611572651361
80.1441317434281189
75.009011411835786
71.3920555430661636
68.8777199936585021
65.795419218138818
64.1510523384383191
59.1801570040195202
59.0600557857660533
56.2868078272844912
55.0483752588962432
45.9060632457210716
41.315542562085767
43.8492109618424308
52.0654830125479577
34.2221924532467483
24.8614653013988516
32.3986630793254307
37.3394657968244275
24.3986941744723538
17.0029711970367359
20.6160340337076562
23.9322580168260757
33.6892934650520459
26.337856773587724
45.8433674091152383
192.382252642414699
875.889104462351952
1842.0256230530415
85.5664235899818806
96.5705093639540451
112.728833324996742
114.754144638841382
129.784332479009237
137.01514749136993
125.711558769897351
103.772898384992871
80.218123535834934
60.6466443931340677
46.4076659947012757
35.0885783178488779
25.6312885558930432
19.6439073060507461
15.5242405483146264
13.5223521839561354
12.5086491477332071
12.5706379124022778
13.3411637179748919
14.1547149538012285
15.40687314757918
15.8092840225257198
15.6070647407006007
14.6994137772317508
14.7000032215298848
13.8523506142407715
12.6589746434762116
12.2486713494531632
12.8543045984906801
13.8231230168321204
15.3285365348827813
17.760786613290211
20.5116697533962231
22.7436523801788795
29.2379408954387543
68.0216319640110498
413.828159834879216
1388.22011182349024
83.9788690893586676
83.8844549442168983
93.9581879884092217
106.070248750368378
120.750153563792665
124.67304000526866
112.633857308329212
90.7001601807400846
68.477480766654935
50.7704583616435627
37.8400463394192101
27.1104686731532816
18.8328179074541353
14.1591747747585561
11.818058868767304
10.9595182710708308
11.0645617761126704
11.3121458087070774
12.004074875862571
13.0551775202965814
14.1454995992496997
14.7302566276416229
14.6968329553531625
14.0869919652370825
13.4985022220686979
12.860420391617069
12.1344133062709716
11.6852625910264294
11.9836075364872841
12.9808853853409172
14.585582755713606
16.9106174667681302
19.7781326622516751
21.963001610685847
24.2793592051118878
30.6773678598283936
175.190673468748344
977.788292196187285
81.2680589760534247
82.9145621069909708
85.305655683153816
100.343792866571746
111.451013353252478
110.408566704464221
94.37199717424798
72.0245599892705428
52.0435252502194459
37.3722849281884919
27.5028272083877781
20.258643620740596
15.1895689361867419
11.7231780511642079
9.92464722905504004
9.25258994894433329
9.00318947716385054
9.0645036993405661
10.2793716743855921
11.8974713916924077
13.1305593415286062
13.7773249777576883
13.7518795540229561
13.2287695246507297
12.656329993878078
12.1002274699523831
11.4991660098099722
11.0033208471768145
11.2067909219474089
12.1193097768781879
13.6537711900941865
15.930943421444379
18.7907582412728615
20.8666872442520805
21.4056249595934638
12.3571374922133721
77.8349376144963401
647.32690302356275
81.6464688736256363
79.479692976919992
82.5829878145593455
94.1607056202970512
98.948558838775682
89.0567817761797613
69.0517105635474024
48.3250790936339882
32.3695396770500636
21.7625532684038561
15.577519956891841
11.9790556532240764
9.58760631250564543
7.43513488078371054
5.82274200549542797
5.45153619305346737
5.66279927338962352
6.25798359197852605
8.04561045958142884
10.257655280030896
11.7416827315486518
12.5112014691689435
12.5435776642187928
12.0480835598271074
11.3675876018235797
10.7828222478769682
10.2993896531562807
9.98934588950571367
10.2424243331593523
11.1349086354256457
12.6562099262401357
14.8884402569262484
17.8510751503401401
19.8341537217948698
18.5887535454407988
-0.453417069530426708
33.5345635156094204
411.280690690211372
81.1227491720786276
78.6985706191410657
81.3137344572866851
85.3250739579142987
79.9878012938060721
63.37714750143234
42.9243692347014729
26.0813183700196021
15.6014307153388572
9.72600056195472362
6.74475074485646431
5.59487550550342405
5.12751597517204871
4.40852504449794225
3.64946865054797875
3.70770062541794587
4.23220806857115761
5.45089390591193634
7.26864820111273779
9.30582905274021499
10.8377421590385659
11.6139412268403461
11.5888991932847958
10.9115783265337924
9.83942196188065843
8.9874938019791859
8.60263025847098817
8.59963108970179135
9.11973238437557399
10.0879832506353395
11.5730851559003547
13.7585382278686073
17.0199624208657276
19.0722198654390311
15.4039053499361724
-9.60368793320926883
7.48041691341535397
250.382306266458841
81.453252069865556
78.7121412836856962
78.738991346550776
74.0060209800013524
58.4001388004102182
38.7762904650895308
22.3619337042510153
12.0698507080025887
6.80342325985054952
4.47441180009938577
3.51363081665958088
3.1550226796846248
3.01678471359485822
2.91985031371205661
3.0337074460073401
3.35221220096948791
3.99550834548785527
5.40448711641553459
7.18468743195755888
8.69606248565175832
10.0889225394705306
10.8285201100453712
10.6293263940685208
9.65134934648546761
8.2836022487969192
7.36849974787194917
7.11850008047102989
7.40311783504857246
8.13953540928436681
9.13378056343696088
10.4015912335782357
12.561024307012568
16.3220578353754711
17.9551554826223487
10.2487040414064854
-15.906534931758733
-9.81255870275251141
147.818380155512386
81.5918087672094998
79.5559387379176286
75.0633029076442853
58.7512717947965797
37.7351506949837159
20.9716900476954322
11.1271591696234857
6.03261539653038081
3.45285491165493319
2.46403537094301583
2.25018702428414796
2.31619261458544212
2.39794954769906621
2.44618713271736965
2.60536557809096747
3.01158362034458937
3.88236930367417044
5.31073062108612959
6.95019911071752361
8.44932022007833439
9.82918054708967759
10.4849275607486305
81.8669699483135958
81.2378042473752942
69.4321241989418922
42.4957585984076616
21.8707914353944375
11.405184725640872
5.80945824800486132
2.90291279958888104
1.54516280527011363
1.13848377051088523
1.21494584607004041
1.45522729791538019
1.67529828295369398
1.84884478877566272
2.08061053518245043
2.51866112581777113
3.47746761703360008
4.92473451680850616
6.69008066386042799
8.56421965367800198
10.0951341835215231
10.734791704782678
81.6012816989097871
80.8119912395330857
60.0115952447523
28.0151774545508374
13.140445007275698
6.55199447912881272
2.84749207000039384
1.01999383079356942
0.296436933285717519
0.206742127858258407
0.408108177523617943
0.70118471680314931
0.998806599275338769
1.29955305570164059
1.59383512908714975
2.03238851082667038
2.94141427711148218
4.54738486479360837
6.68616131181981288
8.83303276280797789
10.4143213951115836
10.8025956524114939
80.6185002599008129
75.1208664306269611
43.7182881452972936
18.2344898862425424
8.89450266880979257
3.70338358084209229
0.991721039244262137
-0.151966886289831127
-0.472188151638410769
-0.390325597952980274
-0.153537544241524326
0.121790228698002601
0.427742804887443206
0.815334300169443971
1.19944745852563406
1.70115408979895655
2.6458930616059595
4.29624855919903137
6.41554372090667346
8.69044491879441239
10.3921351691262309
10.7180064752601041
-0.798666529535355885
-0.570232357283320113
-0.318156790226756581
-0.0653407578477671613
0.264523248548863776
0.713372866019229335
1.28804665925739226
2.24634387197152741
3.94114308162844829
6.1641201602987179
-0.652818676513226226
-0.446558129562047323
-0.228097210165276731
0.175321126789784287
0.814325572121001429
1.84789851010577522
3.50159718968835154
5.62779246823914292
-0.531842346322584092
-0.160511953898457183
0.447540397619545338
1.4490413087352656
130.768204491016718
247.201619957854177
373.820468733159316
386.522746969685727
359.808523050770987
344.249805193265388
324.108220942846742
297.95216134153884
272.032937675588698
254.108569070047537
246.561310076525729
244.118194443483446
250.317980956692111
260.482206998206721
270.78398140550803
277.730128238978182
280.535051163793355
281.008946599281785
277.067777961014485
268.06671916870954
259.368154818050698
255.712218729888036
254.306741626130815
240.234601052086816
225.602276491337136
221.573564758220613
220.868316421190116
214.968813366900719
201.191728921277843
200.736285002319732
203.441431119663662
209.032607013630638
227.79156351838418
291.947721080882843
496.262217994218929
1011.55698489072392
1784.21719365785748
2241.93496816371089
86.7934797642092946
126.854195406075718
211.76877886812099
222.060270069537268
209.11138111552313
206.324471840615217
194.149984908539182
171.895934976175084
146.479830357627634
127.527532579409325
119.30209789060234
114.412220412477069
122.466099744682282
135.257093888928068
148.462666192967191
154.367588068547377
156.516911197523285
156.826221244959413
152.529196548501972
141.537179473828218
133.332097740775794
133.779621873442125
138.208540640933222
113.47414437574858
98.9528833521768263
99.4351666102455738
100.288500059691387
95.302138522943153
76.9985653368936482
80.904334127516222
84.1902152838092661
90.7308840890856345
86.0590532546408724
100.901915411005291
190.169721079208728
598.892306811770595
1474.15593934652679
2149.38406175110731
86.7590691252157455
86.0441410241073186
126.478114383826849
129.024982836989437
131.624849078702084
138.888676073826957
133.137993822542114
114.432895918241329
90.5310268063816466
68.2268117349412648
52.3056556816290126
37.3320307836784906
31.0555895270356217
34.6514337435448283
45.9063870906841487
50.4744062134057856
52.9519435738014863
53.7909662725162718
51.9738368246521532
44.3727390251013958
39.5846930542558937
42.070162182715876
50.4077320425157893
31.991770770004095
25.0419390695215185
25.7439656856577912
26.8677092323178641
26.3179462150184804
17.2116121982723627
19.4051009916563011
22.3939658687337015
30.6540602147937662
25.9699221554427773
29.9446369395795102
54.9619469679088155
209.123047683722774
917.316954782351559
1864.82510656813452
86.5617324981015202
80.6843580294054021
97.4739404095709148
108.871328416186486
122.870687003481535
133.427728231155783
126.849065338517079
107.173386098549685
83.1812074333791003
61.0791808836294692
44.3127042965360687
31.0052290393262808
18.3532210019650748
11.2877968820608885
9.77775562694105282
10.7436762307627873
12.2458408596040744
13.7192293136813461
14.4704058688800572
14.9906969621312811
15.3703339779663608
15.2986632339322739
15.0831386159693785
15.7836910853958408
15.3087615019773668
14.4360747106562624
13.8042586697099949
13.5421003084625227
14.3228108414056834
15.2347046709070746
17.3678055780114917
20.1054381541645384
23.6031882970353593
26.1897561645825867
35.5421750574004989
79.2667975583309357
447.627970458472987
1429.90573008029583
85.8609443298473138
80.5342920194829617
90.7303810753594178
102.693004589654578
115.444303569593416
124.098149364854166
116.860464451798151
96.5048866130107115
73.5901044995264186
54.2767955629931791
39.7914833404012995
28.3754766459379688
18.7402319016503753
12.1581663976248411
9.28414855470054512
9.33934227093033087
10.3839603548103288
11.4927311275032213
12.2794859533686935
13.0973147606223375
13.8913527627476761
14.2364421338482927
14.3454184047037199
14.4325484557725847
14.1808860913109278
13.5612182253364608
13.0809131804032361
12.8868632813426789
13.286344025412955
14.3501350568363684
16.4560618369577512
19.4162804343285664
23.1096780582084449
25.6641301451631314
27.9137612258532819
35.3681202082826616
200.82527937925181
1038.27463113208387
85.0623125411493959
81.1512885836416018
86.4838203053173658
97.7630196409868688
107.547012133743209
111.73681746189061
99.6687571531443552
78.0779318997334713
57.1411442106421887
41.2292523618371689
30.0572730670611854
21.9709658934958512
15.7448507137805045
11.1756319702250764
8.64518450668856886
7.92285531357159911
8.34665133855761354
9.06383531869861514
9.68939388395492784
10.7740323374469433
11.9860643553920134
12.987948153158678
13.4169038455661838
13.3137545901181475
13.0168774181709228
12.6106275061548665
12.2990170582323977
12.0595751345105953
12.2297169653616749
13.2844212967910469
15.346687648570736
18.3080963345985666
22.0777925377006845
24.5439483185421885
24.5813475412911231
12.96943003256977
103.542482180255064
722.443517169394454
84.4550947153798433
81.0062477150347604
83.5603768249993522
91.8998220514534552
97.1784504583757212
91.4521506311968437
74.2816105586073832
53.6541402654949451
36.3612464056997382
24.5486835184733394
16.7787873897748838
12.0088911494615829
9.22916925438615721
7.446220527588153
5.98103781764424269
5.36026748308665191
6.04223396731414653
6.77521137906967041
7.35474043988465631
8.54531072557376881
10.0770290170381731
11.7631725316402775
12.4240039091144876
12.1662517833878141
11.6568258938652587
11.2130258252827826
10.9515899394343954
10.7601056745405756
10.9711069990471763
12.1514296338491619
14.1348797467423601
17.0192276227548192
20.8728966546854551
23.2873935606905249
21.1214031535981448
-0.861983804170025181
56.4203280708216255
494.892303128034428
83.8483796776042283
80.1134091545574165
81.2657776297316303
81.9398291272190562
79.6597215912908041
66.8858865498794444
47.7610872029033473
29.8583122376479437
17.5569721892548429
10.5455705157484587
6.82391152365612186
5.06200876767572083
4.37217278699273848
4.19851862722310187
3.82674722420516389
3.78860296842635247
4.48796717375102006
5.47742811701044374
6.68803566482611611
8.11994275554965483
9.83722996921015813
11.2605248141152803
11.5457041460833718
10.9729932062402487
10.1742846768334498
9.47940725390554206
9.16058766012858783
9.04589640490992686
9.6643816374120739
10.8943399395988791
12.7117878814189069
15.5543954558031707
19.6573412941967192
22.1767152325914729
17.2580111225848327
-10.6577925591325187
22.8003930983455803
332.069604590548238
82.7855220493069339
79.5571997429915001
79.7756529398354246
71.6933219084992004
59.680615069192811
42.3564537902773424
25.3906346003886512
13.6655750015277953
7.10863324494489746
4.17514646781730736
3.25118541777362235
3.05722867775175633
2.95273028667074122
2.80429418916251505
2.88483311435405732
3.3855798483638635
4.15161973071001356
5.20983254473107227
6.46753367394128986
8.05540063139963003
9.89634833766994149
10.8397792024068345
10.6056221499055408
9.59738335645450746
8.56380761559131365
7.81203523678306766
7.54284227497658577
7.72879354511301919
8.56202050727049269
9.69447864456208919
11.2840146560420997
14.0699409795069421
18.6116722030818593
21.2965603117468767
11.615953534145774
-17.9729694302395586
-4.5367418117731404
219.399764127497292
82.2878904186358966
80.317573963282797
75.9832249161153328
58.4699568389787601
40.0365157693571803
23.0785515007283308
12.2426873751293446
6.28396068808861052
3.26089385160714773
2.21017406969544705
2.13828291825642758
2.30705536922800913
2.35621417485976536
2.32910241105563465
2.49953524502016666
3.00175994609146368
3.8238507372199857
4.9255611834509736
6.33822168705819511
8.18550367656344413
10.050579884051448
10.6063070919891125
9.88427029825781034
82.3228580449886636
82.6113549208201334
70.1628262511524383
43.0462641280717264
23.0396995924597405
11.9218049089661022
5.99770670238635262
2.7038976778297803
1.30942640333902327
1.08075157958243162
1.30793950576034534
1.5321621954428144
1.5831403626404903
1.68165678356295878
1.96189132108777287
2.50635857788556349
3.4073309561449947
4.68678672027426302
6.40937806350464001
8.65911901944841489
10.4263660909036844
10.974321510032004
82.5108520845966922
82.5975834240023516
61.8986378989758919
28.4816647549424431
12.675491465918574
6.37796053524452677
2.59049930746572787
0.746650205520059451
0.161372675410135891
0.277173062061391029
0.564255646537814126
0.770330790319116776
0.916685309266827897
1.13586629572840581
1.44698882405034368
1.97362137908709689
2.96145300656740673
4.56810736995502786
6.71993338878301039
9.42358455864997779
11.4253145997621068
11.4883039364219481
82.5823803678108703
75.9929892706375085
48.2225014228223756
17.0939691777684288
7.99671654908473695
3.20085798029677981
0.624038363583221845
-0.389472325467390856
-0.528323199614791905
-0.303683487902477456
-0.0293957254736976203
0.185409266509236392
0.421820644394259148
0.669117710923071041
1.02184136776011947
1.58145059523939491
2.60614055507502584
4.38674811884574822
6.71621627535649779
9.642955661440471
11.332002614662894
11.0902081892991973
-0.714838257715467496
-0.461542790976182005
-0.238184182724368476
-0.0122539472853229192
0.24193451967234525
0.644221380544752531
1.24828677997834347
2.27661049137227067
4.05748854380328972
6.39960318739219147
-0.575420069468876694
-0.387852401104801459
-0.155596562591510335
0.241409409751447424
0.888094853564103115
1.95628123157475331
3.58655955800600035
5.63565545630045683
-0.465262070904289171
-0.0875913770201703912
0.549375309504663623
1.57974272352765244
116.983667767517744
162.524731519585686
228.220361462914923
278.816753823754198
292.927827159368917
300.023458670845571
290.946818204043666
271.54156601105467
248.465336949682012
232.635224896632479
224.476789856329731
219.465791177453411
216.243267459336494
215.236828065925692
217.287805543580816
223.984857275719378
232.687960657338238
242.840550251847077
247.933314496742099
246.138778274576822
244.871109434647508
243.594648287550285
233.20531441233652
220.442442206157637
214.918986763137724
217.040114302091411
206.087369676078083
196.628339677379756
195.750133703248622
199.057981607847012
192.802693270830247
199.565110304607174
227.999389807723389
304.176534025124283
536.520695601630337
1095.1539638416823
1863.88679753551219
2276.10070934715031
89.6190857618959029
101.282639854427629
134.436398642917311
155.413856139032646
164.569387892891427
173.426364553394592
170.063904199908279
155.438477415649459
133.527379627781102
117.767604933129235
109.525690474793493
103.750001357253552
97.053175774848313
92.5177705355936268
89.6018901407171313
97.3124790406683076
106.136683372211337
119.048953217396701
123.568820130978565
120.627830417036421
121.861076516330513
123.667845904907807
104.612722136654384
93.3424008918655659
91.1351890815462014
99.4767269880078686
81.9947256235707016
74.9772628251082267
75.5828234274945032
80.8586077799987777
72.1103110656631259
75.1832511690049046
83.2637613555210692
101.778976589412053
207.256856316741761
665.003572755323376
1561.46470776638716
2182.18129849327397
87.8701021483138049
89.9120199203032229
102.586809980964446
111.120407087381594
120.254388368912913
127.971731098899326
129.353896579297015
117.261868962449114
96.1343013061116949
78.3604583835654296
66.3125925679413371
57.2884696717310646
45.7206104190691889
30.6405631286140192
16.29984620387728
14.2656969599982517
18.0341928823606423
29.8776227972971071
35.9461680323222481
35.9832662960980798
39.1056812842104762
41.9454825440882075
28.9814837364751625
24.51325487384063
23.8593307087169819
29.7425136357264108
19.9712968501058938
18.4788531709351602
18.3843052479498112
21.7080909724745474
21.609259414650154
25.2663469615875869
30.732941974522916
39.6537372864329285
71.4396054882342213
249.342102534337073
1010.79447833748861
1916.45849937189746
86.6349483998865963
84.3829793997048512
92.6812560027867107
104.869575876714705
117.42067069951932
127.329197082416528
125.837494899006643
109.80487440967508
86.5812036158767029
66.3425325084617725
51.8337380435407766
40.9404183352625353
29.0801204214285605
16.2729540711218768
7.23952085001649337
2.69216441759505543
2.38143347789068471
4.48124884242985644
8.42903505861793079
12.1016163707097828
14.3794999900370488
14.9409766570695588
16.2642937486999735
16.2962832104040274
15.7743056559539703
14.7424111470577355
15.0575477159260558
14.8143592768914054
15.30910732075019
16.8325163676976572
19.9569879261373195
23.884067406157051
29.2335531558105828
35.5743726700909377
49.1490358851962625
107.732621695627984
523.758074350326069
1514.06282080422875
85.7766272865873987
83.1576379790837876
90.18425910221832
100.855830563388068
112.285455851901403
122.089506879298241
119.894296487015723
101.690917657000696
78.194312133013824
58.40530946292197
44.4761389637839457
34.12743179098306
24.8162856992535836
16.8536536592317461
11.5452211817711685
8.33025372524215157
7.28011176681823891
7.67014073494034498
8.96685642660042603
10.97148459402489
12.584027139233271
13.3892917156945686
14.2272046856054999
14.7645316178668367
14.5976815496049106
14.0805662250058248
13.962755304773296
14.0314829407046613
14.5073347025933579
15.9147809060214094
18.704961987209586
22.7985349246027056
28.1027801327934341
33.2782762948120592
38.9581747806421106
58.3709173233053917
276.817903666407346
1150.18817025828798
85.9390241730904449
83.4463419928057988
87.1590337755779956
96.6740422708463001
106.181798492840414
112.477782237414587
104.473107265457472
84.0858417625348125
62.2855161153239507
45.5528263667280129
34.4302602728459277
26.6912840725184743
20.242290213481013
14.7396745439404704
11.011304424396883
8.36963528689731362
7.50459488217854798
7.54526353869364996
7.84423897391454439
8.99241847921089743
10.3127772220641329
11.5842531828485331
12.7153686385087603
13.2623219865578417
13.326038909092464
13.0627283362012729
12.9489884537601441
13.0422065562530527
13.3889584535353023
14.6767451951229173
17.2406001034235992
21.1883925873386971
26.4017437345320083
30.9416206491437684
34.8667198535350167
36.5190924988269217
187.268606001600148
850.282909654581545
86.2247035704895666
83.1516514568949248
83.3701166564589329
92.5017241816737084
97.0486174563856139
94.2045648897658907
79.7364502335683341
59.4741714710226077
41.1588727729261663
28.2868052764197557
20.2329546378386027
15.0446131397665965
11.2351083797284055
8.44470029547809631
6.21011323038781171
4.83796398446230214
5.05366100573834132
5.90104990350014802
6.94736596870110468
8.05997671221647138
9.3121914049594654
10.6175758352248657
11.7004854454737508
12.1332929486676786
12.0292168934179067
11.7165128491892183
11.5091050052964565
11.5271443323724299
11.9557614992014241
13.3042789868444657
15.6889946659776527
19.4580872838850958
24.7293586537160941
29.0384851469483216
30.878288883787576
26.7185857324639571
144.169090570707965
626.18943828981935
85.7146408144910055
82.2780361485842349
81.3903883255432419
81.7033920938097822
80.9808328883560762
70.7899094999357175
52.9225049202856681
34.6582634522541611
20.9476142703755173
12.7298840239664202
8.50935461894290057
6.34537507524900946
4.90182954221887002
4.19549452024400793
3.59251233262704162
3.4403212687043796
4.05609982433580107
5.2487109081673502
6.70232269225654242
8.02191765161844472
9.23429875047328785
10.4083657967859047
11.17769135928663
11.1074574242871673
10.5491095451780215
10.0587896725564079
9.7365962321572006
9.60869720917936299
10.3430761229715742
11.7553948391011307
13.9490464752266945
17.5917288881321454
23.1603738245185866
27.2485930093200466
22.9598726492967167
16.085535604813316
104.859900635180452
463.43747426908601
84.647034237408306
81.2981887580655638
81.0124104555822839
71.6317722429926675
61.8538543864784884
46.2591925749074591
28.9379430553842099
16.3110792862730882
8.57347596116188448
5.02841836283992372
3.79242247895388473
3.42321219411071276
3.06282835516534391
2.69596169233933125
2.59817583360972293
2.9954334838727954
3.80305144535712092
4.96590299657282053
6.33346493831679158
7.75177922976158307
9.07666273224706899
10.2782147719956107
10.612801945309922
9.81847964136393792
8.88480841503698748
8.32454770833914459
8.009652363240928
8.21515832410874225
9.07718813097061528
10.3635914679799974
12.3398700564015034
15.7968258326573832
21.5840218918112612
25.2566049792936163
14.9901100818754696
-4.11865868002988122
64.775758201460917
351.650705213804827
83.790585064692479
81.5242881946377622
77.572920992851266
60.2931517118468463
43.1052076626315284
25.5405916218586384
13.8447606328606039
7.15931770555077485
3.74311899062698483
2.56993378585164223
2.42494611694905338
2.41822312209269441
2.27825823502842262
2.02596935093977315
2.01094302115605927
2.44582740097989415
3.32820098333807701
4.50113196082481082
5.89847451236261655
7.45163760718488533
8.98945075226093948
10.0911041656323714
9.81319083665039216
83.3023441677731853
83.3540565589270273
72.5261462225288938
45.5402105169419826
25.4779014490866018
12.8189610033995756
6.64374410757575973
2.97752663666953055
1.48438603137853242
1.26183090090913597
1.44381362640542177
1.4674169982065175
1.2927283053279961
1.20270149153509642
1.40242587032824062
1.95743600450157951
2.86791925243534251
4.07284952658571431
5.55747833674738789
7.36303916372588496
9.19961265026426034
10.1651568740920979
83.2990642452672887
85.5891901333936573
66.7293260329588804
30.9386848075315868
13.6732158033241618
6.79173227915365274
2.75796502970571566
0.796787661191217023
0.219369843781771046
0.357720461216355812
0.561892288552482189
0.576169187630837243
0.508155885865919199
0.599249901441813115
0.904678511927642592
1.50754870999997692
2.47937709721162713
3.77379584763326825
5.40734298741067931
7.81501074884324609
9.92768543539280124
10.469287442419601
83.2589385567972187
79.5289507395059161
54.6540422187381978
18.2903472818205159
8.1762117964745844
3.3024383581777057
0.61572589173292247
-0.421083978498344447
-0.525061996572273149
-0.294934947869562869
-0.124141647007565137
-0.0779306779466826249
-0.0246385930163177669
0.149769380783898232
0.502456978826194334
1.12763593568346643
2.13423813399517481
3.59645421314947278
5.40917227930744815
8.06073421067062235
9.70733242209170299
9.71421140865699684
-0.756404425415434067
-0.590586453941299494
-0.515723438279655166
-0.425728862202386038
-0.213139572525865795
0.173827045489514553
0.798432366652768177
1.78012666543718101
3.2785971305179995
5.12981215288372105
-0.846937808828349681
-0.727285959381949398
-0.504449742222060182
-0.111305702422470176
0.5002203885473131
1.44263637639893627
2.73753480420097706
4.16835136194678579
-0.725527748394096061
-0.347529195791533407
0.224155539315908925
1.10506082673243133
109.661483768231548
122.287092823556748
154.851765484139918
193.437664540966239
222.740460826471747
244.473422958963681
249.514247498994166
233.756518552598351
212.084095525055062
198.496338953241889
192.124896942804696
191.481522966729699
194.96060512695297
199.31750419719566
202.010753313115742
203.386659554764606
204.399430408868852
208.008530241525705
211.34328447448155
216.885206782259587
220.116055816603648
219.279942434185671
213.564207781374961
213.636198835317145
211.875778337411532
202.921643871174069
193.154633730818205
190.974627326831296
192.656459175701684
193.606545827728837
192.535746784412993
210.824822356928337
249.511352975549414
344.98925329728695
639.182804826809161
1259.20342841330148
1991.00076791733591
2327.94359117678778
90.5907617685208066
92.7118901669507949
102.370451282156466
119.041374674087734
135.342557672065936
151.193429704268738
151.925987458877387
129.984469002026174
105.81385945883703
91.8908198779968899
84.6417332580893174
82.1265661071005724
83.3429101132283563
84.9852271835498243
84.6042675536963031
82.3466729901504664
79.133453505574181
78.4355467244102158
78.6170544467599086
87.5895026037085813
89.2573409789267487
88.2430115709630059
82.8758496806993605
87.5922855144414427
86.3763729398768305
75.2692756419885427
67.9583087608395147
67.9737824887595821
70.2056246563008415
71.3099407046726128
69.068524102002911
80.1366195956527747
91.5692755810282222
116.487639657495748
276.682033367548001
825.873265850808366
1718.95645244025945
2239.36665544830703
89.7066488214775433
89.6647162413257348
91.3099906868187929
105.374652719425583
116.371395671188708
129.397984720148884
131.40253044682899
112.454594497347244
87.7114527480208324
69.6244509402322365
57.9192909111653975
50.1389832352810529
45.3669300506780573
41.5433823598009297
36.3043329780425665
30.6131668526219869
22.5632123614627353
13.8889836625017722
9.29476752055209943
14.8024648440942883
18.4550257843666756