/*--------------------------------*- C++ -*----------------------------------*\
| =========                 |                                                 |
| \\      /  F ield         | OpenFOAM: The Open Source CFD Toolbox           |
|  \\    /   O peration     | Version:  2206                                  |
|   \\  /    A nd           | Website:  www.openfoam.com                      |
|    \\/     M anipulation  |                                                 |
\*---------------------------------------------------------------------------*/
FoamFile
{
    version     2.0;
    format      ascii;
    arch        "LSB;label=32;scalar=64";
    class       volScalarField;
    location    "0.750000000000000444";
    object      p_rgh;
}
// * * * * * * * * * * * * * * * * * * * * * * * * * * * * * * * * * * * * * //

dimensions      [1 -1 -2 0 0 0 0];

internalField   nonuniform List<scalar> 
7236
(
222.81460227866026
446.73444262897732
584.823930486838663
559.552440238841882
502.591172049958288
457.898650358207192
424.51988247448736
399.429034198030877
382.974791775575
374.920000593517443
373.212335525331753
373.582082048522295
375.391376477595827
376.577422280466521
375.244200453180554
373.127955656765891
368.344758342455066
363.950299783756577
357.961532252968937
350.895405356280776
339.658030329761459
329.939184399777844
325.350527786852183
321.483696477142189
306.696518272434901
292.9708733626926
292.720533739465964
294.602997525997012
281.19193121338435
266.723025784901722
268.055011615860963
275.024144483383623
294.206914524887509
351.456911237311772
540.369341666000651
1032.94323565535092
1800.46839136484869
2280.90477936576553
164.420041503315247
397.27797709983281
525.251772207338377
515.009238655733611
462.679646548068376
405.031481588168788
378.7338202930124
367.285779189802668
364.806514834518964
366.00298042082045
369.098339428922714
370.662762720755666
373.06448596296832
374.251586799223617
373.046447135763174
371.320322579037622
365.218809884577183
361.963955462534216
355.324632298752704
348.221277989350199
332.121943065399705
323.048591106920071
321.158869638478791
318.501426865235032
292.353384503617463
280.337300778681879
288.427530159062314
296.036358448514989
265.936419053415591
244.481889594635135
258.149925553765797
259.506745250198435
257.311438883778237
269.142570129248554
355.146219689022246
753.998212639348026
1610.81355221788249
2311.04348297357456
191.213051750781204
235.439670903781774
381.884559650915719
407.342165152500854
309.341785024890214
252.192188187072503
208.364154569581302
178.967216622735094
192.84462550174959
217.41987267914601
267.064868067603015
300.46815352186843
326.599714339913874
334.973044695930639
333.480661405927322
332.897403286512201
301.913784326926532
302.84597617882315
276.476990727257885
267.062994739418571
194.006543000287536
164.27975645900122
180.017197421494529
245.470259611376434
122.669508428135686
73.0870844829064623
131.241574769217323
163.862063070762304
77.1647542774538664
29.0023431359040451
46.7025871994715231
52.6338479714083647
103.449807771154738
38.5501306458961395
50.5981438232443494
261.231680571267759
1166.86060105653087
2138.01791398279465
190.219337830960626
261.446344607879666
141.496480758166342
130.801963761693969
143.426941889612436
150.720681706495668
138.792301031081905
115.830349441135468
91.615118618779249
71.9636826189866667
57.617778671441954
45.5277962302766355
33.6819821769251178
25.9577656033363944
21.302458141824431
19.5936627582284153
18.1202232694120973
18.4087868211366477
19.6708390914666253
20.628053204008836
21.4383135379407292
21.3481584048514961
20.7298034425388806
19.2882898311402826
18.6967732922648437
17.3807358165517449
15.598853511440506
14.7986997628737811
15.2307322597040624
15.9600783731282867
17.2216985376064784
19.4192600401136595
22.015524911043272
24.5248431333826638
31.2003362134478373
75.0171438725350441
764.588019882563913
1782.6716255878398
195.197273586966872
98.3312071513942811
109.916067702722387
119.901368861010909
135.547047363982415
142.731398078518765
131.508051512929143
108.698417152905179
86.7424839652320685
68.5240809961147477
53.1698774368903173
40.8307378633968625
31.8029216174810472
26.9005996298773304
24.4466675280920356
24.1472938938780786
23.8903718392950459
19.8971427937480527
19.5187620695548567
20.1157193998227832
20.7614451483586251
21.2291493346253759
20.4134126637771871
18.9977302858682258
17.7682413251658389
16.4839518596722883
14.876364470064388
14.4574004808403682
14.4746669010204805
15.2947196658631039
16.6011137726803284
18.76502033965048
21.4235056142431866
23.7109907599040568
26.3662468950531306
35.6873714866076099
508.917332510887775
1447.31859472368524
82.5068521838376085
91.7069358992616941
95.5672176198631576
114.447694766608493
129.43285690509461
137.988017781892893
128.091933961904942
104.653042274069549
83.0272677939742323
67.2549400408455256
56.2209052775188951
47.5037313425500756
42.1316831666478748
38.1677973989833745
35.2444464250754663
33.1774641295863688
30.6637112849652524
26.4754668039616092
24.8903840158884933
22.6466568212451769
22.5721977767881405
22.6542155661772391
21.5413309471566095
19.390141133399208
17.3158943225558204
15.4896785844294804
14.6655696490028404
13.9411908063477412
14.0586590690112327
14.5421701495534688
15.7003973583541523
17.8408481520314979
20.5587957628129026
22.7297339300609131
23.3453125350380368
18.3389930799455172
224.90566231517252
1178.97433572106888
84.5893111826210173
83.6766663313400443
90.7823856836289877
107.803162483537847
147.302681142857438
137.143983954652697
114.000270378710326
89.8828665937221842
70.3487695620901974
56.9071369664779567
50.0021433318201574
43.7985425066504277
40.2220470604626215
36.1859428487578469
33.711354452711916
30.5546505984961883
26.841230041469661
16.5782826654701942
23.0937362834215136
26.4292753686169632
27.6189788228893356
27.8531126883995768
27.3792603167986002
24.0587277431445514
24.1296805355942645
23.4890582355975894
20.513925663363942
15.2530547057271573
13.364377084370993
13.4006565887469336
14.6353234725940151
16.8526973521156762
19.677713497801264
21.9133389153485112
20.4734816643987436
7.67282841549630401
182.046471778183729
1031.82765700368122
84.7414557038242862
82.7661618652815605
87.2728844607950833
140.621488806506648
144.239869309579774
123.163319977367181
97.2333195343140915
70.630789750781048
48.4263402584816021
29.4763954168087601
23.5883098403166045
28.3712084861593006
31.9838851599771843
25.5961433370955227
10.2175404144682549
8.38959046693921096
9.12953816026985621
11.0282206575478021
15.3209870326676576
28.0133863113541395
29.4856425692887214
28.6985988681463979
28.166137406826401
26.9483002074372635
24.7459866990119188
23.0306151420348968
20.5160878641550717
17.5589967632302795
13.1223046956213718
12.0177845814313233
13.5078349573103047
15.737904340984711
18.890922849300587
21.2792875175270559
16.1116343846343817
2.33069348093051953
335.813831459770711
964.66117608268496
85.2795408326689142
83.0881200856338324
89.5820546520369305
161.004322037151979
137.345772714874386
110.273978394832952
59.9732682901061054
20.5934208585916672
13.0475203449085626
9.836685759001222
8.54193899923760469
8.05976526141693661
7.76101763658527677
7.54960802801373365
7.47819019227359849
8.35373226598005481
8.62344409407438484
9.3401073177561944
15.1785861872341421
29.4681661422279042
30.1665321741147459
29.2711233903586852
28.7508627787797266
26.6559755122664086
23.5638841087126032
18.0344522111800849
15.5007330878826686
10.3561206217901205
10.1576150805403937
11.1684476245669408
12.3983259678425899
14.5014224599169292
18.5155068208556024
20.0144357564442501
10.4268168735547295
3.29332154901377683
213.978815728490588
941.219675822294789
85.6195300853486572
83.8300290395332013
155.608536831928546
166.137310171839317
134.982868384750361
60.5698215137247402
18.9946703685205236
11.7268342955572411
8.13476764775011141
6.55801974064491056
6.24870907734420111
6.46269280612130625
6.84841822025738622
6.52726551933239474
6.37108237119670484
6.7579472941971046
7.77485745484705504
16.5817888026498323
28.0227352454655581
29.0009316351581568
29.4513137437065957
29.5155596091509054
86.2237261462916251
91.3048655656868817
220.027023722254853
178.160082305846146
97.0116339865639787
19.1070676438767002
11.568065967635027
7.34006664291955513
4.98432211780925005
4.22918126157102581
4.32340750456158407
4.89848106103209791
5.49615680651028526
5.39803382569456858
5.58238540779333903
8.31525138554549059
16.0632075674826389
22.9980723642239511
25.9540278267263425
27.955956145469564
27.2197806725907832
23.4901764287611812
86.3570101676241109
121.98756541472369
253.808852817916971
194.211179925441229
21.2815008905082408
12.2461355227164788
7.58523800407753068
4.49374676500398174
3.07711313669314723
2.70010007670640784
2.81377536508049353
3.52357624334493913
4.40655456465587125
4.69805665262397643
5.00967131995830961
5.91438558616530674
10.1045146768297212
16.0685292173001208
21.6949641733729841
18.7672618884612952
13.7563048510457282
13.9724062960657474
85.8033319957763041
328.504258302952678
269.908175610041269
79.3489736977806075
12.9637755569201722
8.52203679949124115
4.75813854407501591
2.60617327473249905
1.76284720941173623
1.70908380289593387
2.02841261506654691
2.56615177454787435
3.3481357210907281
4.47225820693060339
4.75570521808144342
6.71239669470492917
10.3120582171192066
10.4931759658341903
9.60568076760863931
12.0343905556367954
13.6195068797473677
13.772912308685612
1.11642686373701605
1.48711405737480495
2.01504699402303
2.56632510540267589
5.77390526373430024
7.38691479354754588
7.76397398370970659
7.82357060894817025
8.2844608787722418
9.36827927098968338
1.50392258708032722
2.10841722032297474
3.54308457658203135
6.18363838477040773
6.42356096770893803
5.12851121915444708
6.41738506675137099
8.70406616042179238
2.13604479710662076
2.16562824737936843
2.79352064130719846
4.11054480759382734
169.869158530729067
293.664893992740303
432.454532138399429
445.52383372834521
419.017991791758391
403.648046535390222
383.760011346906481
357.890534706586948
332.268093295231722
314.592133824467339
307.233148112667266
304.926187957146226
311.187317659156633
321.384579975937925
331.696546096691804
338.627662922318223
341.399941785257852
341.821666069128128
337.816753716256642
328.741268189390723
319.964684924774076
316.233899267660092
314.750133288526513
300.564080256865793
285.831759808347044
281.712333678156881
280.908788219951418
274.888081023234349
260.976656310810483
260.409685069117586
263.003853443473361
268.483212567036503
287.165521803012211
351.388402019306682
555.781063007594639
1071.12622127987584
1843.82600542736009
2301.56225146540874
87.6668620655251232
173.462046364266001
279.361864298387161
341.785214186940777
351.193318779868036
364.797552558545988
349.129090071621249
323.43886770895233
293.791597220337906
275.958201241711606
273.405041625064541
277.160964030669845
298.341918067825873
317.192127756947627
330.52048686218609
336.503744490830741
338.636354346189023
338.849066341881951
334.349823183355625
321.08550614417436
312.394804880797778
310.719247751865908
311.299164170095594
287.056984371357373
270.211789320365256
271.810427259953656
276.606333869434309
260.080757134919622
233.528028557450682
248.818822718496364
249.001029956449884
236.463045945612379
243.838217788787375
256.099246837857947
359.201918386454224
778.554586940496847
1652.95133496820426
2328.10411488159889
88.0118049881713205
144.317690063105914
190.998744991686522
154.907156604272018
142.714554269002605
147.809674612235995
141.769314236561314
122.645378391728812
98.4541131238910054
82.1902112967966474
80.1247790086926983
61.6185779031790943
110.616356378386257
168.632889045019908
231.687527021259484
247.488137155522224
253.518085929845597
249.376108522762905
235.617225929506418
185.615645175501072
155.047604518630664
171.529289157805465
231.016469076813166
103.932348631057707
68.3208943218274953
78.7337543703438598
90.1993849662456881
90.5717216808302226
25.3176952599218801
38.808155286883121
45.9296768149142309
86.0855492196752579
35.0688241244047063
44.3903339837300237
61.123935683344051
283.412796414251886
1209.70114979208711
2160.1234595198589
88.3781470434409897
80.9274290748742402
107.485757958943637
118.902001556060625
134.257630598256043
145.098852403759366
138.90905128074391
118.843500924946113
94.5718533388819935
72.3361838542551112
55.6882481342750637
41.7548837558975166
28.4314850395993517
21.177836186304976
19.3760495262440813
19.973848133434867
21.0450157098616302
21.938240077630951
21.8503831674924101
21.4900757832995914
21.3293041592742263
20.7970572051762019
20.0303713412581708
20.2639353127382478
19.4058801582829759
17.9276891879251679
16.7511953026329472
16.2633930769144932
16.8400462990240634
17.5041541596412422
19.3645447492666776
21.9021044037656587
25.3437782702214633
28.2335686801429304
38.6275902229647627
88.4214502611438036
802.532984480081154
1824.22514266886151
88.359087989477203
81.1058016666652577
96.834636348711939
113.247242935815152
127.55051927839132
138.885720076647232
133.874237079087663
113.899041441704014
91.5752203561508935
70.8847384398155356
53.8308026472879106
41.0643537909230432
31.1075215660604592
24.4709599129081106
21.4742697363027233
21.2993584726442577
22.2272167373254455
22.1147666503783817
20.8595426000564643
19.8194338813966517
20.4193334991459281
19.609497041062756
19.2320284776858408
19.3561400342303997
18.4472156312692341
16.9793259817915327
15.9302213912724007
15.7365290974184617
16.1634575069590838
16.795692187733966
18.6846605354882875
21.4348065863085075
24.9101921582957466
27.5880827656765923
30.5358777490675912
43.4583392536834481
546.550377762736048
1510.62794625062702
88.1902272511279222
83.5903964673829876
92.1310665446992942
108.227073584410491
124.022052134959225
145.786517112185265
136.31452909835545
112.568636630095781
89.5835463982619444
72.2825136968201747
60.4692155143304717
50.4213432698424242
42.9554281443287493
37.6128503013455031
34.2430667758177876
32.070698041020556
31.1576998364552367
30.6591284362775163
29.6252163579385979
29.4775797559591339
30.4850057120024758
24.1284394214597775
20.9594215522066563
20.5705857967583263
19.4953768762917896
16.3546607490032834
15.386743587159895
15.437071037960667
15.5578030693100668
15.858196590754277
17.602327880954153
20.4562199951647976
23.9335363055906889
26.466075034523822
27.1297943813431424
22.7259052983655963
169.470029945710053
1254.11458532998586
88.3628394372989447
85.104672885599058
89.906982639017258
102.804370812705542
152.001138831053368
142.641141297262038
121.861766291077657
98.5387380470759524
76.9916410649083929
61.8023530888599097
51.7795996013098971
44.939431565146478
41.3637102034814035
38.018818730993992
34.4530364132445044
31.9207884866551659
31.2440281747374264
27.1897583579999065
16.3995867883900637
17.6718798963060628
20.9463115456066475
26.6707821307017667
26.6575907797627281
25.3654290095623267
24.1212616309574202
23.220002462441002
21.3389223425702461
19.2685299853577483
14.9017177570491075
14.5362839714099756
16.3291496272257071
19.1477395977654155
22.8835206165283118
25.4951297205723151
22.7824117949985734
12.4528023347894461
256.851833794587833
1132.22900663053179
88.1641982836593598
84.6143348040835548
87.9224692274877384
152.176822128706391
148.774087985607849
131.345544087234913
106.984148754848505
81.2842730376249989
57.1160522822247074
44.6848014145281951
28.3475556816441063
19.3807735002897807
20.802362510354655
27.0499931970397505
20.5749859832440158
8.15314418758469728
7.92939486511475611
8.90388576767256268
10.2710337338754698
12.0450324794435524
15.4446963229633525
26.6654020203567441
27.1760228285766381
25.3865848561359329
23.6134184933239588
21.7758283341973318
20.8284232808349543
19.0846539857260673
12.9854324450393435
13.0165587983188171
14.860041229853362
17.7286756394452709
21.8039328827595682
24.5684906282251951
18.1510011217859066
14.7122986048495594
466.697570014913936
1050.91521064997664
87.1621413347188252
84.2805446871525703
93.2338239556908803
164.885242852700486
146.056706527025398
120.702319738517659
78.5881625125699372
29.2316050126836302
14.0374650909460659
9.68537260901594621
7.88411059254893853
7.27552806950023534
7.14216660275461912
6.56956442560671405
6.26052157419805155
6.7517888081549966
7.50842466957788179
8.51644859894361872
9.77528416381448295
11.8102929013934741
17.2623370985435258
27.5838865195472636
26.5459286507374266
24.4888031361537415
22.4333699831159663
19.2056439806706294
17.8666055039563041
10.5811529346589577
10.6560716433266371
11.763055353730028
13.432845352458969
16.3550216200122982
20.9181674137203899
23.2878643717905121
11.3104023171131534
16.4701636691058155
471.966531784796643
989.632043159902537
86.5655839824831048
85.2105484189561508
172.021538398366062
172.536002348103466
144.123887915393937
82.4785137880919166
21.9761754549662314
13.0493099849511687
8.09830982017021483
6.09343988049199314
5.6963536157807626
6.38413651988755326
8.13195930765074415
7.96499138183297095
6.33621518777771531
6.35159593929523858
7.05668766431374017
8.16945179077123917
10.0276731663818435
16.2233129012784509
27.055543907261228
27.14087205920789
25.4558002313521037
86.7745500281950939
93.7508821352094657
232.765116727566635
189.069445821101056
132.685802594699254
21.7953819598657539
13.1951049437019332
7.48889272752335167
4.84139193267871359
4.04071969847918311
4.48399065924361562
6.33971584802649524
7.1549749214201066
5.21822594076972468
5.03000823380842466
5.7130585059156278
6.55558537209994885
9.05523179023049885
18.50763436707728
24.6842092674279741
26.3828005706865483
24.9355415682503825
87.2825374442869162
136.585739999411373
255.604519057570059
207.480725970358236
27.1914896512372763
13.251816613754988
7.80584814194112919
4.24760978347004681
2.77139240893102601
2.78371150152844482
3.7352614812967837
4.73430299924490328
3.56914263945072197
3.96378061237527968
4.42243357917304891
5.01585286083155779
8.50415534131538919
16.9498748132467441
20.3729584549728209
23.7500521617980915
19.6428661281223853
15.6734609753809337
87.7520985582237785
346.332113051938848
300.306068557571336
122.267357128257103
14.2757871792721218
8.58887091806176706
4.42805644971866119
2.24554023453485785
1.52558562417718879
2.07165899212905646
2.56548211175537633
2.54981179914328537
2.92666846711659723
3.43522988124349782
3.86225822475617608
4.67541494586625905
9.90835229005778118
15.2941257618991546
15.6681533716886481
13.9303691581763527
15.0183950336056107
14.5645058051178964
1.36894848657045509
1.69428521774289864
2.01662745206755956
2.39297850099334575
2.88218938666542668
3.6978276698237873
5.03214846317099074
7.6146707999223251
9.21744982357255616
9.91127886792238577
1.52998221395612211
1.82622509047370274
2.76483989261542096
3.88398200437662489
4.13629978445884205
4.73952756458104307
6.6840503018023707
9.02907166295092445
1.66004812293220594
2.07794451186364348
3.04472101461958777
4.3667176376728678
141.144990489534592
204.48953487665554
275.097836836593785
331.981649027541039
349.34478969206458
357.23965699830643
348.829457424179509
330.042652580619972
307.54562540193416
292.212416455964046
284.447363445188273
279.741055079094224
276.754458209863628
275.883984443987742
277.998752771596401
284.710114923085825
293.40103728487702
303.518296749819115
308.556079724007475
306.688786475777533
305.343119344660522
303.981846609684339
293.47253724862901
280.594673855015742
274.971695265044104
276.994744914455794
265.922668597803067
256.319305467086622
255.323448470770728
258.522635555362399
252.116435093683549
258.763447236300294
287.148718906953263
363.450131687095734
595.906472216680754
1154.63014114985731
1923.42938242052924
2335.67308881408917
90.7315753319740281
103.330853269832616
146.512444115359699
245.900285699660202
268.112933116212957
296.772968147523557
282.678528886235142
270.159835203898069
251.496784214907507
246.389485154589153
251.142062926364702
256.202769875126819
255.756986704905472
253.235764243005093
256.789488871558149
266.650761808681295
279.644970466880011
295.169056408608753
299.843298700380785
294.302693589991691
296.546451209375789
294.405486575676719
280.840088110511715
260.132426491745377
259.807780573627554
272.981060712868782
247.468362113495743
226.831539192574269
237.486936900729319
245.563162123004787
215.498374046554176
218.552561334577007
233.180102363113576
251.660629551245478
366.889090604698481
843.814704562521229
1739.91328007053471
2360.64922617189677
89.3252946671106969
90.8732575350605458
111.611793253558091
121.624333476717183
128.187605875955029
136.188328018114646
137.70006349916406
125.532062122367677
104.161237226248147
86.5145069699430138
74.4784345306174629
63.9660863342853858
55.2209335559943284
69.0185392579129342
56.7448675345132756
93.6270613102055478
111.255867671249518
159.794906913205068
164.892838853375849
138.782320207428683
150.774112738269906
174.178006705315823
75.9646419017833097
56.531787239690324
56.8058421766980643
108.372625235590093
34.8342854843339609
32.4058859482095301
31.0253688800416079
44.441761907387118
24.8035307818567397
27.6973394987161967
31.5346935236260002
43.382761371467339
80.6734943503971067
351.756875610750797
1301.27584271539217
2210.81093155419558
88.5937720367337391
85.8273427778075586
99.1798259682835237
112.497038137083152
126.759450745151099
138.575116773660767
137.452744735384726
121.420263219671241
98.2643839833755806
77.6877590815261101
62.6693126485184138
52.2398243409707348
39.8758324965075701
26.9846501782380024
17.8993868212019827
18.6198141081102051
13.6486932366051654
13.3524918899670606
17.0841745834091441
19.9771330446482587
21.4798851108502262
21.0901584261902215
21.9532462882390789
21.4339795219832396
20.2920619157836484
18.5351941937196791
18.5055544581039655
17.9010566916417631
17.9908145204213596
19.2080008434376168
22.0902955088074897
25.8598755017778537
31.1684808217822251
38.7369015885398369
54.4855743187046571
120.779001171034864
886.280052186624744
1908.48791765635815
88.3363534093366098
85.9047589872318866
95.9087338139366068
110.122540790838769
122.899448296555803
134.240476587025114
134.532843174149207
117.004637480841893
93.7402466981095728
73.1931246849994892
59.3365202771422346
48.1777421041129656
37.6369589748389615
29.4875110441202501
24.1705616643618875
20.8201736919540146
18.8897752747697538
18.1766305536077084
21.6053147734219451
23.9097151144360502
24.0992193383436835
21.3586578410222678
20.5666026436613336
20.5162461584868048
19.1910399033188313
17.9302441574215656
17.4214860169142369
17.3065861587714025
17.4017489583904776
18.5687591812533945
21.1444228022857814
25.0105857801793938
30.1130540111317444
35.7014694911472503
43.3032441979189358
72.2306351509866431
585.846489909018032
1626.99746347758946
89.2630518469117362
87.5976817026365779
93.0908881878288241
105.438095162444668
119.561130151999308
144.187552613922549
140.751199676871096
119.086904557940699
94.5767078841284103
74.7644222951037847
64.9778468141345229
56.9236122749768043
48.4139894633269563
40.4861823490488391
36.0681728150194516
32.0534140982349669
30.8763845091708369
28.7566737994973636
21.6239671895286456
20.607660755637891
20.0679400699681914
19.6483640499176246
20.0717633949466325
20.8249152944230715
18.7566816137114891
17.6317938414650257
17.1577402151948348
16.9353763624762728
16.5820440629369585
17.577660485994496
19.8713234896631192
23.5542358879331459
28.4698678069942375
33.2007582392981035
35.6163048691407056
52.6932278792465354
253.350492469372909
1407.65307019093279
90.2690897007576751
88.1326515323147959
90.1344705478113184
103.43461726297042
156.183910417382009
147.796071629678039
130.236278636610791
106.109629759184301
84.033170310382431
67.1367710958115254
55.9716703800271205
48.8903536716388416
43.0728621772155833
38.0620859520131489
34.3385927305592986
31.6520367756239764
30.6544670501762795
24.5127113737228264
12.4645741249177906
11.4263263258460803
13.1031921178959401
15.6689122362386808
23.1332854960005818
24.4306495977804943
23.704520602568401
22.5143046479542903
21.7857101675037406
21.4849229863358993
17.4940415382889789
16.1444513593711427
18.2820779465465364
21.9605733482842851
26.9236906820580444
31.4279230513346164
32.4164379148942743
80.8870878523165686
409.439614917323013
1262.26811341004736
90.2684017309646975
87.4626143654616754
88.989613953438564
141.914452055382611
152.708293376993055
138.185034787179944
114.728698422681603
89.8842892888596765
65.9973043675822879
50.2270052086141945
40.6340499445411396
31.3952827148106159
22.240136845564404
21.9301167802055446
15.599528789409856
7.91438649399745753
7.13894341472189264
8.02698967698564303
9.63408817855509625
11.0736392431887385
12.6843471595044601
14.3721687104713798
18.7808140063271907
24.1254593982921435
22.861038426237684
21.7195611416636751
20.8956808073688407
19.056007651892692
15.5759733956332678
14.1972224817899217
16.3952698903806642
20.0825742515879213
25.6280984204891062
29.335917045445143
22.9692852188819074
217.361172813780456
736.064229583460019
1102.41903511105056
89.6319697966900009
86.824739229902022
94.9339850785015926
169.839803244633117
150.840857151214692
127.467804735580401
96.3700215074289872
46.1154976940163905
19.8050352526025186
11.2344240900423049
8.86084635203982707
8.26950069956389555
7.39042854403977589
7.78345311088188385
8.39094760382952387
8.57603988193520195
6.95245506415704195
7.88578199809820557
9.40729651146407342
10.9554448147137258
12.3622238735356049
14.2531485301256353
20.5016920598637107
22.6589249937751198
21.3622124041199157
20.1085656067804166
17.5143025236434653
11.2540845023713878
11.2640064570595886
12.6181154060239802
14.746217966923771
18.3963557136798208
24.2557334093635646
28.6200209250669388
22.5470190070764183
194.095574549670346
760.427108338283688
1097.83368511707272
88.6852046903739932
87.5431076621972011
151.811033934820927
177.812737007351842
152.625667487229009
111.193889071517859
26.1632987063429034
14.8598739893959984
9.20024029506349095
6.87337861923930671
6.42207154373078648
7.16554580533877772
8.27921663875753566
7.95009897297243739
6.06453776704305003
5.25069761309682725
6.18928134309373945
7.46580284179740516
9.01456069964159035
10.7255102071555424
13.3828031331272381
21.8694552424046549
22.8541875497267704
88.3236862047041456
93.7717872470653191
239.39052671825894
194.075589791360244
155.509583400969944
25.0073606844042047
14.8757007719559997
8.34342481359195709
5.34973220141119832
4.51239208384024781
5.0830592810262516
6.08736131818924786
7.30075572385038285
5.14695268161532749
3.99661542738463327
4.51606698371018389
5.51925153084814912
6.92512411210730505
8.77580768249399235
12.8716286927938643
22.3509887479536999
22.8694384191482527
88.5479906091247813
110.586097134087709
266.14993905384614
216.903337824674082
48.7014117735645087
14.5196458503662349
8.59729421381547176
4.60411447558182374
3.0766615486704838
3.10897604751012446
4.1552750300777106
5.34661757402089677
3.4149787375822922
3.05619419314491525
3.35034633432093054
4.02725947177314136
5.15919188116957272
7.09476906242437977
14.1601183835563305
19.9011735578780069
21.6988989952538134
17.6983136965139849
88.851786752980999
298.289446723226149
305.859435209268838
182.647850959693272
15.9955585793561212
9.11719594562231173
4.75863733395410637
2.36830531543876122
1.6977697244955019
2.53329287616937693
2.83310809637331795
2.25866302197791358
2.35490702596170287
2.51130343931657718
2.8872025104133261
3.62327700957328735
6.93309591625973276
12.5349981099705605
14.7247578850533252
17.2792004160382362
14.1531120006971474
13.8252546002651187
1.75747963029869125
1.57128508433261049
1.70748512314026835
1.80892217862161409
2.0782216433585341
2.58536624952719052
4.15536685984858245
7.8451316124037298
10.7630802013095259
10.0498885926650878
1.25163928469637309
1.42331770387254575
1.71363006946106888
2.21601551645354977
3.33708373801698022
4.69596560981225952
6.06565088632430616
7.80767393524244824
1.40256298055152584
1.84979182444293633
2.70027572441461983
3.87348669499126075
126.558870665380624
146.610239989537348
190.85433985202431
239.179667905764546
271.212992522162324
296.202980495799977
303.485814370740798
289.306890697603535
269.148511414210645
256.549112755941735
250.87997181326952
250.822996159028719
254.758800885746609
259.46832660431869
262.36499715835231
263.831316176392193
264.877088198494846
268.469873872900962
271.753044379852952
277.228768460404581
280.381527315073697
279.441895509842084
273.606871790496427
273.573666794150654
271.717753469733111
262.635705651293051
252.734731761380345
250.420639894857572
252.002528286780631
252.786105145527216
251.565446285063615
269.762305390126301
308.373466744803352
404.073703588281887
698.407776112482452
1318.54878003289923
2050.44156855315032
2387.43159223621342
92.079474210113645
94.4551751883659989
107.78222782350295
128.893309686730589
164.284194419710076
200.841711471432717
219.701815808531876
202.434762727714229
181.238546048042281
175.886991279992657
178.076533961997569
190.667785078974987
213.505817137937157
232.346603832381049
244.683991352534008
248.728205156680104
246.585364266337933
251.606247071707571
254.083713681832336
258.945144536965927
262.218140825040223
259.031534078009315
246.210267820490316
253.432433384061113
254.915392167956782
231.152817310062204
213.538398015606759
215.778555066531624
222.804370266020044
221.237978580900403
195.640857676667764
222.747119952130703
236.706292717481432
244.815277999083179
430.467401422859155
1004.07617540291596
1896.96631352261238
2417.46785703927117
91.5606498557819179
92.0686400465743731
95.4403461969004923
112.667500611869642
124.496318818788296
138.440351213282838
140.965008318810561
121.604122936604156
96.3562743595097402
78.1763611969800678
66.2803073324347025
58.2026227828832958
53.0937263754838327
49.1912605467496959
43.1916940654193411
38.2982037276299039
38.6208199704570632
40.6016358037969312
41.9120742344729678
81.4362335378806534
59.8604636187231876
56.789647374960218
40.6008280193864337
60.8294565950110737
54.1030171020231947
21.787492185537495
18.7654460936034653