/*--------------------------------*- C++ -*----------------------------------*\
| =========                 |                                                 |
| \\      /  F ield         | OpenFOAM: The Open Source CFD Toolbox           |
|  \\    /   O peration     | Version:  2206                                  |
|   \\  /    A nd           | Website:  www.openfoam.com                      |
|    \\/     M anipulation  |                                                 |
\*---------------------------------------------------------------------------*/
FoamFile
{
    version     2.0;
    format      ascii;
    arch        "LSB;label=32;scalar=64";
    class       volScalarField;
    location    "0.870000000000000551";
    object      rAU;
}
// * * * * * * * * * * * * * * * * * * * * * * * * * * * * * * * * * * * * * //

dimensions      [-1 3 1 0 0 0 0];

internalField   nonuniform List<scalar> 
7236
(
1.50103250398377884e-05
1.07051044972652246e-05
9.79328781001810484e-06
9.35240600797022277e-06
9.10049169338198114e-06
8.83394261451831558e-06
8.62511458160848652e-06
8.46063015920651232e-06
8.31442021326937164e-06
8.19104964336196999e-06
8.08260016313965644e-06
7.98806501666795658e-06
7.90354599877911615e-06
7.83579805385001624e-06
7.76734947878884291e-06
7.69551639064159845e-06
7.63685781683759358e-06
7.60033469919040589e-06
7.57621936736560572e-06
7.55325843301230702e-06
7.52784260137362031e-06
7.49968697544853977e-06
7.47184210004804711e-06
7.46205359835474302e-06
7.45343662184750839e-06
7.44115504419414841e-06
7.41834827939446927e-06
7.41159327836681088e-06
7.41306057552486231e-06
7.41203094026842679e-06
7.41253305183619803e-06
7.42777854907449259e-06
7.4840261131496665e-06
7.62608942180325763e-06
7.91251548835349005e-06
8.85590052332444208e-06
1.20032953049089695e-05
2.09500276818844448e-05
2.04277452768024159e-05
1.05340452239145276e-05
9.30364404600584968e-06
9.05698553460631899e-06
9.93444328439651308e-06
9.98959235007213039e-06
1.07067982022103307e-05
1.12197143196993708e-05
1.09216663011776986e-05
1.03599698181307932e-05
9.51842080534198381e-06
8.88309789016043258e-06
8.23988531398846719e-06
7.94292831406485627e-06
7.79641199223651097e-06
7.64764207413733729e-06
7.561286721828064e-06
7.54213877657364821e-06
7.55157396652475602e-06
7.56728177244979557e-06
7.59414339588043467e-06
7.65138495001404461e-06
7.72033992792274002e-06
7.8100436401909497e-06
7.80271210393099533e-06
7.84709621577985661e-06
8.12929271272150781e-06
8.23165435833020915e-06
8.22825061579892461e-06
8.36933097482295136e-06
8.63361939807949836e-06
8.81304046273261295e-06
8.65596184646731537e-06
8.68894733675555563e-06
7.73866087892669204e-06
7.08121846850836941e-06
7.5366495737206566e-06
1.20468426680060518e-05
2.53667077521561547e-05
1.72298671562340232e-05
1.49346644693433237e-05
1.92365223019282734e-05
4.45974916676259174e-05
6.91948075940713173e-05
8.75888783150330786e-05
0.000107668928417823292
0.000128267428709419415
0.000136484224993358962
9.55717144367364523e-05
5.28547292955238118e-05
3.35359609810047496e-05
2.00653156992921462e-05
1.24660732268839924e-05
1.03795869352408083e-05
1.10802533049569834e-05
1.25420190144984392e-05
1.37811439284045042e-05
1.47956003493135696e-05
1.56928954221603127e-05
1.88093553930395913e-05
2.53223265702234518e-05
3.07895227828295786e-05
2.48166667356495473e-05
2.90999723657938542e-05
3.82288758605147717e-05
7.10783327173325529e-05
7.44791047739726633e-05
5.64047523379678208e-05
7.10752360344560249e-05
8.53399542733866061e-05
0.000125507098916844594
8.94593142273313822e-05
4.72955540364547149e-05
1.49789771703337624e-05
7.71397717641760796e-06
9.30245361022769468e-06
3.95147123568647884e-05
3.17511191472734494e-05
6.23858703555132396e-05
0.000146731332373031538
0.000235079508994183786
0.000118768489571435568
0.000100345549155589914
0.000105484690820072948
0.000123452095565036187
0.000142635310806572054
0.000139422969366004995
0.000121949754619064455
0.000111121438003631258
0.000109572043370606396
0.000114736275806241175
0.000117027167282397084
0.000120091201795263794
0.000124246546059303978
0.00012902018015137893
0.000135221131068005257
0.000151382199164060659
0.000180833712895865775
0.000221818042999776465
0.000268441812769058558
0.000314785817732790433
0.00037621772586817723
0.000431207539935516836
0.000503458437019251004
0.000560666124587243329
0.000623112763836006266
0.000695029521124077704
0.000697301710230814804
0.000573643777441132071
0.000334473552083040587
0.000147548765540375128
4.45245618288700102e-05
9.31436987960912323e-06
8.18775918815691493e-06
6.67529765647163141e-05
0.000108365963888021804
0.000196472458420722794
0.000248989634663572047
0.000148749434876296373
0.000101637786906156612
0.000105838144741707618
0.000128449508390147623
0.000144702030795386286
0.00015423646719553064
0.000168715318651347008
0.000165207841207940659
0.000152818870105500277
0.000149611083383706611
0.000135748495484555581
0.000130187631226493634
0.000127052610578018649
0.000130586640388283932
0.000139127018788931007
0.000152924012484477158
0.000198998556116459341
0.000285376354103061272
0.000390854108216660509
0.000489580706924954432
0.000557106800591824418
0.000621169227983591507
0.000655092612145710663
0.000693988342418478754
0.000759755985630514684
0.000854809322059317035
0.000944825596995543544
0.000897807013665385153
0.000647565449067554421
0.000340213462338345577
0.000167570532442713559
6.65396047468107146e-05
1.18889209270222211e-05
7.70309894050876437e-06
0.000418497194575589786
0.000316140531088209291
0.000335668357428301595
0.000165962213486579022
9.61577435157544519e-05
8.88251159714161225e-05
0.000124817461053424844
0.000217899965646602714
0.000276893771706997085
0.000238435154060578751
0.00020779865619396633
0.00019177966283612287
0.000184595859112026436
0.000170903869969055399
0.000156578661860788822
0.000156099264982313094
0.000175189063799134886
0.000199678828918703732
0.000222164386240627463
0.000294741561966655071
0.000448372060187213011
0.000698460475144296986
0.000746193717748212999
0.000712120714694395467
0.000653630313596935625
0.000588227548210582701
0.000529077589216930214
0.000499932960444933352
0.000502134277005595437
0.000595958836816038178
0.000690177528688463277
0.000746587065670258889
0.000586941182811843466
0.000327556809861929965
0.000163398279543088693
7.16354892186079267e-05
1.20028187226832409e-05
7.43900768818343281e-06
0.000807091050213959416
0.000599869722264662303
0.000510772154449777127
0.000103050675616810392
8.69681316310438044e-05
0.000104243529512532221
0.000203243218430607293
0.000408636484155694088
0.000726575950450049422
0.0010163814112944113
0.00128256850369640554
0.00131909558126094969
0.000870584832927163966
0.000415224245837013135
0.000304535861734216899
0.000294868502025096078
0.00043957554555226709
0.000560477956236771061
0.000748672538311636509
0.000722288450992646081
0.000800773044403806653
0.000944114081280517385
0.000913365569496122861
0.00077051055479280628
0.000556258342796712578
0.000438583679516418271
0.00041003196657841219
0.000436474306861532341
0.000477655402431140664
0.00047626782291194979
0.000454285777646837188
0.000473652340594057756
0.00052096005043075213
0.000358610834922202322
0.000158002950033209947
7.26558530285741159e-05
1.52342756302567322e-05
7.38199397476898157e-06
0.000620993655058345263
0.000805138645308726758
0.000397302980922985185
8.1873527897588131e-05
9.03289056922886019e-05
0.000160918458739753913
0.000426196699355231925
0.000869185689893752118
0.00143839519464447141
0.00215937401968406984
0.0024605072843496569
0.00245383500286564101
0.00218850254539487742
0.00192502411822972007
0.00180082269964354719
0.00152823234605655497
0.00090291947734851127
0.000663375265020833523
0.000711452316288443357
0.000816773406440778299
0.000948566543297056945
0.00109650230744949475
0.000996417658261217545
0.000597344899657590699
0.000504478376240376247
0.000473406362846398707
0.000460309906987602698
0.000471928991895255749
0.000471584767948603136
0.000440500246064828697
0.000422244469154227841
0.000401216409617840598
0.000443799238135453723
0.000349667968685988531
0.000143519000548234953
6.47243249580389921e-05
2.33213401362445203e-05
7.55413177602202401e-06
0.000531509913593102099
0.00120534384213976135
0.000130858450633306251
7.4026104304463164e-05
0.000104559161438676771
0.000356062773103987492
0.0008423959021043268
0.00149758954943691363
0.00235114017322228443
0.00314154466945453913
0.00300145116687276173
0.00257422649908601925
0.00212181785729441408
0.00196157790754641643
0.00206860993853447616
0.00113402294387386442
0.000731673137640196508
0.000774706059579652849
0.0009010196387575207
0.00104701534627172819
0.00116562574930606532
0.00100527089484139711
0.000718977035316557063
0.000666467008639058016
0.000713736144858644365
0.000758822559694108043
0.000873421689572358509
0.000985370227341366605
0.00121420725802651066
0.0012733238098984192
0.000829516906632895147
0.000602410099243754654
0.000546522802094503686
0.000354967172074162134
0.000109993196307984342
5.39949900530071997e-05
2.8325370911898391e-05
7.75138010567301528e-06
0.000509475868122602027
0.000769357706957402043
9.30431412095182776e-05
7.71137780104099943e-05
0.000181000107932422828
0.000659454296526075143
0.00137115975590494047
0.00239187723571353782
0.00361849299845598809
0.00330561993033026778
0.00284470974211480012
0.00239625402305063042
0.0018632694015845051
0.00105191334040215983
0.00100633400305679983
0.000986421019586413567
0.00085727471124833149
0.00109571302975651312
0.00106978764346340213
0.00135063767341258548
0.00150783718360589019
0.00166211288279006142
0.000530831270163990626
0.000315458015797420244
7.94493750643543212e-05
8.60425186858960735e-05
0.000349942822850904389
0.00106225895405561051
0.00212152124707253335
0.00371822558804017723
0.00475399286155959305
0.00348331384187694796
0.00277159641576221012
0.00222642343510619191
0.0016707807306487227
0.000932792977501527851
0.000842561315042464581
0.000953984349657426771
0.00120493782996475849
0.00135868567200480672
0.00101253650109008509
0.00138152794263575527
0.00271571336366903436
0.00432213751694261305
0.000585981680697229119
0.000131093063393975521
7.32858955798392929e-05
0.000126998276414400611
0.000669903645712405975
0.00164587864525003952
0.00320254232596262588
0.00586313229800029638
0.00577347862650274928
0.00399110735385160495
0.00287646246762144221
0.00223474462136282739
0.00160442023425373193
0.00102928940317994653
0.00084350101844051222
0.000974024646916034397
0.00160420204540098906
0.00118003504263790326
0.00102097940400639928
0.00219490053624046442
0.00331443717482420843
0.00403052103707217824
0.000622079194258915369
9.41566311941222491e-05
7.82336933016749214e-05
0.000251649623047564498
0.00115018559803317351
0.00250952347607265661
0.00480241273651875033
0.00948712141424011036
0.00726477667940780662
0.00458405903307677453
0.00312174774275780949
0.00227307052340942938
0.0016851413026953907
0.00120107027175966278
0.000868448993495917008
0.00093668071228877848
0.00108962248713303242
0.000793534444892001639
0.00106568926926647574
0.00220903176707111168
0.00294177607356859751
0.00329596523405696097
0.00512900291643598322
0.00333585072306782004
0.00237310160582650427
0.00167103516761902757
0.00129667241729323904
0.000919875626538282855
0.000841281838838919263
0.000890727398803259633
0.00053795736602604415
0.000684273467463470276
0.00252770171571614286
0.00191650444351158713
0.0015226477189779911
0.000991483161474524108
0.0007732437869293116
0.000770008326451102456
0.00052564260955223908
0.000523703062982306907
0.00175001709000709507
0.000874172985339169298
0.000617949824037782904
0.000599685661028268231
2.96638415756547355e-05
1.47661968087938092e-05
1.07069312748718803e-05
9.74065756718842893e-06
9.2721324708106376e-06
8.94935123648794514e-06
8.73121299137402916e-06
8.55319779479871221e-06
8.38828643048259863e-06
8.23334905276761013e-06
8.09009786445273629e-06
7.96546662757483761e-06
7.85821528515510006e-06
7.77592719952630354e-06
7.70234148098313891e-06
7.6393393359184657e-06
7.57477340556353088e-06
7.51502789526395422e-06
7.46747994616741179e-06
7.43410415472908375e-06
7.40772399009783847e-06
7.38248988291734894e-06
7.37112129497364996e-06
7.36457890354011394e-06
7.35867926265735252e-06
7.33945847483546811e-06
7.33688120539800756e-06
7.33933486717042698e-06
7.33841849002338728e-06
7.33754049088853054e-06
7.35020436429960964e-06
7.37503225881619039e-06
7.45513557107437919e-06
7.58309961427469782e-06
7.93989651802465148e-06
9.07759259782419806e-06
1.27725519620101122e-05
2.25272872416229225e-05
0.000457489587950575592
3.2516338323233976e-05
1.74377555949231361e-05
1.23437690517084854e-05
1.18245263037998162e-05
1.26690876070968955e-05
1.44394049528972988e-05
1.53673660644081972e-05
1.5132786270061175e-05
1.41819515175086502e-05
1.26300988036303649e-05
1.10133194036891624e-05
9.53002690614552302e-06
8.77399843488265006e-06
8.17690933375820745e-06
7.8061918490447338e-06
7.63084912029862671e-06
7.51409573384994532e-06
7.46707903178140389e-06
7.50044612345408836e-06
7.56719844930344525e-06
7.65181356194627949e-06
7.73728951458258279e-06
7.73319081737646376e-06
7.79412780220588269e-06
8.03984857901832621e-06
8.18157533187373918e-06
8.18276564266461373e-06
8.37845512046453082e-06
8.69728257598314578e-06
8.91118831923820599e-06
8.69817267876062224e-06
8.92315137527413954e-06
8.71649230430059456e-06
7.62107568753345222e-06
7.00387932039867588e-06
7.71815730326910902e-06
1.26694534473871506e-05
0.000383203685050359142
6.4857741470505199e-05
5.05535778991851321e-05
5.92665637187133086e-05
9.41408468578521846e-05
0.000117898150109557625
0.000114275039946829115
0.000122332298643832517
0.000133218533550354313
0.000141210580244343714
0.000154508988786782194
0.000155426756480604814
0.000125020249115907962
6.57680269005515541e-05
3.85616430666300625e-05
2.4732413973877889e-05
1.63427152036678927e-05
1.42496523005815613e-05
1.48324755543121697e-05
1.62930163919000152e-05
1.98385667592701462e-05
2.5357457993391338e-05
2.99623325426770317e-05
2.63340972518672265e-05
2.97707958047556856e-05
3.91251708335477091e-05
7.32558432704326243e-05
7.66829702279212336e-05
6.01553141048762193e-05
7.71750967395572749e-05
9.53508202770441651e-05
0.000137683399521130279
0.000107863804190076761
0.000110680757006961338
4.25933227681484346e-05
1.32127199461085124e-05
7.50052066043125962e-06
9.56860881603611237e-06
0.000382445534298739504
0.000174764350177871965
0.000155191992284335508
0.000193764030162544388
0.000154165395469698193
0.000101733750119271612
0.000105752386508766968
0.000126950503131890774
0.000148915611406555274
0.000147392281281363992
0.000150951743304984998
0.000154534191492191659
0.000147308356486868501
0.000131594242623145683
0.000123659057184418879
0.000126549075262199438
0.000121008464163930833
0.000115556708538191649
0.00011744943819048072
0.000138204496710056502
0.000168441255177024824
0.0002111472483673699
0.000265249227864686546
0.000324556206623428478
0.000384663748609980686
0.000429330895681427583
0.000492905353835977958
0.000544265958137810459
0.000584234292247010111
0.000622565312993153585
0.000601438744051696378
0.000517228326015891911
0.000372616340768150607
0.000232929481421252247
0.000113923368139666863
3.92706423499152512e-05
8.76065710547004354e-06
8.32187710701301717e-06
0.000366531348484593577
0.000316872918453643432
0.000249620229954840799
0.000175618279399148591
0.000112883837704672892
8.53335583087061288e-05
9.50199901949586267e-05
0.000107806049779645051
0.000119499124024489818
0.00013289657007000533
0.000152311437740828719
0.000168082252892867679
0.000167808053378369219
0.000162845666379852398
0.000159889234572979042
0.0001575917390925771
0.000134248104214776355
0.00012014158116645078
0.000135987884158671879
0.00019042123967763421
0.000280509648337494985
0.000384920620386318185
0.000494808308434413545
0.000552540104424752718
0.000582746425875185683
0.000603942117441087778
0.000628425799087250852
0.000682527704703917663
0.000742315443591443969
0.000756931079586548906
0.000673159728929136557
0.000520919448398538898
0.000350003636215928291
0.000215655283802546088
0.000119616630721026867
5.15415164913044847e-05
1.10231490521536467e-05
7.76602185912709268e-06
0.000386705136552360556
0.000500442772757933845
0.000264854308771791957
0.000116606709322988544
8.51196646519326763e-05
7.96920971739507254e-05
0.000115632972551634339
0.00017036820235604962
0.000193854206038936812
0.000195482892953849423
0.000188333723337354695
0.00018972340168275665
0.000185103853952160659
0.000183848050911626198
0.000180460816915280773
0.000172529127117718466
0.000157471070261102204
0.000192879439755116159
0.000283138908484323955
0.000452042012431847428
0.000618608119995713544
0.000591653649353241894
0.000548118035573609379
0.000515926178589454091
0.000509085391993440686
0.000506101926679534768
0.000521802585014255493
0.000556084404947927062
0.000582879689276097042
0.000585267798762494724
0.000559980869639326658
0.000464523618066101551
0.00033100550565553084
0.000201714634807538486
0.000117084698594510926
5.33741248724387723e-05
1.06943424713569268e-05
7.46927531038628621e-06
0.000394046267464797382
0.000480436721038138693
0.000346778928469403092
9.22613602973183507e-05
8.05226275492622155e-05
9.51565077892755208e-05
0.000184992489406519278
0.000360556779946930495
0.000581180609769172156
0.000742462870760256699
0.000882055271615799375
0.000844618840707835159
0.000531051172745434759
0.000295983512710294564
0.000223363992238737621
0.000223091116033440827
0.000250057203687425685
0.000577482571369999204
0.000600592865409426682
0.000479106347286520861
0.000452845313148880475
0.000469384023207817169
0.000513432151639039405
0.000522315304669775061
0.000493355941385424808
0.000463765623345087287
0.000473723237653899277
0.000528842892545332635
0.000499757180310721628
0.000469524348518712722
0.000432241233431397839
0.00044050648314080754
0.000374302482785685096
0.000233325820273259167
0.000112670004055258926
4.62821594372261457e-05
1.11017069745358619e-05
7.39842715840995105e-06
0.000365079062842713705
0.000588654867658202968
0.00040939192412617158
7.74445034382456398e-05
8.26090743620028781e-05
0.000141488466423832687
0.000368527783719810136
0.000801619184235285065
0.00140184133457734697
0.00186409602400056215
0.00171445819382385701
0.00141684367494202272
0.00112635354309559917
0.001063922956704994
0.000999683211626760295
0.00103065066122295609
0.000776529419846970644
0.000637819539895757956
0.000484697559928407755
0.0004226274541694345
0.000430484401534970821
0.000493806826904693978
0.00060363792215804065
0.000682961316618298903
0.000701734269390235244
0.000678170468146909334
0.000589237176271522494
0.000535228360760802964
0.000472027408955205229
0.000419286159534891913
0.000406761102771595654
0.000423640237386283241
0.000395895743947326652
0.000239390038788972383
9.68739608075021958e-05
3.97738490185771564e-05
1.53578952566695199e-05
7.50764536448764591e-06
0.000371708277470911698
0.000788228688076859571
0.000147713710954159558
6.8332990961222757e-05
8.86563061126661935e-05
0.000302263691308174486
0.000758526783462101328
0.00158164235338768572
0.00286125475343474876
0.00299428731926802
0.00187854533719748187
0.00150342644279934838
0.00129400487707951803
0.00127065420511569349
0.00134879493599525196
0.000969388880573093998
0.000771488390855981664
0.000562812533015861257
0.000412355393584985883
0.000391570582479517141
0.000461543881654922594
0.000596991834274226908
0.000780234682466981891
0.00138383267442139784
0.00213679458976167094
0.00217443092234053358
0.0015930881697495008
0.00126045261119939406
0.00100720416009948579
0.000771897127960807978
0.00052177524896932794
0.000505159283794458561
0.00042387923998802381
0.000255728916555202003
7.60533714840776692e-05
3.35854084142379601e-05
1.93299010496375897e-05
7.3443738771422731e-06
0.000387729069906850722
0.000882577704952863936
9.61130218265049245e-05
6.95153911483679417e-05
0.000139264363932062275
0.000573686777810513381
0.00130717963008094066
0.00284522315226574951
0.00473044265701433667
0.0031047982281179904
0.00192830724673937544
0.00147911865195674724
0.00124416015734229806
0.00119184912654860236
0.00108461213639789232
0.000915491611453802786
0.000894007497219485034
0.000425073196077658058
0.000309836704453689575
0.00033651980335645587
0.000521166366482713308
0.000895590504995199773
0.00159661966808195333
0.000400879537292373714
0.000442892995442613336
7.92780050188039172e-05
7.68910982040009813e-05
0.000273287385709848922
0.000945131271215573967
0.00214993526793892361
0.00481269887009731778
0.00525248228006919282
0.00334069514116996447
0.00210080061041857408
0.0014574243672849155
0.0012220290987583096
0.00106560183395045601
0.000927692057041425004
0.00082578344047711525
0.000700820556380598821
0.000336879250455346781
0.000252731113230449339
0.000314933181692594389
0.000674563525858516331
0.00148754845758602267
0.000444089428071041176
0.000151281113898245643
7.03012073455822219e-05
0.000100669619656913476
0.000515510524185043952
0.00150691182355440945
0.00339639876982582778
0.00836887872440541213
0.00587590203366437566
0.00359368850819792671
0.00225273575784233366
0.00136307969773028078
0.00116181051692293338
0.00107315819293635315
0.000840898187165267197
0.000813306163892756648
0.00056782545518067472
0.00029269748355315934
0.000235246457310827434
0.000325906459168206759
0.000796643294899731895
0.00213701334154334146
0.000544880183807961447
9.25432342799209549e-05
7.11204339572838682e-05
0.000200468766582238855
0.000983704333418308763
0.00241610529306367314
0.00521273158199967671
0.0132843717492190823
0.00662739296174230056
0.00377010671662426
0.00229733704191535009
0.00138964963124075711
0.00118432956172496604
0.00109985683178754311
0.000817802827306317705
0.000824705857588765639
0.000501367894866685594
0.000282833886713948707
0.000229579828027778659
0.000312709608970630911
0.000729687645244226344
0.00237088209537749143
0.00400896368202343159
0.0025914571722438131
0.00171562844894206394
0.00136375268592526426
0.00116481787114705278
0.000855069403543212811
0.000776095850586045583
0.000471825092357922569
0.000292714351989433927
0.000233965908189328958
0.00246382636879059237
0.00186275730083873873
0.00131010499661219498
0.000950823848969837735
0.000799003873155263431
0.000527981601221534972
0.000334870930652794924
0.000256829642709465215
0.00170497587192356575
0.00095805060726031799
0.000845528540290125044
0.000806106459853281982
5.21422827810938392e-05
2.0573948893068823e-05
1.3285759720709559e-05
1.07002235671945602e-05
9.8666531969570015e-06
9.39900013065861256e-06
9.08806428861365283e-06
8.8695945130704101e-06
8.66815580796312195e-06
8.46065586750061113e-06
8.25467555297740505e-06
8.06731930051477068e-06
7.91617905428414244e-06
7.78626481589899445e-06
7.68574148812466768e-06
7.6081305404455913e-06
7.54140733912118496e-06
7.48396290511380507e-06
7.42402492820049544e-06
7.36408261054076929e-06
7.32163904893173254e-06
7.30400912962977688e-06
7.2976252776755557e-06
7.2918159135286695e-06
7.27768605925562792e-06
7.27604671999704338e-06
7.27755177059761876e-06
7.27523616468417872e-06
7.27057962384149736e-06
7.27089118920762581e-06
7.28700401948498241e-06
7.33294122188968704e-06
7.44566041778466889e-06
7.5901851284453149e-06
8.0964139458701656e-06
9.5862968244454931e-06
1.41976995058578121e-05
2.53852112021413048e-05
0.000382436014799183033
0.000129366803246928777
4.54187520207184411e-05
2.20474257308965581e-05
1.88588363305812027e-05
1.90686531153144393e-05
2.06498478153695295e-05
2.2600647367263908e-05
2.30918350967916683e-05
2.14314181891860103e-05
1.99739023251016069e-05
1.62938628670819522e-05
1.30865926309804524e-05
1.07129629615402007e-05
9.30802454044598587e-06
8.54074824192016599e-06
8.10762134147414396e-06
7.79909304181744784e-06
7.57285718142455954e-06
7.51418496270541525e-06
7.53983964964236643e-06
7.71369761769966327e-06
7.762972771095373e-06
7.81537771959603752e-06
8.08394281644354213e-06
8.21287863311253728e-06
8.17016307595981975e-06
8.31930466298147093e-06
8.66390957557044945e-06
8.94054659607109257e-06
8.81218673072190334e-06
8.85985147655527523e-06
9.13833656999699697e-06
8.77905203159598815e-06
7.56588817863186535e-06
7.04793701782825658e-06
8.19474254629270625e-06
1.40313479476359017e-05
0.000385620336418860039
0.000188190371996008405
0.000112174348474015256
0.000110446567735518353
0.000169450204698667385
0.000133371054845864498
0.000113136057465389593
0.000121598045149806701
0.000126900328116008262
0.000134376078618989861
0.000144371966861305093
0.000152325125021480503
0.000161797572616283257
0.000156935608730199305
0.000133598981511817315
7.89161506637548431e-05
4.99223710888897879e-05
3.25380763582307388e-05
2.15822644979992688e-05
1.98494203488449067e-05
2.45518792845884848e-05
3.15166012405595374e-05
2.94071572115423088e-05
3.44298850177585669e-05
4.43390325428077398e-05
7.38255931770214369e-05
7.60553580019661689e-05
6.09936956547249703e-05
7.64154815934425807e-05
9.5507700304166889e-05
0.000140041029761709735
0.00012837578259360452
0.00016446595147730003
0.000101070988704509153
3.07224526306475572e-05
1.07884860811269609e-05
7.45325299418199585e-06
1.02554734948798175e-05
0.000355768079196229611
0.000256060203979462889
0.000202529481470209823
0.000213471405718832787
0.000150367885630846049
0.000124166460500526075
0.00012531398805420334
0.000139959243335452773
0.000148079153632766844
0.000155046533405080921
0.000157204560832675962
0.000165802051321894755
0.000170410233911645549
0.000174337623495281847
0.000165912198484357225
0.000153170014185282234
0.000152678965449650974
0.000147524043394334247
0.000114557673139070222
0.000132661646774937057
0.000177657375004821179
0.000232570820902808895
0.000295689380238158689
0.000352934513296626238
0.000387967187518320988
0.000421800123678094845
0.000449564807445443522
0.000465211690496989219
0.000474559774816299331
0.0004583917138226517
0.000406190031150746545
0.000325085300955272824
0.000243020958552841255
0.000157854211406335034
8.32009244533740298e-05
2.6825797689272141e-05
8.40265922630782124e-06
8.75251643838948795e-06
0.000349543998692996747
0.000311611327073536544
0.000200782741448615574
0.00017503581765589306
0.000103549792666885235
9.11546236784917198e-05
9.25322342552545996e-05
0.000102933487677973158
0.000117134939780218537
0.00012073299716658396
0.00013294407311325565
0.000143542627469175877
0.000157772049627641982
0.000176789232397645186
0.000184108466763002401
0.000180871360383790284
0.000175439435042787194
0.000139890317940979145
0.000129803671240881269
0.000198231987894965451
0.000296046029444376846
0.00040752645229554901
0.00047102914415765232
0.000492910152057954927
0.000484213553769173089
0.000488963617803377494
0.000504954042110163613
0.000513324557574276362
0.000480133426420764793
0.000428205948410403296
0.000357670379753330381
0.000274629934864118711
0.000197145258441082659
0.000138260875487795183
8.22437006346826683e-05
3.66983061909513709e-05
1.03327900628153278e-05
8.07109546859247813e-06
0.000335388520442406613
0.000313645485285830926
0.000251502236843473617
0.000116077433562465382
8.04920470518738322e-05
8.50581469708391153e-05
0.000100824998299345583
0.000144273878101050279
0.000186244413827035208
0.000183523220059549004
0.000170834017121521077
0.000161766283370740158
0.000169090820940165777
0.000195765067873580922
0.000202506470724984981
0.000197706608079640617
0.000196032957695325532
0.000199263085179397559
0.000251063275993477358
0.000437044097940623532
0.000486916767102801851
0.000473439768121310188
0.000425570973289792571
0.000393842117346521431
0.000381885670716143263
0.000375360869287786269
0.000391169752140260252
0.000401933807525536012
0.000361944090563646808
0.00033446101533379872
0.000295114761988664028
0.000244681528297539894
0.000183247043862757518
0.000122475142176045197
8.2322250614394975e-05
3.78578839072193568e-05
9.57204034918244131e-06
7.66644648195670967e-06
0.000319970783053682539
0.000357155052130428289
0.000326429651545508722
9.32010288450096236e-05
7.5762959281785731e-05
9.09297776571075015e-05
0.000152490123201670381
0.000297112536028110933
0.00046604952821457078
0.000559274356468841111
0.000619898318178729694
0.00058410096310833803
0.000551728822434589534
0.000452015786289343641
0.000340325857341093239
0.000327954758350751483
0.000480146611739256995
0.00057969153730772177
0.000397970435970484472
0.000331214170073621558
0.000306864300743211213
0.000335984077328727677
0.000358092506350864517
0.000344380594317102509
0.000333348866835160096
0.000357899117242655861
0.000387012685401650529
0.000417619894333362779
0.000381934073808961173
0.000343842868909072208
0.000315991200310486626
0.000280926096078641435
0.000212490503083442004
0.000130053878738726461
8.18901035922955798e-05
3.08973559630068047e-05
8.59773616116066866e-06
7.4598453495426129e-06
0.000298663186912423049
0.000388046792972265018
0.000374536878758316785
7.80959457071100384e-05
7.68188622049695795e-05
0.000126151343314416411
0.000346523426222687734
0.000722861057505843826
0.00110501197993596607
0.00121168893290263388
0.00109013569692470685
0.00101761489356119446
0.00103182453903515807
0.000973278880616618527
0.00101985538924866137
0.00102313930949348699
0.000755231453078884177
0.000484469190282975804
0.000281364977115099537
0.000239274144945632956
0.000248324100123566626
0.000276161083145237251
0.000332804608709969874
0.000385716269206307126
0.000481457865498588294
0.00058413572200049016
0.000633740010666576713
0.000465504183119759042
0.000338974697319267566
0.000335493048364719965
0.000330742761472700405
0.000319546907328452747
0.000251396020789772766
0.000134744600513492837
5.50819393601191529e-05
2.56142958140605594e-05
1.00656137261060916e-05
7.29541767000589916e-06
0.000288909160626135827
0.000490133588683898847
0.000235085769139490626
6.76623090767621937e-05
7.93450030314599776e-05
0.000250812710565940665
0.000653092256714599422
0.00133731161633742824
0.00201052323553177351
0.00149845649504233851
0.00103837989759460072
0.00105627378173006169
0.00122648120068332323
0.00139318120014480292
0.00111181169766387381