/*--------------------------------*- C++ -*----------------------------------*\
| =========                 |                                                 |
| \\      /  F ield         | OpenFOAM: The Open Source CFD Toolbox           |
|  \\    /   O peration     | Version:  2206                                  |
|   \\  /    A nd           | Website:  www.openfoam.com                      |
|    \\/     M anipulation  |                                                 |
\*---------------------------------------------------------------------------*/
FoamFile
{
    version     2.0;
    format      ascii;
    arch        "LSB;label=32;scalar=64";
    class       surfaceVectorField;
    location    "0.870000000000000551";
    object      Uf;
}
// * * * * * * * * * * * * * * * * * * * * * * * * * * * * * * * * * * * * * //

dimensions      [0 1 -1 0 0 0 0];

internalField   nonuniform List<vector> 
20390
(
(0.623130015175852647 -0.18509970528652453 0.534735024414100812)
(0.532736898795104441 -0.289108918436929041 0.423886323833778556)
(0.292378858626428151 -0.187043288883458975 0.342835712547989446)
(0.749603562197570739 -0.122569697317905554 0.387747890850113797)
(0.933272157445711348 -0.153662097547944743 0.658000558668844548)
(0.892104156546389859 -0.272491407556753384 0.654608279814450578)
(0.708865514695936616 -0.188818050409765209 0.730300625071497733)
(0.974727784117565554 -0.119772243546121829 0.495459960915575981)
(1.09427689376953929 -0.0982168079892559859 0.657888794035747848)
(1.04345868375784701 -0.207466727505340148 0.700344398806028723)
(0.93491872314145219 -0.134737990724842938 0.778282235069666761)
(1.09101569430609002 -0.0788844273824385184 0.52435352022378634)
(1.21370329799767696 -0.0621130772515037094 0.648604134254019526)
(1.16536332422844424 -0.163549355739971064 0.711620575897063512)
(1.09219657367838274 -0.0883764403846680202 0.759830695440086523)
(1.20237602609404304 -0.0528309167818137998 0.552158387520945371)
(1.30417601108864933 -0.0465431089009746904 0.647166095317762147)
(1.25574431223581717 -0.122593400096899549 0.706290497010122587)
(1.21245240879468064 -0.0629257369574291736 0.735423030171633019)
(1.29876027605711486 -0.0400115591201250023 0.58070893808115509)
(1.39538581616674096 -0.0409328777647964617 0.649871216810412822)
(1.33059857606262111 -0.109821030390290161 0.69205679107624074)
(1.31393044449759211 -0.0557734540019755934 0.723118273128066313)
(1.38379722390664184 -0.0364654760444780637 0.594686008864702909)
(1.46431433844195102 -0.0323867618518236186 0.65388451115279822)
(1.41411380060533398 -0.089825694467010192 0.669203945080214413)
(1.400980510216979 -0.0460412511236214239 0.713698868028147415)
(1.45483980599258089 -0.0293643979007502352 0.602975990003912443)
(1.50950038056180968 -0.0232168151288983833 0.663016827773502349)
(1.49224015468019333 -0.0696010302503948103 0.660051634461243042)
(1.46607973743198139 -0.0342024877565131058 0.709817997663107048)
(1.50471902827165827 -0.0208710866556476166 0.615801966167176196)
(1.54032768018765842 -0.0161951616287861755 0.677375548869173394)
(1.54992898411087698 -0.0562612426082764322 0.664407195407272777)
(1.51002845891411619 -0.0243166991371562523 0.714631711572869754)
(1.53562155485202401 -0.0143602583267422607 0.632936513249481081)
(1.5599680055645857 -0.0119386201340394189 0.695257441493956185)
(1.58784625466991725 -0.0441767748491598555 0.678182851415043975)
(1.54013349490918627 -0.017044906903444644 0.723777122599611689)
(1.55473891659066976 -0.0112075674094951911 0.65506388782430014)
(1.57366474307679649 -0.0106790350854215569 0.714689475120300233)
(1.6062602942662092 -0.0365896479482016521 0.697482956940121523)
(1.56038737228394986 -0.0130928317611790669 0.737118212027113917)
(1.56717811185525502 -0.0110056212596265583 0.677635645337265613)
(1.58414343824076109 -0.0116689510206094207 0.734222683252377051)
(1.61433651865695604 -0.032152145133699489 0.719335711918830611)
(1.57490181698940024 -0.0117483260538522958 0.752894749171249433)
(1.57634388196299136 -0.0128688953490448902 0.699069144870508197)
(1.59449497298753995 -0.0135985869155854904 0.752453198011229007)
(1.6182550777152902 -0.0297894413127734112 0.74137098881085961)
(1.58689796479201695 -0.01260923621636105 0.768754461754036611)
(1.58528011587431505 -0.0166296705785199742 0.719527099776834489)
(1.6026025411876117 -0.0169480890021539432 0.767204714939505483)
(1.61868928006581037 -0.0276524551228943399 0.760996414933706289)
(1.59745147282258615 -0.0137645894128207626 0.783519623124531051)
(1.59578309870452184 -0.0197412595023370684 0.736322263197781823)
(1.61492269626021923 -0.0222525354515311496 0.776160879380688895)
(1.62013941219942881 -0.0329107736281170973 0.77434284092881267)
(1.60809008049627633 -0.0170281114834499071 0.797676145971061956)
(1.60925363878842109 -0.0231074788273643618 0.744174741264647555)
(1.63495337011608255 -0.0269912275521278291 0.777200924698477347)
(1.63114791942184678 -0.0430135281131789199 0.781730615362641101)
(1.62214495276356763 -0.0208617065080343549 0.808716682199449144)
(1.6283504757009295 -0.0262344041100798959 0.742720303687863681)
(1.66189391575406287 -0.0286705558144470275 0.770214331293987087)
(1.65206094367007328 -0.0510951816740487022 0.778284314029147217)
(1.64188297742091871 -0.0247810937657610211 0.810027152523122074)
(1.65324687896845401 -0.0276269830146885914 0.73477735525172716)
(1.69114820888704465 -0.0277294552261366962 0.757782198391454553)
(1.67927209028225444 -0.0527190103420636866 0.766194842504959062)
(1.66724310366159512 -0.0271632061488275393 0.801151300524830745)
(1.6816097553749898 -0.0273144197043895705 0.72496759600471028)
(1.72161183303972543 -0.0261260926769961155 0.743480452486221743)
(1.70966694147422338 -0.051827149300510765 0.749262362651267333)
(1.69677328583325759 -0.0282772464940195152 0.786823533946180431)
(1.71151929357415455 -0.0261085893063644249 0.713632868216552141)
(1.75265240025718372 -0.0247643096462793026 0.730257075086141794)
(1.74208612011752861 -0.0509707646818417653 0.732237063958432577)
(1.72913129886784667 -0.0278829607952611816 0.772387073452930339)
(1.74221870555720026 -0.0247187086361237429 0.701486102610295648)
(1.78346565746244679 -0.02373812007022362 0.719344337301042636)
(1.77568514261073984 -0.0506781427416714697 0.717259868882736629)
(1.76223768866118835 -0.0265433875149514026 0.760135937916424309)
(1.77292673701737713 -0.0232415577866993961 0.689592896503019359)
(1.81449226016161735 -0.0224832923263888138 0.710515084673646435)
(1.81032619924100247 -0.0506036529027929158 0.704918954151780519)
(1.79468362392391012 -0.0250042673603968271 0.74979619436517897)
(1.80319064891968739 -0.0223221452159209736 0.679615488242235277)
(1.84459360216018919 -0.0200566924989690892 0.701992164191526546)
(1.84605804128722517 -0.0492620551632132683 0.695809144272682034)
(1.82536509227457744 -0.0223916462568956864 0.740246389164774921)
(1.83324768571001684 -0.0214358670207191078 0.671823633410283061)
(1.86928504488003933 -0.0177985970825613841 0.692112190680117534)
(1.87782612331473664 -0.0443012575487138419 0.686256281802140711)
(1.85262816693729682 -0.0194420828361135736 0.728364906433668247)
(1.86158401767405257 -0.0193135611330708737 0.664453855370103041)
(1.89289337133756419 -0.0172702323008946911 0.681690833521487294)
(1.90513760639570107 -0.0434674832210983283 0.674415014233235799)
(1.87698493900742847 -0.0180146641864477666 0.717182921355220215)
(1.88633259528043884 -0.0175706812374628561 0.653856296983114094)
(1.91793266887587066 -0.0182481289245654855 0.673198111470644123)
(1.93158167705837225 -0.0440660253537627222 0.662553613480948767)
(1.90207538236175022 -0.0186510719560895565 0.707197870134154249)
(1.90952500230061029 -0.0178561879979721588 0.64410511276011706)
(1.94628550168727399 -0.0179497717441659023 0.666348539953342756)
(1.96118896408934096 -0.0471439077632046025 0.6544300203154364)
(1.92868281810752173 -0.0178214432232187588 0.701748153042485834)
(1.93457141656755738 -0.0193209333888919171 0.635813150652657644)
(1.96999709393391242 -0.0158112178805741403 0.657701091241689184)
(1.99287178126829501 -0.0421506759120196181 0.648489222322811587)
(1.95353595868265528 -0.015335720182278658 0.691681366509894313)
(1.96117239507206098 -0.0193709165661112952 0.631091594110746001)
(1.99072512014592196 -0.0149560729851775792 0.646426255010225548)
(2.01810552547826205 -0.0392855149557257075 0.637646587687555111)
(1.97571821194193387 -0.014168846335777913 0.679294544976914105)
(1.98594096102953888 -0.0173951235779794509 0.621451538333026465)
(2.01184134528231295 -0.0151648638892796245 0.635098013122383565)
(2.04102256526980685 -0.040375270836655465 0.624698842695507794)
(1.99691299966857105 -0.0142544174111833566 0.668517068044360951)
(2.00730690705600789 -0.0161736419646495398 0.608882745165906902)
(2.03136402927392856 -0.0136571387438514085 0.624469681579857494)
(2.06371905720843074 -0.0397563796166188685 0.613765256645234625)
(2.01687688600246684 -0.0132243849254333676 0.65869349644174835)
(2.02682424966730679 -0.0162276515376019136 0.598703407695221457)
(2.04114748336056584 -0.00888724472279710763 0.612119531304777698)
(2.08331578913552207 -0.033210690825543121 0.604176471520252001)
(2.03106895312029501 -0.00954549391625881573 0.646086712166975774)
(2.04295922618223891 -0.0141335758754610567 0.589448767925152439)
(2.02537525687628506 0.00719633494656800494 0.594566662820980918)
(2.09301633595677172 -0.0186747018438082821 0.593066666919880636)
(2.0289923393988718 -0.00216367789564438735 0.629907086181580422)
(2.04571759209153203 -0.00819584576771941256 0.576785434675320063)
(1.92683622211301242 0.0518440676294949221 0.564638303824029242)
(2.06787339681668536 0.0257029190434679769 0.57797225997160051)
(1.97795972554754873 0.0255614617858456496 0.605488622932103038)
(2.00581833321825931 0.0157679035502159004 0.558355401876696411)
(1.63210448528118102 0.147209382012923579 0.508505792939205059)
(1.95136408553341134 0.128965140957474605 0.55283662717822557)
(1.80613464163470794 0.0949249796308955784 0.560482683621612465)
(1.85405732781010868 0.076138375459907065 0.523681226555158919)
(0.990539997460505028 0.223156033724837194 0.398620054973250482)
(1.63927947066626478 0.31475274195814601 0.502566425447883325)
(1.40726710096771912 0.218584586223121047 0.471611155208851107)
(1.48656653131488192 0.204822210918803232 0.459552220120719446)
(0.236589523090275672 0.140953908741070083 0.239384419737956461)
(0.963946385124421545 0.390086172076483273 0.390769476170403474)
(0.620941822603125582 0.232415825930004566 0.301082119284142358)
(0.717659927009733245 0.235388885514107721 0.327304122893554539)
(0.0834443911756359291 0.131479090444432428 0.250152398989594016)
(-0.156817202062102756 0.0402874657527791877 0.132162309021884888)
(-0.110269121950020643 0.0503699210559403893 0.158530654081502242)
(0.726774264649553303 -0.405218761582579023 0.543759579234127877)
(0.6171981144828802 -0.433710508604351064 0.416458017396836244)
(0.163239922842952245 -0.163365483300618924 -0.0306315827606453983)
(0.779202294520593197 -0.3086791041297125 0.406939519945311245)
(0.992047768318586765 -0.374339391189021875 0.696952119951634641)
(0.930417975889817117 -0.468027077955743165 0.671800943048666221)
(0.796334484958044153 -0.390123644289545657 0.670380050453097676)
(1.0179096020882501 -0.314689599728665004 0.544582229478545732)
(1.12831466014786574 -0.309937281834761935 0.754076180667344276)
(0.986021952186288186 -0.39121877659477089 0.785853752414570561)
(0.965749182597039124 -0.342105217919341065 0.842729869276234833)
(1.13629827514892057 -0.260898011483337855 0.611492661744408195)
(1.21827009507580764 -0.249700541955395539 0.769306938653166572)
(0.978204660723562824 -0.317500150047457741 0.814072380967246101)
(1.06891059630754071 -0.292032408513210051 0.874612982902050251)
(1.2273397015440024 -0.222954727126731866 0.656666815992456798)
(1.27220142235194511 -0.201502169888262972 0.75118119276860118)
(0.988535544479778316 -0.224358937004519948 0.753496996216128978)
(1.1414557144109907 -0.235374836223271822 0.837109722213842833)
(1.30090929962489454 -0.190638022432680021 0.687509951304399181)
(1.35521782673607527 -0.170248536686900764 0.711389519346042776)
(1.06684287166091596 -0.206273680738052634 0.550893718574767433)
(1.22098894863330076 -0.200119763482716567 0.779357966702831861)
(1.36313340472707445 -0.166752987636390737 0.669469035943967117)
(1.44738372065983034 -0.142567038070359781 0.675371068388659124)
(1.28231432674239709 -0.173661190562631101 0.339151031768624378)
(1.33686383181980628 -0.166913831589587502 0.711713092858283103)
(1.44235294008703896 -0.139991035051972745 0.636207952425519863)
(1.53166377641154838 -0.118520121957796265 0.66144200209501347)
(1.5176616162632548 -0.140014621395677302 0.203057870197870194)
(1.45976892103068434 -0.138436878302669208 0.679341070656977686)
(1.52131468323517893 -0.11463616872328522 0.62279389975083832)
(1.59688247570200903 -0.0981539097689147488 0.665214497953143469)
(1.68170542928046918 -0.113067867876327957 0.170327705700512033)
(1.55712150492526913 -0.116498122542272264 0.675927860985481965)
(1.57860135201757057 -0.0932560184416306032 0.62753327033414763)
(1.63273140781052239 -0.0802783900310434784 0.680408366861209424)
(1.77087173481168381 -0.0813196930269110274 0.199488092669713346)
(1.61928749608620071 -0.0977503901022578892 0.684192501425827326)
(1.61334563961523991 -0.0755207209071799279 0.645755563436496094)
(1.64561937494719102 -0.0655666226554426496 0.70212919373865168)
(1.77822317662122087 -0.0606894019339760601 0.349240610264520579)
(1.64945488212023816 -0.0825100209693682696 0.702787904780391215)
(1.62625836024698756 -0.0609040371666856248 0.667476327578436779)
(1.64817407356625956 -0.0535908618521101429 0.726484017477313393)
(1.75035134455684771 -0.0503760691821049655 0.523520023108939858)
(1.66373261119879134 -0.0694756766748994836 0.726161357562612353)
(1.62668243835654547 -0.0502252075731696931 0.692268161564478013)
(1.64521400988126598 -0.043881123208882683 0.749914205733336781)
(1.72916000877626863 -0.0428847966519712159 0.632421872704641452)
(1.66799853273639465 -0.0582995798631248327 0.748127254075948156)
(1.62347751070777835 -0.0474753694288004915 0.718976430541199196)
(1.63390350206760959 -0.0419955762540319688 0.768134540923013587)
(1.71315291152289673 -0.0350638846263720133 0.689799587908577871)
(1.66204804289961339 -0.0480595809440530763 0.767787640080513367)
(1.62089093058508027 -0.0485176029416269569 0.741654243582180128)
(1.63421123507422994 -0.0524199983279446322 0.779912576910764876)
(1.70276568309212739 -0.0537133199108931897 0.714869465171751539)
(1.65330161356151506 -0.0464230567660529059 0.790684152864008172)
(1.62311155280822672 -0.0551630405264586579 0.749386804104940296)
(1.64733659706192137 -0.0672409727442408733 0.782814004693311083)
(1.70758726085369927 -0.0816226082916496204 0.723964465597080942)
(1.6519979724331324 -0.0521392480497684316 0.812120411487722738)
(1.63521261800538409 -0.0655104608840674368 0.748027661394593979)
(1.67094415157900578 -0.0758010695025693321 0.774264825240119081)
(1.72792678157043911 -0.101321195608615994 0.715629772654095442)
(1.66126595312600167 -0.0631052510686200274 0.816012661480576162)
(1.65629849675468765 -0.0731600200737810014 0.739168241857316888)
(1.69824061104082902 -0.0773305232500854089 0.757675006764771841)
(1.7598020554571967 -0.10439700744390136 0.694465561661979702)
(1.68139040333497669 -0.0719275095419646265 0.803871567526161623)
(1.68396920041600562 -0.0767755964946739283 0.727812054195702718)
(1.73036502431580752 -0.0769819600606339166 0.738018974123478277)
(1.79807581515969672 -0.104163887616140843 0.66350819342211298)
(1.70964674087744339 -0.0777894845914434419 0.784335951002073428)
(1.71641291490735215 -0.0780356987113204892 0.711786868731872913)
(1.76538854398068201 -0.0770693289685417948 0.719239857755027301)
(1.84142715655197442 -0.103454467935347044 0.630089947929980854)
(1.7442451355530828 -0.0796350331406946027 0.763671736875718987)
(1.75253802358240129 -0.0789236717677682942 0.693727821476967099)
(1.80223583890808881 -0.0781601513950212767 0.702834485733474401)
(1.88848567094739161 -0.103933460459983348 0.598529429275986624)
(1.78229121529487977 -0.0794298298707607486 0.745164234547311177)
(1.79019358066693379 -0.0788062951083293023 0.675500891921432478)
(1.84216758501805966 -0.0789730341682761683 0.690213013750816007)
(1.93934397727291108 -0.105395422503837682 0.566358975970625345)
(1.8219699887535723 -0.0793118608131093417 0.729972458358374654)
(1.82799437944258614 -0.0796292150223135986 0.660320702590773467)
(1.88197893574417718 -0.0762985627177557718 0.680073261883296087)
(1.99443302497798336 -0.103833383742910304 0.537673241246089839)
(1.86092339556783415 -0.0766588996036198789 0.719049033681489536)
(1.8671402799973551 -0.0806470961707888429 0.649717786071311809)
(1.91183277810581775 -0.0730898668246059563 0.668559105355258865)
(2.0385857870358679 -0.0908128898242642618 0.517586115115585832)
(1.89480354863160416 -0.0723666936199998667 0.704614666288989389)
(1.90358825736828718 -0.0772932162365459613 0.641445284992778419)
(1.94357382654541877 -0.0725827047957185029 0.655277794192697161)
(2.07171085543813005 -0.0917159827271710471 0.504424794746352489)
(1.92447607662395992 -0.071000654164061372 0.692866188685032913)
(1.93451486778794624 -0.0737321759529168813 0.628110225214408402)
(1.97165250498326139 -0.0752374697375318285 0.643785522325740933)
(2.09903793765128777 -0.0875668062151444548 0.477803708800712212)
(1.95491294463728815 -0.0735669708221313168 0.677356932224105979)
(1.9635834252734381 -0.0738063142842971809 0.618433992924402931)
(2.0126455889020578 -0.0759164071840463528 0.636570702684905121)
(2.13005814027573503 -0.102711271331588194 0.446894940082520842)
(1.98871237919549304 -0.074104675146802898 0.675243294788420489)
(1.99465748859882286 -0.0766461059587686122 0.605101610420001657)
(2.04103118532642958 -0.0719484554491309491 0.628434718768677625)
(2.1724581178477913 -0.0844575751808090414 0.438932695548950536)
(2.02072739203792251 -0.0703694735278840439 0.661868280990824842)
(2.02959602003819528 -0.0775968433762743715 0.605640070692278654)
(2.06611030772232329 -0.0696326467002312405 0.615919175372837358)
(2.18810158947025268 -0.0781717925721785722 0.418790522146671784)
(2.04709112265087212 -0.0681445950031897701 0.647098595009872879)
(2.06184840720058071 -0.0735293747135532388 0.594405144014114484)
(2.09369784707091489 -0.0689759400242763304 0.603366086218358744)
(2.20301457642804488 -0.0817009835167554904 0.413550218361679933)
(2.0723965364003174 -0.0678599802785149336 0.635655580753658356)
(2.0875617000959128 -0.0703130724937824775 0.580591646695454155)
(2.11699413802674163 -0.0666043936476249931 0.593472046585629132)
(2.20418009049002084 -0.0775297167167973283 0.380974432384966089)
(2.09768685045078485 -0.0661413454799034961 0.623952080966883482)
(2.11185667402057664 -0.0692793754015908481 0.571701635695473165)
(2.14066971863870847 -0.0588379769550386039 0.585123607135354717)
(2.20410500962922207 -0.072078075357229987 0.354891572470701577)
(2.12024652531079116 -0.0608920971973062677 0.61536989084499738)
(2.13459525092340074 -0.0660875021969074689 0.56131062318547853)
(2.15227644042432287 -0.0353867350874240011 0.576472264070499896)
(2.19550826725880199 -0.0487257985610031752 0.327550813924591844)
(2.13662975948840694 -0.0488779709030304557 0.603306549998682051)
(2.15298869347496336 -0.0558088371388216972 0.55481100178785292)
(2.12503545540683447 0.0300540387588187144 0.566170583325797394)
(2.1545980526045394 0.0147023758864242276 0.334507637064479835)
(2.13013103453632002 -0.0109561294525934785 0.593814983582241052)
(2.15342651840717503 -0.0224429934087108478 0.544572928167587622)
(1.94578416264428911 0.205003329992576616 0.546897259686904391)
(2.03989258981650767 0.196758149895181145 0.427174983108701056)
(2.04870097672493579 0.0929174686787246629 0.579550916193234622)
(2.08238519520602372 0.0694073441974186883 0.535885803752664591)
(1.48169648944767318 0.438653633251867681 0.494715846645036039)
(1.78047698821047518 0.530875762975216325 0.491049142368075842)
(1.79258762752037626 0.357135945153988776 0.545418085245863105)
(1.84579445733632475 0.315193212157285574 0.513576510982590051)
(0.732942115145695627 0.43803976121597249 0.401537455422038891)
(1.27830096081331468 0.761260312293146835 0.455110120833159715)
(1.19303674060788056 0.552465405523316466 0.451183389113748057)
(1.29460960178445528 0.537006308470312499 0.444776785589841739)
(0.371654054071285544 0.49895099616857036 0.368178870196088748)
(0.261359462242250651 0.320761674305268141 0.336080932706514179)
(0.331254696482021882 0.336723769085831404 0.338081558697307771)
(0.798800711793902107 -0.49292901920896226 0.544499381211372202)
(0.645505376171004563 -0.467797206683824074 0.3842716733930156)
(0.225712300011276901 -0.118677489969389899 -0.314251714481362243)
(0.828681691829466827 -0.403750005048002791 0.416375652204050484)
(0.913187249588101824 -0.496002198951215001 0.760702575511601919)
(0.875241848069517103 -0.552518886427453282 0.711052999419315768)
(0.779945009486669782 -0.516409199053053269 0.661057389544724927)
(1.01013520360922215 -0.457711153667669679 0.606460330020565541)
(0.834702104782755305 -0.419605194771415557 0.845849952714472275)
(0.609528962795172102 -0.446134629430838203 0.878962643236369856)
(0.632304923196491453 -0.414944184425628915 0.91155199808467724)
(1.01252903957386509 -0.404192635423111735 0.723235148571604203)
(0.751298757990304211 -0.305261495865769283 0.798262438530208618)
(0.237867259144668053 -0.336217392727281295 0.738895404284026558)
(0.483056495575971134 -0.327317300690083191 0.89068915796415471)
(0.953577587809121607 -0.339866592904350062 0.769851311684538131)
(0.752842661746034425 -0.19470584164982141 0.553209522022295341)
(0.407911161191957472 -0.169351254422329817 0.320671446545351457)
(0.45258293621625878 -0.210190969643670428 0.598963805423954443)
(0.903364997578164908 -0.255703418469202026 0.710523029721308652)
(1.025842259885966 -0.128150099239649484 0.178655230997351339)
(0.902874621908879127 -0.199618456477938189 -0.0475228104069755353)
(0.732769479014431235 -0.172420364220454564 0.129759986330606564)
(0.994079272341613418 -0.190273746181694015 0.416069938776456427)
(1.37887652943517591 -0.0849895810118436457 -0.133162166422165218)
(1.37820689176641875 -0.192370339965581338 -0.273380387420901427)
(1.23544130430858656 -0.144554544552296438 -0.182315765508375555)
(1.26805792420214081 -0.125503156469003646 0.133300065712027377)
(1.66555032848125761 -0.0474857841003116093 -0.288056426196631299)
(1.74370761545558839 -0.125677161001743087 -0.405657452476940461)
(1.66534729282205451 -0.105852641843919168 -0.330325223764461551)
(1.5429252103615021 -0.0737483356562122494 -0.014976678997237293)
(1.84690820690407342 -0.00629430569893676701 -0.295398699582918534)
(1.95820868083905886 -0.0348789002404520654 -0.438332830845168608)
(1.92851525044492056 -0.0587412869877378535 -0.355840101508547002)
(1.72369443851021109 -0.0386689211456183526 -0.0181044768282007593)
(1.90727128184442041 0.0190013252113170432 -0.131679663926976609)
(2.06941874977074391 0.0736089384672310998 -0.42404555921860082)
(2.04156813898867862 -0.0129125774584050411 -0.317495152038538619)
(1.81225370574886524 -0.0175345798479528206 0.0527250092039968921)
(1.87727790543391793 0.00579706928997803655 0.170631439634809479)
(2.09533853389514135 0.147233376094784874 -0.273154574409519679)
(2.05391594808059219 0.0116516224990253821 -0.15196478327163826)
(1.81824229723356634 -0.0210579043070235339 0.233887256097898594)
(1.83257756548129258 -0.0237609901638936166 0.429457878336268695)
(2.06050048020348031 0.164105530356369406 -0.0643093479818112601)
(2.0204776461304581 0.0122862039338133486 0.0489116442074974817)
(1.78544305053120778 -0.044921160225359226 0.433174397290699731)
(1.80750138698670426 -0.0456583448534185268 0.572307254879882765)
(2.03104970224926396 0.131131581820346399 0.0973686161825678131)
(1.95503885687562806 0.00177439389099648078 0.239916688635552461)
(1.7627063439640871 -0.0657970872802627477 0.562873184188754205)
(1.77593997283610761 -0.0668171006289730723 0.636534512157315824)
(2.01662832712177931 0.0683088470031472939 0.183464872350608099)
(1.86944883201455103 -0.023638921801905792 0.459016113779164736)
(1.74947947931989578 -0.0811448665525806856 0.634200112505831415)
(1.77229693125444476 -0.0931223456433492996 0.658921353858067493)
(2.00710199862136784 -0.0288362243672195193 0.203752157921770288)
(1.81920976039292759 -0.0539657750864741131 0.608194679544532768)
(1.74553197535623084 -0.0992285123057158047 0.654305822984650121)
(1.7870453045543544 -0.117086448703712973 0.656780233557865412)
(2.00728084748927271 -0.102736546931078324 0.188874085415892068)
(1.80257841430945209 -0.0797919604735054938 0.677966727578480977)
(1.75840784062206312 -0.119058043297152069 0.650487251885719098)
(1.81921203767787709 -0.130068143207136583 0.635830509075955841)
(2.0227635231304828 -0.140723275354040722 0.15385506467285659)
(1.81035180898558079 -0.105277519168395978 0.678083368630734706)
(1.78711557130688403 -0.132820221950649298 0.631445981051294569)
(1.85962742439700479 -0.132997737064242283 0.600298748319320619)
(2.05840456939038097 -0.141515485287751569 0.101686780640696084)
(1.83853729901310636 -0.122589010526983316 0.639652127442700835)
(1.82877861734276381 -0.13973222629888285 0.605830580441930167)
(1.90944336681335414 -0.132680342311131211 0.555579167228615889)
(2.1113169402956995 -0.138315815938950343 0.0316335097300537438)
(1.88338838405745457 -0.133392538138178279 0.585544956832808827)
(1.87830999445143676 -0.141880709076322026 0.56705704094827003)
(1.96496444267439641 -0.132020713607581774 0.509379519450939955)
(2.17436466734478273 -0.137397967381998776 -0.0440781765564352002)
(1.9427931481312517 -0.136670852317982289 0.534048228608920095)
(1.93426165041494369 -0.1409576204288428 0.52168230131990867)
(2.02486897688288847 -0.132211192306548292 0.462053919513137512)
(2.24799710706874389 -0.137032620510288472 -0.107502883015422546)
(2.00906398206400061 -0.13554162450186627 0.481713682814174704)
(1.99308399549327997 -0.13741861936944183 0.475419909858738776)
(2.09220909520501985 -0.132416926021275833 0.413819203465899677)
(2.31385374927183118 -0.139256362010408419 -0.158102611077775013)
(2.07945043296167675 -0.134266414101585962 0.431544934341710651)
(2.0533313386764922 -0.135214311979025087 0.431163209741200149)
(2.1573356718683776 -0.12442928782877577 0.375186094478379806)
(2.34220292298014199 -0.140644905354138927 -0.189814449685873021)
(2.14363339293545963 -0.125545478648980469 0.397749119276582686)
(2.11727050639629422 -0.133921338950798552 0.38925270481326868)
(2.19306682785535445 -0.115536674172217288 0.353451804506679346)
(2.35242797768865763 -0.113407319050599129 -0.187046183611868755)
(2.18923433873892126 -0.114483443608889859 0.369081634618156462)
(2.17395916592064253 -0.123630304693647219 0.359623959634019275)
(2.22945699722396462 -0.110441998171685624 0.326950709354367319)
(2.34849418976459834 -0.114382744199857916 -0.160088743015825985)
(2.21950868238368626 -0.10759116458492396 0.349655722596079022)
(2.21334125592545528 -0.114632179769118478 0.34071233735406059)
(2.24536704174645196 -0.114443049692366627 0.280913126557492343)
(2.33702992762947037 -0.0783267282496643708 -0.146022729451385058)
(2.24614812516269868 -0.111998943068065862 0.292902310292560475)
(2.24254609997846632 -0.111783399833655345 0.327292451578394872)
(2.30908814121326866 -0.112655420461672928 0.24925693294656609)
(2.3123292818134864 -0.138682257494621874 -0.148760011586077379)
(2.28481186522191493 -0.109673037488009883 0.284147169203841587)
(2.27022923417780076 -0.116300913088788496 0.275926263185776455)
(2.3149559980685348 -0.0969264968932107979 0.229288498926944556)
(2.29085947265353385 -0.074993011038067145 -0.139926428535468994)
(2.31404845769731748 -0.0947395710652019774 0.244191592039241318)
(2.30904222402401915 -0.114753957916097549 0.268988536726352034)
(2.31845221415360925 -0.0926645346141819898 0.216421565135513944)
(2.24853121853368076 -0.0802333316492973153 -0.143357343250164027)
(2.31945754167461704 -0.0899498125165277829 0.225735642594801333)
(2.33308160269298659 -0.100170424438874722 0.225108627705287612)
(2.31682630944393475 -0.0910229374225566962 0.191158564528286307)
(2.19214361263618152 -0.0805075839433965906 -0.145597394678475878)
(2.31648622626339051 -0.088720953168295813 0.206451625510889358)
(2.33503440129386064 -0.0946337461177465672 0.207212285071768532)
(2.28404598683026849 -0.0859159853567539183 0.142393958270039062)
(2.10992348031500709 -0.0390137898904004687 -0.193093095116187441)
(2.29518136067115108 -0.0836361146624969021 0.145173389961646304)
(2.32076756019243957 -0.0938278302862434604 0.189424704660593746)
(2.27987937412327613 -0.0700886259510406368 0.0973187792599380652)
(2.00371443686661044 -0.0622552774385394109 -0.269704387538297508)
(2.2599825033803298 -0.0716480973208166588 0.114585506154598601)
(2.29760588646080421 -0.0882290709459360167 0.130064334340127152)
(2.21672364731322746 -0.0230569357062082488 0.0855861869185714635)
(1.92045430968285435 0.0147241330602893121 -0.405395322926626944)
(2.21245340393195411 -0.0442138107794151983 0.0424978015369749176)
(2.26981370734070831 -0.0688382727275484579 0.106241811380213352)
(2.14192451755854973 0.109705248179217577 0.195512036847383192)
(1.8094672251898285 0.0749894220198036726 -0.514079240493070633)
(2.10225786013013494 0.0304617503386852354 0.0538240164499869875)
(2.20427340748395162 -0.00735739239419620859 0.0995989974506814035)
(1.8776636940952629 0.393963042500937333 0.371326865789871952)
(1.7166991315727993 0.311780698112634536 -0.159717866148247845)
(1.94145823088713665 0.245412659951501355 0.311017408111394944)
(2.05200407070183521 0.187248522559155112 0.27680193769624023)
(1.43369874093688998 0.734343960668970785 0.451443416556200738)
(1.51180729326239849 0.736218475362338975 0.301081626891648968)