/*--------------------------------*- C++ -*----------------------------------*\
| =========                 |                                                 |
| \\      /  F ield         | OpenFOAM: The Open Source CFD Toolbox           |
|  \\    /   O peration     | Version:  2206                                  |
|   \\  /    A nd           | Website:  www.openfoam.com                      |
|    \\/     M anipulation  |                                                 |
\*---------------------------------------------------------------------------*/
FoamFile
{
    version     2.0;
    format      ascii;
    arch        "LSB;label=32;scalar=64";
    class       volScalarField;
    location    "0.239999999999999991";
    object      alpha.water;
}
// * * * * * * * * * * * * * * * * * * * * * * * * * * * * * * * * * * * * * //

dimensions      [0 0 0 0 0 0 0];

internalField   nonuniform List<scalar> 
7236
(
0.0923950231466702243
0.0939980194609891795
0.0195917839044584888
0.0538011232823211449
0.0966567877709223061
0.107507232565504901
0.111766668289225365
0.110433376037927938
0.192735163018532274
0.176662865503158073
0.227746209791665405
0.257737945956043268
0.263609016422823306
0.252091570932133413
0.23344533138296808
0.201620687278587285
0.171409288049985148
0.146412097729637758
0.139051876910081723
0.125046426906247843
0.105498163076136714
0.0803598234802354178
0.0634384647897241333
0.0542036078695405793
0.0425688429910946187
0.0327749969881580283
0.0255625134948058511
0.0172749263960193938
0.0149039427570713222
0.0119383181763319003
0.00666968251582773265
0.00561118834964762902
0.00512649433310000645
0.00257401931715342015
0.00161048350445011342
0.00104869913606952733
0.000576267608211025262
0.000348106343762839636
0.00248696826002007057
8.9358081387685837e-05
6.40188685055245065e-05
0.00348052475929514025
0.00624684926947143351
0.00730499774758288159
0.00787611913337187865
0.00746778128741247289
0.00696102131337013146
0.00609199234862759995
0.00502993154766601114
0.00422026763720207126
0.00374676330202222121
0.00335164131333010734
0.0030192209800455911
0.00274265008970905584
0.00248377648328313577
0.00221943251287393421
0.00191828344022949306
0.00172022064858322029
0.00163575417473041168
0.00143876702300038315
0.00127231857631528796
0.00154334561385762836
0.00200758809808251979
0.00293073476906422544
0.00310633637562187075
0.00314541082516713163
0.00331674074513700016
0.0031429874624779525
0.00297624822387875139
0.00253666391055535137
0.00234170874768772864
0.00225960713455429854
0.00151972813446078292
0.00119205459380668493
0.00099620326049764665
0.000485741934034373754
2.69840578607335057e-05
-3.69798928343646475e-05
-3.53160820146213706e-05
0.00156137235377373416
0.000894196008551201727
0.000725913654219453581
0.00109097773486997078
0.00131869216158352325
0.00132760848301814662
0.00121539990037844328
0.00105931394580050615
0.000963550848803543161
0.000986773738195509528
0.00101725118500770669
0.000979157512107004186
0.000895756103448604982
0.000785154340668654241
0.000672042982780891472
0.000580492957404297062
0.00049459220421356313
0.000460702152722251412
0.000437510854651102063
0.000400946633464454888
0.000337803013570996721
0.000312053959001755898
0.000284221370597088148
0.000299356134951081097
0.000306607266378103739
0.000345080972126051962
0.000388042396743914478
0.000562923382659092351
0.000626611697823958782
0.000423307733118670905
0.000326235623621094404
0.000372317145673954283
0.000458230590496158815
0.000613143804371295937
0.000424101671334879585
1.67910696893398746e-06
-1.43831250599106298e-05
-0.000127422783891090467
-8.48976220682984573e-06
2.1945188278525902e-05
9.44328294338198646e-05
0.000190523278498263247
0.000226307817451144508
0.000248627890206477452
0.000275805855404353043
0.00030679056868606621
0.000325609087564783799
0.000325143742851853612
0.000330047922164983622
0.000324927967931445906
0.00030764529149709713
0.000269592681232538075
0.000226779853676045928
0.000191993674561047946
0.000187265293908922201
0.000177775429347540998
0.000174776444450817453
0.000179808491542765824
0.000182687809448915022
0.00018415519598888807
0.000182173105531856303
0.000157473092967696626
0.000135580988941290512
0.000145042286929205559
0.000146801870885199682
0.000132381920062964501
9.7842784182421597e-05
9.69097620694088827e-05
0.000116062302953435018
0.000147383603916539235
0.00020067098342143195
0.000235387678647731749
0.000238390210180918378
2.85640873752001197e-07
9.55022514615886019e-07
2.03357070402252677e-06
5.45674860697830709e-06
7.86282355754684037e-06
1.70079721367242506e-05
2.507242778621869e-05
4.14276656878158871e-05
5.52225032241747811e-05
6.81713740335928843e-05
7.87866266615160012e-05
8.79730327708725968e-05
9.41512939999220098e-05
9.40096986139992249e-05
9.19644706816147799e-05
8.73122500642106784e-05
8.18295311922235678e-05
7.28537907683037044e-05
7.47970568144663215e-05
9.91656981569565259e-05
0.000108680492759515886
9.22142794676545659e-05
7.70560792887747532e-05
6.9443447323746301e-05
6.84528395430858633e-05
6.64491969221127989e-05
5.69588029180257056e-05
5.04580914096210736e-05
4.66168146950186435e-05
4.82939493861814527e-05
4.94419134860966779e-05
4.80866334391191237e-05
5.31847597554869144e-05
5.82645895950770351e-05
7.86131687620849826e-05
0.000119906853542898836
0.000157457907800932469
0.000139053705282009916
-5.82610847469669448e-08
3.97137826380562926e-07
1.69488465318204367e-06
5.23407187599620068e-06
9.71499871914577549e-06
1.22536002693770744e-05
7.6999510035345212e-06
1.12457489860488579e-05
1.51149848544246155e-05
1.93874219281100677e-05
2.27689014704933758e-05
2.55652570243247768e-05
2.71821100500074759e-05
2.7105184831446747e-05
2.63425478513925234e-05
2.64834397415109663e-05
3.5478167975190196e-05
3.16482959629902394e-05
2.87704506866543212e-05
2.87514771374349255e-05
3.01463345609813687e-05
2.78709950083334431e-05
2.47949315229635764e-05
2.16356442463354164e-05
2.09704077404287525e-05
2.05213825652042085e-05
2.06023550637113938e-05
2.14601905563242679e-05
2.00004459949610128e-05
2.14278444950629127e-05
2.281386104899068e-05
2.40972755422691533e-05
2.69453046711800969e-05
3.06689801169692997e-05
4.42924232575691117e-05
7.34486591542396461e-05
0.000104542320692196027
0.000106572712408127182
4.26122455806345142e-08
1.90101067745077306e-07
1.86688278253591084e-06
6.40798011999384735e-06
7.84189990368551351e-06
4.90847643721610909e-06
3.02816034752809997e-06
4.05700027300730048e-06
4.92616979130964703e-06
6.02023764558914069e-06
6.87920720507416357e-06
7.42081124186024642e-06
7.6669835840183698e-06
9.56413146665176903e-06
1.05309782119433282e-05
1.05052816340069703e-05
1.01022754418944913e-05
9.81625906692937291e-06
9.78375217488560659e-06
9.4510817931376212e-06
9.55816620900855075e-06
9.42152026847641258e-06
9.05611062544469346e-06
8.59898544694304254e-06
8.67633717489951999e-06
8.93076723682443438e-06
9.56335808209576383e-06
9.74549791509569045e-06
9.19799718268777552e-06
9.75813276061973848e-06
1.02886750601870935e-05
1.18475877254374452e-05
1.35139330859912894e-05
1.6665864743067155e-05
2.59872339748453852e-05
4.39153715091032207e-05
6.90279714640664593e-05
7.9418924956111599e-05
4.27411012766039768e-08
1.82850810497892133e-07
9.71800816832599455e-07
4.57364383341831464e-06
5.88711697237093275e-06
1.51803520310168972e-06
1.54646922836742585e-06
1.90242032320161027e-06
2.27916098590621679e-06
2.64293447422235466e-06
2.84369929302339024e-06
3.02818687142328226e-06
3.11408292010651339e-06
3.32339523157681671e-06
3.54847891484981624e-06
3.5806048695871707e-06
3.50794701791891438e-06
3.5263696126996146e-06
3.5066473790968248e-06
3.59839346168438063e-06
3.9836784191580422e-06
4.22688510310891488e-06
4.10549638568622356e-06
3.90751749383198636e-06
3.94914935588925628e-06
4.14405496629947799e-06
4.37986015474111854e-06
4.41189379946130866e-06
4.19428547028575317e-06
4.32923904724099344e-06
4.82891953241232268e-06
5.77766352860155816e-06
6.69904936955533808e-06
9.2552787046352103e-06
1.55614713897820828e-05
2.57214885602235508e-05
4.38914033634513204e-05
5.70823967434896576e-05
3.18190398654408768e-08
1.66604995106044882e-07
1.21476896012959716e-06
4.73113217238762062e-06
4.46217972091349575e-06
8.22056782685578055e-07
8.42634289430570845e-07
1.18584898714247674e-06
1.22540135980824912e-06
1.2098473141660796e-06
1.20483360759534211e-06
1.1988437503818136e-06
1.20160459160715522e-06
1.22702550708692501e-06
1.27070541045849841e-06
1.32302459325654345e-06
1.37476298598106981e-06
1.369331741353934e-06
1.37143261331449671e-06
1.59380509994788033e-06
1.77459270884050035e-06
1.81189070001627288e-06
1.75533818692808508e-06
1.70948501236667479e-06
1.80965403770250206e-06
1.91596040145178343e-06
1.97153054989949251e-06
1.96638661747798194e-06
1.87635589478684049e-06
2.01766703433051207e-06
2.32223615798104177e-06
2.80107796989393166e-06
3.42717850639468659e-06
5.18842673049429066e-06
9.00601605441571768e-06
1.52773102946750384e-05
2.77252954085071345e-05
3.93922676832729051e-05
5.55337650433255705e-08
5.85940064078493125e-08
2.27678829316953549e-06
4.66434693864477776e-06
3.12283753869318677e-06
4.83584885905153627e-07
6.00850507966835775e-07
6.93160505669590741e-07
6.53289289081371872e-07
5.91034235366111703e-07
5.40053149175178917e-07
5.12103909930337822e-07
4.98663219071143962e-07
4.97592913352856379e-07
5.0914429249917618e-07
5.18048262747736445e-07
5.28631885895041344e-07
5.37192642422019247e-07
5.8629825908147508e-07
6.93906542840258114e-07
7.53451211137605809e-07
7.57598066545514662e-07
5.01181272717760103e-08
1.63668688493715058e-07
2.01851722026721436e-06
2.97355063534500369e-06
1.70753023932598514e-06
3.24654395997162225e-07
4.24072592419446259e-07
4.3515194372399933e-07
3.70284649806069779e-07
3.15351854387544814e-07
2.73979508862192121e-07
2.47081122696373003e-07
2.30632263941829696e-07
2.23143096466256491e-07
2.218291079311752e-07
2.19647230700964281e-07
2.16838555268377705e-07
2.19838127888619853e-07
2.53913949957926507e-07
2.9507984080001994e-07
3.19507172062163581e-07
3.23784687871961511e-07
4.56953322089919726e-08
2.67876775594612406e-07
1.75148227268328893e-06
2.4152708182036371e-06
1.24196565220053934e-06
3.07528316760053497e-07
3.24917529929675156e-07
2.97030131094605539e-07
2.3252210516446167e-07
1.86917594990483684e-07
1.54452117065378039e-07
1.32608564602761801e-07
1.18884678328171923e-07
1.09877889003157428e-07
1.03992835859687044e-07
9.92058463154742107e-08
9.5873038780937967e-08
9.56625226553130094e-08
1.09035389512167714e-07
1.2563706722886905e-07
1.36363165211932862e-07
1.37914191912627686e-07
4.54162518913883355e-08
8.22257387501998367e-07
1.00499747245229108e-06
1.47408611012840618e-06
1.23716055070472086e-06
3.95163573664892108e-07
2.72345994097427001e-07
2.060667315081687e-07
1.54428531588725994e-07
1.22575537449659576e-07
9.64660442002736471e-08
7.80937029038459372e-08
6.66411495719990386e-08
5.84886177610743849e-08
5.23662127182262834e-08
4.74865457807698088e-08
4.42421376265899169e-08
4.31149393894179345e-08
4.58540274181942085e-08
5.35873945807815226e-08
5.75638380581465551e-08
5.74898292849790031e-08
8.81426687775182079e-08
6.70976172260984749e-08
5.09174465054433748e-08
3.99159733905275376e-08
3.32081101232854376e-08
2.78753470491781551e-08
2.38768634154085968e-08
2.11944684829797297e-08
1.97872824433110589e-08
1.96297222244896302e-08
3.56518323935275037e-08
2.59602142910819567e-08
1.94183624627349281e-08
1.5389467727745469e-08
1.24836997158057073e-08
1.05085006543751755e-08
9.4192449275978225e-09
9.17227764289797384e-09
1.19043012058655099e-08
7.55938369631368774e-09
5.75900729373274482e-09
5.04262497342970022e-09
-9.73049420135769545e-05
-0.00017460956678647143
-0.000248946341806101433
0.00306392181353266294
0.00624611766360486532
0.00878490173304838536
0.00929989660122037404
0.00860486623104324277
0.00767170438926599932
0.00560873691534825598
0.0076476152929869359
0.0137792207314915271
0.0307051609740193222
0.0712106269998777908
0.09724731677779197
0.102246727986019123
0.0967576885202768439
0.0837849439045838251
0.0791243304726676061
0.0703789722680257523
0.0625248533116700561
0.0576314100040892577
0.0527156968617473257
0.0419088106674034774
0.0329076712379477859
0.0290715578781921974
0.0224924451007067067
0.0151669586164196943
0.0122382121753873887
0.0105644093437447656
0.00700939546099016604
0.00447879827025042445
0.00400648521932468575
0.00290640176461871326
0.00113110791931501052
0.000694106254258771262
0.000334240110399880669
0.000178644318715005335
2.40547550630876398e-05
5.32262209985233094e-05
9.89380720151721395e-05
4.43660260309819508e-05
0.00137813432206854896
0.00205618342738121945
0.00220524796738951921
0.0022962054706789194
0.002535720037727748
0.00282284079452924889
0.00189831738262798816
0.00179097186845802417
0.00152396658132844011
0.00137363297318042975
0.00127242110119808499
0.00119065066991929204
0.00110449154659917064
0.00101143021507491037
0.000918003053565568674
0.000829691223591870518
0.000741121085818358572
0.000650820666114012344
0.000560225847762094381
0.000502007275575289754
0.000465144352265483023
0.000585479259811830222
0.000856332551591668621
0.00137267970782159552
0.00165131306446758509
0.00163785335070776653
0.00164332851188271492
0.00179682831268475687
0.00159939003554376933
0.00131334340115607344
0.000900372055601891342
0.000826155818783323335
0.000607734318754766037
0.000171869869686035973
2.64070927044488578e-06
2.0155129651058638e-06
3.03808140695232155e-06
-7.19508532061355176e-06
4.03117454854097729e-05
0.000142270249062394628
0.000222904721957627557
0.000319309102207783945
0.000375276086981445609
0.000402853285238689222
0.000504554233284616391
0.000419471939486509621
0.00034538016980989049
0.000353415853683692574
0.000346910442260678624
0.000329919287263450464
0.000297592022498939241
0.000255856076067818166
0.000221032970421109132
0.000210350198741002053
0.000212431463932681998
0.00020178207205321142
0.000170901118855513019
0.000164385176414977237
0.000193818066166595294
0.000233442858777813231
0.000218119586205452632
0.000193359388900464041
0.000198615928173150177
0.000249777046872472718
0.000302965511316274894
0.000232461992369483025
0.0001577882361799524
0.000183859357900325888
0.000216986824226200081
0.000346607556206218206
0.000417585186095954341
0.00021257317798365578
4.44966371177463472e-07
8.72519883700524444e-07
2.26049104025103971e-06
4.43267518935064922e-06
6.96149808831326753e-06
2.46224360364077953e-05
5.88084455442044663e-05
4.64343530990532071e-05
6.12484238401997876e-05
7.72122359362942295e-05
8.70883566715594242e-05
9.57725443973076601e-05
9.73926171043681672e-05
9.7419073781044327e-05
9.50803132923799447e-05
8.89914538306430712e-05
8.22301709376541991e-05
7.24272255460939302e-05
6.52270860537098164e-05
8.25078831086507153e-05
0.000115568540522624627
0.000125897607930127738
0.00011221390611898676
0.000105398079553284678
0.000102348236841668243
9.21450578388145682e-05
7.82803059319138651e-05
7.00675924398618357e-05
7.27117099115823077e-05
7.11135981414545064e-05
6.37535038631204952e-05
6.11068050469432193e-05
6.84890968686743514e-05
8.25484210872964299e-05
0.00010574661450404208
0.000133727981604474017
0.000126782317079574707
0.000104778974743315921
1.17009719979838237e-07
3.1161806889266379e-07
2.24200383942499745e-06
6.61209591170876145e-06
1.03065617056310091e-05
1.17609900422512408e-05
1.22054938010609399e-05
1.57845835412832503e-05
1.91328548271365857e-05
2.43459896505406127e-05
2.87894899114258515e-05
3.17193018200803004e-05
3.35458800084736215e-05
3.44166261933379904e-05
3.38129751647596257e-05
3.39965578700509335e-05
3.48982041590399988e-05
3.16252165136401495e-05
2.96725118889609301e-05
3.31020956314799443e-05
3.5573540352542455e-05
3.28043958149566703e-05
2.7869579609140211e-05
2.70847203719690298e-05
2.60593746394031546e-05
2.46560395685576343e-05
2.40428021040819805e-05
2.31835735393767493e-05
2.60142957101901657e-05
2.86924059664999008e-05
2.95193637818537444e-05
3.08662774696936098e-05
3.15376771670992226e-05
3.93221291185874317e-05
5.40491021344932155e-05
7.53132642664950958e-05
8.30560981053222861e-05
7.81252649300285054e-05
3.33033614933920097e-08
7.73772866111852891e-08
1.30542573947104742e-06
2.91169127265462444e-06
4.03093030231903987e-06
5.35173202595759908e-06
5.31081603076166045e-06
4.7264417232265627e-06
5.10554671212016487e-06
6.2803802222519674e-06
7.24760058877472162e-06
7.84414602436578787e-06
8.23992621864213452e-06
8.87274509533853576e-06
9.17502340393958116e-06
9.03644945846794763e-06
9.00378758727515871e-06
8.76967123667187874e-06
8.64448660079988845e-06
9.03333692053735735e-06
8.66261219862818956e-06
8.22078159749943538e-06
7.94168545353474649e-06
8.38491492433163574e-06
9.41645353444177742e-06
1.01462707366307468e-05
1.04832773153965182e-05
9.92247614455809322e-06
1.10717186825404452e-05
1.25082093567642545e-05
1.34080064401631147e-05
1.45985681367956874e-05
1.50705717313850792e-05
1.95937696514414495e-05
2.89938598780128875e-05
4.29704784360273784e-05
5.41187893173246485e-05
5.78442114247741153e-05
1.14517286051344524e-08
3.82478975144258097e-08
6.17017797029896085e-07
1.5254891063863111e-06
2.04816481830547333e-06
2.69154007924947894e-06
2.5064246707670927e-06
1.73474151966688941e-06
1.67551025849021315e-06
2.00183112565822145e-06
2.14747522492454419e-06
2.24075981184003329e-06
2.47329798585121676e-06
2.71615603152445929e-06
2.90701876683975266e-06
2.98562116098012252e-06
2.95931566897270708e-06
2.89701172146840585e-06
3.04135018051915531e-06
3.47493666504393802e-06
3.63706966934428952e-06
3.60886490310833735e-06
3.49412033373088874e-06
3.66883456413941564e-06
4.03928999613048897e-06
4.45889173032227746e-06
4.59208551543423453e-06
4.39666989715176813e-06
4.75618197494170024e-06
5.306205172566426e-06
5.97922308809732342e-06
6.78044270055888569e-06
7.3790747921460804e-06
1.0113557489957804e-05
1.60622795486585167e-05
2.42442638267761269e-05
3.50595295698503172e-05
4.13846748966974697e-05
8.63056860574967068e-09
2.1868775401869051e-08
4.8782486489163156e-07
1.15082633192240953e-06
1.3557435703615851e-06
1.50116474834396033e-06
1.24568941302742271e-06
7.90911011121125865e-07
6.66468741727632533e-07
6.99024862455196224e-07
7.39123216200728475e-07
8.01732585095067299e-07
8.74852020845592883e-07
9.64169412409784821e-07
1.05450330031697363e-06
1.09092352274655366e-06
1.08979266594732599e-06
1.12540412411573433e-06
1.2617969882771691e-06
1.4500793504241699e-06
1.56852381214396032e-06
1.61703119470554923e-06
1.57296819355298434e-06
1.59184155500935105e-06
1.74637595275853826e-06
1.90721724401648412e-06
1.96826021853497899e-06
1.89825463598377665e-06
2.00345291788570101e-06
2.28984785175409958e-06
2.72950864220242275e-06
3.13931144164026337e-06
3.67524976246738078e-06
5.35749923114681222e-06
8.7300982605210537e-06
1.39549695590883993e-05
2.24769159049043788e-05
2.84783038481504442e-05
8.86304567534797729e-09
9.9041985033120715e-08
7.03675429772051421e-07
8.96741625860870117e-07
1.09871751966912499e-06
9.26301619836153206e-07
5.34123115395017724e-07
3.5997757621449682e-07
2.96848880267267034e-07
2.92536096766094473e-07
3.057286039474903e-07
3.21142753224874287e-07
3.44460505049244624e-07
3.85829971267354682e-07
4.21086795694070273e-07
4.44692092878120974e-07
4.62485651313615915e-07
4.67250605454804206e-07
4.88722567746692358e-07
5.70503188959433164e-07
6.30295293156616919e-07
6.6127411328974216e-07
6.61643408070490044e-07
6.65803447229488175e-07
7.53780157294887749e-07
8.13631019192066525e-07
8.30602568278488694e-07
8.03299896542051581e-07
8.84603179727529368e-07
1.03185683670985547e-06
1.23953916297125766e-06
1.45412987172650844e-06
1.85101023179105984e-06
2.83006168500900232e-06
4.62926598573275681e-06
8.12393468145532443e-06
1.41480260619150017e-05
1.88286045584855924e-05
4.11952056141285248e-09
1.83048390454298575e-07
6.78564471475779176e-07
6.04878300293385295e-07
7.43529327411437078e-07
5.463622189126955e-07
3.00059006940247172e-07
2.02653701601555609e-07
1.52189237321543421e-07
1.31113260775170336e-07
1.26011992120302582e-07
1.30053685565239462e-07
1.33752113120035691e-07
1.44788462322608321e-07
1.6416773383073855e-07
1.7982720215929985e-07
1.88327575674230111e-07
1.88388518071534717e-07
1.96504774991603577e-07
2.30391183053940451e-07
2.4964420820779658e-07
2.54492439389832678e-07
2.5380653021910411e-07
1.0112306140211003e-08
1.35986078221108715e-07
5.70509217356673037e-07
5.18168146833261077e-07
5.03039805272999318e-07
3.07903850894402458e-07
1.7613067105209896e-07
1.16879143537142291e-07
8.41125676523891413e-08
6.99774513380458994e-08
6.34453796449572186e-08
5.78676673987926362e-08
5.43695605591791053e-08
5.34339533059978409e-08
5.75468450288253511e-08
6.35987441617968028e-08
6.99599187545368364e-08
7.42342186332219243e-08
8.195741705273078e-08
9.48867563176821119e-08
1.01041384845081782e-07
1.01234436998437465e-07
8.39717234863981583e-09
1.68195511142280577e-07
3.97015583683133404e-07
3.9980145728104549e-07
2.92105099605315151e-07
1.81740552042894412e-07
1.06185115429731089e-07
6.72799600643447964e-08
4.8229842039090238e-08
3.82880373906075499e-08
3.17579446443837103e-08
2.71305907122181294e-08
2.42665684573606704e-08
2.30818011978327577e-08
2.32523285262101731e-08
2.35595975332987342e-08
2.5386283730040294e-08
2.9542938652144889e-08
3.41858431145597226e-08
3.90430279625238709e-08
4.14000796015633903e-08
4.14682393547307258e-08
8.49496986226773082e-09
1.87884712795968777e-07
3.60058497641001246e-07
2.31805364559543401e-07
1.92674173642404121e-07
1.19532774153111333e-07
6.80206745339125865e-08
4.63268104617839936e-08
3.02070400692245617e-08
2.21531193196853368e-08
1.70969090315578419e-08
1.38867550775674245e-08
1.23128534061677519e-08
1.13866957081479328e-08
1.09126975186586182e-08
1.06050253896866587e-08
1.06165906419457335e-08
1.22466492093523268e-08
1.4335601628898432e-08
1.61799477853343688e-08
1.70362759732941528e-08
1.70434009974372501e-08
1.39100137933824008e-08
1.03424944392191753e-08
8.25207896297026271e-09
6.96108201619884496e-09
6.07558831874215697e-09
5.50420348168769647e-09
5.18888474216209626e-09
5.03160259697301679e-09
5.35104643651298984e-09
6.28160339637470783e-09
5.38898745803671771e-09
4.19875507302481281e-09
3.48908143012711085e-09
2.97388725707103715e-09
2.68129398012243338e-09
2.54247515009485673e-09
2.56367955181105678e-09
3.126464823448056e-09
2.04128156991648947e-09
1.66108996149183588e-09
1.42946733935615918e-09
1.29247319271096858e-09
1.32478282047667798e-05
5.86902664608343903e-05
0.000306366722954694672
0.000478767442733118022
0.00155134871979226239
0.00234913393366560815
0.00264080104767924328
0.00248912028880776898
0.00158276294148724335
0.00268295579020327076
0.00242342665014071276
0.00295733087636208597
0.00341694437035058602
0.00697115963981771117
0.00997288720834007235
0.0136723765416658823
0.0200144222125215182
0.0215464526694672531
0.0213275001596798658
0.022660572600234255
0.0240644509990926778
0.0252441816868332752
0.0226754802362040958
0.0198898548560608734
0.0179269745723994942
0.0157808729140416631
0.013204820243025113
0.0101507013059927396
0.00778660242727904559
0.00623475357876049525
0.00470274300635889139
0.00332446690567377977
0.00248536263574692566
0.00178972916515434885
0.000688486652882559086
0.000297239036353571173
0.000143889520351200405
7.76355797706980281e-05
4.31988963423858654e-06
0.000138351773097458844
0.000242579544681415378
0.000362369111778272266
0.000249099650789474686
0.000334966112295415714
0.000444700395589738289
0.000549225764116762459
0.000886935450758233193
0.00111253775299440406
0.00142755988899818595
0.00162222791232545125
0.0017780810318041634
0.00174093678258407285
0.00157913798121427583
0.000598725123187485208
0.000395495007076214174
0.000372929493301517128
0.000346776878512835803
0.000322721985930986255
0.000317919654789448956
0.000303980595665863233
0.000277168781413228015
0.000253356507088459647
0.000225029867739197028
0.0002739770343263566
0.000427036207068996494
0.000666157287565267617
0.000974660625625067508
0.00108607856666238355
0.00112887356597132999
0.00104611754257404131
0.000875218698989994989
0.000732126263065857987
0.000617995873580622426
0.000490990039221759372
0.000227720343678495244
7.92502852290599772e-05
7.26336385145771187e-07
3.18857643346811425e-06
1.11094038079166665e-05
3.17500609572893728e-05
7.26325894675929762e-06
1.77370534745317855e-05
3.4615506932197906e-05
8.64951283826615618e-05
0.000180007144925386321
0.000243928945555641353
0.000281363885196490133
0.000285012299495166475
0.000283850057162129889
0.000222681757170040308
0.00021586706910108866
0.000158660547540962686
9.19271566186802942e-05
8.43008498293595693e-05
7.88455264421872689e-05
7.46447677727734302e-05
9.07692792044645727e-05
0.000107607530546593828
0.00012333443415566374
0.000137603712918801932
0.000136423983801015579
0.000122615272955418539
0.000107799225516239705
0.00012191613189297178
0.000118939135057273641
0.000148933126958886159
0.00011662245987647678
9.74442217034003595e-05
0.000113461711503915088
0.000129778666092955847
0.00020472931490743857
0.000251428815503373915
0.000173337611111890391
6.33269180033839586e-05
1.23713717438974187e-07
2.9136651361892062e-07
7.29136354485728806e-07
2.04670132032095683e-06
4.33242446447506015e-06
1.53437778419035808e-05
2.19315321710732717e-05
2.54462090002508522e-05
2.64521583387013865e-05
2.58581838294210445e-05
2.71794285075849029e-05
2.91496512177744161e-05
2.94614755908637369e-05
2.93978624009783004e-05
2.96966240935305048e-05
3.13806273045572179e-05
3.57784366456145785e-05
3.7396245524898507e-05
3.66655053159885313e-05
3.67399020934943134e-05
4.03856452135732842e-05
3.91348257637283599e-05
3.5411993541068675e-05
3.36594205531289467e-05
3.25638782112653397e-05
2.9164145775727546e-05
3.17914056666877021e-05
3.61877907700228178e-05
3.89731268845585455e-05
3.53467837068449544e-05
3.51190800056059614e-05
3.87565879774754845e-05
4.6469750017425687e-05
5.63776887766146475e-05
6.69244005136389352e-05
6.25369287793577837e-05
5.61295284129519621e-05
4.83574610384602822e-05
3.1693193653749442e-08
9.94859836515845146e-08
4.19027311796165231e-07
5.40878008939877324e-07
1.50397066108286788e-06
2.78449633342524306e-06
3.4478778024414128e-06
3.70177011395805967e-06
4.35033732240063235e-06
5.56300442224095809e-06
6.3311678839889636e-06
6.82326089183137816e-06
7.3886742415890404e-06
7.84614583814498216e-06
8.00639145181240256e-06
8.0054560839775767e-06
8.18710820015122929e-06
8.46283521033887261e-06
8.64473061435000914e-06
8.40503374333214375e-06
8.00780220901512598e-06
8.0589839848537141e-06
8.68413532115444557e-06
9.89100660283415535e-06
1.05933274494251544e-05
1.08309581140623582e-05
1.14550660062695229e-05
1.37911398512920618e-05
1.55846349322935349e-05
1.52863816043689528e-05
1.61725665588978871e-05
1.63389212013979442e-05
2.00278523906579892e-05
2.5459760884383316e-05
3.23276705251435511e-05
3.43251944734103309e-05
3.63207747306129326e-05
3.57746847402787602e-05
1.25710055721076392e-08
3.20826917243079062e-08
1.92596881298711389e-07
3.68342236892469846e-07
7.17817432422110247e-07
1.09840444152299356e-06
1.27824467360717805e-06
1.23885127128983526e-06
1.21549418122512697e-06
1.41056715235757576e-06
1.67738739842070056e-06
1.88952922691676261e-06
2.08299608969754932e-06
2.24402391337296963e-06
2.36008555656701845e-06
2.38464631426626489e-06
2.37482718330003362e-06
2.5033102724233058e-06
2.73854176591071109e-06
2.95963845319097676e-06
3.03403703956522962e-06
3.06536077581603919e-06
3.4422989803845184e-06
3.97833861834452027e-06
4.29672116676318833e-06
4.38272996327357294e-06
4.47655749341190653e-06
5.43632316000898627e-06
6.2369411377218618e-06
6.57925765578271104e-06
6.98830236924291813e-06
7.11486738136553918e-06
8.94132538668876889e-06
1.19344926110810139e-05
1.59888413034549309e-05
1.88389641847687299e-05
2.32544385019130213e-05
2.555870794733481e-05
4.49650724732579019e-09
9.24934620481744544e-09
1.54450340980085464e-07
2.28779168867828785e-07
3.62773178175404694e-07
5.21471626829660506e-07
6.30798733501968474e-07
6.53980725168394881e-07
5.90171700860663106e-07
5.17850423150217264e-07
4.94895093202026892e-07
5.39689893398514569e-07
6.16559485238313614e-07
6.97527046918170326e-07
7.62467702977407252e-07
8.06878289012779156e-07
8.51004764290992352e-07
9.3730884239592713e-07
1.06451852711006442e-06
1.19032215375734683e-06
1.24597863294414359e-06
1.26857017013599497e-06
1.40414054661054023e-06
1.59342336498234679e-06
1.73007163277512596e-06
1.78552368627060547e-06
1.84508855736961195e-06
2.1087474997011733e-06
2.4065409358041427e-06
2.76652909764685248e-06
3.00172297120239513e-06
3.16838912243619206e-06
4.10510956224978032e-06
5.7902184462006844e-06
7.96061282178292133e-06
1.04445067853388327e-05
1.47268728778588306e-05
1.75751844925310142e-05
2.5406606675737867e-09
2.81300360773208659e-08
1.03628087727150513e-07
1.64594260800533103e-07
2.18257155885598781e-07
2.86631059778168477e-07
3.17096135477724103e-07
3.19059063625247523e-07
2.67836044964876927e-07
2.22700396994135898e-07
1.93620650142686602e-07
1.88089146050047165e-07
2.13797598958615976e-07
2.41808106108363073e-07
2.71518032986418406e-07
3.06432309752572716e-07
3.44348438324473528e-07
3.86835319447528695e-07
4.4379812440196707e-07
4.97837784650323599e-07
5.21937644480820797e-07
5.33705525914478686e-07
5.61944560481393109e-07
6.28738706996000336e-07
6.808433898533919e-07
7.20291024028147708e-07
7.44596570558790371e-07
8.34854044696409095e-07
9.85016955294471514e-07
1.15975432470477779e-06
1.28607101942132802e-06
1.43404855286869867e-06
1.92885220092393814e-06
2.76670579690528253e-06
3.94408311215541763e-06
5.85461802307959619e-06
9.17825425660812047e-06
1.16208174413713916e-05
2.88411660779064004e-09
3.91805615242638571e-08
4.36158842359760215e-08
1.30963062060872095e-07
1.62056062478640867e-07
1.73823791163951636e-07
1.71453534407693394e-07
1.3170183427629159e-07
9.80181556152713965e-08
9.06859647614128426e-08
9.06345705004728638e-08
9.44947326764408896e-08
1.00497497193788373e-07
1.0992110721544512e-07
1.17120073783133449e-07
1.21458719380447511e-07
1.28583195215163389e-07
1.45544383253495821e-07