/*--------------------------------*- C++ -*----------------------------------*\
| =========                 |                                                 |
| \\      /  F ield         | OpenFOAM: The Open Source CFD Toolbox           |
|  \\    /   O peration     | Version:  2206                                  |
|   \\  /    A nd           | Website:  www.openfoam.com                      |
|    \\/     M anipulation  |                                                 |
\*---------------------------------------------------------------------------*/
FoamFile
{
    version     2.0;
    format      ascii;
    arch        "LSB;label=32;scalar=64";
    class       volVectorField;
    location    "0.239999999999999991";
    object      faceForces;
}
// * * * * * * * * * * * * * * * * * * * * * * * * * * * * * * * * * * * * * //

dimensions      [1 1 -2 0 0 0 0];

internalField   uniform (0 0 0);

boundaryField
{
    inlet
    {
        type            calculated;
        value           nonuniform List<vector> 0();
    }
    outlet
    {
        type            calculated;
        value           uniform (0 0 0);
    }
    top
    {
        type            calculated;
        value           nonuniform List<vector> 0();
    }
    bottom
    {
        type            calculated;
        value           uniform (0 0 0);
    }
    left
    {
        type            calculated;
        value           uniform (0 0 0);
    }
    symmetry
    {
        type            symmetryPlane;
    }
    interface
    {
        type            calculated;
        value           nonuniform List<vector> 
104
(
(-0.000346361547918225222 6.92408231612901532e-07 -1.09876900742515944e-07)
(0.000430275139272035998 -7.11002827352569032e-08 -2.00204432015019637e-08)
(0.000446852095354329274 -7.87137299567895531e-09 -2.77277594125402777e-08)
(0.000409644608376142836 -4.69187965702687989e-09 -1.5574350809746021e-08)
(0.000433310701409155919 6.6505072392676533e-10 -2.57391512734857776e-08)
(0.000470845398321482903 3.57546708397408346e-09 -1.98170694789461709e-08)
(0.000514318092937289528 4.06301272038392444e-09 -2.14797596086232989e-08)
(0.000546613252299629911 3.65704907912200396e-09 -2.14558066786101482e-08)
(0.000586004049348951028 3.80278899703661465e-09 -2.05178365927632083e-08)
(0.000621108273798673285 3.83976037968179522e-09 -1.89354948474591859e-08)
(0.000659127960708172649 3.89051720989718693e-09 -1.85261027817125814e-08)
(0.000692015395907308274 4.02816304213537727e-09 -1.78929486510535844e-08)
(0.000723949968631397303 4.401608559130267e-09 -1.68494343356698035e-08)
(0.000222802698453106711 -3.70081646133291739e-10 7.41709029940998486e-10)
(0.000279425899460471032 -1.83867216381680979e-09 -1.35140516222374366e-08)
(0.000324828422530419548 3.36469537946604154e-10 -1.43431576848515706e-08)
(0.000355121207260781851 1.10199657649333838e-09 -1.19690358780749668e-08)
(0.000388872762400127418 1.21879228758800208e-09 -9.57036195993386119e-09)
(0.000423280495023475335 1.81227458680717999e-09 -9.62113566989734655e-09)
(0.000462616776905892921 2.66617424282336758e-09 -1.01159261113034485e-08)
(0.000498779475133056898 3.06498776354468743e-09 -1.03870151160588849e-08)
(0.000534886866060237673 3.45932231292778981e-09 -1.04919479569174647e-08)
(0.000570884975898783677 3.95464334829461759e-09 -1.03497672931244056e-08)
(0.000606969292292966695 4.51106224795138612e-09 -1.01173486690477659e-08)
(0.000643221736927867497 5.32926377883461764e-09 -9.75681335251124111e-09)
(0.000681004980634657923 6.24143742884780796e-09 -9.19239768290161251e-09)
(0.000202413561922411029 9.09332280000752657e-10 -8.15704326039000515e-09)
(0.000244766981609801954 2.01723522126572133e-09 -9.02451501599704835e-09)
(0.000286803748809402585 2.09487616059163883e-09 -9.07487761804220467e-09)
(0.000325683365039224223 1.89937242931707606e-09 -9.06693506889576753e-09)
(0.000361249360248793534 2.06666517294033058e-09 -9.19635696283384838e-09)
(0.000397300175887308198 2.56217914970327922e-09 -8.97633662110269284e-09)
(0.000434133417690383107 3.04640488897368084e-09 -8.93200238895659548e-09)
(0.000470822477689537312 3.48345644483454658e-09 -8.77050523669425709e-09)
(0.000507561126559398176 3.96794660918841311e-09 -8.49151103837510114e-09)
(0.000544403317643440683 4.56719899762481311e-09 -8.15482198141058355e-09)
(0.000581763735712482154 5.28439015576193153e-09 -7.77929059054595396e-09)
(0.000619964241934768743 6.2985561910670026e-09 -7.36787222216066657e-09)
(0.000660236370096090844 7.27191261287238531e-09 -6.90165150972570686e-09)
(0.000188204788387410317 -1.40992577569177426e-09 -4.85046737618294944e-09)
(0.000227566205990811251 1.16994264210579749e-09 -5.89982613886234795e-09)
(0.000267627124977440009 1.92843880843747266e-09 -5.8982736528704752e-09)
(0.000306878265748262709 2.15853019032316107e-09 -5.74363345639295616e-09)
(0.000345205522417617696 2.39430161014327206e-09 -5.55720586607672422e-09)
(0.000383035426215443358 2.75066432228150258e-09 -5.43249433733961346e-09)
(0.000420801835796243357 3.194484502918929e-09 -5.3540352314686843e-09)
(0.000458455690736286501 3.70297896824906309e-09 -5.26543037683748309e-09)
(0.000496126065672516199 4.28996940833246828e-09 -5.14984980987506485e-09)
(0.000533989298804425443 4.9985003764872796e-09 -4.99392157633918571e-09)
(0.00057243971681185011 5.81111013019427057e-09 -4.79678443154976438e-09)
(0.000611730180492465916 6.93614645726667041e-09 -4.56332601710090675e-09)
(0.000653179256356192935 7.97174134611456685e-09 -4.29286522908520063e-09)
(0.000178290798606171999 -1.00341564989092455e-09 -3.55570996755126124e-09)
(0.000217139105169148139 7.9477479903069013e-10 -4.00924448441164145e-09)
(0.000256301519998874321 1.54344139225235282e-09 -4.05089968841860252e-09)
(0.00029523779424058547 1.97997547103186925e-09 -4.10524059248675817e-09)
(0.000333837359104583982 2.3826560425121573e-09 -4.12783679807030085e-09)
(0.000372217266816777539 2.84000463697393603e-09 -4.09473308702724843e-09)
(0.000410504975310635868 3.35363045016194818e-09 -4.02461872719067299e-09)
(0.000448776579076121324 3.9282730499983852e-09 -3.92356099445391607e-09)
(0.000487154551037478185 4.57817664616829485e-09 -3.7980849537190058e-09)
(0.000525792202326890888 5.34672935319652905e-09 -3.65074315072434254e-09)
(0.000565029097623328028 6.2108823784817557e-09 -3.48536097458772279e-09)
(0.000605117547093045847 7.39525396343844664e-09 -3.3027495790446314e-09)
(0.000647408746031929733 8.47678939227789619e-09 -3.10083443090030092e-09)
(0.00017248322002534161 -8.84090712717943805e-10 -2.44379388233567827e-09)
(0.000210928320982913193 7.07998285735835416e-10 -2.71639477381823171e-09)
(0.00024972524927111819 1.43227550400267979e-09 -2.66136498467271542e-09)
(0.000288556409506506809 1.93745903718166156e-09 -2.64298148519216419e-09)
(0.000327290089319778779 2.40680874158484296e-09 -2.62963216084070321e-09)
(0.000365948228325090551 2.91312512339411481e-09 -2.60123483163940449e-09)
(0.000404570926371472896 3.46716777201780487e-09 -2.55702465575694272e-09)
(0.000443222701286418211 4.0809224717801589e-09 -2.49782535289736513e-09)
(0.000482019918757847071 4.76964765335339852e-09 -2.42445179923211913e-09)
(0.000521114319779743306 5.57739277203136124e-09 -2.33716662970168081e-09)
(0.000560840417949214792 6.47755225268045119e-09 -2.23592024869838824e-09)
(0.000601467024700592869 7.69765255786820131e-09 -2.12106864288349675e-09)
(0.000644355975609273808 8.81374035051372498e-09 -1.99335145120689952e-09)
(0.000168856007806549106 -8.07655000140603477e-10 -1.41860532501368124e-09)
(0.000207217705434505235 6.84865350546944436e-10 -1.5742476868544241e-09)
(0.000245845258532456038 1.38317944452658849e-09 -1.52940913737839197e-09)
(0.000284555750121490343 1.90921928927264446e-09 -1.51674594363671804e-09)
(0.00032325814060021619 2.41076778317170699e-09 -1.5122466017627078e-09)
(0.00036197914662260399 2.95068138775539844e-09 -1.49930264247727644e-09)
(0.000400739283314401073 3.53498311163005755e-09 -1.47549883213131303e-09)
(0.000439585894613622155 4.17669907098968485e-09 -1.44214559566854614e-09)
(0.000478621683409214294 4.89172169025992333e-09 -1.40003925364179027e-09)
(0.000517990599738689232 5.72383808840486855e-09 -1.34925622759799665e-09)
(0.000558021885961694757 6.64703671462859816e-09 -1.29075749501296348e-09)
(0.000599003672392084581 7.88925837107773743e-09 -1.2248663129340045e-09)
(0.000642311332100816909 9.03071586479235957e-09 -1.15154098984556042e-09)
(0.000167111183524931803 -7.74718272662629805e-10 -4.66954752787550574e-10)
(0.000205456284433094176 6.74911338653212622e-10 -5.16112423366692421e-10)
(0.000244032509330997663 1.36433244040100547e-09 -5.00167803659326119e-10)
(0.000282703591837065718 1.90110142568731887e-09 -4.94956707657258077e-10)
(0.000321395979064097355 2.41569327377633825e-09 -4.92458581320635471e-10)
(0.000360141110826054354 2.96823370962709496e-09 -4.87710655601169729e-10)
(0.000398958254775612755 3.56613678425187955e-09 -4.80031230291197607e-10)
(0.000437888515866351636 4.22145254704645456e-09 -4.69242703415195854e-10)
(0.000477027928889737791 4.9490642137010565e-09 -4.55509226545964968e-10)
(0.000516519469702280982 5.79256800383743455e-09 -4.3906672775615893e-10)
(0.000556693101877652396 6.72758341754673862e-09 -4.20202447026930291e-10)
(0.000597853448249382135 7.9807421525905826e-09 -3.98794167204266573e-10)
(0.000641380339489885844 9.13565784533064899e-09 -3.74966341696547519e-10)
)
;
    }
    procBoundary3to0
    {
        type            processor;
        value           uniform (0 0 0);
    }
    procBoundary3to1
    {
        type            processor;
        value           uniform (0 0 0);
    }
    procBoundary3to2
    {
        type            processor;
        value           uniform (0 0 0);
    }
}


// ************************************************************************* //
