/*--------------------------------*- C++ -*----------------------------------*\
| =========                 |                                                 |
| \\      /  F ield         | OpenFOAM: The Open Source CFD Toolbox           |
|  \\    /   O peration     | Version:  2206                                  |
|   \\  /    A nd           | Website:  www.openfoam.com                      |
|    \\/     M anipulation  |                                                 |
\*---------------------------------------------------------------------------*/
FoamFile
{
    version     2.0;
    format      ascii;
    arch        "LSB;label=32;scalar=64";
    class       volVectorField;
    location    "0.239999999999999991";
    object      faceTraction;
}
// * * * * * * * * * * * * * * * * * * * * * * * * * * * * * * * * * * * * * //

dimensions      [1 -1 -2 0 0 0 0];

internalField   uniform (0 0 0);

boundaryField
{
    inlet
    {
        type            calculated;
        value           nonuniform List<vector> 0();
    }
    outlet
    {
        type            calculated;
        value           uniform (0 0 0);
    }
    top
    {
        type            calculated;
        value           nonuniform List<vector> 0();
    }
    bottom
    {
        type            calculated;
        value           uniform (0 0 0);
    }
    left
    {
        type            calculated;
        value           uniform (0 0 0);
    }
    symmetry
    {
        type            symmetryPlane;
    }
    interface
    {
        type            calculated;
        value           nonuniform List<vector> 
104
(
(-1.10835695333832129 0.00221570634116128587 -0.000351606082376051206)
(1.37688044567051548 -0.000227520904752822131 -6.40654182448062919e-05)
(1.429926705133854 -2.51883935861726595e-05 -8.87288301201289082e-05)
(1.31086274680365711 -1.50140149024860146e-05 -4.98379225911872685e-05)
(1.38659424450929869 2.1281623165656485e-06 -8.2365284075154474e-05)
(1.5067052746287426 1.14414946687170475e-05 -6.34146223326276373e-05)
(1.64581789739932538 1.30016407052285497e-05 -6.87352307475945056e-05)
(1.74916240735881479 1.17025570531904057e-05 -6.86585813715524405e-05)
(1.87521295791664722 1.21689247905171915e-05 -6.56570770968424041e-05)
(1.98754647615575419 1.22872332149817428e-05 -6.05935835118693848e-05)
(2.10920947426614891 1.24496550716709769e-05 -5.92835289014801564e-05)
(2.21444926690338262 1.28901217348331839e-05 -5.72574356833713697e-05)
(2.3166398996204749 1.40851473892168759e-05 -5.39181898741434546e-05)
(0.712968635049941457 -1.18426126762653358e-06 2.37346889581119514e-06)
(0.894162878273507267 -5.88375092421379086e-06 -4.32449651911597993e-05)
(1.03945095209734273 1.07670252142913351e-06 -4.58981045915250296e-05)
(1.13638786323450192 3.52638904477868278e-06 -3.8300914809839896e-05)
(1.24439283968040892 3.90013532028161087e-06 -3.0625158271788388e-05)
(1.35449758407512011 5.799278677782972e-06 -3.07876341436714884e-05)
(1.48037368609885811 8.53175757703478081e-06 -3.23709635561710533e-05)
(1.59609432042578092 9.80796084334299275e-06 -3.32384483713884073e-05)
(1.7116379713927623 1.10698314013689389e-05 -3.35742334621359225e-05)
(1.82683192287610741 1.26548587145427742e-05 -3.31192553379980927e-05)
(1.94230173533749206 1.44353991934444253e-05 -3.23755157409528276e-05)
(2.05830955816917438 1.70536440922707642e-05 -3.12218027280359502e-05)
(2.17921593803090863 1.99725997723130164e-05 -2.94156725852852047e-05)
(0.647723398151714647 2.90986329600240529e-06 -2.61025384332479879e-05)
(0.783254341151365385 6.45515270805030149e-06 -2.88784480511905234e-05)
(0.917771996190087425 6.70360371389323848e-06 -2.90396083777350281e-05)
(1.04218676812551614 6.07799177381463626e-06 -2.90141922204664188e-05)
(1.15599795279613904 6.61332855340905634e-06 -2.94283422810683093e-05)
(1.27136056283938403 8.1989732790504797e-06 -2.87242771875285671e-05)
(1.38922693660922492 9.74849564471577143e-06 -2.85824076446610841e-05)
(1.50663192860651685 1.11470606234705297e-05 -2.80656167574215725e-05)
(1.62419560499007587 1.26974291494029348e-05 -2.71728353228003506e-05)
(1.74209061645900798 1.46150367923993831e-05 -2.60954303405138343e-05)
(1.86164395427993967 1.69100484984381509e-05 -2.48937298897470073e-05)
(1.98388557419125644 2.01553798114143743e-05 -2.35771911109140929e-05)
(2.11275638430749391 2.32701203611916681e-05 -2.2085284831122297e-05)
(0.602255322839712948 -4.51176248221367741e-06 -1.55214956037854373e-05)
(0.728211859170595943 3.74381645473855198e-06 -1.88794436443595133e-05)
(0.856406799927808104 6.17100418699991352e-06 -1.88744756891855236e-05)
(0.982010450394440459 6.90729660903411405e-06 -1.83796270604574576e-05)
(1.1046576717363783 7.6617651524584827e-06 -1.77830587714455441e-05)
(1.22571336388941843 8.80212583130080615e-06 -1.73839818794867601e-05)
(1.34656587454797982 1.02223504093405815e-05 -1.7132912740699805e-05)
(1.46705821035611583 1.18495326983969929e-05 -1.68493772058799353e-05)
(1.58760341015205508 1.37279021066639266e-05 -1.64795193916002407e-05)
(1.70876575617416226 1.59952012047593035e-05 -1.59805490442854011e-05)
(1.83180709379792006 1.85955524166216634e-05 -1.53497101809592418e-05)
(1.95753657757589061 2.21956686632533411e-05 -1.46026432547228996e-05)
(2.09017362033982312 2.55095723075666829e-05 -1.37371687330726792e-05)
(0.570530555539750517 -3.21093007965095921e-06 -1.13782718961640378e-05)
(0.694845136541274 2.54327935689820849e-06 -1.28295823501172527e-05)
(0.820164863996398208 4.93901245520753115e-06 -1.29628790029395347e-05)
(0.944760941569873003 6.33592150730197822e-06 -1.31367698959576189e-05)
(1.06827954913466927 7.62449933603890733e-06 -1.32090777538249698e-05)
(1.19109525381368719 9.08801483831658862e-06 -1.31031458784871851e-05)
(1.31361592099403413 1.07316174405182279e-05 -1.28787799270101474e-05)
(1.43608505304358736 1.25704737599948253e-05 -1.25553951822525249e-05)
(1.5588945633199327 1.46501652677385664e-05 -1.21538718519008368e-05)
(1.68253504744605054 1.71095339302288889e-05 -1.16823780823178941e-05)
(1.80809311239464754 1.98748236111415943e-05 -1.11531551186806988e-05)
(1.93637615069774638 2.36648126830030251e-05 -1.05687986529428189e-05)
(2.07170798730217598 2.71257260552892807e-05 -9.92267017888096839e-06)
(0.551946304081092687 -2.82909028069741775e-06 -7.82014042347416363e-06)
(0.674970627145321633 2.2655945143546715e-06 -8.69246327621833415e-06)
(0.799120797667577931 4.58328161280857386e-06 -8.51636795095268537e-06)
(0.92338051042082081 6.19986891898131037e-06 -8.45754075261491579e-06)
(1.0473282858232924 7.70178797307149974e-06 -8.41482291469025244e-06)
(1.17103433064028861 9.32200039486115745e-06 -8.32395146124608536e-06)
(1.29462696438871205 1.10949368704569654e-05 -8.18247889842220898e-06)
(1.41831264411653613 1.30589519096964878e-05 -7.99304112927155619e-06)
(1.54246374002511177 1.52628724907308852e-05 -7.75824575754278588e-06)
(1.66756582329517777 1.78476568705003456e-05 -7.47893321504537426e-06)
(1.7946893374374846 2.07281672085774102e-05 -7.15494479583483129e-06)
(1.9246944790418965 2.46324881851782368e-05 -6.78741965722718701e-06)
(2.06193912194967544 2.82039691216439108e-05 -6.3787246438620764e-06)
(0.5403392249809571 -2.58449600044993107e-06 -4.53953704004377976e-06)
(0.663096657390416788 2.19156912175022218e-06 -5.03759259793415705e-06)
(0.786704827303859489 4.42617422248508386e-06 -4.8941092396108552e-06)
(0.910578400388768805 6.10950172567246022e-06 -4.85358701963749566e-06)
(1.03442604992069254 7.71445690614946718e-06 -4.83918912564066821e-06)
(1.15833326919233182 9.4421804408172667e-06 -4.79776845592728049e-06)
(1.28236570660608384 1.1311945957216188e-05 -4.72159626282020321e-06)
(1.40667486276358966 1.33654370271669796e-05 -4.61486590613934396e-06)
(1.53158938690948765 1.56535094088317749e-05 -4.48012561165373446e-06)
(1.65756991916380603 1.83162818828955845e-05 -4.31761992831359049e-06)
(1.78567003507742172 2.1270517486811494e-05 -4.13042398404147926e-06)
(1.91681175165466899 2.52456267874487386e-05 -3.91957220138881097e-06)
(2.055396262722617 2.88982907673355902e-05 -3.68493116750579826e-06)
(0.53475578727978168 -2.479098472520415e-06 -1.49425520892016151e-06)
(0.657460110185901336 2.15971628369028032e-06 -1.65155975477341573e-06)
(0.780904029859192494 4.36586380928321764e-06 -1.60053697170984361e-06)
(0.904651493878609991 6.08352456219941805e-06 -1.5838614645032252e-06)
(1.02846713300511228 7.7302184760842872e-06 -1.57586746022603449e-06)
(1.1524515546433729 9.49834787080669595e-06 -1.56067409792374184e-06)
(1.27666641528196134 1.14116377096060178e-05 -1.53609993693183278e-06)
(1.40124325077232403 1.3508648150548642e-05 -1.50157665092862546e-06)
(1.5264893724471631 1.58370054838434015e-05 -1.45762952494708996e-06)
(1.65286230304729975 1.85362176122797958e-05 -1.40501352881970898e-06)
(1.78141792600848614 2.15282669361495434e-05 -1.34464783048617582e-06)
(1.91313103439802124 2.553837488828984e-05 -1.27614133505365198e-06)
(2.05241708636763764 2.92341051050581153e-05 -1.19989229342895362e-06)
)
;
    }
    procBoundary3to0
    {
        type            processor;
        value           uniform (0 0 0);
    }
    procBoundary3to1
    {
        type            processor;
        value           uniform (0 0 0);
    }
    procBoundary3to2
    {
        type            processor;
        value           uniform (0 0 0);
    }
}


// ************************************************************************* //
