/*--------------------------------*- C++ -*----------------------------------*\
| =========                 |                                                 |
| \\      /  F ield         | OpenFOAM: The Open Source CFD Toolbox           |
|  \\    /   O peration     | Version:  2206                                  |
|   \\  /    A nd           | Website:  www.openfoam.com                      |
|    \\/     M anipulation  |                                                 |
\*---------------------------------------------------------------------------*/
FoamFile
{
    version     2.0;
    format      ascii;
    arch        "LSB;label=32;scalar=64";
    class       volScalarField;
    location    "0.239999999999999991";
    object      p_rgh;
}
// * * * * * * * * * * * * * * * * * * * * * * * * * * * * * * * * * * * * * //

dimensions      [1 -1 -2 0 0 0 0];

internalField   nonuniform List<scalar> 
7236
(
6.84744839378697723
10.6435583537647158
3.69862790152600152
8.0134268319572719
14.8504994406668178
16.9654132482498987
16.5594826502777508
15.3709450186349361
23.825651797149952
22.7832795124758682
28.2218366031112247
31.8064832073927413
32.6747600893680996
31.5724083206202373
29.2741478846837353
25.330888217877078
21.5144042449948749
18.3991568156658012
17.4254571572863242
15.7618359099479513
13.3937362194833849
10.3194033640841152
8.14540862064354698
6.97358929966248731
5.54609295121473078
4.33017811948784992
3.3496379593328891
2.25994536746760932
1.85623329887130639
1.45167909041345333
0.948273812528714344
0.944065186268036372
1.14050238215184363
1.28362549180410346
1.66020907506086712
2.21429327733266623
2.75242336108585928
3.0717526358486178
-0.723876365987330628
-0.965656305407908033
-0.843390712236006146
0.574315967898133661
1.94795713715281349
2.02926926063429036
1.82764571346407934
1.64464572043474333
1.42263525412817282
1.37847014226682529
1.06769298754222453
0.864695626570842424
0.759938752835339293
0.685407564310391071
0.604641313705789329
0.54843724913700953
0.496530103000068057
0.442479279836154316
0.380382457796605289
0.363952953862255735
0.365744789259745406
0.328879634776674645
0.280476221610223841
0.317963534465815045
0.391571272881601651
0.547242008016628589
0.519323269946727395
0.47634095026136769
0.474939994491862527
0.427513923170128651
0.45954575355130256
0.493973607005022297
0.666117463495180639
1.00813160815781178
1.35752068519686309
1.93256544235743855
2.59293881201346776
2.99691330064980299
-1.10127285788693663
-1.06233270088638898
-0.992369638011781241
-0.428928082119138798
-0.390880140217232219
-0.359395824790566421
-0.156929857065661676
-0.0296039880489864828
0.00138391765296130365
0.0168462870174540223
0.0072161636632195247
0.00911411065288840125
0.0424524631188981302
0.0727434008269208787
0.08202189450551578
0.079877275817432522
0.0667700768331355721
0.0469523777527238104
0.037357157446068899
0.0312981191277815138
0.0368302927122276316
0.0392309477610501209
0.0283434132168096375
-0.00363936973565553859
-0.0309766732237770036
-0.0717645310186286606
-0.110506191309584348
-0.148470841252823782
-0.158137680896354521
-0.137651885746420705
-0.0302016463346735653
0.101671876009034684
0.22122399392067163
0.467020979849449236
0.874577857718293439
1.4254369482771454
2.11616991332246318
2.65878572001844704
-0.865934130123881318
-0.916096870066309465
-0.899181856618796238
-0.802365744714225726
-0.762842345595006632
-0.683951349166295519
-0.574070202876654001
-0.488851629012851951
-0.421542562793197961
-0.353334732327271195
-0.292634417504067101
-0.244001215599029347
-0.207305419838952981
-0.173276839159714063
-0.146895834473187575
-0.127219973956801152
-0.119478305076035796
-0.11825043777373935
-0.114473187177373592
-0.0976061464070738655
-0.0853519956950644088
-0.0760110498077986446
-0.0697593896873992259
-0.0719687944985043515
-0.0801573732083471907
-0.0973121322035315622
-0.132371645892750578
-0.163595061697013017
-0.166092571523678428
-0.146427903509768698
-0.10035833461657144
-0.0118967549074645643
0.159988889949248897
0.411876030970551421
0.744231865550378235
1.17029445841227808
1.68046564339800253
2.23371782552076414
-0.818928251397031626
-0.772088980949854675
-0.775467398844360001
-0.781672378906101195
-0.756378726636594334
-0.701842974521479479
-0.649571210235856511
-0.591391705224977526
-0.534793478461203953
-0.476806993021844649
-0.425093309883234127
-0.378202396796529783
-0.33493638935902259
-0.301569057498580595
-0.273406347724236609
-0.247311827048250082
-0.223052931932574056
-0.204085019871243639
-0.182136162282058617
-0.149906032657252775
-0.128080704847377852
-0.124105999828652877
-0.124768141688530287
-0.127264818510270689
-0.130275638967490032
-0.138217041072351998
-0.153827506464058045
-0.164232984449180802
-0.158876343492577343
-0.126816667058037819
-0.0647858046283753541
0.038961712177581688
0.2024533748413061
0.424333410023568447
0.711002707353091679
1.06086749656779067
1.46043352215303246
1.90950691636142333
-0.814000615483864931
-0.727987228962809541
-0.739088937127214352
-0.755661595022615429
-0.743058845106330468
-0.703381940013156792
-0.662779030880226938
-0.614412139593901951
-0.565240413262804386
-0.516660837340120138
-0.472892968040321104
-0.431798087773018202
-0.391856804101921197
-0.357069253816494958
-0.325658840559779783
-0.295342046059404784
-0.260574606647908269
-0.23706572260060757
-0.216791886365112735
-0.198328239915936899
-0.181038923614437131
-0.16809762000369835
-0.159440075881292526
-0.155247266471432194
-0.152439015902089497
-0.151789564142074063
-0.151376220615159179
-0.145312412678068825
-0.126870416656780199
-0.0852108369623809925
-0.0164711883199533532
0.0892067185151975139
0.242295931918326241
0.443905996196691799
0.696869882238565386
0.994645130409646194
1.31921076615448674
1.69853862721162008
-0.82418096973360222
-0.726702147399528209
-0.727592663978582022
-0.73643836437374588
-0.727400908858602979
-0.700579097509286486
-0.66424920557075906
-0.622252720533175596
-0.578741503766136089
-0.535213705806241169
-0.494105266479276162
-0.454679371467810067
-0.416470482483657423
-0.379330425510428504
-0.345700230609236214
-0.314941718243860524
-0.286641704632240257
-0.260326722423619539
-0.236981222131284114
-0.217233557991481668
-0.199704503193323751
-0.184319509973737028
-0.171791688033014506
-0.162170085858573981
-0.153960859562983721
-0.146294534306086993
-0.13690913264798249
-0.121661554558070525
-0.0937948654561035905
-0.0457752098149016851
0.026897140502175898
0.13230556316995587
0.275885718641438904
0.459920143406058191
0.685302870169118394
0.944896484918512636
1.22385586063948559
1.52831498551691114
-0.799337327296169242
-0.71778210388854391
-0.723329946268030044
-0.726272908361321967
-0.717139683636077607
-0.697152377397486034
-0.663662676669057872
-0.625048115732832921
-0.584726696036355964
-0.543912838465801629
-0.504467912541328722
-0.466142347352578312
-0.428464481346317427
-0.392371507241582207
-0.358592243581544956
-0.327202491392205419
-0.298209389966239746
-0.271468282138530248
-0.247468425955068322
-0.226124472605847199
-0.206957644437172211
-0.189864440701625864
-0.17511344276686594
-0.162164505412029508
-0.149751843995878653
-0.136616272513652992
-0.120609807675643513
-0.0979515803541992497
-0.063201719084438765
-0.0106584111804648076
0.0644347465487816323
0.167396402474432021
0.302027127102192927
0.470370221285358825
0.671905094171721173
0.900280874664539321
1.14430315126133442
1.37969918977240646
-0.819197543543767948
-0.722223673856547288
-0.722823767971039421
-0.718743681274835344
-0.711185197052704998
-0.693758042481240733
-0.663088300145855736
-0.627016648892104067
-0.589118689835355536
-0.55033164047213079
-0.512073034797871363
-0.474355118309725765
-0.43702802841838434
-0.400898056366953748
-0.366699919596818968
-0.33468482371277869
-0.305013625477426165
-0.277830982102836743
-0.253172239448074765
-0.230701402668282957
-0.210408989981484912
-0.191972655966001993
-0.175096130476804113
-0.159145680529897804
-0.142972180182988184
-0.125290734831798478
-0.103946055692216613
-0.0755012438597663649
-0.0356771245985392782
0.0201233855238948101
0.0958739365764971624
0.195456468916450216
0.321679245548661008
0.475469278281838492
0.65520301908401557
0.856600561425689744
1.06742581801824432
1.2450898929830545
-0.822890110752431569
-0.721833216729016902
-0.722165165588158575
-0.715654260488417959
-0.709150566254034498
-0.691973948313036269
-0.663379885652886192
-0.629280105242184362
-0.592948682838504437
-0.555457188243959843
-0.517955496079175903
-0.480510702206392637
-0.443220634157418025
-0.406864233595698122
-0.372187800539384051
-0.339638506564835463
-0.309443949965498233
-0.281687395544120256
-0.256290204507516772
-0.233016813091310143
-0.211642432290797294
-0.191740588645806398
-0.829024527992829996
-0.720000274107950755
-0.724965530845636752
-0.71802609410416085
-0.710303864548567421
-0.692104473117845065
-0.664736313309577942
-0.631957835600776674
-0.596650760903116306
-0.560037379073360486
-0.522863311769378947
-0.485306020395044779
-0.447753667394743704
-0.410998005135850442
-0.375809513144256035
-0.342740619183747208
-0.312055651727367156
-0.283780473190812454
-0.25774793336776769
-0.233695001692124454
-0.211253713653567515
-0.18995914433566638
-0.815790358961322237
-0.720873458894154773
-0.730278540483244587
-0.722662758849302422
-0.713551960501713878
-0.694697524684914303
-0.667637440752026579
-0.635443320554825442
-0.600561212807064204
-0.564180876666535269
-0.526887801928762167
-0.488977557807295404
-0.450978538727085765
-0.413707402349831443
-0.377978153698385499
-0.344404139072090165
-0.313257355227578416
-0.284511610888958211
-0.257922152688322692
-0.23313476271987732
-0.209718703451280769
-0.187174835679591228
-0.79874794814659178
-0.724303255315689509
-0.739035600594710185
-0.731127340144450688
-0.719284870170931456
-0.699426615239896354
-0.67199126564921563
-0.639664639071490293
-0.604622888944573611
-0.5679600602014101
-0.530204720813959751
-0.491706652202631267
-0.453087768532075608
-0.415205791862762241
-0.37890579365855398
-0.344840923984835901
-0.313271945369005433
-0.284110161538478179
-0.257030825627324599
-0.231595428214418864
-0.207329812355851573
-0.183698061015867747
-0.57143130535884834
-0.532867752186313215
-0.493559506302568729
-0.454159651556868771
-0.415582335532782343
-0.378706812275323712
-0.344190991367887833
-0.312259698900464011
-0.282750687738730355
-0.25525309001263552
-0.494507531398633959
-0.454195870050200234
-0.414906496427230209
-0.377486099150154741
-0.342582962700846427
-0.310364408990238094
-0.280587217778899001
-0.252750415336601419
-0.413224895590345642
-0.375334344875088266
-0.340131058131813213
-0.307708668866648327
-0.650367711817471994
-0.655512222736182371
-0.758353490397914665
0.165073799419134221
1.04724684594867856
1.45695716741525727
1.55535025653837744
1.48661612297298529
1.48618286239810571
1.12282564486880587
1.22807571713635144
1.99222569055093768
4.105675089092645
8.96285840790762123
12.1063531198668688
12.6437237952727948
11.9049049734611661
10.2918983157447652
9.69308309752596209
8.66115991334042512
7.69196656289364711
7.06383064254636128
6.44589217964356287
5.12063577282112448
3.98391295079603758
3.45541331851809641
2.60039490445771504
1.71688081953088068
1.35223803680003773
1.1512436983278862
0.8751940277311826
0.838084848790098147
1.08852022852265029
1.34945937740885369
1.54931204384894428
1.89432876835738107
2.14498207247857486
2.28300899217086783
-0.698204828046462223
-0.705273156604498075
-0.76456088332395189
-0.762413441995987817
-0.248850270513679611
-0.0662810260222648773
-0.00653438347963511759
0.0557748459719537709
0.181495569688834901
0.298479306720670134
0.138990509416505814
0.166856062959709173
0.170070376437163717
0.16532758468387096
0.125782610229488445
0.0606444634911710717
0.0269915715468813204
0.0193843907616084547
0.0141923942831879979
0.0269136210475448001
0.0357860610584852731
0.0320725877847904753
0.020604711820409901
0.00264154622265382966
-0.0273297277384477073
-0.0428862429095301506
-0.0330955933394003893
0.0524307129045653506
0.10925780623432764
0.126105760525234728
0.210152820931328921
0.409247029605172286
0.624057530986592557
0.918320727827274585
1.25968767736385012
1.70900389374354522
2.07279605812817147
2.22783607925423865
-0.723832409229559604
-0.691592648981105951
-0.748195205246232509
-0.786468973234587643
-0.637400433839676817
-0.573978626738188447
-0.527267309645464866
-0.460825004131774962
-0.399786031740349379
-0.344190709109924831
-0.257979985491695152
-0.233395154281786671
-0.205168030825814196
-0.167282133365870778
-0.155305242820262729
-0.155941856172875287
-0.155939260703865129
-0.151643527880362478
-0.143617831352182729
-0.12295357770386714
-0.0968304266098281158
-0.0813218707924614342
-0.0819273958897507593
-0.0842891509611032597
-0.0837846331558089186
-0.0936112220123305194
-0.128739691440793363
-0.158035758811419041
-0.15553503444344452
-0.111999758972654948
-0.0228162370908151467
0.0916362706793413112
0.277533367872700665
0.563087821654334131
0.917539622203125682
1.3621631822306397
1.80053384395290794
2.05891943110447739
-0.697842467794262289
-0.674374782718415444
-0.69417078579238134
-0.731755824558732337
-0.690528747867737214
-0.64215632010913859
-0.591928760768149931
-0.558813164596364986
-0.513472613910484155
-0.463928292605264747
-0.415547686612419642
-0.365973477746542541
-0.321657073256576942
-0.287287128569946426
-0.263558558757683081
-0.246283355476351135
-0.229740038825415382
-0.213711991155663361
-0.196176360392646659
-0.16676326325038196
-0.131379448632355483
-0.109384761307274633
-0.103729661642612311
-0.102260186504245468
-0.106642915808874861
-0.122196326356577026
-0.141902902005481502
-0.151177216379034557
-0.137822421224282371
-0.102708934172812447
-0.0319460928633338234
0.094881091854850011
0.284283163065704225
0.526582792652733778
0.820077061477453739
1.15746659379267292
1.49949624463052866
1.81805624725573178
-0.68250561441148283
-0.669714354365893882
-0.680600335690280223
-0.693943778439424785
-0.67809351898428416
-0.648751522936500069
-0.616032955452883391
-0.579063175940365826
-0.541279320551233512
-0.498691153392199105
-0.455147177506764533
-0.412214306135382458
-0.371323359394681585
-0.337095451221397946
-0.308462713060883686
-0.282361667763539492
-0.257423022530176238
-0.23598441314254201
-0.214779250687273826
-0.191636392489968527
-0.170793664117372485
-0.155249573513296629
-0.144631858800743168
-0.136603582772365811
-0.133732591124744643
-0.135529608567985904
-0.137133699787877511
-0.130815936316343417
-0.106324192619201827
-0.0600068731653017468
0.0169729053117837932
0.137435619558647915
0.305691719438375697
0.519808631755664496
0.774024413013354118
1.05851958848777961
1.34426968173730566
1.63621659883686821
-0.669006015544458488
-0.659441799137714724
-0.667043471443695468
-0.680360398036079617
-0.673443691351899743
-0.650408187332894627
-0.620786052424404544
-0.587725038151816426
-0.552052193752536557
-0.513368878143306673
-0.473988046335480528
-0.434739988946288569
-0.396593618157983607
-0.362215920561913318
-0.331443175856142636
-0.303311618891704826
-0.276865843941096534
-0.25221192510825452
-0.2292714925088018
-0.207717887587239997
-0.188301756168562623
-0.170841606773368015
-0.155965189750622568
-0.14393956611190703
-0.134550103374139862
-0.127373454304168576
-0.118867919410989509
-0.1028136525672491
-0.0709844340980815003
-0.0188910251245556424
0.0599506430269637625
0.174284442660389199
0.327481263765888264
0.518679361301005559
0.743000056409844123
0.989224315387965736
1.23569013583914922
1.48770509127446182
-0.671661335882100308
-0.652999709995635946
-0.658627015019410456
-0.669958068122530559
-0.666747989392191376
-0.648224366963269016
-0.621780927588552412
-0.590953217455550628
-0.556628492157275501
-0.519779893424436201
-0.482295852164342398
-0.444844428174920037
-0.408159390335129213
-0.373970353060068705
-0.34238989198833425
-0.31294888916656477
-0.285460516934710751
-0.259739118235458755
-0.235729823336863237
-0.213341242015246735
-0.192813456307185188
-0.174118175803164438
-0.15751935204109993
-0.142858529379658455
-0.1295571422585447
-0.116357888465341994
-0.100419742240248341
-0.0768627640668255591
-0.0397248795281147024
0.01589156343345682
0.0955204885457687919
0.2045433931062558
0.345205604788847875
0.516957700643591589
0.716376513234923906
0.933167201855136463
1.1513210454181686
1.35400084065633641
-0.665350150267797757
-0.647343569309368205
-0.653879488166736245
-0.663215201008889088
-0.661226405239755621
-0.645887150746225824
-0.622007138640791712
-0.592622071112453797
-0.55955895085823415
-0.524171070152134821
-0.487963304335808312
-0.451572154753299426
-0.415723185642702664
-0.381532150640190082
-0.349337743704158432
-0.319112796476077487
-0.2908062473309041
-0.264263676348916954
-0.239460577149179427
-0.216375702872778325
-0.194923981799143858
-0.17500098544072451
-0.156659101923520283
-0.139515924898384353
-0.122661501874123183
-0.104704512472281602
-0.0830366690028468274
-0.0538098522093075626
-0.0124406329153466336
0.0455234222463340513
0.124511515435291792
0.228100158341426718
0.358040116260138819
0.513335966632566087
0.690673165467880157
0.882512040159254552
1.07479637786486037
1.23105831490912543
-0.661731064528335966
-0.644059137877564192
-0.651560606294458555
-0.659706855731609032
-0.657931555132345136
-0.644561940574425285
-0.622507037010973985
-0.594281427268475548
-0.562274374104101859
-0.527901698929089225
-0.492481930350989194
-0.456730035474826213
-0.421280064153742473
-0.386972095782195769
-0.354291237748672827
-0.323412163887518089
-0.294399409147760027
-0.267230895038032934
-0.241829900286362198
-0.218013187237783429
-0.195653093342411988
-0.174544062017622098
-0.15447764671677866
-0.134954926008952231
-0.11497584293126803
-0.09315201615862366
-0.0671397565518859624
-0.0337282631076625816
0.0108143688816740979
0.0700815704791228899
0.147517957685607271
0.245789609385188013
0.366057253119912107
0.506913899285476033
0.664850864886392334
0.834287932673473676
1.00059619888074103
1.11951784494404971
-0.658752961221920175
-0.64220240758106395
-0.651526779922001142
-0.659011269434651936
-0.657163284196235598
-0.644619560453330576
-0.62350903936375035
-0.596158453763741214
-0.564923004992772704
-0.531242269303415671
-0.496308635512797469
-0.460854480325583016
-0.425524686171479094
-0.391041817835815431
-0.357933024908275277
-0.326515700265151421
-0.296931911586665265
-0.269175239962512691
-0.24313619563982708
-0.218605135057381883
-0.195365945779943317
-0.173116128520612478
-0.15148403689650855
-0.655727997972668564
-0.642196605514152585
-0.65383772582270927
-0.660532263686280152
-0.658438806087770834
-0.646056474152333693
-0.625327416963462612
-0.598461631408846229
-0.567643666571690408
-0.534317134661170479
-0.499574045856572668
-0.464158816333105406
-0.428729211038749725
-0.393982551919761059
-0.360483956139412975
-0.328613302512391181
-0.298543037390503807
-0.270266339574857462
-0.243644759703068037
-0.218441083023437121
-0.194360189360797131
-0.171032059692278998
-0.652245672101841589
-0.644251160548430901
-0.658704123474969205
-0.664598211494629831
-0.661852237639021013
-0.648938934963851022
-0.628062486206824921
-0.601236184301488619
-0.570470213236733636
-0.537160723236748017
-0.502333299395115063
-0.466734230640923009
-0.431043423726439667
-0.395954239661471752
-0.362063319056231014
-0.329787451947327948
-0.299305412081682098
-0.270588268770568463
-0.243463730737624284
-0.217653635855627553
-0.192811166851943633
-0.168515703224540431
-0.652674024364677807
-0.649539527269702655
-0.666216228459688087
-0.671232266548612011
-0.667150209307054487
-0.653201544299320536
-0.631670998586598587
-0.604428814981237461
-0.573367512023364889
-0.539758018891820734
-0.504589181980084844
-0.468616917611393291
-0.432535842954934857
-0.397051678388936513
-0.362772635304877578
-0.330129007895478166
-0.299294321553884635
-0.270209813155371903
-0.242657745409551678
-0.216321943637943381
-0.190819795652968638
-0.165688366704367651
-0.542074190549675539
-0.506323546585932927
-0.469810650601508561
-0.433237178618801622
-0.39732349480376411
-0.362670259548561913
-0.329704107298308347
-0.298576491628592178
-0.269192724659653382
-0.241287298151166507
-0.470295689927274108
-0.433158955261728373
-0.396804748684363551
-0.361805224692286209
-0.328569604948643401
-0.297213253189587245
-0.267599481967141895
-0.239414225281393389
-0.395522853091183346
-0.360220422123075923
-0.326776253141943474
-0.29525755468957221
-0.580039509960312394
-0.57545612310769767
-0.507554403587539782
-0.426407759761316563
-0.29915260267773347
-0.194813415391092981
-0.138243389419600793
-0.10764495561389581
-0.130513299922617038
0.0568417648688521598
0.116655847872743954
0.274438598860661964
0.430468991876360507
0.936627557805917554
1.34045927283269206
1.69593691022248172
2.43899174582744527
2.61385929551629692
2.57707101661626359
2.70968335596882115
2.86494083646458719
2.99545851869727997
2.66934080886201919
2.28412677601758585
1.98076398035099088
1.68568789036669187
1.35808879388135195
1.00927203618998185
0.793739259698010291
0.739167160395755918
0.775315111815049418
0.880018104358845865
1.06483782562695684
1.27589897362345916
1.42303238947159283
1.58160813190227101
1.6770632816482749
1.75673533976000251
-0.592719236166879382
-0.598262340145724991
-0.593999103059070999
-0.533385203471257285
-0.551300578415362064
-0.52828283096003481
-0.484064811760145541
-0.427964623756791673
-0.307170374622958653
-0.210058340283911488
-0.0917196765385342033
-0.00277958270486308853
0.0857460897801646388
0.128586184648164764
0.12504932702846272
-0.0913519334558184071
-0.145775025101340855
-0.144515827925902368
-0.135114942605263855
-0.126238259432028405
-0.112638087171295809
-0.103948119868778624
-0.10203577181289343
-0.115443573071993974
-0.143909655161839012
-0.158250367190238245
-0.144735069856183757
-0.0907448396728735146
0.00478299860902675188
0.0981826839697215598
0.242461663440935421
0.43271147361679535
0.662166999034064285
0.937355467307871004
1.24494591597815196
1.50572291272611514
1.64431086111217573
1.72316824464593443
-0.604943991398835368
-0.621007764912826832
-0.633527347798639395
-0.607095563679596162
-0.605840279497661838
-0.597526348497193327
-0.575954435376922813
-0.530983929244402741
-0.466087125422498971
-0.405365959986162483
-0.351088849397697356
-0.309555151386056715
-0.269236127320477359
-0.250862049350663863
-0.225042103928946746
-0.219450712791463443
-0.227857433904817025
-0.215723593930093605
-0.200059508298391697
-0.18371443329179335
-0.161491420189923102
-0.141644553017957808
-0.125691393724387784
-0.118404230083305417
-0.124188803184393376
-0.138126185629917464
-0.149573349014360896
-0.1388713142200515
-0.112038263354539244
-0.0416215212618953403
0.0579115524898011144
0.217435298479787736
0.436283367288692714
0.691986785275116811
0.999594160750517768
1.29862847085408251
1.5092717049695592
1.62887009757305301
-0.606661521710019636
-0.612485218482814009
-0.623460148780799805
-0.626434985327015026
-0.616099266983302529
-0.597531600374183847
-0.575600990081655883
-0.54839998114533195
-0.518062266615005762
-0.48328039169041842
-0.444707040430359857
-0.405559835987578832
-0.367674458621850664
-0.331486780251553759
-0.30268134531915436
-0.276125388809156547
-0.253735180612599864
-0.234386046683319693
-0.214955857270935524
-0.194710284541737416
-0.174009951629277237
-0.157655659813603188
-0.145417099078815087
-0.137809513591577643
-0.135246286589599335
-0.135661766375983539
-0.129908548970773002
-0.112415280770450404
-0.0766164624740583444
-0.0156280494093137719
0.0854680299951586508
0.231604395783198275
0.418167373990955826
0.63570791092456358
0.879017390408242338
1.1226523714247707
1.34089793806046176
1.51731129025517997
-0.597572716851302643
-0.603528675955586569
-0.613668515446379348
-0.620993405485643746
-0.617306286324857623
-0.6048089866369879
-0.585835072840063975
-0.560777370968799982
-0.530932626897831828
-0.496620021201987727
-0.460151661604850992
-0.423229431223513919
-0.386743905867992954
-0.352374460764058206
-0.322367288342135017
-0.295287674717344406
-0.271412993782860879
-0.249057562027484081
-0.227010421207595819
-0.205675028942321647
-0.185603007737181136
-0.166867552170031547
-0.149952863637607792
-0.13631139397873393
-0.126115090822193271
-0.116649415095089221
-0.102932879425687934
-0.0782472537630094778
-0.0375001348235269177
0.0258039858993637586
0.120874599122102702
0.250874933498167751
0.415786756354489972
0.607396231409949916
0.81989498264454852
1.03519631936813461
1.23225278828008955
1.40789349772197325
-0.590211239956038858
-0.596818993622444061
-0.607553727675896216
-0.616225733379022644
-0.61555382012699833
-0.605091374499988954
-0.586862466249186032
-0.562388455278541199
-0.533379335540617339
-0.500697275746732839
-0.465921292214969751
-0.430461021866495985
-0.395381552543406567
-0.362057579403805452
-0.331511475893178531
-0.303362695082803724
-0.277604498642735453
-0.253236851116537098
-0.229668504023250397
-0.207000202488718421
-0.185537981137422286
-0.165406763600244755
-0.146646758419554213
-0.129959260295638784
-0.114861272599010994
-0.0991995095476427419
-0.079194504554925424
-0.0492104122827017876
-0.00458713758640396339
0.0596805297169573021
0.149343133816588036
0.267691185297920908
0.415032245852853199
0.586438889673070785
0.775557253642521038
0.96790513197165462
1.14683933209620159
1.30110009956811923
-0.585699223233901889
-0.592077101759602265
-0.603406587328043864
-0.612923740739180767
-0.613664867157772354
-0.604384755424387854
-0.586867525071689822
-0.563008080316411474
-0.534621743416849871
-0.502986667708085755
-0.469442982128786102
-0.435091151007437837
-0.400902830168233637
-0.367994950818265054
-0.337013136508807598
-0.307994428914413365
-0.28090720354383969
-0.255185084478960655
-0.230522959510920694
-0.206893022398961929
-0.184356205851049476
-0.162927825636726809
-0.142587711707733489
-0.123378345194675762
-0.104503458972646179
-0.0841229916234119135
-0.0591191975859895053
-0.0252123307722302258
0.0217649669038003715
0.0860909190003094071
0.171755109630684771
0.281263116297272853
0.41475818887821142
0.568606716335364193
0.736994695708726
0.909695210974787227
1.07180006868453082
1.19762322860077908
-0.581290155478470405
-0.588467205059594267
-0.600898932347786352
-0.610812062697280278
-0.612304651225043961
-0.603891440467395513
-0.587118634305341502
-0.563933775990675623
-0.536181198449432017
-0.505218698298542379
-0.472404440426708705
-0.438726351944387971
-0.405049452148591116
-0.372299563020158097
-0.340979939119734787
-0.311257514636079757
-0.283168894454213504
-0.256462334698658478
-0.230917100953235893
-0.206439869945249987
-0.182955708612832113
-0.160358713139419129
-0.138518025897455377
-0.117095981864525064
-0.0952064854156964568
-0.0711512013665227261
-0.0423816331236464144
-0.00548966376071546164
0.0431031497316022999
0.106873009478180014
0.188891720900503907
0.290984289670273122
0.412955071964150988
0.551685814369950012
0.702179083736313436
0.856581292734109212
1.00079547247324041
1.1005106586199831
-0.577750500737904793
-0.586120703337851157
-0.600015190374866503
-0.610121059279455369
-0.611930832658588608
-0.60403537280177011
-0.58779473104904234
-0.565141201015187056
-0.537881542509216826
-0.507402956493224533
-0.475033038549025843
-0.441732529839705346
-0.408304908139702827
-0.375521790684529511
-0.343891183939369904
-0.313650036696437762
-0.284851378680590295
-0.257396979125730563
-0.231126802816134153
-0.205902973495365016
-0.181562795318946729
-0.157907422175227519
-0.134678417520878002
-0.111375253180378816
-0.0870517376709968593
-0.0601779328132212438
-0.028573479554737144
0.0105471307609293873
0.0601327814193939811
0.12300670279197419
0.201533911007680089
0.297024959680019962
0.409037786546438464
0.534793269948963701
0.669697807907723042
0.806840628451821251
0.932802317218300425
1.01161132590542646
-0.575057137433826471
-0.585130969104144194
-0.600683218728869206
-0.610978504717919813
-0.612794624052675596
-0.605044214027175897
-0.589059732227816824
-0.566679294858446592
-0.539687551303910995
-0.509532376580581481
-0.477425337486334034
-0.444305089817745691
-0.410943191938632602
-0.378036687721668319
-0.346092835381360153
-0.315402370594418946
-0.286064244017835756
-0.258028536108658668
-0.231157092051138019
-0.205282161756845272
-0.180187219321731595
-0.155597133449588754
-0.13114566727825594
-0.574036022933118617
-0.585882551919984174
-0.603159854563475206
-0.61347766316090846
-0.614991137460824455
-0.606998125948853495
-0.590932744360839424
-0.568573861852585294
-0.541659514310544377
-0.511600680507129368
-0.479559598201282911
-0.446445860201559186
-0.413015361598325637
-0.379929406838412143
-0.347693193185241167
-0.316624218221109088
-0.286851255971273256
-0.258345638305816749
-0.23097397161125563
-0.204540462989335758
-0.178785771202478433
-0.153378362382029482
-0.575339480047724505
-0.589087865233142938
-0.607840023341127411
-0.617741094160484727
-0.618564000415657067
-0.609913544285774822
-0.593424921224710356
-0.57081161069934172
-0.543739561753311063
-0.513556506962278725
-0.481390690378165953
-0.448134889604245301
-0.414531525771090481
-0.381223634696322755
-0.348712262092383873
-0.317325668312217257
-0.287203209703642603
-0.258321028970484146
-0.230539107460485615
-0.203634395889001479
-0.177314533403538893
-0.151203814199668191
-0.582839955373760099
-0.595823423610229552
-0.615227806433666036
-0.623927664583613373
-0.623514940293895092
-0.613744445227412783
-0.596486903471547314
-0.573331042385765266
-0.545862444199957886
-0.515342275530969673
-0.482881708891219286
-0.449358511947100858
-0.41549937391689773
-0.381935283332718478
-0.3491611339663937
-0.317505519597045816
-0.287104545601429062
-0.257926003616949118
-0.229814039551049953
-0.202520209666488926
-0.175730455964370508
-0.149032020784978403
-0.516897032568091164
-0.483984950792605617
-0.450089003464067772
-0.415908114592726252
-0.382066536331560291
-0.349045001530784937
-0.31716396854847223
-0.286545396882680992
-0.257139974471141841
-0.228771422304194755