/*--------------------------------*- C++ -*----------------------------------*\
| =========                 |                                                 |
| \\      /  F ield         | OpenFOAM: The Open Source CFD Toolbox           |
|  \\    /   O peration     | Version:  2206                                  |
|   \\  /    A nd           | Website:  www.openfoam.com                      |
|    \\/     M anipulation  |                                                 |
\*---------------------------------------------------------------------------*/
FoamFile
{
    version     2.0;
    format      ascii;
    arch        "LSB;label=32;scalar=64";
    class       volVectorField;
    location    "0.239999999999999991";
    object      U;
}
// * * * * * * * * * * * * * * * * * * * * * * * * * * * * * * * * * * * * * //

dimensions      [0 1 -1 0 0 0 0];

internalField   nonuniform List<vector> 
7236
(
(0.639894755553738315 -0.136867109147822935 0.259885042027251656)
(1.02599839786778735 -0.153915351497475344 0.300517204244971581)
(1.17257965586453783 -0.125135270833257928 0.384690290121022238)
(1.40643592688158847 -0.11133360196315413 0.480031583548612417)
(1.66992500974347036 -0.105414458129763633 0.580514022792843254)
(1.87335855030488063 -0.0954356126247268149 0.645647017130114187)
(2.00013185152186601 -0.0865890057918833611 0.683578400139521758)
(2.0982327516333501 -0.0799947700346684137 0.690311365231541574)
(2.18241901753644996 -0.0786873685839419856 0.68521980054239906)
(2.23827118543647341 -0.0749130652604076963 0.681541214263807316)
(2.25907978748401606 -0.0735630145840944355 0.677300350301610399)
(2.27187800339164125 -0.0735657350229218659 0.671101046905508314)
(2.29077224828309323 -0.0733507308171381794 0.659415882347699767)
(2.31325591234304984 -0.0723018481960828185 0.644672532433123058)
(2.34046810917257853 -0.0706294606311645562 0.629314545575944573)
(2.37075329148307423 -0.0683796870573207122 0.615565789359621807)
(2.40209923756295085 -0.0657587454329413429 0.604071892895194584)
(2.43227912136871094 -0.0629074191218658429 0.595557030415149402)
(2.46224060942848988 -0.0602557407406508483 0.588513475650639162)
(2.49205138574689311 -0.0578559319380785309 0.584645864981150343)
(2.52222483691622523 -0.0554413202847796327 0.582471316396239613)
(2.54748537555338128 -0.0525325333303245934 0.581597403540173308)
(2.57031822069139881 -0.0491276137849298092 0.578571158238712857)
(2.59068773586839685 -0.04582951656225287 0.576384367671775366)
(2.60769493976590816 -0.0420310234583090164 0.574982083739836503)
(2.62297276202383012 -0.0376806725968417203 0.571897940249522119)
(2.63717827370367663 -0.0327555848368032629 0.567855740125214448)
(2.64004768550284385 -0.0257596903361106445 0.562622560190964904)
(2.62919777871351634 -0.0191299581761992001 0.555565795939647944)
(2.61087606195541166 -0.0130375713790944793 0.54613707179207549)
(2.57038062520715238 -0.0018019890545775785 0.534523297044264933)
(2.48482425369008109 0.0130041342479036322 0.518346081206753517)
(2.34983250978479319 0.0311247760991664214 0.497083032534526126)
(2.13435462909561124 0.0612353176615734116 0.475335619561938538)
(1.82091939704726657 0.10028394350472089 0.470098415601193753)
(1.39656721732778477 0.143250397792197781 0.511313394802406895)
(0.799120383164464321 0.152415945957657728 0.544602607410884287)
(0.219318708242088406 0.116174648058043437 0.927886894073380319)
(0.227043766957236909 -0.484470297974283315 0.0244668080050836068)
(0.0908248221456486871 -0.323257242025945357 -0.277532067823740569)
(1.01161679762696322 -0.276247472806511518 0.210792757676400627)
(1.49507547301406918 -0.283779658853391181 0.399601566810901643)
(1.67456151427751188 -0.262515492052097899 0.525614097988236439)
(1.72467821015367395 -0.223117038824785396 0.568086516725193391)
(1.70486698106302237 -0.183200751689207852 0.5722818009079087)
(1.65386284709100684 -0.154151794482040388 0.565302124872907097)
(1.58879888163628147 -0.151695129196136202 0.554996974814270794)
(1.532981995662835 -0.138987843088337171 0.5493654180323162)
(1.48116332069413703 -0.13660301718827611 0.547514121192251846)
(1.43418160490703861 -0.137914773942361679 0.541985644819816703)
(1.40205233121507744 -0.135420361082705165 0.534483849132540545)
(1.39729999486218137 -0.130435019631856913 0.537762192418923424)
(1.41713637077395593 -0.122266726372019102 0.547442739799187783)
(1.44705106922028093 -0.113000627708844781 0.568135438183717589)
(1.48032424262545925 -0.10355079775104796 0.596867556960604007)
(1.50650557210055935 -0.094460679203562381 0.621990718231369311)
(1.52087347503738113 -0.0891670333975019686 0.644032319791325802)
(1.52278504602568243 -0.0857884272831790501 0.662726782678561444)
(1.51747986657794898 -0.0828870846623957214 0.678205288660282735)
(1.51054146480955809 -0.0771131918761254198 0.687054341065949759)
(1.50908824946461229 -0.0704527721717372324 0.697295037346616242)
(1.5118322541649003 -0.067930521239426736 0.69729016531844823)
(1.5226077982241859 -0.0663406224403646771 0.689650111652490683)
(1.54546252130570583 -0.0652734553903841219 0.676947447122454249)
(1.57881205601654973 -0.0615061491888935705 0.662188507664930426)
(1.62344934247959594 -0.051544947229535322 0.646718852792667831)
(1.66138704472402288 -0.0434501510535378818 0.628962711603870184)
(1.68767558260780759 -0.0312817931896609003 0.611132742924815453)
(1.71924861436371224 -0.00657477017308661944 0.594147014618327307)
(1.72916822342877041 0.0261515361556930379 0.571846185567540966)
(1.6963569543042667 0.0660551793120948832 0.54784458362868349)
(1.625982178174181 0.121620326707827575 0.524827100926793855)
(1.51599162908955298 0.201092705279495715 0.508035073201404175)
(1.3214607966435139 0.310673413636927132 0.517194357304529451)
(0.981429682682667615 0.39984377672660093 0.674602480647107261)
(0.376076486657948406 0.385317077182831313 0.99280915405432113)
(-0.0232478750566193978 -0.233507079763792202 -0.946122258039536201)
(0.464246119695075898 -0.285518970945784378 -0.123266627963886988)
(0.917394140674820391 -0.397367186894010405 0.291891969000838469)
(1.09991379171352177 -0.354151585978249916 0.397781557252498474)
(0.957898198794037148 -0.248358547803958774 0.363485267194631534)
(0.768725408584290393 -0.147454803776328025 0.323755269731755335)
(0.596707565779561744 -0.0896251248058120009 0.318228614217787698)
(0.519573279496952978 -0.0739968220227438522 0.351596961392621199)
(0.519612877221576008 -0.084408691978104744 0.399721172432659033)
(0.534520879133253635 -0.0770347291345609836 0.44154737665399546)
(0.535615116708320183 -0.0787982631165715236 0.468300577511515215)
(0.526858668686911891 -0.0838922521133630833 0.480158732053261594)
(0.53108357211019197 -0.0921561413129505513 0.491695300800541524)
(0.564477762577310971 -0.103325250868255544 0.513702624022644327)
(0.618542277437059029 -0.111015743933846112 0.54663908462503219)
(0.680120720807473322 -0.111761474920100384 0.581036724242363745)
(0.737239166582858929 -0.106706538823478303 0.60690742148143173)
(0.782522384429479745 -0.100423568052465592 0.62656758409085811)
(0.815038204264693422 -0.0922333776839583119 0.623317893208222729)
(0.836500286036262919 -0.0819062325533631563 0.612308052022944693)
(0.848306604250302687 -0.0721554900165316815 0.594945427147818506)
(0.851628849680778011 -0.0640891636757108807 0.57108070854980697)
(0.849048205522560995 -0.0578365853090302348 0.538581991076130362)
(0.844248269096441684 -0.0558707497745923876 0.503845550786223839)
(0.836432358785240582 -0.0560227058316360715 0.474053548818267723)
(0.82623156714133561 -0.0583662025670095563 0.449639112658270002)
(0.81427510396132452 -0.0550905591354035606 0.427376762493346218)
(0.811514350266346551 -0.0414335061497135559 0.410335544716758038)
(0.814363038452360688 -0.0300030550354653085 0.399046819436606914)
(0.813881320719264778 -0.0142996919892633204 0.392515733086594321)
(0.821813350025655032 0.0141644049224063442 0.388342540268421965)
(0.81608567217556649 0.0631308722279269319 0.382024609210071087)
(0.793592199328884584 0.125216775251722867 0.37672637503176204)
(0.759671646474616491 0.19513114565441414 0.380327794929368135)
(0.74621955924433625 0.289264494593123311 0.405802760454892109)
(0.725886635954717807 0.427724571589854441 0.450581895754778583)
(0.640918451992481986 0.589929544864922328 0.620493092156327419)
(0.313952288464580398 0.700537938059687004 0.937049178967997554)
(-0.157196170305919647 -0.189886018129035022 -0.618975288919022537)
(-0.0590278786095885452 -0.316942728260007633 -0.142711659482390951)
(0.109613859040753076 -0.320924252132982923 0.130369763735558503)
(-0.116883808072817702 -0.162787595249572342 0.0915893811630545118)
(-0.259284527914325935 0.0207352258972998901 -0.000907254896051007398)
(-0.254753720148906126 0.0404587026298166563 0.0565591880771156921)
(-0.146319056151955923 -0.0259344101994676834 0.159855387690483658)
(-0.0410275095934468648 -0.0726679529766316445 0.254071410667472908)
(0.0126347661639230023 -0.0937685850818017613 0.313906674918512374)
(0.0283769709777779433 -0.0928672507291951055 0.354568371304449237)
(0.0451480989837739072 -0.0987492872753233802 0.380357306179639199)
(0.0858327072697108312 -0.108002775503792128 0.401469414596368757)
(0.150846575177053105 -0.118287006336841902 0.429095415445260531)
(0.225881395993656198 -0.12733248402917613 0.461595690731362029)
(0.290940149444898155 -0.127449877179248688 0.485570782786697075)
(0.344173591052459038 -0.118509170065858982 0.505727771794319159)
(0.381825660023853097 -0.101906590508308317 0.506614462279248778)
(0.406143620394948612 -0.0829226645568634513 0.487763189364957161)
(0.423220193741992323 -0.0601533089295620133 0.464398867515033176)
(0.437088533598772533 -0.0387007668905625518 0.438557867888852926)
(0.447815177333394765 -0.0209687504536956656 0.411677419718824877)
(0.451158994532907032 -0.00803146857815064188 0.381271465096274076)
(0.450928551161820512 0.000218994890159921601 0.351673742119541277)
(0.446924911650066425 0.006042274294291816 0.324639918567720565)
(0.435930579218654635 0.0102844782617682561 0.303321210009764808)
(0.416928861219935054 0.011760827741912094 0.28607754139573538)
(0.395190734499861529 0.0133480584387643264 0.270392596720683054)
(0.375575901127533585 0.0205919403442877263 0.254991358355583675)
(0.353070929926496746 0.0341076109392026844 0.242472093536961752)
(0.318144292670925255 0.0502067900789887611 0.234551719388588181)
(0.281086071578107555 0.0741114059574297518 0.230744243308524638)
(0.255667395872371195 0.119043057484439899 0.230451857283036743)
(0.24143112123362151 0.176154073469772271 0.236826889092471848)
(0.218750837038147766 0.233317367256026309 0.257764039793970445)
(0.206224045613576545 0.313642746598405298 0.304648152361539526)
(0.226907495510283469 0.455674238141595578 0.377104099169376983)
(0.25728573905106622 0.678120086880763751 0.548422044935180986)
(0.183012381250244716 0.872617270166379577 0.864223540633531684)
(-0.135805311895702913 0.00404922278956768023 -0.82432532216876131)
(-0.402310233251716109 -0.1117211842722792 -0.296382534875435255)
(-0.430543079775819959 -0.100922787227590363 -0.183986852819521679)
(-0.432637222098485041 -0.0675055353906331701 -0.0888961170800306177)
(-0.423227272932387044 -0.0533420122369131777 -0.0599435038671155898)
(-0.398563686929591987 -0.0598732405494047382 -0.00441553836807186129)
(-0.360498480309837943 -0.0680145958539180306 0.095849226453688624)
(-0.310600558390044246 -0.065401365955610552 0.170344720763932173)
(-0.251050960808821277 -0.0657832483920974542 0.225262077594926557)
(-0.189231830927054284 -0.0689863183641989675 0.264375455875340448)
(-0.137778420583731742 -0.0762567273378806643 0.287313941935793959)
(-0.0930265547376250834 -0.0830114643130818314 0.301930199776114516)
(-0.049048366521280154 -0.0824244436512815981 0.317122396917765004)
(-0.00931307379851987679 -0.0748098048423131018 0.321655588917571233)
(0.0289167644158398601 -0.0617156993252256647 0.331965516269812133)
(0.0585993907981303824 -0.0451135870785582052 0.334114977966217419)
(0.0799317685039330761 -0.0266119451587474229 0.325008582467180063)
(0.0949482863526329712 -0.00688220295583285083 0.306077032034197338)
(0.109586314239841304 0.0104236619956158318 0.286291344641213974)
(0.12375176735098195 0.0225544139794843224 0.267320771286912395)
(0.133816346871144159 0.032430965848856963 0.250060929918461905)
(0.136491484635993615 0.0402472851124551084 0.23239119152149193)
(0.134237001453149901 0.0464895725914421382 0.214444991496334586)
(0.129686058032105228 0.0528013777122165948 0.19821566900104956)
(0.119465160859482972 0.0571071428311647131 0.184766602158434767)
(0.101714476309016186 0.0581330450692293804 0.173397509828398522)
(0.0818401311972689893 0.061182309450702882 0.162759906403772969)
(0.0650271086400519283 0.0713624790977617773 0.153768062820494267)
(0.0467006647662454866 0.0855669515250806895 0.148813873711870631)
(0.0172705012111989686 0.0983631084058896044 0.148013817042172979)
(-0.0167707880156772807 0.117395642595140862 0.149515472038628111)
(-0.0390116217317734576 0.155723244870848793 0.155227604305191669)
(-0.0496206510603068723 0.205209388428840539 0.170097767676994416)
(-0.0660870104696930222 0.254255169739998177 0.198404438302005715)
(-0.0800470494222082773 0.3188782133868725 0.247412744613465463)
(-0.0630512964254493768 0.446531876720325238 0.325547829486607099)
(-0.010466866820314058 0.688315259430414939 0.486212822823552659)
(0.0680966985984315099 0.937538767177600096 0.7839399466240764)
(-0.112884872865092301 0.142791442103513161 -0.843667886060414651)
(-0.404756647115517842 0.00673584745172528532 -0.436278041484512435)
(-0.426426780426317487 -0.0440000136074423925 -0.180939534460724222)
(-0.437643724421366676 -0.0412649949773551683 -0.105448922467771808)
(-0.437616288074142656 -0.031345332111460962 -0.0804463242628914721)
(-0.420863077724510148 -0.0331580771563891527 -0.0345053544805355439)
(-0.379922464099578638 -0.0494702564273121828 0.0411022218431363467)
(-0.334829602865656384 -0.0601633344915456156 0.105778651070572632)
(-0.295935316486855449 -0.0565624182132639583 0.151431500141339742)
(-0.265853000380985804 -0.0453035947246459292 0.176626184412720877)
(-0.242229648152876009 -0.0338412429729417763 0.183240471213381245)
(-0.21868226264530391 -0.0246858965176131838 0.187387464364762141)
(-0.192966328383667451 -0.0154966061240231108 0.193415422785159802)
(-0.167243381604698205 -0.00732604302747331612 0.198768901566670902)
(-0.142184275060256354 0.00207443757311259226 0.204415278831417607)
(-0.120143246694107128 0.0152271723588734594 0.205560018574389103)
(-0.101631018475074608 0.0286684909573633392 0.200277833808987005)
(-0.0868219211204801639 0.0420154627142117765 0.18916982033321536)
(-0.0746889729637292277 0.0526185110180690391 0.175591761020471554)
(-0.0645279938136806008 0.060843799507605642 0.163306224780415565)
(-0.0564331457034477832 0.0682145873824017007 0.15424656834624767)
(-0.0511645945334368718 0.0759596922598681223 0.145820536078254376)
(-0.049191862741947312 0.0824703131053792365 0.136155380248663888)
(-0.050712515062648747 0.0884003226732033714 0.126599973472488719)
(-0.0570663667416545714 0.0915409413255588028 0.118238211641909841)
(-0.0677850816988468524 0.0921361054762665083 0.111911399555679691)
(-0.0805353131722273963 0.0948637104566278366 0.10656708631211928)
(-0.0927802043147252231 0.104167501368014379 0.103260472514901905)
(-0.10770135561435118 0.117894965941505336 0.103860381347620961)
(-0.129900537182007364 0.130546599071910296 0.107822092011099602)
(-0.156233563894839833 0.147815034800412803 0.113487207702078013)
(-0.175333371722714515 0.179467858086053561 0.12360772706181164)
(-0.185647196491051769 0.222604386199437704 0.143068385754238553)
(-0.197557031990106158 0.267924741926576615 0.173920796682192597)
(-0.208036257103857841 0.323110711389060556 0.218824344809131432)
(-0.200924363830759123 0.435118690948900932 0.292675921036281372)
(-0.159075061871646328 0.673845878481608596 0.446108584078382275)
(-0.0138581890608415817 0.917226040569273704 0.691698795638524433)
(-0.144033755673025343 0.169186914332078664 -0.9924565730009971)
(-0.450965106142749816 0.0636011805613073689 -0.422167444985065976)
(-0.450979829043329006 0.0114473498949584033 -0.196267939067233332)
(-0.453881430188149748 -0.017359413578659371 -0.112806425246174402)
(-0.44779395938565747 -0.0288864096081238239 -0.074393912952716662)
(-0.435175951417146267 -0.0346990966298822215 -0.0254059311491794462)
(-0.408579133500256431 -0.0400900719113365805 0.0338046146343245826)
(-0.383623414002328855 -0.0342003642215656309 0.0774001519133366428)
(-0.361093455904006821 -0.0224837232227216854 0.103447649403341474)
(-0.340828663920235642 -0.0100450961749030711 0.115914581772273442)
(-0.320248101112330597 -9.82023444518927147e-05 0.121494009735518285)
(-0.299424295491334147 0.00852128073145257126 0.124396991400900603)
(-0.278088561298356518 0.0171163217772087942 0.126946632581650481)
(-0.255868373556534023 0.024427145300941297 0.131577067965987726)
(-0.234138607503258267 0.0342120224492817038 0.135832371106551747)
(-0.213840160625545672 0.0466164454376088791 0.137282088301410671)
(-0.195714067019347765 0.0590686737907280893 0.134226011646065346)
(-0.179917962772471574 0.0701158064803494713 0.127962524954208234)
(-0.166728335013750728 0.0778296923233409849 0.120703740401483212)
(-0.15595855952039106 0.0840681743831569184 0.114284007854537975)
(-0.147402937125806432 0.0907658190789551039 0.108945688297332047)
(-0.140776970873069729 0.0984413729203403309 0.103615014266015326)
(-0.136571858956681585 0.105039681329750376 0.097404444551014227)
(-0.134974585693415 0.110717072661719901 0.0915280248007699082)
(-0.137325931256228218 0.114072186589521854 0.0871145601528489494)
(-0.143532496524560571 0.115713962374712875 0.0840292295779341974)
(-0.153420668103462443 0.118908894188303652 0.0817334349194947241)
(-0.164857968766669361 0.12764354133572714 0.0816634820361467062)
(-0.173542290914389663 0.141361844441894757 0.0852660150202046163)
(-0.189168412901812688 0.155247492212488236 0.0914310507056698141)
(-0.208487881464885338 0.171991720744217202 0.0990622301916889297)
(-0.227064477907798712 0.19926589046932075 0.111430603126947053)
(-0.24076646135619223 0.237550203085812761 0.132472766333996572)
(-0.250881602476990151 0.279625221649893396 0.162698246514301259)
(-0.259637807476556293 0.329675989749645293 0.203345418345503071)
(-0.259063836641877321 0.429490010097019148 0.272284307988128582)
(-0.233430178829562407 0.648476849962214774 0.414248878188100467)
(-0.0652457126871400783 0.856745822294290083 0.598229886738311678)
(-0.156697688872094953 0.169471340465657788 -0.973727205218665404)
(-0.473998537814749488 0.0776152568340601895 -0.386264436418062407)
(-0.465447875514010623 0.0369843071529114761 -0.205023872025105192)
(-0.471674595693107046 0.00380210017540346182 -0.115645636431981974)
(-0.461312304962047337 -0.011709808828383194 -0.0659051668697745452)
(-0.450434230830180193 -0.0191702324933978943 -0.0163351007212050141)
(-0.432776821774298937 -0.0201434998019930922 0.0276794513191734246)
(-0.416519922213388738 -0.0136856286675049107 0.0594129217946113841)
(-0.399101383117525355 -0.0029004233651027736 0.0789613569519521941)
(-0.379980089875150417 0.00850347148161303794 0.089110624925803919)
(-0.35675235113398146 0.0187273709092380634 0.0934067508775298927)
(-0.334603250496580795 0.0274209097981190156 0.0965584269696594666)
(-0.313178696443601468 0.0347724892874751862 0.101055940785726953)
(-0.292342345639606427 0.0419295860916028967 0.106078054053912685)
(-0.272053559325732719 0.0512837264583829375 0.109733376897261314)
(-0.252065462977919819 0.0628154004055374027 0.110486198840326663)
(-0.23361332677577229 0.0743124699062470001 0.107765710730768863)
(-0.217611131977647781 0.0841252146306156329 0.102978224531315776)
(-0.204234536134045325 0.091703471615908555 0.0981931442164259566)
(-0.192968050927026874 0.0983257931828265541 0.0941449044977442778)
(-0.183648507030193892 0.105193138732869118 0.0899006803250201048)
(-0.176339899067104428 0.112431598630936297 0.0852047833528025156)
(-0.171461917927398372 0.118981103621080955 0.0803807150541474974)
(-0.168961678682369304 0.124863369811650943 0.0765287912949537685)
(-0.169052788286274458 0.129143416500233532 0.0740971049933071557)
(-0.172114193326272452 0.132295830980789564 0.0724406625262848242)
(-0.178019444401659371 0.13667752154270385 0.0715406688503510968)
(-0.186219517857024119 0.145429190397927233 0.0728607452904972697)
(-0.19607037358276061 0.158940670564540865 0.0775321906448443454)
(-0.20739568737753028 0.173761325503952402 0.0845000416482794559)
(-0.221811519977421823 0.190885103344093254 0.093127116114315206)
(-0.237145228172230937 0.216038415836426412 0.106287600815728051)
(-0.248895384997885605 0.250419851401640803 0.126840686452836998)
(-0.257574191166873079 0.289349535218318021 0.154901560009595929)
(-0.264536386362802745 0.336799287962139204 0.192346583678266847)
(-0.267774171583252396 0.427500813145453962 0.256695254551094265)
(-0.245672385541536226 0.617813882496385025 0.380834928908970027)
(-0.0861828654119887461 0.783268160266986979 0.511068052515516347)
(-0.18350083875248463 0.181152509386300953 -0.98684713543998237)
(-0.512194044495727141 0.0925814736069138777 -0.385678438434886472)
(-0.482758968395640975 0.0565078822995849842 -0.207462505057068092)
(-0.491682058109446762 0.0233745363099362481 -0.114593089352723665)
(-0.478448041881899433 0.00657492274849219398 -0.0572406100548754765)
(-0.466632878404348583 -0.00276457461231612283 -0.0101465774027430199)
(-0.451433542499419804 -0.00355246845181797239 0.0263298612083297454)
(-0.434688440065369663 0.00262412021263244439 0.0524097792877668694)
(-0.414439117875943674 0.0119298562083919486 0.0689743652652522188)
(-0.39215774792887198 0.0214088601559365502 0.0786613365821607902)
(-0.36942937324401387 0.0294120729015545264 0.084300832979220211)
(-0.347357791803646676 0.0367265990862551961 0.0888756791217321096)
(-0.325784239872240866 0.044168716310744767 0.0940829820826800112)
(-0.304614459219692046 0.0521761161004583029 0.0988875361950624365)
(-0.283779023529650398 0.0617143011070845487 0.101789225804094413)
(-0.263744040912567035 0.0723732093248337371 0.101745493055368397)
(-0.24532919136682968 0.0826296950743955483 0.0989392341947765014)
(-0.229370756966353589 0.0917616349374233142 0.0946896747716753084)
(-0.215894517070357533 0.0998413616736284759 0.0904491347501466536)
(-0.204478383232564481 0.107324998807317509 0.0865618923947601981)
(-0.1949433999344167 0.114529049747601003 0.0822813957242798655)
(-0.187505252431826669 0.121603958679420671 0.0777028700027037889)
(-0.182357500604840933 0.128247277749731381 0.0734606577062297816)
(-0.179198587818562988 0.134482826243966902 0.0703932820739394671)
(-0.177962820282198314 0.139687900631176753 0.0685625094964440879)
(-0.179461570898429346 0.144211700791867986 0.0674283115392291382)
(-0.183983340898780656 0.149981345391404647 0.0672002230546427937)
(-0.190905342278843371 0.159318848552239878 0.0690406508934976737)
(-0.199602022941841872 0.17255663849698738 0.0738108595419281199)
(-0.208450262095247585 0.187666877235045465 0.0808532441832298387)
(-0.21972533482162937 0.205367018720697292 0.0899472493660327665)
(-0.232374016217388318 0.229412926541720408 0.103077672760573821)
(-0.242880909311121967 0.26086980007629007 0.122232862338977857)
(-0.250702881904284192 0.29729042010361878 0.147754319185164379)
(-0.257576777161943715 0.343296335047490575 0.182353324693404401)
(-0.259922971788808521 0.426631918903578655 0.241379502776568944)
(-0.234007164246688687 0.58701296637520195 0.34511778316612568)
(-0.0900484864121908896 0.710612679336536157 0.433894501367592555)
(-0.186497072433519984 0.178649043351676723 -0.945024719686941461)
(-0.531968110728592292 0.102432314505234059 -0.371794900061930833)
(-0.497355021647681306 0.0729295735236088066 -0.206543221000177329)
(-0.510784106746784872 0.0419623297084093516 -0.110561577136367967)
(-0.494135790233631189 0.0231931462064016436 -0.050893412626914214)
(-0.480405552157470328 0.0127803814632865657 -0.00587864369637464135)
(-0.46357778350322576 0.0109824014059989733 0.0262514262962930123)
(-0.444989472461497226 0.0146365453330144345 0.0503905799588637987)
(-0.423546140767563528 0.0211406753458107909 0.0667400452224232443)
(-0.400498285643494989 0.0284681724206412683 0.0773509768471123405)
(-0.3771567683867183 0.0351775552312105985 0.0840120440751215836)
(-0.353512672716532639 0.0417964376238933108 0.0893295037916030515)
(-0.330433950068417359 0.0492878802587441225 0.0945303272984474308)
(-0.307861116793743173 0.0579277552881807406 0.0987238895046761711)
(-0.285961929002837068 0.067675219765690714 0.100822171081017375)
(-0.26515991060306815 0.0778633707669234704 0.100193862026940181)
(-0.246373754798696665 0.0876052883695847551 0.0971659863316246819)
(-0.230273304618126229 0.0967177874189585202 0.0928676652232909988)
(-0.21679649225790637 0.105301870787588486 0.0883525454147454509)
(-0.205465966661006527 0.113407898343674596 0.0839310852014834019)
(-0.19607046063730918 0.121014439387072362 0.0793057950028880909)
(-0.18878302293787777 0.128257796754706083 0.0746765286201696299)
(-0.199063907393777162 0.182653283286753204 -0.948644551323830965)
(-0.556290766310454821 0.121088503350189475 -0.364044481952224608)
(-0.517066480160194852 0.0908211020396894331 -0.207148853426878693)
(-0.532709925701571496 0.0590276629829692007 -0.105132383382615352)
(-0.512972464392474126 0.0379688377472952379 -0.0446911844847300982)
(-0.496274729800716741 0.0260289524986274216 -0.00176849752118601877)
(-0.476056197009496362 0.0213654817882869795 0.0283561559397102932)
(-0.454665986255319343 0.0225585008158426456 0.0515640047404245377)
(-0.430315221574214979 0.0269349102271177754 0.0680937062274123012)
(-0.404211825880574749 0.0325812268305537001 0.0792104452083457339)
(-0.377895259759777336 0.0380889827949470322 0.0868473937404978386)
(-0.35274738499328856 0.0442634904243339039 0.0927521764873697613)
(-0.328668949629916329 0.0519699858827901151 0.0977803199984552673)
(-0.305364411556982907 0.0609791169888304688 0.101302940105235384)
(-0.282896942156838915 0.0708645435760879017 0.102615008182055337)
(-0.261824310817516503 0.0810579562005025317 0.101331413256387087)
(-0.243000041478373868 0.0909693317478840607 0.097872007210388634)
(-0.226979354754295926 0.100461859979206106 0.0931735873779726415)
(-0.213630642879178823 0.109529924702045547 0.0881057232408179597)
(-0.202507648745769486 0.11810956810132231 0.083055947052042195)
(-0.1934008148155624 0.126120690021838039 0.0780310552119952983)
(-0.186347890812700701 0.133677370629729009 0.0732451180790399947)
(-0.219704198884188656 0.19283955103583772 -0.916104403641986531)
(-0.573084415444457429 0.141009848246293756 -0.358571246702800162)
(-0.538333461951781223 0.107428262799807661 -0.205798944846408871)
(-0.552850998245844827 0.0734678138361363892 -0.101863310412418792)
(-0.529631102523034358 0.0501979029562951429 -0.0409526866494220321)
(-0.509404077444937098 0.0357910632371186421 0.00137368119405784084)
(-0.485431994104531805 0.0283627304149489945 0.0312032277577504701)
(-0.459954675742844932 0.0272525262867848866 0.0540355639858390718)
(-0.432313383214031233 0.0298430890505607671 0.0707965395109610568)
(-0.404208945361239802 0.0340120082592013928 0.0825423801048208172)
(-0.376896898270180136 0.0390083738250362674 0.0909111775892214174)
(-0.35082266578892668 0.0452774214198965463 0.0971778698382117084)
(-0.325847649325401001 0.053246450899718141 0.101880690725402123)
(-0.301614411532710402 0.0625229063494085746 0.104764115900518373)
(-0.278457276430038037 0.0727081908387318537 0.105293287248270057)
(-0.257089428004755816 0.0832293503905830734 0.103280906603082145)
(-0.238253062823940043 0.0935953751877235257 0.0991988003787678679)
(-0.222333240310336827 0.10359792526273226 0.0939047136932612408)
(-0.209135055735304387 0.113141129349100006 0.0882094907932643169)
(-0.198258137927931843 0.122133468118894237 0.0825749231249631316)
(-0.189451624715659295 0.130513054633712877 0.0771617529481391645)
(-0.182639139573352843 0.138389752963455959 0.0721710555721770397)
(-0.25077256332694664 0.210949126585870839 -0.867608848375652553)
(-0.588272805797190323 0.160120238884866206 -0.351492360839235352)
(-0.559540177045596998 0.120647646470549 -0.202251239081348372)
(-0.571461720969439924 0.0832995516556591653 -0.0994952416801587747)
(-0.544351814108521403 0.0578099048987021635 -0.0383451500970231826)
(-0.51981684450482557 0.0410617970629644016 0.00444589836044465003)
(-0.491742532483540773 0.031840291275956667 0.0344873134236227397)
(-0.463135210702766864 0.0290408439950797202 0.0574144190302103286)
(-0.433245937267906334 0.0303315892471462435 0.0743238333954054919)
(-0.403576100662764947 0.0337498433865700137 0.0864127946469820662)
(-0.375243633181216452 0.0386869873063184905 0.0951493739746827605)
(-0.347969696493238501 0.0452094011737754348 0.101635259436833797)
(-0.321760690332465848 0.0534516718111529496 0.106072525884847321)
(-0.296568768173694264 0.0631838444324025889 0.10834323241171695)
(-0.272928882517309457 0.0739026286515133829 0.108098885714718318)
(-0.251449285931063637 0.0849648628300060382 0.10528175825186048)
(-0.232748799090082781 0.0958844363865609395 0.100443596693962453)
(-0.217063476014702161 0.106395293474999805 0.0944479137475187358)
(-0.204154627228372909 0.116355831474486651 0.088109586367231818)
(-0.193603969382353996 0.125693727746671619 0.0819419965879664702)
(-0.185119089111942553 0.134383615253610311 0.0761723826349823552)
(-0.178537112053674674 0.142547998729094294 0.0709747032057256311)
(-0.402361830361493755 0.0320279252272128029 0.0903455482268788884)
(-0.372580023773301183 0.0371249516567279322 0.0993643700368075505)
(-0.343958153423737423 0.0441411077487013012 0.105943860417996902)
(-0.316569372388802173 0.0530201598200937471 0.110144146595448439)
(-0.290707094389341558 0.0634700842126115772 0.111807027797685879)
(-0.266796063340057177 0.0748845539756932271 0.110711985724183962)