/*--------------------------------*- C++ -*----------------------------------*\
| =========                 |                                                 |
| \\      /  F ield         | OpenFOAM: The Open Source CFD Toolbox           |
|  \\    /   O peration     | Version:  2206                                  |
|   \\  /    A nd           | Website:  www.openfoam.com                      |
|    \\/     M anipulation  |                                                 |
\*---------------------------------------------------------------------------*/
FoamFile
{
    version     2.0;
    format      ascii;
    arch        "LSB;label=32;scalar=64";
    class       volScalarField;
    location    "0.750000000000000444";
    object      alpha.water;
}
// * * * * * * * * * * * * * * * * * * * * * * * * * * * * * * * * * * * * * //

dimensions      [0 0 0 0 0 0 0];

internalField   nonuniform List<scalar> 
7340
(
0.0130177548065395707
0.00988855349052805005
0.0024630250778899152
0.00106244409284744898
0.000686076561623787063
0.000527956094668510225
0.000591255100603247903
0.000714844012605758195
0.000868417816290321162
0.000975073012010460897
0.00089698070956130394
0.000549000436816235319
0.00775058576002351021
0.0200652367343752552
0.0830750854396134497
0.716030926185206029
0.00181057629090696079
0.00107505612399346633
0.00081212997554232615
0.000570320675409532259
0.000389435582448769378
0.000347949383365984261
0.000420607805166638095
0.000547396558157248409
0.000725531829863589051
0.000810226431391012801
0.000922411970132403273
0.000243256478425366398
-0.00461056315546194521
0.00980576955152787089
0.122056627988532035
0.646689915615876521
0.00122914146420635586
0.000938112970357479433
0.000664044159282508543
0.000431700082052670245
0.000302208814728421003
0.000278088910078651773
0.000322263331947926545
0.000422644437853850522
0.000547809341753397079
0.000687101925116517212
0.000925621882306253835
5.33730484912853199e-05
-0.00237691420806216726
0.00570255302735992332
0.153516336963007899
0.735234541253117824
0.00105319152646786169
0.000956743117464264035
0.000508981690259402843
0.000301307595923941168
0.000276355271547072743
0.000277274449177145499
0.000278193626807218255
0.000322263331947926545
0.000459463288083074826
0.000655771962942071221
0.000976804164459435607
0.000270107536523645831
0.00173004311964991249
0.0125949341144392032
0.075945105315937414
0.750235337183681072
0.00093745254296969424
0.00106393764756025069
0.00124907633086286489
0.0013713746357349526
0.00138634316069285979
0.00085079174236432826
0.000390732225230069918
0.000297621214812756371
0.000278193626807218255
0.000298368415657105875
0.00037345720161486109
0.000538383656962753213
0.000749179860516339599
0.00109686232352264063
0.00212438702468637072
0.00255096320013167236
0.0138003541144806688
0.0732238704253689449
0.746112619820267331
0.00101265723267521994
0.00201737665677820602
0.00283741659576889531
0.00228554331217631183
0.00206247278375590011
0.00163820941185090305
0.000828903739707196946
0.000358088781163390705
0.000296900465783832951
0.000373231402042463467
0.000509001880857789081
0.000797795189659406033
0.000925237783369233608
0.00135194618121823283
0.000845946874930600824
0.00880052251523855654
0.0163732749017529815
0.13674890535198081
0.74277799779288145
0.000462281173815705306
0.000719101224997652114
0.00129463263653707174
0.0035922947783936926
0.00646930029491067995
0.0107502776526338106
0.00803251439176146456
0.00809097053857747023
0.00261908745092016317
0.000771260795782007088
0.000385066397985871786
0.00099608595875503767
0.000825012922072083476
0.00108975366268188934
0.00121034462779004361
0.00223592253697234029
0.00778665087865641238
0.0153017566925082518
0.0162279622683921439
0.17298938592572527
0.735108449774110828
0.00965551895902436869
0.0071412159488954529
0.00160456881471074939
0.000672353210498772592
0.000502414514475257173
0.000572483026432521577
0.000763469646247586821
0.000931403295431092702
0.00111430280901895443
0.00120987530819218142
0.00114832923311515198
0.0161765262291752032
0.0405879741627541424
0.123801705356981526
0.653167091999651284
0.00561615604898322521
0.00131269776992109155
0.000748840664824846399
0.000443905313855182592
0.000310396639310506065
0.000343601382949295991
0.000436708399402354513
0.000588949288658174039
0.000805692285137640709
0.000946735279555682837
0.00113365855334541339
0.000482749652181956967
-0.00182566422348521759
0.0490679534712167437
0.173743880262861139
0.785692455947965884
0.00129023399002411608
0.000835118381456636171
0.000516442934020518683
0.000334168759145576076
0.000274547210297374118
0.000293468566362678994
0.000350803649364200007
0.000438734839019221481
0.000586628812832396505
0.0007405499078515954
0.00104393237813017953
-0.000204634856208811512
0.00139766412532611566
0.028228325289390354
0.364539822324905005
0.778667408916690285
0.00128381757756192562
0.000636044706860724248
0.000334474069212157893
0.000276229538457641987
0.000276355271547072743
0.000276355271547072743
0.000293504747304245924
0.000367004031313262352
0.000539191412565871177
0.000752307416147958018
0.000802306177873853259
-0.00203900619389143058
0.0044332385238210429
0.0272459483109925397
0.0902321696864004513
0.775809867154654609
0.00117403169423223948
0.0015254505055395033
0.00197361638461213476
0.00201341222450172842
0.000990557399563160102
0.00040416150330957202
0.00029618336114671409
0.000276355271547072743
0.000293504747304245924
0.000327488832126390382
0.000420296215877995183
0.000645525588962698907
0.000862054224176900903
0.00098603534207574047
-0.000331997243622602235
0.00873771088120720366
0.0317003495217925702
0.09167882182671791
0.772234719100375777
0.00148387987347870453
0.00552603338168941929
0.00636019158691357271
0.003677728678159067
0.00213076439702783752
0.00100574528824648457
0.000398474775406179864
0.000288101701321612463
0.000325611115420535282
0.000405841612929723082
0.000575572204749638682
0.00086127696128038896
0.000832556828888702388
0.000985893195779989065
0.00202100597214738926
0.0247404550872295965
0.0633807970778155899
0.129859864861888885
0.768667560274455042
0.00054141991657864492
0.000959211504843139368
0.00266008067598941765
0.00797814796705928302
0.0108004820437476966
0.0134114861946453209
0.00426924729741048545
0.00225619857973307757
0.000964552525799545427
0.000369493914729208538
0.000363294397711791948
0.000567796836869520699
0.000908924953478128673
0.00126628066197887086
0.00131015742099864886
0.00299186907601896313
0.0475092046446008789
0.114732556448280051
0.0817554423286613041
0.274549724986503763
0.760964372297398328
0.00975434978661558066
0.00620336231679042248
0.00438668456892868201
0.00063839259333269005
0.000585420858710767548
0.000677845553771788461
0.000891118550481498914
0.00107315113465068649
0.00126019288627633686
0.00136133769545251264
0.00191332690438250131
0.00110046254643674998
0.127800357026084666
0.296202703908313991
0.810484852849425286
0.00731766523431750908
0.00374863370069488961
0.000644016650353164953
0.00038628432821690296
0.000330753317448455851
0.000420681350272933277
0.00053551201980654977
0.000725245634990893864
0.00089418433910245078
0.00102693653671398401
0.00134091272110261131
-9.74870542896260142e-05
0.0042133446616058421
0.0644852292941867911
0.609556423360083643
0.804560804504866001
0.0013234478679902688
0.000698241925473140884
0.000425883991486870742
0.000341618706134901441
0.000307254571606618019
0.000350705863117075029
0.000428366128153543561
0.000535131348246010259
0.000725745950758742431
0.0008369931995004619
0.000681211430872221508
-0.00494012227110651563
0.00344632070004454328
0.0512785220282917578
0.627204348638406795
0.803488244231634896
0.00166299457104302981
0.00067855443728531402
0.000336568165375169647
0.000307349653834229218
0.000276355271547072743
0.000293504747304245924
0.000353682958844185927
0.000468446601996701478
0.00068951201445143493
0.000699820877453853694
-0.000852937331230010443
-0.00531334220872822609
0.000128248383868321755
0.0811113037228937267
0.228353940225436924
0.796954504553265553
0.00154071087138917982
0.00184231196022908864
0.00204307857371991515
0.0020971907077266044
0.00131405357020552443
0.000408111787897450309
0.000329165475627874512
0.000297638366382724966
0.000328997572147280435
0.000384447236835557134
0.000509520526157826036
0.000760643847017897961
0.000774233992389417969
-0.000973558388152785757
-0.00732937025927446559
0.0306564202053616688
0.162810921274539028
0.202455427939517429
0.792674645823865376
0.00146558667388981857
0.00267201642515857993
0.00328801320205523474
0.00343248065135746917
0.0025425337016248572
0.00103147149391447329
0.000407623283406173824
0.000335780524796368892
0.000380540311811495202
0.000469488178971257683
0.000637478868117367188
0.000808835545397933999
0.000885915263159516128
0.000801151733198126725
0.00300230208489597663
0.151745695793681579
0.516384512825931563
0.39623104774545248
0.792945837018130595
0.000558144240224546745
0.000968562146199209925
0.00175530553126173835
0.00665397071709534355
0.0119421552427082921
0.011633507545420637
0.00450654603584351582
0.00243240568765240106
0.000798675141446549344
0.000434810196401792933
0.000445958887940706465
0.000641328443250496999
0.000998233571944354353
0.0014501910791843496
0.00221541731408651061
0.00439697612770895748
0.0126975168433418675
0.393760331926318596
0.657528210852401651
0.613031912966003567
0.788464710289098147
0.00353226044686488902
0.00632488387807041228
0.00677542941164745085
0.00496003057258174746
0.000961108768128324416
0.000923816995520344592
0.000990582746375887795
0.00122859256312496477
0.0012870607940775468
0.00148804671709197329
0.00182336863856808569
0.0043803093721303029
0.00544908274218839847
0.0803392631324539586
0.674249999278730083
0.827312626389735017
0.00616745521440993129
0.00473316832743486335
0.00229375656164810659
0.000765510475601875544
0.000534260367287557407
0.000579034107506591817
0.000695025062542405222
0.000888312595552631125
0.00104817139288603412
0.00135596980902410948
0.00172072824675687246
0.00383243465160975271
0.00289137104970731054
0.0525355811770089817
0.292679910801632692
0.829641066817798256
0.00182248364857972222
0.000833953800527548889
0.000628496181957614104
0.000425159327526951672
0.000356912405773673262
0.000423233432427612888
0.000525540236408138955
0.000696809171108688473
0.000968427526829783144
0.00123615760379679695
0.00169844035917968432
0.000575190500006051483
0.0116354824411060952
0.235517996443485311
0.419895166404608333
0.818909195804893297
0.00124280130622796419
0.000759171723055197204
0.000443738138990439491
0.000342038078438807445
0.000307282981320245742
0.000353185599435655953
0.000463917895108438756
0.000645053057573363319
0.000909516687690417169
0.000913400059918873658
-0.000208471634163849475
-0.00570928838922355256
0.0393784228554305699
0.688450995612925443
0.742387293789847247
0.814765025435286949
0.00183488772158753571
0.00148852020176926201
0.00134719700274971155
0.00136645116125485222
0.00156667555040852476
0.000611693461565595924
0.00041831389203068935
0.000344291196243450568
0.000385858894465253592
0.000484448955778899934
0.000608814378276412204
0.000878303635260801628
0.000718133220083604041
-0.000731573924916041878
-0.00164725948462222244
0.0899365143149979812
0.706658873837734847
0.798095334333862816
0.814034359123412488
0.00123059303867454565
0.00142900704151400614
0.00141492216617870913
0.00184053554613147503
0.00214293048905917632
0.00160455639087268105
0.000575371854724256518
0.000427610920386685303
0.000469679832450646366
0.000558026646882485823
0.000611369357340451019
0.000927124972183638587
0.00136019417190379817
0.00175676648911603987
0.00212950336816967924
0.11657484776146905
0.716657510793553998
0.788208283720662095
0.813010240563440734
0.00053863152115871506
0.000841293412301069273
0.00123555878514173645
0.001449176579133943
0.00186748449240888448
0.00320406633455906469
0.00876412727331681365
0.00290654957326362496
0.000925992962631715273
0.000656128947786295156
0.000560510759223547921
0.000713241462176952183
0.00104310732966122902
0.00163979202423611132
0.00268719783519315997
0.00422066130123345627
0.0137046707847562777
0.218439301900971938
0.720398537186751842
0.788313886976169997
0.810353605263435695
0.00214890949717212124
0.00191900882003138312
0.00210445980429816229
0.00127762353702416242
0.0011783279961081008
0.00120537331581071615
0.00114198435237015472
0.000941475366309856248
0.00102978571881666642
0.00193609742910968411
0.00666946623421180423
0.0140299347319744194
0.0170957130389869719
0.0440508251594560127
0.506876980975831559
0.840393076256074067
0.00204655230262013391
0.00167611678563096595
0.00100910423949269719
0.000892371824500415084
0.000859454842707645474
0.00088063572071210149
0.000795571515107533576
0.000784084667062796056
0.000708214546715361546
0.00108393551459114688
0.00671880957469277347
0.0105268181995048227
0.0335498351303778891
0.0637283346216279828
0.615683706163170474
0.834693882618470995
0.00120704554132930551
0.000912746423311176346
0.000801165173082596599
0.000603537960029620489
0.000543656289073269012
0.000546364536817021311
0.000630435420453087539
0.000814705945096947303
0.00114830218019040808
0.00215475032167966943
0.00387429851763713539
0.00721868578645772172
0.119811083222569725
0.389946268811738883
0.830456297698159984
0.829352255495225066
0.000938320141792101472
0.000853035452473496639
0.000676204460426508896
0.000444957812158539696
0.00042890884242198881
0.000474168377154856734
0.000638826837035902286
0.000911220949217220037
0.00137536602192061186
0.00208937434219029321
0.0035240492328642843
0.00564574000847826041
0.0910690255778484059
0.775416669629521937
0.826551556033532364
0.82439737452976769
0.00121480472367377574
0.00137713452649961682
0.0013958961601109373
0.00122910901149602151
0.000927296779086782264
0.000755602104886753546
0.000617010708792133144
0.000437570479067854207
0.000482871966896068641
0.000644184032980262846
0.0008621361360981255
0.00123655100853195749
0.00183853769746425227
0.00315702179904189155
0.00474213042316375382
0.059784345572185621
0.67188310999041434
0.817842255236468918
0.821616211368580762
0.00104369125377031967
0.00127870109288063432
0.00130410485604244954
0.00108504425384207655
0.000777087789164252916
0.00164207444211007022
0.000826578449303945516
0.00060805514466571336
0.000563270434350950327
0.000733075489916218187
0.000892522497253802781
0.00132802645325870352
0.00220028393372708299
0.00363840076779434847
0.00588870644692685886
0.0205076732088291143
0.31765522227312698
0.813748533966913934
0.824380063569235544
0.000469975790168598818
0.000688672880415821501
0.00102345030430034184
0.00122719113926291487
0.00115220720235564953
0.000937313896222637826
0.00145023515444998061
0.00394397055428967382
0.00151354683162938856
0.000895189219915554961
0.000737365265011091439
0.000948036528706959589
0.00112166409077548834
0.00160238306726508063
0.00272403385944922864
0.00474100227162809786
0.00763530514859344506
0.0592316036054980205
0.513554365035798766
0.80975041287315408
0.824008111655134989
0.00177522644884293328
0.00186985006572634423
0.00169031487828111629
0.00167385097025970131
0.00160934989617874053
0.00145172472444632947
0.00164478446075041291
0.00288392257861069985
0.00608932912990541291
0.0174237950685003015
0.0182674506597128618
0.016337597249524969
0.0299810565492382788
0.0494421481475593172
0.384736035782220098
0.853249171695455777
0.00168210558858850035
0.00145536793264426905
0.00137520663950715374
0.00130797836199572854
0.00126308700070454209
0.00127886535479524756
0.00133777049937900457
0.00170923733737246173
0.00283549594324686294
0.00637429818456712073
0.01092894926660452
0.0139371261077858612
0.0221900800112113106
0.0393522104295176145
0.720233843981898048
0.841511685774402718
0.0015124656048702877
0.00112143578261967333
0.00107077661168095703
0.000950198474761779015
0.000926329882437943505
0.000926357642764925209
0.0011361600135901919
0.00169084091757291401
0.0023944938957659893
0.00490470688759992845
0.00695030463365020612
0.00921018256443518687
0.0129424584560287013
0.121012865420805832
0.865714399155244951
0.835803832935891333
0.00115234309388242929
0.000919222120531717232
0.000832934466816743916
0.000657933061453441163
0.000646167565239764833
0.000726458322713486172
0.000972928666120968571
0.00147505598157980557
0.00220554166370098273
0.00366159194165600757
0.00584901406476752601
0.00819998961888501569
0.0103908428268049222
0.332665018142181745
0.850912131232358426
0.835736933417069783
0.00128142783714627105
0.00136555668363476162
0.00130263349265767733
0.00115376269131743235
0.000991501335775650658
0.00100851675552176743
0.000887336569448123817
0.000604607830133219713
0.000626386008002239648
0.000890635927710871312
0.0013566023530304722
0.00251621955032595331
0.00357583409286391096
0.00483268735283998857
0.00674121184828181154
0.0085456595371747289
0.467509211242722267
0.853293010357804027
0.820408016297874187
0.00115316510270584583
0.00126078213730945331
0.00113412428501975891
0.00106444285104960196
0.00105680374975439598
0.000817335324615073083
0.000836761871853664886
0.000968911194730550946
0.000717592487765304787
0.000959350187288062753
0.00129923192348390488
0.00182734380426258962
0.00301455724109783111
0.00435261049055191574
0.00600123532925266046
0.00855377995642915036
0.115045845784917444
0.82582132160005628
0.82787641683572577
0.000648100433701515543
0.000709848427179081616
0.000964778298390858474
0.00117793109572252161
0.00124218913467281141
0.00113940150094620505
0.00102935005102470492
0.00173910621339274166
0.00260601411642408026
0.00168816043987600082
0.000940476946030199476
0.00116970377457886049
0.00134693576465436202
0.00155673478106670843
0.00232803112712628383
0.00400376416344265604
0.00643460607414638418
0.00889038451177972047
0.0349198389272533521
0.823905961783003349
0.827883118258732842
0.00204856230056767522
0.00200133882195422741
0.00240729247315975845
0.00278705350729536484
0.00287815781624029855
0.00376809292559879966
0.00483630854732161435
0.00595419712551823258
0.00829354385885187027
0.0138101103304727173
0.0124107966850847302
0.0129945474286569055
0.036573600185758802
0.0845244895221594766
0.837189394386492092
0.87743339027582401
0.00132899256794200438
0.00160046998488395128
0.00118507878896275363
0.00172938389269528155
0.00193773557214799554
0.0019106105914804257
0.00200617725998328408
0.00257452886714597045
0.00307696103739150094
0.00501967043212181354
0.0118894285650393838
0.00949303711824030574
0.0152179742115210789
0.0372962727589261009
0.681623516877967406
0.852359373714315804
0.000677677644993866487
0.00117849490196370293
0.0011229685552325854
0.00136843160595664839
0.00146751419248259676
0.00173419082531270905
0.00208888655697335489
0.00254003633537148304
0.00266582328556706381
0.00313605926441357097
0.00502569492564213047
0.00770016831468836246
0.00906416607081388104
0.0204808347237844073
0.602395660663889387
0.841663680736238096
0.016153302199306413
0.00900106738633699513
0.00211017359358037617
0.00124400227185174394
0.00170061345885129129
0.00182682302748944474
0.00203601725120336301
0.00231080657354647409
0.00705010582202539576
0.0106552061436101068
0.0106296351151253729
0.00962836849959266064
0.0104649384180628743
0.0152601638090450187
0.837934766310514556
0.821276855697713248
0.0010084337536302489
0.0015756478871077474
0.0137314633670908293
0.0147330706126682053
0.0155106683393082014
0.0144580289013281019
0.0144373620035520619
0.00918441230935857986
0.00893668647213050407
0.00867557628073781749
0.0103062406358911847
0.0215655106740075403
0.0227098414128535826
0.0105113165791147073
0.00911732531342583294
0.0109415115522815722
0.0123601723935321504
0.821067769140572556
0.800378071478881292
0.000977582020173271751
0.000986729937521717369
0.00148407936007375956
0.00626534353357352525
0.0123844229563141381
0.0142123603003422375
0.0172458046345153986
0.0155169585262143472
0.00937114701822617732
0.00804097260282004775
0.0110054347320385944
0.0143428759223687523
0.0153412598377865635
0.010951309338492126
0.00825373229883794197
0.0100747439822964288
0.0152953853446603314
0.550606639802132536
0.807184283261941804
0.000575894459848080593
0.000627131819635531385
0.000978361117021735692
0.00119252842380637909
0.00124499553076642369
0.00131014525361235895
0.0021055152993649873
0.00427935887601317479
0.00635970348725676746
0.00796748952692507596
0.00944125937581540009
0.00591627167964152607
0.00545622966979668594
0.00715139502412390649
0.0105263495398388029
0.00970172972939209108
0.00853399355934660736
0.00928857231927739981
0.009523650381735322
0.361764620116633073
0.820971377867531604
-0.00461404312001705615
-0.0022061980467828232
-0.0014665003036036081
0.00323442720027341309
0.00692470836843984191
0.0101949566610892699
0.0127629893915032506
0.0127668655253204526
0.0119270900007850105
0.0116164097305606877
0.0149537104762109928
0.0195272193273996718
0.0480419980546816228
0.402634051076582788
0.769776536828933544
0.90261571601429047
-0.00329334405331464363
-0.0059160407113958988
-0.00399187222677647655
-1.49035810766062413e-05
0.00206448061326689565
0.00292376863657343696
0.00562131202761904664
0.00654537203273443998
0.00828254964846280792
0.00923337390796015803
0.0100633781447939559
0.0126181723470409832
0.0203106928455768637
0.0495322308195965746
0.73264854859520967
0.874979275154220248
-0.00867966034137765928
-0.000870729944678537643
-0.000196620433359224805
0.00109389429467459656
0.00148239744107088
0.00235805427580097152
0.0025397157670138254
0.00266175964917931586
0.00313503159796221093
0.00503682267058187978
0.00767973786346398159
0.00984154937750785982
0.0120002250577668744
0.0203170472999246732
0.77382856210414408
0.847747429422332055
0.00347828651823804506
0.00336099141664109209
0.0020339368129219308
0.0035858999023330204
0.0108259489484387132
0.0188494463362645845
0.0224325627469394093
0.0192343250995491537
0.0117180383878625269
0.0151329614993625204
0.0114220199919720933
0.0108291119428006611
0.0116286438085951606
0.0152474536577976195
0.799926464987631869
0.837073047062855791
0.00162677261970173466
0.00412102604194314499
0.0106486785092156193
0.0096595829570730006
0.00731939861612710633
0.0203226088226615559
0.0249441197553717797
0.0255396798608217568
0.0263276661491571445
0.0269621380877060057
0.0275181928623271475
0.0278924605322821081
0.0279827098069196645
0.0265691197934454053
0.0167904964572832445
0.0129924731872877001
0.0154943882797565456
0.707637793819455796
0.79634185536696056
0.00162247758870567296
0.00193395018786218873
0.0028537326241839917
0.00420507646930729905
0.00503265398801122643
0.0118924531942793208
0.0250660125095435969
0.0263086878478601301
0.0269543794077980667
0.0275169181359419604
0.0281380002699518836
0.0283790701425611462
0.0281255778352718158
0.0279701778272797227
0.0141761517868886581
0.0114475290298523321
0.0139401876196142589
0.406723960393698625
0.818806600928721595
0.000210857036874421977
0.000341173643707689102
0.000698338526128815598
0.0011874013495030201
0.00169370523827997626
0.00207794315476843988
0.00321130105252383398
0.00380721959933800211
0.0180058404548230598
0.0260903785359360776
0.0274148612572483082
0.0281406535758639866
0.0283790701425611462
0.0283790701425611462
0.0283790701425611462
0.025217647405577498
0.0092396386477415389
0.0103381949471113808
0.0127532296831764022
0.0229910367203665228
0.811779214926617421
0.000384820535661945754
0.00116414452742345017
0.00123970762694716134
0.000181909819108670007
0.000104548633511417386
7.31763089746015653e-05
0.000100114321650219369
0.000188416465387531063
0.000507288659181204141
0.000595949680220568805
0.00101535492784440439
0.00246518447760044838
0.0240844319935918025
0.592987058677905243
0.794443162030083139
0.000367876775356587474
0.00115733649809962613
0.00117236456118398466
0.000634346791983673454
0.000202452047478639204
0.000105163715728823318
0.000101540907509763199
9.19831405669371626e-05
0.000228648786162095625
0.000230437875209279564
0.000399937336220036787
0.000658047413426230462
0.00219748803921807415
0.00173157642645716155
0.286108444189051125
0.792238148804770281
0.000480519335067554538
0.000758765915436489637
0.00153304735042543178
0.000741087726595916979
0.000194657955041598773
2.99190154726523979e-07
9.8117065720547083e-05
4.59425929227011052e-05
5.15209336668297983e-05
0.00011149800122686008
0.00027454915080666123
0.000564230721592887206
0.000797317606248229213
0.00121322048316182792
0.124315044982243716
0.789706135692576749
0.000536289322223648278
0.000964301126418217998
0.00188898393723455505
0.00136248702207409506
-9.71403889562974629e-05
3.67710745443635247e-05
9.65825203285471264e-05
5.63654766261791914e-05
9.62143941420348165e-05
0.000146132742308856028
0.000169075016556035409
0.000630958092499808092
0.000540429785069723029
0.000864018566721578229
0.150901187817290505
0.787249045566555949
0.000227372183914493163
0.000299208668536224019
0.000405283774389602941
0.000513083071173754939
0.00178331420342121871
0.00520539530199097978
0.00396653983233098608
7.40786113870332494e-05
6.18668070891230121e-05
8.62118783108744614e-05
9.65825203285471264e-05
9.52948708503880847e-05
0.000129168898855327579
0.000162196948154023668
0.000210845349687889896
0.00037412682479137367
0.000655760916056369238
0.226102506711565565
0.78445599248658815
0.000236226486605964044
0.000252546053042431589
0.000300655459661495323
0.00107692455388211936
0.0047048132052342562
0.00318746608990815332
0.000894609042993724343
3.64323197343716077e-05
6.7098919539593463e-05
8.03212488004676742e-05
8.62118783108744614e-05
9.52420219809788256e-05
0.000109670425156885038
0.000134644042255207505
0.000177041788097200605
0.000307597259078096924
0.000573478366966900539
0.207757577968780194
0.780977764969148058
0.000119392523852138017
0.000146978302505828873
0.000180462204612800168
0.000292587075310004837
0.000781935679566226846
0.00231856583918246643
0.00205791927071551127
0.000286462500116438411
0.000343117841595270078
6.69396901426292469e-05
7.97999642545272985e-05
7.97632960073395454e-05
8.03212488004676606e-05
8.67137682480716122e-05
9.57439119181759763e-05
0.00010967176662429184
0.000141257479260250673
0.000268425880642654048
0.000605159509095593126
0.135435771494746782
0.777108650604311113
0.000268973828464747747
0.00110624367430970771
0.00296490691674700709
0.00162803723119800056
8.80273835859812998e-05
7.79547433242304074e-05
9.25512243331708974e-05
9.31746431201117299e-05
0.000181503443248149109
0.000316434780310180226
0.000726950009144834491
0.00357704757111727834
0.00696466763471998047
0.294191708199121382
0.792238148804770281
0.000293585015196576001
0.00104663542171847391
0.00609037910858397247
0.0055223178258408008
0.00241267781323487029
0.000107678985731097761
0.000102935865794338
9.90068759582855417e-05
7.15694898641462413e-05
7.4144540164340083e-05
0.000128011832997670493
0.000660029182330749151
0.005747132365527363
0.00363752581360606182
0.160896737993456912
0.789706135692576749
0.000464894719953900734
0.00478404512978995635
0.00685055302080606922
0.00524185263842668215
0.00139135226514676739
7.93364621777234886e-05
6.96547389208160219e-05
0.000109420992000958692
7.29556011719750027e-05
6.14843606563084978e-05
0.000145492222995127377
0.000326396118547004743
0.00145022792819535945
0.00154798633123868178
0.138704427575080058
0.787146087062155941
0.00060634316197496021
0.00561189846054753819
0.00885071734623739392
0.00849326446663498796
0.00183029017636848908
2.20000455642726844e-05
8.39732097310256007e-05
0.000109150645338785553
0.00011192827024712267
9.11446282042495317e-05
0.000131601587377709584
0.000255998721575247589
0.00039617380613045925
0.00105324565248909267
0.182606800120480056
0.675843981018467987
0.000205511855378119834
0.000258398061162517286
0.00026262568509933848
0.00156274851962933553
0.00687782556554873865
0.00911853881286002824
0.00465653870946185992
0.00278728845163815631
-1.72128945062100398e-05
7.01496869410785735e-05
0.000101458041220019372
0.00010293147972393589
0.000123258227267028985
0.000148860432741075485
0.000187997004965710619
0.000450632762479874884
0.000876571867188899825
0.159359859418845368
0.502505748217415116
0.000195895930631609502
0.000212923535062101621
0.000241839384289067568
0.00239749465164282088
0.0062736524914429985
0.00325891791734638555
0.00129058629563835649
0.000263488324922874883
7.11440537944341394e-05
7.61356452619400598e-05
9.40541801304186015e-05
9.41966757012798177e-05
0.000103173293918202029
0.000127273574370580136
0.00016843099772326521
0.000413328838882576818
0.000712238672453860519
0.101438536893940709
0.599507668029060858
0.000118366233228444978
0.000146306936353365441
0.00018732355821601544
0.000285041184857850148
0.000743212924239783053
0.00501404677682980218
0.00188068133039126636
0.00028471047787074447
0.000238093344052396177
0.000234316929845959437
8.36357107282583589e-05
7.68756776621378965e-05
8.67124645810556116e-05
9.34184238032077297e-05
9.42484902096590892e-05
0.000107008108719460168
0.000139216866820129594
0.0003877490980420949
0.000662306674194486356
0.0665785287183060515
0.772861478643047217
0.000313124031549353698
0.000372572437175550857
0.00102229693943094039
0.00256536350031532322
0.00168497360059248849
0.000326367037740221038
0.000100785620908329761
0.000111272648328496806
0.000114337508939735678
0.000121904059209155906
0.000132108079812692076
0.000313062465289025318
0.00106940501338583221
0.00913468835043010005
0.142341130293813234
0.661278441136203821
0.000461139988838308169
0.000733081320527062042
0.00694263986613646942
0.00803273107644888497
0.00417721165197025568
0.000450004873845493683
0.000122671757486770335
0.000100094350798097406
0.000102205823641048906
8.86782688221733368e-05
0.000123112932262899944
0.000246540142107003744
0.00222276790779645872
0.00736952921136477257
0.0573885064884234325
0.772888860991517657
0.000667991653538605118
0.00653206582336644283
0.00904764831244418699
0.0093232461140730187
0.00725425053477935129
0.00108552706588709198
0.000241957837823873593
6.09615665231419304e-05
0.000116855451126874536
9.96699317382926777e-05