/*--------------------------------*- C++ -*----------------------------------*\
| =========                 |                                                 |
| \\      /  F ield         | OpenFOAM: The Open Source CFD Toolbox           |
|  \\    /   O peration     | Version:  2206                                  |
|   \\  /    A nd           | Website:  www.openfoam.com                      |
|    \\/     M anipulation  |                                                 |
\*---------------------------------------------------------------------------*/
FoamFile
{
    version     2.0;
    format      ascii;
    arch        "LSB;label=32;scalar=64";
    class       volScalarField;
    location    "0.750000000000000444";
    object      p;
}
// * * * * * * * * * * * * * * * * * * * * * * * * * * * * * * * * * * * * * //

dimensions      [1 -1 -2 0 0 0 0];

internalField   nonuniform List<scalar> 
7340
(
9.94448964610074526
8.76038574198430808
7.34266754432059265
6.50755180919881582
6.37935174280278616
6.79310518509286609
7.44027184084743087
8.275146748476498
9.3137402377057974
11.3872196456784511
15.9053546231069767
16.9874093392158549
2.21985903340588919
-20.7710464755499586
-14.4347593087700119
99.7998439458112898
9.86842285603142599
8.3307794232931851
6.93608653586070645
6.1446400544170654
6.04671288799611872
6.37855422350215129
6.89529577165289265
7.56894324568843935
8.37075630232181389
10.3216539699400993
15.8139496745712265
17.2682334479226824
-8.67869293245380646
-23.232655073669978
-12.8265515538478212
88.722884218264312
9.88513550330512558
8.19936068448765454
6.64039689457232107
5.87052794146527823
5.80328886466341487
6.09529264882956046
6.52499862189179058
7.06061874712533299
7.65925096520143889
9.7165403236953658
16.1138965002993793
17.5759976539989147
-23.6033195380398091
-24.219564805220223
-8.46440125831665569
91.3840070069459216
9.83813832778557895
8.08155428061176018
6.4699671147592106
5.7130492884971078
5.663794015736344
5.92588313585850912
6.31348303249629694
6.75033280093391852
7.21780415286357524
9.44585109317015004
16.5884909397075653
19.5405220884343045
-35.2170318368135042
-25.0668944045345512
0.0998827723360022901
95.7410491893833751
8.38394867278934086
9.91855621511750485
10.4110150863490105
9.64152634076252646
7.91827106905058198
6.4041905725202497
5.65960204402446898
5.58730523650215716
5.83576226473792836
6.20090210098756245
6.5733238462219683
7.03132585568108048
9.52083363444771535
17.2874755813883141
21.7797087792217425
-40.1670221729398662
-26.3607405565778272
8.07182062076230977
102.203021620365917
7.57440329637178067
8.78467428733123157
9.36777722606563046
8.95411515205006481
7.66655490411482532
6.46514469745900744
5.74060317123203134
5.57472609284819942
5.74807554703234835
6.10260143471792293
6.42233466624747873
6.94578726157093485
9.7859718975955623
18.6006309858383574
23.9821464337217058
-39.6810226943573667
-27.7607549393138555
9.04884600747547552
110.940343553842013
2.92221993534533153
4.55817967095613419
5.68711879937053677
6.4807294728602205
6.92373635984740687
6.91756128270091253
6.61080650010797655
6.12935110243632764
5.99535176468540154
5.73539600158574103
5.68550573511414559
5.9922500956115714
6.3558420439059482
7.08269554031796744
10.7288560569824654
22.1161337069007438
27.7987556399885705
-38.3645601314492666
-29.3321974634176179
5.15240109644514632
118.773196874634095
8.39358789662714422
7.29150934054357158
6.76179169911058153
6.7142858347832739
7.09962999961559849
7.79012912479776798
8.74579211698111081
10.0658178406973491
12.7404943918469158
17.9594084292725675
19.9117910509507929
1.93024101579000273
-23.717580329588742
-16.2565046850439785
160.445052058349575
9.81088889250490404
7.83120809904013804
6.65169854628853674
6.33989020491637589
6.4319293764812473
6.75577119529376713
7.27575438536126473
8.05637145886949035
9.08483445564401393
11.7185972283109177
17.7156779588836244
18.7908358371169228
-9.69955660272134246
-31.1290197510576618
-15.5503700070439095
146.422981918655182
9.67876550542590941
7.61738983017138871
6.43385602661405187
6.12956285177529558
6.24304765421361729
6.5267271713443078
6.94624886387019114
7.58246251537235327
8.3880377268151598
10.9810091619178554
17.8254146664358117
19.271658955752077
-22.0693305792331813
-37.9359817595330853
-21.9384904150163038
140.705622433648841
9.38386296763645866
7.42524936548159253
6.29220647546376544
5.98914120414306872
6.10597124320874585
6.37903239195085447
6.76967152640604031
7.30276173862879752
7.96999552125354782
10.571611516895425
17.9464137320164845
20.4402469851896029
-31.4221009034152061
-39.3358548678557511
-24.5460726083202729
140.101995045645026
8.89605691407770038
10.5471435256242678
10.4791894055518569
8.91154613854635613
7.09284600034631296
6.11975796186213472
5.89096083420926675
6.03951810194901562
6.32002418345804529
6.67987248949917678
7.13193842153284407
7.76185536081022143
10.375516430017008
18.3200301554921658
23.7620405892204012
-33.0804212740463299
-37.0053325439133047
-20.3425904967952533
146.944915391712811
7.53652269163602284
8.85942455395563933
9.11235668014427524
8.04664267650635878
6.57173303847864609
5.91249890414443513
5.8696003410169002
6.01090733248247755
6.2826854314115268
6.60222089634373965
6.98161331955699715
7.65862757129569616
10.6018728681776153
20.1219550265726639
30.2291880594992186
-30.7683445744208015
-38.5835135896671488
-18.6658685868019063
155.266994443363501
2.90155628447301073
4.16152036106315038
5.19962632660248314
6.18690290424637723
6.61600587231401605
6.2122434958174253
5.78864308853464138
5.60369338222386659
5.88443012769817742
6.05105994784639556
6.30045138882912337
6.60077905038692503
6.94092509481511311
7.84540954078811836
11.8906649073551129
25.3124575279658401
38.8704685670258243
-24.7047655669754818
-37.8647406402655236
-18.7733104385472984
160.668128880746963
8.42779508100089458
7.30067298639024465
6.99456766581664802
7.01836609079147422
7.47353596566760814
8.2413849988214487
9.38847487805672287
11.0321993770834439
14.258194849141054
20.459575541170345
23.962289673825147
4.07921740888932227
-24.3352099721223709
50.0991826259461845
282.148799640157449
9.27928319051619077
7.45948299573012541
6.47728290688860575
6.416150538981233
6.67263078176776325
7.08700927837164585
7.72467726243731878
8.69806159977160931
10.0131315820382341
13.0391676845051006
19.7840197588412359
23.0945158105573114
-7.39666260727242264
-39.742188263458786
42.1008808562089598
246.085760629099013
8.89370862164924247
7.04135477026136236
6.25345484883816916
6.24736121140063894
6.49430808757912814
6.86201306953021906
7.41303806474468452
8.22510270701528157
9.29501637893657495
12.0705065679137054
19.1142775005725341
23.1774696392466275
-12.9903959368472393
-50.4533247593297602
16.2082925752984011
229.189337466726329
8.41390666499826168
6.86062825870704707
6.16981452316026058
6.13950667581527743
6.38072831370259053
6.74488370949251337
7.24591141584768117
7.9493467580293915
8.8433387945660904
11.3879465446651356
18.6552178955776782
24.2326069296719027
-12.5931904325993198
-54.0115807912887931
-1.54995617316490097
225.383876691642627
7.0136976302980969
8.33698598506926913
8.69486538395548436
7.84960957580155494
6.61753795906804321
6.02912448569573556
6.05062795165684442
6.32554193438718659
6.70926172626383721
7.16420655788423932
7.75662568039623235
8.55753708050378492
10.9613590726173129
18.7357400661957598
27.7138005726413894
-5.32851632749112269
-36.4081736527340638
6.55334345290521014
231.406899125760674
5.41604134205951926
6.44802832154661143
7.29938961156286847
7.00366716499147834
6.0218546384827496
5.63474939338568603
5.90478918506035111
6.28212800241482672
6.70747321323152335
7.10269394028994405
7.59641651178293476
8.38314072429056978
10.9011600265140878
20.3933031850452231
33.1407931549017789
1.68993037400173307
-23.0707656438468121
17.4521575410519745
237.672719555777121
2.06064167595382308
2.74088039257579208
3.30933723442619243
4.15312404239382182
5.33193679594038628
5.50502952970219539
5.38249413895792195
5.12180198918549401
5.65798554091061234
6.2834896836335048
6.81094001343084088
7.11711422046670972
7.53209831461680857
8.46480389428611879
11.801366574541996
23.9253899404751174
42.1206695200525871
8.31659990766411283
-29.8200898356101334
24.5498311939149971
238.740724171783086
9.34989680531368172
8.79729042771328906
8.07793924298206001
7.71405537413434761
7.75524042990232854
8.2790649131060583
9.10005105232897549
10.2604698740653539
12.0661324180767124
15.9262330422022487
24.0580597770641766
32.5025553112529693
32.9525221979092962
14.5206967790958146
194.038822006285272
433.4312320474545
8.30581628538657313
7.41863570380456938
6.8721741905984528
6.85608019542700209
7.14609472925101752
7.66868233240426456
8.43950315492027237
9.45830705807460959
10.9664145196546432
14.4423335934616706
22.247760136415021
31.421427934723603
30.411470497462048
11.4393607849756478
169.755425925857935
376.44004815501853
7.44995619513247043
6.7376482383872407
6.46361401785703205
6.56209336441293978
6.86613162473666883
7.34575404231691742
8.0301952371313039
8.95313151506886129
10.2987689084990421
13.4833807553150713
20.6500531328958097
32.0745186981080508
31.4314973022100368
15.3538341895680333
165.926694031970669
348.40680041810333
6.72169466042438302
6.5247394454212051
6.400496288633855
6.48446454193641131
6.76684998193729648
7.22569275414138268
7.8760288783568484
8.76471508720199743
10.0426540393290153
13.0570141793125618
19.4896954566369907
32.0601546828794142
33.5138301614167489
32.7166740201384982
159.605843988161041
334.204417634063248
4.10397776134835279
4.97573167810373107
5.71074928843201413
6.2378089800869132
6.59612745023038016
6.39570165612102404
6.44175175681266055
6.74069716460433632
7.216444095084662
7.84218036406786201
8.68160994016034948
9.96676345052005175
12.8608004577575663
19.3198240832800714
33.5485236200262378
36.1041813388821424
47.8422901200012802
156.850462093675105
326.383437164745828
2.72652480949877418
3.3209744291156964
4.46025512113678246
5.84659242063749218
6.34244310221848906
5.96780008776560589
6.21905458025230296
6.6733792225854689
7.20606968247024593
7.81331546202535154
8.63622751934516053
9.973430177070993
12.8420844962412204
20.0176672098828305
37.4143249425301931
48.8452123183031972
60.1011248282090946
157.086387432919992
320.223841383837225
0.88147959847526236
1.20961244348879715
1.20437826934557446
1.75103341489901609
3.28954419341822568
5.24661938994371635
5.74883489572992801
5.37133516411902967
5.69060294271020872
6.52023798394723997
7.21991700297005856
7.80487996251966898
8.56797356787684095
9.98644020625510365
13.1624070116039427
22.1151806206309445
42.2084747928028037
61.6349322013561505
71.1140903040229659
156.484646692184697
314.077316464739852
8.69744372701868684
8.67371342042682691
8.43949624131626486
8.19582872720413569
8.11333270843822696
8.31661001255324983
9.13319304886469752
10.6858228628189771
13.5549166092543754
19.2680941462884903
29.8199168081224002
45.7441191351164207
67.222861004037938
87.2688185344601237
361.797798195656924
575.625852216057183
7.94094950707506619
7.93747622951592291
7.82317642666657687
7.70920277818722255
7.69541317816501813
7.91176062359113885
8.59503517768032843
9.89954034861251841
12.4273241297580128
17.7499896609715364
26.6091177016135347
40.4962599194748876
62.8703967301323985
65.4741292783976974
320.891353529048388
494.264392248337799
7.01891043497198375
7.26415265382067687
7.4269142363796874
7.43688729128255943
7.51312312017978812
7.81365059872706968
8.52159264938572036
9.75172337053936467
12.0988204463431455
16.7649193052746348
24.3462795856258616
35.874103728441554
57.1696796530204097
64.6426441721273477
287.109342549772691
441.096335793103208
6.22352559325827137
7.11389242568948266
7.45838126855712336
7.4323507566260929
7.52486164648937361
7.91609533862529258
8.70684663696718886
10.0363528875130665
12.4475257334156453
16.7078799116912506
22.7021766541554371
32.2073979075316217
51.5783295430562987
79.2168975099170893
260.183726452029305
402.132183449559761
2.54047081136356923
3.15811447504737419
4.22349456531182366
5.87079509638617925
7.19699403444100305
7.6042188568230884
7.50567966809795095
7.58537800974249787
8.0186116812715813
8.87691581077145919
10.2683402986636096
12.7606961351390886
16.7936549457162343
21.4802936185852786
30.2074526871815792
46.7989321344763454
85.6054158657921107
238.262271156102088
372.982922054125993
1.48898091310306047
1.894678931668202
3.38050094265241352
5.50843528541387339
7.07246856330145057
7.48530315518125811
7.41612201795518455
7.56847600793397035
8.06455639039898031
8.89252535541793421
10.2786615864910047
12.7222068697492467
16.3489671527777283
20.4737138318681602
29.8662685397827659
47.3732955709537293
88.6022057752086312
220.761428195196004
352.262637710008676
0.172957701704650635
0.510075100565465789
0.535654799720563179
0.900259256960455723
2.40499921805166661
4.71458391918696762
6.72621123691290101
6.93485553749649242
6.85753902747466171
7.32204173905168432
8.05348875133023157
8.83965521412929078
10.0703545151109815
12.1136554187354051
15.3886429929514712
19.797475627492986
29.9394634080221351
53.4705993893748968
99.3978362272731601
208.19166303597035
340.222688885077559
8.77099923157267369
8.90732861975581969
8.88747218615259271
8.83970749026175007
8.8076213618292627
9.49895490099105722
12.0338315020322462
16.1403377815315991
20.7558433353716509
26.5641762895508791
35.5553853062767615
49.1613648945545947
65.7403069190786766
122.673191048936388
415.905131477888347
710.127102274925619
8.22597070505626426
8.51957413423030019
8.65765781120821032
8.69195588840010913
8.8088173640976617
9.44398717292360246
11.0000466976445015
13.9252467344605666
18.3580877170978845
24.2802248197904085
32.0773679516584593
39.7623264081723349
55.8043948127406537
87.1255265283756444
326.042994123011795
579.301255871392414
7.53300702681929302
8.08693994230885949
8.51475909486475757
8.69040458312919739
8.88232496693791518
9.45895628316954351
10.7906877782348829
13.2678658552510083
17.031514552726474
22.2011297584987837
27.3914656633524345
32.9476885922652301
46.5810761303300396
71.0225204934364172
260.046179372328652
480.512270921898107
6.69696671984480574
7.70483725751835635
8.45629161320636946
8.71887080568699524
8.9198065692975792
9.53457352529659374
10.8698521810512858
13.0280488702417294
16.1973531808363305
20.4107406650492749
24.3459788813715008
29.0999297560887769
38.9864493834380852
60.9450363357285028
225.009309990870861
406.549784106261768
2.48213989762099319
3.38677449968432809
4.42214208869651415
5.9383124340097897
7.51727737966352905
8.63785653932842834
8.80261085275665423
8.79574159468268135
9.31661149984759263
10.5693277879153094
12.5425084093386019
15.2639312488717493
18.8301633650357232
22.2152856994214503
26.115619427895556
34.8262986974883475
54.7605654575877452
177.136023194294921
354.797527869511214
1.61036509128321503
2.30236839695871431
3.45359561575996521
5.54758431848870082
7.68449422241164815
8.92420995504302894
8.83708669381869782
8.53458165477308839
9.00954257566931815
10.1286914035418842
11.8036486876910551
14.1144176439201914
17.2985594318689664
20.4492150578838334
24.5303686059929689
32.4153955705589425
54.8567894850914399
143.485526140508682
323.169150781354801
-0.0382197728334361386
0.4533603840499838
0.875277088789628621
1.4900518750621341
2.90703010983051247
5.38469354730932981
7.97950983846552209
9.08694429336430609
8.16147773444703617
7.74818588802177377
8.53150289731987499
9.69446727086112148
11.1505052113159007
13.0866015342867001
16.0299915613625785
19.3003315038891685
23.7070493392745973
31.4715812148540657
57.6501366847166707
136.583803298991597
311.439663249834894
8.47410070036708696
9.08858169654929782
9.28504175251030794
9.90342999339342711
12.1950095451709615
15.6328550714788364
19.6925426086250965
21.8390913688217125
21.6135179720166164
22.5894051945473677
29.3298351956941232
43.0507114283366192
63.4840963498127948
121.110701612493614
371.33409998860418
794.303183097879469
8.14284667908906457
8.63765871807826358
8.83211676160630432
9.09189096548457343
9.55561908412552263
10.7893589212787635
12.8169866103765795
15.7393493936775215
19.1187954527795725
22.7781287537362012
27.3475246118810524
35.9462828235251948
51.0410783537731305
86.9124156398663388
233.764126777485217
604.819350002356259
7.87755777335051199
8.47989094719010161
8.83463131310401195
8.9642260933674347
9.09531285734119166
9.76314105068755111
11.3835186871956004
13.9461133413347103
17.3585406081232421
21.2926421891036348
25.2746119657760815
31.3346757842600994
41.4845180238371896
61.5083096191501184
151.608988839166045
458.666779242070788
7.05858704682641758
8.13170166237996561
8.69568492979837693
8.85344051302833357
8.91168886114150638
9.53154679642886293
11.0730097235197746
13.3467676940906621
16.4523161723832061
20.6539564508620437
24.8012741826522571
29.931350998221312
37.3386689435658354
47.4325862154652498
111.698749322099047
349.907375033314111
1.66919267467364607
2.56090628148144539
3.96679849169918342
5.9567892095846986
7.72274138962210799
8.24031566815324013
8.26671114558629583
8.29816160151163729
8.97118188584770238
10.3916562931433631
12.4921474770606586
14.9628801244452845
18.7609679126452775
23.0347459814154014
28.5546326122744141
35.1887986079224291
41.717542560854092
88.3033554111002559
274.735300035982846
1.14019196566966929
1.86834274730381678
3.13559895826379087
5.50967220741252817
7.68034519352548628
8.2791385119657015
7.97665620246403506
7.51624809856949483
8.18199276695766997
9.56648736732699234
11.2765470961834424
13.399263012368511
16.8898032221337289
21.2905824397104446
27.3756220975668789
33.8551569378838337
38.9363361039930709
70.7076861056034431
231.456325285455478
-0.120581475838338115
0.248792764629032437
0.691016330227169018
1.41719465888157803
3.06753937386895625
5.650680213165999
8.17893029555713014
9.60720025805655631
8.65901232061235504
6.95038080992497598
7.46812634447018908
8.90363311570811078
10.3926799292800656
12.4305250403136238
15.7028122974868687
20.3452836378641919
26.4965010349743366
32.5722929944852524
37.1019099019404877
62.4925786543427648
218.342617739446723
5.85363617901306732
8.90563174909552657
10.2730108465564633
6.75628217898530892
6.40519774189035473
6.92412814756426442
11.5471742471365282
16.1079361804516523
20.695006094467594
26.3920884594347278
37.8247132810706432
51.9567309036163465
78.9036298432168621
173.362899620254723
470.972119159128965
869.858733976749591
6.37103494153286487
8.1547221987530385
8.58036203609211334
7.83610626547448508
8.37548431401826576
9.87580143134232813
14.8250539544243782
19.162825813013626
23.2197599827853622
28.8979632612894655
36.5276998409742646
46.2670779718066498
61.403672391701555
104.646335940898794
292.379672784393165
653.477746237513202
6.45559243174388975
7.60205314456275527
7.60570640480481153
8.20114823882992461
9.03083366505108387
10.7185774108406608
12.6975128351232485
15.4214953493464719
19.5345648807844547
25.2198384392634551
31.9852067153852815
40.5017330562704529
51.5501698850006989
75.2310839433247338
175.589544045325056
479.76899863659014
6.53626609402105085
7.41625910560803003
8.54535403162182305
9.10187328713808341
9.83183262047755591
10.4094257391830602
12.0019061014725352
15.3723447061813161
20.5143081113611849
26.0689893376668032
31.8940864749091375
38.6152673802034485
47.0192970097380325
58.6962337140849186
108.438913822415316
351.407835556014334
1.6100403607092586
2.04149351449461136
3.70963033031689804
6.14169102917166043
8.24119496842877375
9.98956778242359178
11.0984113465068788
11.9298005233033209
12.3858903486888963
14.0224948810922001
17.0197332765205047
20.7413070703719598
25.1962690373282285
31.0830932441522165
37.5330622656768327
44.7835712589111594
51.7330385667623389
88.0459640843791931
255.118495725718731
1.08811016400199367
2.05615484815439764
3.42162184632302058
6.00609041481075145
8.63992828070878183
10.8916797840530606
13.3158657668873417
13.0147363802702429
12.570743174245429
13.4759060281143093
15.9492827608209709
19.2234080761369981
23.5122346684289383
28.9340226249976809
35.6068758472492846
42.6233525093224301
47.7966527568883635
66.5748956827959546
192.93747738926686
-0.179480597792992302
0.0137511385338071612
0.445021746732949364
1.54621227921038873
3.41511627769815274
6.33740220836982004
9.5419645630457417
12.8077199221774425
14.7567414966339427
13.0500350862881973
12.127823216742307
12.033247850732856
14.7226983797217912
18.0959721537456701
21.7024238248488146
26.3689711342427628
33.5411186300289899
40.0810753353550453
44.7937284277422663
56.7034000700926981
167.858861207913833
9.56449994145417293
10.3300165155151724
9.84202337125137205
9.23927341813572234
9.20520756856911326
9.46516878875885226
9.70810752913070374
10.0018976713716583
10.4606366944090698
11.3970563453476501
13.0823985066361033
14.2403884813420412
7.63695065359810243
11.8638947705834426
84.6362757206633205
8.06320087836329691
9.70834865897476185
10.0749886277755127
9.27697788753300578
8.65731645875547962
8.73100132494166736
9.04916825863989338
9.27204482086305148
9.53024053997102172
10.1375306434875601
11.5056081930927103
13.8782261818069905
14.3830926302620821
7.33092842533653943
8.16079069077949271
64.8070484485184579
7.90369283593337713
9.20977927132193841
8.91092571422156254
8.01471835435954283
7.6947697234152308
8.09114257033288808
8.48617627206056824
8.7621854519871416
9.0873666490155216
9.94053114029422247
11.7116359552543781
14.0824376463383842
13.3087237005649364
7.34577223304138727
7.04839309084962906
59.6915705018820972
7.35866904697090085
7.68312116741014606
6.70207286842049488
6.10065348029028698
6.49366410621450463
7.30620057451997518
7.80854271798859578
8.1828504675897733
8.64885575648733251
9.6709721426165558
11.8809562714356503
13.6908889125915749
11.973880026520229
6.48309395404946631
4.96977858164456165
61.3868135858365349
2.06353492840672592
3.36550077343492626
5.06716619204417817
6.19180712636718766
5.32467789580887629
4.15329109125873863
4.02254702620542126
5.29390726581344406
6.38532006685029163
7.03186708181011255
7.54260833742791093
8.1429762651945552
9.35468562095559619
11.752447139176347
13.0442632749301541
10.3363330097724209
5.44784923925876541
4.67507604240404362
63.558612860947278
1.79756358050395937
3.02300273934958819
4.44558300097211756
4.61196030912561117
3.07638178438506316
2.34564557819547392
2.69627102203466684
4.20865767886606079
5.4300026584270773
6.24317415021376654
6.91627198870403692
7.65476995723999387
9.01249374816745075
11.3123965926569774
12.4961182265242066
9.18832462364397706
4.93693240769481712
3.53665548660382001
65.4043352344547202
0.426566924411114101
0.755482767345973194
1.52723941750599668
2.6084762783038502
3.55592418847318692
2.99897561781359556
1.70011605562215973
1.60888765806961809
2.15470300398524994
3.34217258609396195
4.55944079900815602
5.51493904161357662
6.32524770291831917
7.13215816564061722
8.52255561240104953
10.7241172871016062
11.4633532495104866
8.52644710309847298
5.04938887874839892
1.1940505204502756
70.257375273138905
8.88742163783964756
9.40595466674028557
8.85373253072256716
8.50208223480161962
8.72967456611334569
9.11842723583047743
9.3878940532505819
9.68043319173191286
10.1057684795446079
11.1268857582359519
12.0740228958199651
10.6205130070522333
5.23362633907550823
13.2936662326077908
64.3060994902760967
7.2623970953160697
8.66359075955178071
8.67248783712916804
7.62530295258792634
7.46504183242196717
8.09270536949346031
8.65761916655152852
8.98199388400305665
9.32128314623180287
9.87975214976814442
11.3072887118644658
12.7047014528467166
10.3085716238147587
5.69658920296624416
13.4031068015315498
51.7768238701326027
6.71799267837679714
7.59230523713403826
6.83879503834328695
5.77795252852885
6.15196774272567026
7.35083560241777434
8.08119481725242217
8.51359967705710829
8.95211598298138789
9.70813956314116311
11.5693903690998905
13.2105909706417979
9.70567327618670106
5.25336399448447633
9.02333215428387803
44.2095612021730631
5.78846867300568313
5.53211939189442781
4.35974802892222613
3.43102142266918975
4.58088721633171314
6.48710883329030885
7.40225309858802305
8.00045223780275094
8.57867608909357848
9.5644249026373771
11.7972446963744488
13.3512128016117
8.7435328572057216
3.86425065306493387
3.63681849237951837
34.5455347233437351
1.52789300352269586
2.38485499358964059
3.65319968787516958
4.31990051386449281
3.13462753723943344
2.02714340505441371
1.54698924389851378
3.15450629812909167
5.50121176725047523
6.64354486047305759
7.46446529958656768
8.21451253830390193
9.42904455831932431
11.9211843533364146
13.1172184881605318
6.98117241491556406
2.98254622955765925
4.23978811384051824
37.4646818423940431
1.09025472861884287
1.92250623187120073
2.91927525644000152
2.61463994380531783
1.35525769395397333
0.821383671536752402
0.808877364928112463
2.32793251686244496
4.59963701364687605
5.92118030684932872
6.9455409855124719
7.88151247578792535
9.31238506291785662
11.9177037331286506
12.7444410945181552
5.72289274627307254
2.96159991111394483
4.14796714245736098
52.9235384545836496
0.0364907304017410006
0.296498342542927951
0.764039580004812091
1.55492737823670257
2.17492332495755525
1.28145919911799133
0.556988962520671649
0.468551017794561986
0.599411649288156934
1.96598504179094569
3.92763564546926691
5.32552468124205269
6.46290431396923459
7.54156341269008745
9.16279462293852021
11.7381219005932902
12.1937279802205776
5.29546740764263291
3.28405867139765073
4.86740503442013051
67.4109048306270324
8.41111570681687581
9.35600281472847328
9.43716260178342736
8.35904043900671212
7.88012353339879557
8.25027940949185457
8.79559633002789809
9.14784759258866131
9.48369613845545523
9.97572986251911153
11.0190107661924284
11.3072339368692685
10.0363416730964374
4.72539603037159495
1.6820879935040125
48.5950038478018769
8.16774402916210285
9.17586559545472547
8.56704493866699934
6.93290193701292345
6.68561811846975651
7.56057568574055061
8.33394037379868635
8.74929755081135774
9.1141637436287688
9.66539976848145166
11.1486499486747075
12.0335862373916918
8.52263548006158445
4.09804112515638153
5.66093037493287454
49.9078559542210769
7.76181281600542228
8.0753054619667779
6.59162897502355349
4.81586363673175555
5.18326844263517295
6.85579135991607558
7.80760554653878636
8.30274110985897096
8.72164795990331321
9.36919188831092065
11.340252892137876
12.7606182712613307
6.90689733094727121
3.2131455963248241
10.7614920551547186
52.0470246052339007
6.74762187989004492
5.75250715289725001
4.13836496786412056
2.49617654210075912
3.1622399196382478
5.74886731003746032
7.04007087773390783
7.76663602900439809
8.30474531472396471
9.09779290858510237
11.5423086347387809
13.135797192300231
5.32523213478646706
1.66496304693197228
11.544096467030613
51.9845713510228506
1.91217402696456684
3.03921567037984008
4.38084565207056364
4.63345366870434638
3.11316962148140419
1.83871098209770523
0.632675675193453912
1.57213126461718034
4.39675368840788217
6.15256927699517053
7.18280450179781571
7.87728724272860426
8.8562510713843956
11.6851389302697797
13.1148631484495919
3.69532895111673199
0.587962185247669744
6.5637846229140564
49.6339701665729081
1.32613500168893994
2.30829022914598836
3.21906717192593206
2.27770814348653339
1.24686014856501082
0.479424819712563455
-0.243201711878549887
0.870232008494062903
3.53701604920158719
5.45798385937149622
6.64133962207729045
7.46688125362459232
8.67525703465392617
11.7795880002708593
12.872163545484872
2.41594616636073622
0.314226792320706494
2.20946968224441775
49.8388087479875139
-0.0937026824330053909
0.243457079730322601
0.8710946231903689
1.69552170400966906
2.15029603401980118
0.77545974829848241
0.340283428190024217
-0.0188925271150939267
-0.448760189881693083
0.580996086414381718
2.96802548215608386
4.86658889378084147
6.11681124813351396
7.07142631772492258
8.53138657705181558
11.8609971944296468
12.6615196103964998
2.11317605730417846
0.54512559564226315
3.32668631505012513
64.7018197682780283
9.55423467397672255
10.3276229444323508
9.74771330346183618
7.99585688029191921
7.27025422581059821
7.68552655166920662
8.38283505773961224
8.83249757378277778
9.22196116755712225
9.73540158259452681
11.0697230053444784
11.3801515219617979
11.052586184435512
2.73946321220516076
0.694770523119075278
40.2294250779877984
9.68297469628066843
10.4814156975050903
9.32067947953161635
6.8032936139025928
6.26963194104996191
7.04664123322889768
7.93970215777890687
8.41521602862101226
8.79412430853960458
9.32305113355270443
11.1357951828567074
12.0120711378426215
8.19434615472172112
0.774398397771831171
0.260440362028617756
36.0638517037859856
9.65915620131552544
10.0335338049842164
7.86732999616433659
5.19512898659539246
4.99973076196602051
6.46394243020834303
7.45974455245883838
7.98428533350641523
8.34230965902969501
8.91124917143927142
11.2603080640637376
12.6719167462203046
4.81164330806156482
-0.0804819754341234983
3.16571403457774636
41.2107851146938629
9.03447531686640204
7.82142368441556357
5.63730235179477646
3.23700638537223284
3.11224029532321467
5.28876274080529463
6.58359557657575856
7.36709986342410428
7.84194954216282802
8.50400007000806646
11.408599860415066
13.1379331305184532
1.92300949775095775
-0.988024216439509217
3.39310082158129944
44.0183511539798928
2.67183354443325616
4.39523861388369674
6.29753000748760527
6.7572581492616024
4.71759059291703053
3.20365938167106989
1.13788720313136693
1.05547263483864384
3.37714410658868402
5.36537805413289348
6.58973464518390539
7.31941952736391599
8.14909743969828959
11.5607867639677444
13.3485226699710484
-0.323652853769411664
-2.62180763008382467
-0.746863253844992414
45.4276843869145068
2.00253046147787517
3.45587747937547052
4.64730306931703652
3.35629981651254283
1.86803587040446217
0.732536461054621668
-0.784937336578227729
-0.263470441496229668
2.26029987788889741
4.58389115583877604
6.03133442678004617
6.83507456874555075
7.88359197529624645
11.6872879443337112
13.4378964429541679
-1.80083103288951518
-4.20749829423627464
-2.41278146280183137
49.8723994535321253
-0.0269213504272953763
0.489269187275395367
1.38396569181140672
2.47358576921618045