/*--------------------------------*- C++ -*----------------------------------*\
| =========                 |                                                 |
| \\      /  F ield         | OpenFOAM: The Open Source CFD Toolbox           |
|  \\    /   O peration     | Version:  2206                                  |
|   \\  /    A nd           | Website:  www.openfoam.com                      |
|    \\/     M anipulation  |                                                 |
\*---------------------------------------------------------------------------*/
FoamFile
{
    version     2.0;
    format      ascii;
    arch        "LSB;label=32;scalar=64";
    class       surfaceScalarField;
    location    "0.750000000000000444";
    object      phi;
}
// * * * * * * * * * * * * * * * * * * * * * * * * * * * * * * * * * * * * * //

dimensions      [0 3 -1 0 0 0 0];

oriented        oriented;

internalField   nonuniform List<scalar> 
20856
(
0.000739194510354857426
-0.000216822165195859574
-0.000110894482147034224
0.000728230284523952859
-0.000215514702312581664
0.000133836875046764131
-0.000113848868207422525
0.000706092649466305892
-0.00017484780108176825
0.000133577176321314766
-0.000130018384933918915
0.000666349297497158093
-0.000114718131253991069
0.000130480157712615873
-0.000132735476354209532
0.000607872692487687822
-4.18182902799704693e-05
0.000114502918240431116
-0.000117450201130333466
0.00054443275707440834
5.29658948435475735e-05
8.46217232813388216e-05
-8.47177647608272926e-05
0.000473252839433267703
0.000179014164397194985
5.3546989271244328e-05
-5.38246092075538203e-05
0.000394027606423741654
0.000327970177383276923
8.49003839717980591e-06
-1.01097546404770362e-05
0.00031363728089061954
0.000472196909237557996
-7.38702978600471968e-05
6.26655217531526561e-05
0.000245369978514857685
0.00060714457012082891
-0.000194968970449532861
0.000180374397000636783
0.000201308117973337917
0.00095474633481321678
-0.000368334659082302299
0.000317407958240710866
5.99059283865457709e-05
0.0016478234694399295
-0.000992463099876507091
0.000982581559859868484
-6.54374978013032613e-05
0.000708955088065592624
-0.000908868001305241247
0.000947100772330664573
-3.81758621526274132e-05
0.000954010059030889262
-0.000160345068001123501
0.00016105186989642765
-2.508556762507297e-05
0.000822595182827940904
0.000175399401651984288
-0.000167528270054541405
0.00119156105030522141
0.000156101260080814105
-0.000156979864095747933
0.000607981810332047941
-0.000197929762834370983
0.000111895999713078093
-9.14461543120655449e-05
0.000587273279451578658
-0.000191307969454660608
0.000120385514018943681
-0.000123883922140603033
0.000568814109534200238
-0.00014408981069929293
0.000141037718048817669
-0.000153335930482933428
0.000524900154441511357
-7.72322816759885049e-05
0.00013191941688911761
-0.000125489946977363988
0.000457045743058743115
5.04433585131102357e-06
8.86960606696108884e-05
-6.77038121762698806e-05
0.000386256411267334068
0.000100701017422082911
3.78576517166150076e-05
-1.48016018771579249e-05
0.000316353652471741903
0.000234093390914916699
-7.96167564408030602e-06
2.2787730524880006e-05
0.000247646599435067522
0.000399129880557558638
-6.67204513545302465e-05
6.4270765117434273e-05
0.000190412106263742156
0.000544879395327780344
-0.000141338676455573842
0.000125891934938064947
0.000162202571959528367
0.000656236037773964224
-0.000254974836330913637
0.000234092567142597216
0.000163915046182061015
0.00100838064037325368
-0.000398976940106095235
0.000343629805879387066
9.66603735586893929e-05
0.0016483391485880947
-0.000907141366266461693
0.000973879442781367646
-9.38823716419917104e-05
0.000838297470242801838
-0.000837282763948778434
0.000898483043892376221
-4.48794442774422297e-05
0.000885484424347463602
-0.000174023214955180755
0.000193546541355024346
-3.41550088398576525e-05
0.000799516803075230671
0.000178886648061373535
-0.000166532465276571635
0.00115852149508804698
0.000153461368670183655
-0.000154577001831936899
0.000367826735471402989
-0.000183977947368922342
3.02051851657745993e-05
-6.06700186471908066e-05
0.000410304289787441013
-0.000182311272316375229
9.35530802927009178e-05
-0.000145027664679868971
0.000402422914112972319
-0.000144488337610005046
0.000120448800514013444
-0.000112168459547188444
0.000339480442593355163
-8.04175415961423906e-05
7.05406537962160985e-05
-4.41305456509712374e-06
0.000251902204288877347
1.42177538723970925e-05
-1.41396444105472977e-05
9.25429762289061266e-05
0.000175217528183960978
0.000121071845665752479
-9.08942695534216985e-05
0.000147209033929203745
0.00012503930831306298
0.000258168667909572185
-0.000141554179519844797
0.000167659984398134393
8.48409833232113299e-05
0.000437075467923790032
-0.000179791594775247283
0.000182047089734702864
4.96916791768378939e-05
0.000589896689162575007
-0.000224984910901182892
0.000215116361261674335
-4.31644264060201889e-06
0.000715680633452370966
-0.000312111205115680362
0.000306675378577097636
3.36064586074778904e-06
0.00104667387795131465
-0.000437091922025898251
0.000391124233744630928
6.20653700489442691e-05
0.00148909707948062606
-0.000783924892539028333
0.000884463466486927149
-0.000104873705482143607
0.000914887223196222867
-0.000729139098604299381
0.000819488283557789931
-2.8815549490251763e-05
0.000749198234637056927
-0.000175791146620754286
0.000236020823735332989
-3.83440527206806831e-05
0.000788018408911081783
0.000181352261662062644
-0.000160325382233599028
0.00112015941817442057
0.000151850265306592807
-0.000151832411634167256
0.000154728233199955629
-0.000183191735828608414
-4.61487230876066564e-05
-6.63866035429694378e-05
0.000206939137606790714
-0.000192280644318585108
-1.14555850754378095e-05
-3.07878842864312791e-05
0.000181169187268231371
-0.000169536226713290202
-4.12804277977936608e-05
9.20987429244517734e-05
0.000112655714615733787
-0.000112403414612017612
-0.00011238100542788917
0.000212879782076492671
4.30643263714493836e-05
-9.22703852372244542e-06
-0.000191827079789448586
0.000284862835133804435
-1.88221479006365117e-06
0.000107607840694705123
-0.000240204234380205991
0.000298619595588421377
-2.50049292087771292e-05
0.000248135965477837132
-0.000271582991778022043
0.000304740817931440852
-4.70761451128996641e-05
0.000438484003687773663
-0.000288416007660400307
0.000309076266662262401
-7.08621332025131338e-05
0.000602206967882296974
-0.000300165887465448158
0.00031164056773608196
-0.000117161814950596913
0.000744725824475596853
-0.000360534751403203629
0.000377786896279840132
-7.93302304846662387e-05
0.00103047161352742313
-0.000482363353997198284
0.00046073063220275815
2.52490720799910661e-05
0.00131648934318468174
-0.000697419613303028275
0.000765448756119834666
-0.000104654968237861799
0.000963814955123089138
-0.000641434406764938977
0.000722411662613508501
-1.39163903590943804e-05
0.000591169723807746274
-0.000178217512736625827
0.000245507611688283256
-3.91079007217636984e-05
0.00078259369722040689
0.000187152428526968033
-0.000156536191174974187
0.00108007817814259458
0.000150173083069395303
-0.000149199634360194344
-0.000220471379947218135
0.00018317964825709975
-3.58035848402979174e-05
9.07453760125578001e-05
-0.000228126443491947475
-2.59054425548322482e-06
-0.000125617265226060881
0.000134126607864192612
-0.000162169855389947607
-0.000150448320761618947
-0.000146391313423653894
9.34313959930774745e-05
-8.23390341609826759e-05
-0.000212979889337834544
-0.000152753900511114671
0.000102709555472865928
-4.53559338369968409e-05
-0.000238477189796221966
-0.000172657663883798301
0.000181871365101423602
-4.14046426426656165e-05
-0.000223951667850537552
-0.000211164627453804096
0.00026162946419133954
-5.26608234780013109e-05
-0.000179997193059279519
-0.000253201634775695539
0.000332050893218102802
-6.97643458179558328e-05
-6.5135613480138318e-05
-0.000304543641804621385
0.000377559330640449991
-9.2450263189628739e-05
8.02509144377436788e-05
-0.000343140850052858044
0.000393187762670431883
-0.000107788277625518026
0.000223050222957121218
-0.00036116401066827586
0.000401587463889102386
-0.00012620597562075213
0.000415405264803277218
-0.000359573951752619229
0.000401068096546572741
-0.00015735843548927384
0.000598636344922735277
-0.000357890667718354922
0.000392612980089335564
-0.000199308241850879692
0.000751660679325571513
-0.000400021902117309752
0.000435034656022481613
-0.000152833723352711719
0.000982981654041071694
-0.000526944588273255414
0.000527961294167442435
-4.0540411584166178e-05
0.00115143107883538534
-0.000628472168249214944
0.000681237293257128227
-9.6776646847490701e-05
0.000949473146303564689
-0.000563916879988686113
0.000634493803883390923
-1.69748244299204674e-05
0.000454020283363160376
-0.000164189361875364956
0.000221538088192243837
-3.87192545468283242e-05
0.00076581407448052057
0.000193390637347341533
-0.000154866352708432045
0.00103947601253697678
0.000148353930299831982
-0.000146471228414309671
-0.0004153770348629318
0.000237657893813485307
-0.000118705002658541596
0.000162001380303411588
-0.000383847635189800591
-3.49359890434840648e-05
-0.000185799010995638944
0.000186613928210028232
-0.000321623057581376021
-0.000193168801313588201
-0.000210698912595082803
0.00019119419910800344
-0.000266546219854620937
-0.000281217266562102958
-0.000214113766684829651
0.00022727366104119138
-0.000237067894651994833
-0.000310637204334729151
-0.000226028220145698625
0.000268711069630114645
-0.000213009799966110911
-0.000305238995066722482
-0.000260823523977826818
0.000318052273110465107
-0.000183538236429830917
-0.00025950262723890762
-0.000312878290014216955
0.000362910908954778341
-0.000156934640604381511
-0.000131164422068584855
-0.000367703458730991601
0.000407130285468097796
-0.000152913170961579872
4.61438783589835104e-05
-0.000401598037543408404
0.000431681073600652322
-0.000147750022689921841
0.000176609283520105684
-0.000412502757608722856
0.000453778994249953802
-0.00015758512299906104
0.000378385961423440172
-0.000410844372285199466
0.000457703332298321081
-0.000190831753055812508
0.000587741463846175576
-0.00040214504740759561
0.000446286948011600214
-0.000229044615045956708
0.000750853050564464727
-0.000439602360780479476
0.000478623750326411153
-0.000192980245676355438
0.00091407673019152009
-0.000546383938097843767
0.000579223013247870486
-0.000107574325655514352
0.00102281738146363203
-0.000585070437382234848
0.000628277820901869161
-9.51951561921020165e-05
0.000873602851984035312
-0.000497283586641260799
0.000560775373927378438
-2.79275616892276464e-05
0.000328751108817045337
-0.000146497483508062571
0.000204498701108200934
-3.84807519122657652e-05
0.000736365876624915563
0.0001927073353971662
-0.000152706119954359472
0.000999122385497251166
0.000145535653562469763
-0.000143662686786610215
-0.000311766872551281549
6.22136822735844263e-05
1.58950386264458828e-06
0.000520531875952183476
-0.000466214614871477524
-5.69708505476777583e-05
0.000122466108497270063
0.000492996576286182722
-0.000475308859050678706
-0.000160742099816137195
0.000195796123071690379
0.000211697197538959585
-0.000443277019764695961
-0.00021512828072596727
0.000225862202628095523
-7.77022852902829839e-05
-0.000411403909961355254
-0.000239544971455728369
0.000254847322539052102
-0.000240345257692136554
-0.000382120594380238395
-0.000249245324140876456
0.000276258719350395044
-0.000337513534222956568
-0.000350319045656541839
-0.000254591565847416912
0.000302491689640071396
-0.000390338109340195754
-0.000318978064579118238
-0.000269970644944336128
0.000329764655957037842
-0.000396374605308809976
-0.000278015165112551887
-0.000309828087538877408
0.000360555894032416491
-0.000351193570759594613
-0.000239012397448232591
-0.000370984145005659319
0.000398208136138043106
-0.000197391598879734643
-0.000221920984490383384
-0.000430130738387373953
0.000440127232901042862
1.9056794055309341e-05
-0.000204170824344556204
-0.000439994408576177098
0.000471799013651758069
0.000127056246201414383
-0.000204007317270837966
-0.000443493820002946882
0.000494631455887859514
0.000327085960066440427
-0.000241832110661348721
-0.000450903115426517522
0.00050186227290474996
0.000574605582569074095
-0.000282936702720803113
-0.000485037637350815474
0.000539643251942267962
0.000737354158736328296
-0.000256833172361841961
-0.000539181506045161734
0.000606204497842442128
0.000820950732727531406
-0.000183592391846785867
-0.000525940436191059207
0.000579979500436960207
0.000895538726364939418
-7.68651306618485454e-05
-0.000432594391332129799
0.000507278699220140559
0.000692190810338400952
-1.95517187487189922e-05
-0.00013511649399087613
0.000197666896328445806
0.000208886633794667768
-3.94019092478363356e-05
0.000192583892821225231
-0.000150579681613426775
0.000714212122036128475
0.000142377833993636747
-0.000140615804886586683
0.000957958310171467793
0.000682356615176045369
-0.000230933122193621439
0.000163549277267755497
0.000658941838271977242
-0.00018861342700263726
0.0001516664931105727
0.000620865894069895768
-0.000121331108556440713
0.000134572361636373528
0.000569721746170610463
-5.73033461689089439e-05
0.000111970815718399932
0.000512858394207699837
3.93193570018434934e-05
8.21627723353008066e-05
0.000447267048495148705
0.000182814985073973945
4.90386120935402416e-05
0.000365253006822543352
0.000368092086791009315
1.25594351535799985e-06
0.000279710589482313511
0.00054662835901485231
-8.46444071447588096e-05
0.000214777320646828839
0.000697356092313471967
-0.000205302725511319811
0.000179768040789044767
0.00109193432200168305
-0.000406334827877513995
1.30164849038809801e-05
0.00140774119794005769
-0.000877866564866828592
-0.000198552933205960674
0.00077460160214911256
-0.000814384620564774942
-0.000107636342082524292
0.000831173129489257362
-0.00020432914162275015
-4.66996418604451462e-05
0.000897765488250956071
0.000118442475412433205
0.00119126917003547985
0.000136038195637440222
0.000558765351214746001
-0.000268704927380613635
0.000161262934438761573
0.000525287667513806532
-0.000211157070854335268
0.000134086884392028418
0.000496553715961469419
-0.000145566399712490668
0.000126724850360458957
0.00046230798948112379
-6.87519985239676452e-05
0.000113587165999509083
0.000409148067942054455
4.99533826282872977e-06
7.95581785904371432e-05
0.000346405266597866329
0.000105561893052775557
3.43609202954856476e-05
0.000278413939460650419
0.000256523234580830926
-1.36748090479759643e-05
0.000208605169637834974
0.000447040552324191594
-7.58564503155302941e-05
0.000144859144835821643
0.00061449305660384989
-0.000145458228936979429
6.92332353746596019e-05
0.000757210841393370364
-0.000239203620192913552
9.02889759262311587e-05
0.00109415668937516762
-0.000422252309148334884
8.45428707030196173e-06
0.00136157374657655387
-0.00077913665986019268
-0.000214751185746627719
0.000885382798514002737
-0.00072485867827835448
-0.000125166715972640998
0.000775135874797271444
-0.000207570225978509878
-5.34319631874964195e-05
0.000881338555266862936
0.000123578998823564875
0.00115800000155209218
0.000133298766571079085
0.000253344316526905996
-0.000270514278207608066
5.06230510601061821e-05
0.000305746574610880331
-0.000199278522194462989
2.92713911859797523e-05
0.000323675952227051597
-0.000102179431863865509
5.91322837274085541e-05
0.000284667347864651747
-1.12888210579246566e-05
5.20849406519657008e-05
0.000213700453913680477
6.47878715925747403e-05
-2.96532252257134953e-06
0.000150980696062734409
0.000145510537468469505
-6.8120456857712541e-05
0.000101577008365296554
0.000291808374066115277
-0.000127432444331892131
5.73524415628681746e-05
0.000479671872620977087
-0.00016819586245700471
1.59890289432386738e-05
0.000635787723464054468
-0.000204915447930894483
-4.98396538382577008e-05
0.000778700381441664504
-0.000267770851085606307
-1.54461375206666352e-05
0.0010614940826707438
-0.000438825122452828856
-4.34594659986542475e-05
0.00127588828647860926
-0.000670227367162638311
-0.00021184206861103166
0.000944795697005403924
-0.000620168621891528768
-0.000128497988908208183
0.000723097049850312591
-0.000207096115731173868
-5.90026004192406546e-05
0.000866978947845852498
0.000126216448189963725
0.00111933290726511829
0.000131514819362697646
2.55381987837731319e-05
-0.000338047176569761481
-0.000105213534047782841
0.000128986888469456631
-0.000198529145619954432
-0.000115653503769918981
0.000148195957274409155
-6.43810802230698786e-05
-9.82874458755805867e-05
9.67436666053411764e-05
1.53322219282487967e-05
-8.75545083788765348e-05
4.68779689418515771e-05
5.98128429060165262e-05
-0.000136988344664923118
1.46953887395192268e-05
0.000135157388869040979
-0.000197665570808857699
-1.65670541309593508e-05
0.000287465789041054702
-0.000235975852405310456
-4.41888069981294924e-05
0.000466072975768641281
-0.000247196353879844464
-7.71702673339932617e-05
0.00061738588943179842
-0.000248782452077321559
-0.000147317056873828996
0.000779479838662671233
-0.00029116874942258466
-0.000136577105818985685
0.00102477335861855096
-0.000456384442059307562
-0.000124176679923441888
0.00117355049306502542
-0.000607481140629189276
-0.000211408583337393993
0.000934920392683005579
-0.000544327940882319478
-0.000122639103569098572
0.000662710984195295522
-0.000206601167417297063
-6.34650448583147248e-05
0.000868458010211799951
0.000126499282990250126
0.00107607803394256019
0.000129962981038709809
-0.000345694812170929916
4.76081994275835734e-05
0.000153008094997483752
-0.000333576294291829546
-0.000289772105635950226
-1.3790261560929181e-05
-0.00025435381950947338
-0.000435856049759945495
-0.000130254273946464204
-0.000144843184904081923
-0.000402198608445923731
-0.000198113398279713251
-4.65903163237705757e-05
-0.000247510344295668629
-0.000221926233609964654
8.31298940815277635e-07
-9.30915967194654188e-05
-0.00022987674005468708
-4.70015587486738983e-06
-1.97684640219337424e-05
-0.000212574584177338164
-2.96626134891812376e-05
2.71497450212072978e-05
-0.000246917164189084564
-5.27155521878957831e-05
0.000109942108815490037
-0.000294872127054804671
-7.43225001397152169e-05
0.000262903120571751571
-0.000314998507814606699
-9.30408161625941228e-05
0.000429353952884195479
-0.000304135337939437963
-0.000127985764402708857
0.000588336038574439825
-0.000293895040392801209
-0.000186941883929192114
0.000769952036834071888
-0.000331537612619104934
-0.000204876473325504057
0.000993651190694747445
-0.000477887195118944954
-0.000185385441593071993
0.00107773379744270474
-0.000552146312297260421
-0.00021780131306821981
0.000883472950618167897
-0.000480053005055034821
-0.000136280117092567213
0.000615282106031123858
-0.000198281417127584394
-6.37091572818276539e-05
0.000857634162795554511
0.00013164326733678525
0.00103224932776460956
0.000128473316974746487
-0.000473425250935368758
-3.44219383434964178e-05
1.00703607728309653e-05
-0.000427136295422443342
-0.000400568290633582648
-0.00012129214013327318
-0.000358526409021558013
-0.000519653511315387078
-0.000195512051686380932
-0.000274824607383646318
-0.000475572714098754365
-0.000224440113547874105
-0.000194660187233103841
-0.000314657245315441605
-0.000239044246282146231
-0.000131076408188720065
-0.000158650244751040162
-0.000258851440121813552
-9.90255033023848167e-05
-9.03683979803128213e-05
-0.000274329474159606891
-0.000105961371082229869
-3.38883745636734649e-05
-0.00029972852853847701
-0.000115504677008373757
5.75840966951004634e-05
-0.000339699386065312099
-0.000120903681115613838
0.000211842570657867974
-0.000356043062084824972
-0.000127384903856051553
0.000380156897706480966
-0.000355165720800259871
-0.00016251003330246578
0.000572069367171544824
-0.000350754833058297146
-0.00023265195378572521
0.000778802198231902019
-0.000378308246165311602
-0.000267926760912822696
0.000955571482430393054
-0.00047302885949190355
-0.000240914419459140684
0.000960600642035145573
-0.000494949935359984515
-0.000228552069809364971
0.000785434378738515812
-0.000411607283789216442
-0.000150204970453617748
0.000556451510973661511
-0.000166014052340829939
-6.14749462353177492e-05
0.000824045751214471951
0.000137565717967567209
0.00098972623604656404
0.000126583672848278766
-0.000410985761452824076
0.000182700065525497621
0.000472603303812462535
-0.000507072558606003481
5.38135165064885273e-05
0.000284138964514614955
-0.000492707357469931908
-9.02368644823103026e-05
-0.000119292552538843898
-0.000456825099951559837
-0.000183180885683034852
-0.000468398417712126956
-0.000419559535321979249
-0.000224060998220497953
-0.000572403053621949411
-0.000374799031308408652
-0.000237070865166865075
-0.000532506953382084732
-0.000319243040628225969
-0.000232416502057135278
-0.000392388659132536608
-0.000273526799642918894
-0.000234196218460078253
-0.00024014089292895887
-0.000231012902719224814
-0.000263300337354348615
-0.000179408162221035312
-0.000217037955670785728
-0.000319156593759771241
-9.96911235877388432e-05
-0.000214504562073969011
-0.000355981940638729348
-1.90960960249837762e-05
-0.000203118142493788865
-0.000372781822573641777
0.000133243967092057814
-0.000202121016433655745
-0.000390075685688800046
0.000325740868327530683
-0.000240126692521537089
-0.000398459872297463416
0.000557634354240416292
-0.000307443691304951127
-0.000413299746861866136
0.000774381414748749218
-0.00032508390396355797
-0.000447119011723117539
0.000881148686835935458
-0.000282171643681197975
-0.0004370053295245606
0.000828752983709784945
-0.000233005504400995604
-0.000344731011431944397
0.000648404940223420599
-0.000156913954796427909
-0.00011652267827007008
0.000461766577552985102
-6.01002942469937654e-05
0.000149411004082326663
0.000770404944517958019
0.000124497067408866979
0.000947506597861823285
0.00061476210266249269
-0.000198204243115953477
0.000197316933531591391
0.000597248634444272602
-0.000137836555747655265
0.000171654933763965516
0.000565287254132825932
-8.26557859003261e-05
0.000141359561035761197
0.000522334193617944868
-9.66088612646903515e-06
0.000105794775545036378
0.000477400309697999725
8.96501656772799029e-05
6.79483174926361386e-05
0.000416534258265578012
0.000242199359717389789
2.87251163438793957e-05
0.000334904312753926724
0.000441898650355802174
-1.78659339077584924e-05
0.000247026146063534873
0.00062252383891963606
-8.21150013194602837e-05
0.000179971021045340264
0.00076916294768092754
-0.00017998538685362649
0.000145983904039922568
0.00104080824145262878
-0.000371890672697794541
-2.19154065553983787e-05
0.00117597690347275019
-0.000729471949621147107
-0.000264549122595297078
0.000878949545893215468
-0.000686382161036125653
-0.000179319875030016268
0.00080307367945486863
-0.000286909297138477086
-5.43065928762152356e-05
0.00093434719615701422
1.984236612415182e-05
0.00118909186035299802
0.000101574512313232609
0.000477387356642610641
-0.000265685312229748012
0.000235032006976626886
0.000442092230709164495
-0.000209239722656040105
0.000180417394980778164
0.000406855907011257625
-0.000109873005675830137
0.000133997848187752033
0.000375334583121014265
-3.31062493855464657e-05
9.55579046101613216e-05
0.00034317153636588359
4.6846402187205921e-05
5.52136217675733558e-05
0.000305415015942819563
0.000151681373635729479
1.00883496567723697e-05
0.000256149634188702262
0.000312028996488568963
-3.42367101767701224e-05
0.000197140290074434443
0.000498261220269017821
-7.32065928956947151e-05
0.000136172871670500371
0.000648834057635597834
-0.00011079983217049993
7.6890643174353624e-05
0.000768614209587602194
-0.000179373231622204928
4.15980660182183279e-05
0.00101922237665429843
-0.000365373786170719128
-7.48503982468633601e-05
0.00114949419821433127
-0.000636206970070845972
-0.000262279369661379497
0.000946150058528774478
-0.000604630094740721334
-0.000198017311710101725
0.000810135112833903484
-0.000278893413975234356
-6.57203166608321461e-05
0.00090834883596385696
1.72806586482082298e-05
0.0011595002278264046
9.71700918900829109e-05
0.00014129471305406678
-0.000317566876086672583
0.00015645431338396162
0.000171454199965453892
-0.000250898191083352858
4.07702333675173518e-05
0.00020030316941523947
-9.20847205822185089e-05
1.24959133334259534e-05
0.000197055960633603876
2.10853200508016083e-05
1.13775122400169197e-06
0.000178952026642612802
9.36334698800568907e-05
-3.16511178708863089e-05
0.000157343617650152704
0.000177516150428414665
-7.23457773073684816e-05
0.000125685412349094811
0.000328057899125822549
-0.000111800399016220246
8.79281365244302454e-05
0.000499708204190549635
-0.000131886795012768783
5.11949211774749823e-05
0.000623797134592539524
-0.000143145737243484102
-4.37357914738841945e-06
0.000739915360202181185
-0.000183501472707450877
-6.51470686627937445e-05
0.000997805970408810645
-0.000356634853601802998
-0.000153570432745084458
0.00113397126384433842
-0.000566282654609345012
-0.000261800660328215576
0.000962324931426129988
-0.00052811338334661517
-0.000201535840930914802
0.000813178576595196189
-0.000270403942570245223
-7.58935360455190622e-05
0.000902220996847695445
6.70212706368927325e-06
0.00112090375976558673
9.4217744960050227e-05
-0.000102134291881113092
-0.000453711590081872559
-6.10850955598274414e-05
1.1137571587973823e-05
-0.000334602068029299675
-0.000145220691686558014
7.34308477985438045e-05
-9.60966960154051645e-05
-0.000156570192396411005
7.83919022641686269e-05
5.09360220029944123e-05
-0.000122371651487218527
7.71018391195031497e-05
9.71353356726159214e-05
-0.000139201428467940555
6.53544604408969287e-05
0.000168006868417189807
-0.000176405715312889436
4.19170063035957733e-05
0.000313665766863664936
-0.0001981447575100999
2.06956897648839945e-05
0.000467708436422279014
-0.000193975010408533721
-2.64136261240431353e-06
0.000575411424952944534
-0.00017705671057128094
-7.4776213845672036e-05
0.000716778587355652776
-0.000195896183816986815
-0.000161080949550669453
0.000986755404781895686
-0.000359029570891255677
-0.000223343101508003506
0.00109276905460868362
-0.00050401683249915927
-0.000269723676354350597
0.000922281064092897711
-0.000457903211827382359
-0.000204642379935734698
0.00079648294633972213
-0.000254986266496307404
-8.20880777152774006e-05
0.000896452956041336865
9.71306308983601522e-06
0.00107599852098661138
9.27802874662143553e-05
-0.000350190062767082608
0.000112388499894219588
0.000327043589892426687
-0.000375697973298252084
-0.000244008797401791148
0.00014841137883082054
-0.000318137156959831329
-0.00050634677594793738
-5.10454837938044799e-05
-0.000223746276686714727
-0.000566015470301616235
-0.000180199200001454499
-0.000108069148603491029
-0.000424211353182584057
-0.000247993454394705465
-1.37418874527885219e-05
-0.000154331592529216078
-0.000265972770649596391
2.03428643447372116e-05
3.68401711498812136e-05
-0.000232568239855747622
1.61124247239019945e-05
9.15614483312953467e-05
-0.000237112732153376598
3.98364051585473668e-06
0.000143798475563593979
-0.000258536291933356306
-1.29618354385359984e-05
0.00028280388711950658
-0.000267194871206675923
-2.1865570095290855e-05
0.000415534520320122393
-0.00024305537286342042
-5.10063429922219243e-05
0.000530417763842741595
-0.000219762009945976525
-0.000137717686321760284
0.000716058058940193974
-0.000244105810833671874
-0.000226791098973319426
0.000967258151668811328
-0.000369314525875982932
-0.000262048525162718944
0.00102580355181620692
-0.000449923243174055838
-0.000278275907871685085
0.000859903466530064007
-0.00040144821684109694
-0.000205503362807222119
0.000748889523104239916
-0.000223460048573747189
-8.16946589093306831e-05
0.000880409133771134327
2.3878711226185521e-05
0.00102998422920624368
9.27929412491321047e-05
-0.000478374237185871093
2.9458057073928701e-05
0.000173914925433108836
-0.000453185263335625758
-0.000377937648465774415
-1.25523471275639279e-05
-0.000388042474461709568
-0.000616003080829108113
-0.000150998475972162407
-0.000305452082234270448
-0.000639982502930429168
-0.000233062463544936782
-0.000207873241448122069
-0.00049538896329672942
-0.000265445863399479736
-0.000105723586808851758
-0.000235145689733355336
-0.000280188519074794007
-4.16356245539055582e-05
-3.11010654018048884e-05
-0.000270473376535513188
-4.93990841151362896e-05
5.90818705665879335e-05
-0.000259486792420925226
-6.68574106867733398e-05
0.000103556042608205615
-0.000281999468498648738
-8.43879786381444841e-05
0.000234170187157298952
-0.000289875216704214454
-9.1755037320093391e-05
0.000350686595020275574
-0.000282950332063708798
-0.000117967974748211607
0.000492244900935231988
-0.000286366800513775956
-0.000204921889395379554
0.000729063689462505706
-0.000304358811770076847
-0.000279319688374260846
0.000935737602530250698
-0.000367110426430228829
-0.000289360684688043574
0.000939370237235575287
-0.000398475555565625645
-0.000281111103042087679
0.000784237159510007002
-0.000344190464060154856
-0.000201155576338818447
0.000677983654668055501
-0.000175063575448120403
-7.69000539572540554e-05
0.000848952400129252471
4.47670948380855999e-05
0.000985943691178209694
9.37242227351683753e-05
-0.000373581784579026422
0.000310706804401549171
0.000470253965007377079
-0.000496481835665785708
0.000200882037582081509
0.000312538232086879454
-0.000505371739847462927
1.88740573350958818e-05
-7.0763378395161179e-05
-0.00047483030969974635
-0.000132841932366414459
-0.000458818357381048959
-0.000424334610247065072
-0.000217311406721652973
-0.000673247851907328616
-0.000369635816384884493
-0.000247173244039661797
-0.000684578718118464356
-0.000303257576118280226
-0.000241893839983848831
-0.000552290421822793911
-0.000235472149255787117
-0.000237451249598456582
-0.000299674987470891071
-0.00016608372531641579
-0.000238708632656474184
-0.000125079758286689353
-0.000155832320723519257
-0.000258943167124063155
-1.13823834822884525e-05
-0.000181076043545000626
-0.00026281810763548164
3.56394237509885786e-05
-0.000200538817279848259
-0.000286902648437112611
0.000167753787640946529
-0.000201736413709256463
-0.000311696606918203877
0.000273504150125874774
-0.000220286181061061907
-0.000332525093108826603
0.00044485953275750275
-0.000279814617854800662
-0.000340255762779519426
0.000715547860299553355
-0.000317877805557970473
-0.00035165391804761406
0.000878335459782781562
-0.000301167173522150179
-0.000347793270656395078
0.000833448191205137206