/*--------------------------------*- C++ -*----------------------------------*\
| =========                 |                                                 |
| \\      /  F ield         | OpenFOAM: The Open Source CFD Toolbox           |
|  \\    /   O peration     | Version:  2206                                  |
|   \\  /    A nd           | Website:  www.openfoam.com                      |
|    \\/     M anipulation  |                                                 |
\*---------------------------------------------------------------------------*/
FoamFile
{
    version     2.0;
    format      ascii;
    arch        "LSB;label=32;scalar=64";
    class       volScalarField;
    location    "0.690000000000000391";
    object      p_rgh;
}
// * * * * * * * * * * * * * * * * * * * * * * * * * * * * * * * * * * * * * //

dimensions      [1 -1 -2 0 0 0 0];

internalField   nonuniform List<scalar> 
29184
(
1264.63346565326151
1269.81165190793149
1277.73164208903768
1288.73279754973419
1303.75381237650095
1323.17338051518391
1347.28331079674695
1376.45393047179641
1410.37319428644491
1447.74676964030232
1486.36561485323477
1522.82389043427884
1553.07147716029363
1569.93797802294193
1573.82915672131162
1502.41490921334912
1263.68045636566944
1268.59947029398904
1276.41638607957407
1287.40641633806354
1302.35788494365534
1321.76017158083346
1345.98588534370697
1375.34610717096666
1409.54689197991388
1447.3312232821138
1486.4219964702088
1523.41753460026825
1554.11416887475275
1571.51052113903029
1574.51548360354536
1503.25116926394639
1261.69511771248449
1266.18946017927669
1273.80576904994768
1284.75172053455208
1299.68734406441513
1319.13799096058801
1343.52321200527081
1373.17676239226489
1407.89006921180362
1446.45947727683688
1486.5245899313968
1524.56569063574489
1556.18041481578098
1574.49792785623504
1577.90685701030293
1508.44750339376742
1258.61083450969318
1262.56825161110532
1269.93422387937198
1280.83116127877383
1295.7572843611099
1315.2366009532368
1339.77687066899603
1369.82135227489039
1405.29643734255365
1445.06400615162192
1486.635785544074
1526.26711877839102
1559.2852465254889
1578.86126557242778
1583.01399339651334
1519.03835166043154
1254.31927435866032
1257.68490219874275
1264.76451553696324
1275.60313353622269
1290.52039451612677
1310.01841934555137
1334.7170922862972
1365.23980283041647
1401.72154726200029
1443.12714730501148
1486.78072616697364
1528.59110482810138
1563.50339044928137
1584.70549148029795
1589.87054059938032
1518.87077740174209
1248.72007411592313
1251.46666372107597
1258.1990016467862
1268.97248993480389
1283.88513559640751
1303.38479431601513
1328.22258235020695
1359.28730684996208
1397.02767563409952
1440.57152396531501
1486.95520875471198
1531.58124352409754
1568.8780811384554
1592.09192074812427
1598.52592212584136
1522.73012974658195
1241.69926717255726
1243.67779834314092
1250.00639010376472
1260.74334944409907
1275.68625634756904
1295.16613956546553
1320.07533396262693
1351.67532802447613
1390.92713795259829
1437.23156774620452
1487.14538661114443
1535.32630000716858
1575.50630546448906
1601.08423738136003
1608.9807659384187
1531.80501890618257
1231.90937220347564
1232.75270110584074
1238.96606846334271
1249.96662546615312
1265.24404426955471
1284.92120685041982
1310.03359472479974
1342.04024168840215
1382.89238137941902
1432.63378483585689
1487.09410954805571
1539.80232434217692
1583.45503004489001
1611.72573528476619
1621.12776290355555
1542.52691748512893
1211.76216650739593
1210.29829443499398
1217.77030326817135
1230.8569386327863
1248.3471933323558
1270.00189730468787
1296.75414937213282
1329.74946812497478
1371.98274573693152
1425.78421442318427
1485.93124607342338
1544.4781691292319
1592.21669254331709
1623.81388048384247
1634.64349938817531
1562.27755374213439
892.838464410336428
874.393220470437313
910.396182232538081
970.272158632963283
1043.32173781792835
1122.08762127577188
1202.17607793637649
1277.97658996623954
1346.31909871815606
1412.00169374849406
1480.53256133851482
1547.11916999764935
1599.40745650774011
1636.57786845637929
1649.03650556075081
1599.03510429665857
176.564920778257346
168.338677638105054
192.451652215440333
232.609644133209031
291.355596393119924
376.547790165773336
503.869190448596612
701.502290408877002
973.20537493293557
1257.50753906057435
1438.06525250616937
1532.08570047401076
1600.56102344449164
1649.69563117438543
1662.38222260188786
1618.57952926668236
13.4299882216107314
14.4754216321350153
15.8893404731342933
17.6483268146856815
20.699095940604554
25.4125178216878922
36.3227229512541285
88.3027266947791247
238.048342296097388
536.087696672805805
1032.82964183119952
1409.61668732761063
1595.94597433176295
1657.35664544164524
1668.03355626598568
1628.27357757616187
11.4052534147865234
11.8255303621612331
13.3417483421559098
14.2634236969039847
17.6969482642967577
22.0402214089151158
28.4904003362327103
34.9214566245917197
56.6629326422338053
254.866806235214113
648.586965803497378
1136.05947611859665
1476.46896044608957
1634.94038216098124
1649.94099272730728
1634.29433157448943
5.9611787356458743
6.36887038888669821
8.50023527966594195
12.1453412469787612
14.7740936271052163
18.8744948511200903
22.648886801835701
30.7783162524009839
46.1961307012160773
109.815923177965047
284.834969593071094
477.616576454703704
759.941317131062192
1083.28284952636545
1355.12392761697788
1596.67663829438197
3.76833971493852227
4.37241331743975792
6.2396025343718664
8.45454019372786547
11.56000824893448
14.724155644134461
19.4460761608203967
34.8640482189356717
56.7333400743637313
40.2064623890162309
9.26052383462677753
5.74844240030195852
13.2943152055554101
44.4952625835842284
587.064889430786252
1221.08879459061563
2.91798648079656608
3.42601054337415256
4.27847182506532064
5.80610778673629913
9.03483781515484274
12.1747526599297586
14.8397004727357888
34.3132987912652823
52.1907753492931832
32.5685875643041456
4.85508925842464389
1.81492216898869896
2.56041950621559211
9.70161595197771121
74.0109605197480818
322.855730061784698
1264.9570453833237
1270.19243472101834
1278.25184636161612
1289.55754400197497
1305.08659430120042
1325.26115620473297
1350.38709184049048
1380.76453743439515
1415.96137649815137
1454.60048493054433
1494.41001389783014
1532.34951176726304
1564.89747139253495
1587.87378357396847
1597.80043271396607
1580.11737058232029
1264.01194124695417
1268.98121974452783
1276.93907884546547
1288.22785419730553
1303.68803893446488
1323.85969075410935
1349.12407186862788
1379.7200632440049
1415.22804898427489
1454.28632402897188
1494.5731886365711
1533.00522514927297
1565.85122781475479
1589.14400745557509
1598.43946377074644
1580.24699092446258
1262.04448774917478
1266.57873513491313
1274.33568359029528
1285.56963484740459
1301.01046489169698
1321.24804736917781
1346.71305175094426
1377.66390605592073
1413.7498966859107
1453.63651810455963
1494.90439474545224
1534.32620832588373
1567.95356834602808
1591.85581069077034
1601.04292573108728
1583.95205349400021
1258.99199630343901
1262.98852100407225
1270.48482791472088
1281.64617350575418
1297.06442482236321
1317.35199219469814
1343.03621464773846
1374.47639129095501
1411.43023683677757
1452.58963264037607
1495.37241531117593
1536.30650228848958
1571.16422021541098
1595.99735873020973
1605.37933850722743
1584.34529209949415
1254.75273025599017
1258.1730969309931
1265.35638559379913
1276.41672425777801
1291.79833260508121
1312.12568046858132
1338.05484040537408
1370.11352016580918
1408.22862967279548
1451.13785699159303
1496.01461114533708
1539.01928638858271
1575.5621603471543
1601.63632590334669
1611.42931190832155
1587.41511771363116
1249.23749360186571
1252.0557390047079
1258.85645186528473
1269.78742465090477
1285.1124116733597
1305.45328016308349
1331.63061369317415
1364.4249725405582
1404.01872979219729
1449.22301914398327
1496.8449308485433
1542.5190200615591
1581.20063688784398
1608.83419969069018
1619.24132898156267
1586.42140197116964
1242.31973538944499
1244.37967202247478
1250.75357968190269
1261.56373545051133
1276.83016798052313
1297.14152880663642
1323.52309331596211
1357.11336400569189
1398.5298959555962
1446.71274857924755
1497.87243307873655
1546.89975170472212
1588.1691051637381
1617.68224149589878
1628.89485866150471
1589.84942199379634
1232.61198580497989
1233.58538613194401
1239.87441556592466
1250.8191471568764
1266.26150514373239
1286.71486102814561
1313.42219535743334
1347.7983783653217
1391.27094052820439
1443.19712448023483
1498.89577251229025
1552.18190228750723
1596.53986653923312
1628.26076071773036
1640.40260397753855
1595.36856885107841
1212.63054451378321
1211.55408995646667
1219.05837221065963
1231.84927554358819
1249.21196593463173
1271.52131789207579
1299.99827478711995
1335.68678731074669
1381.24128353580045
1437.76632673474887
1499.23384728823953
1557.97772067841447
1605.99412129174198
1640.47525748630119
1653.65903091231553
1603.63920319333374
903.60158960516867
887.628135088662589
923.270470419150911
979.190280120322882
1047.4748753564561
1125.22001100944362
1207.832147297554
1286.85292232575284
1358.58105865295897
1426.75921957171295
1496.71319411203058
1562.44185339836122
1614.69637528301951
1653.86979678334887
1668.30367285686384
1615.42903308723612
184.03388036717746
176.915306831202003
200.282870697745295
237.291557745061453
292.69778722064359
379.516829413674373
518.478672012751872
737.358206329959899
1027.06527409963451
1296.86116304775283
1459.78992277293605
1554.58886959845131
1619.48018496027589
1667.86499920861183
1682.74578555789071
1645.43977925641138
13.5426144151293766
14.0916444177878191
14.3884914250700806
15.3601175788478752
18.5667186665057535
25.1969858813655136
41.9842505172795271
116.58408391754088
310.684579894503543
659.412011463166891
1135.61744795593518
1474.1416933030082
1619.80067543453333
1678.40834354881144
1692.19107652968523
1663.06963962155874
11.1328746640515703
11.3626883399401599
12.3224677764587316
12.6723485075371585
15.1777197678661828
20.1778297312791821
28.2953551125622766
37.7756527853016166
72.3085225797432258
339.215798543962819
776.92144033828265
1242.02552857017304
1573.32131375405993
1668.09592700112012
1685.01346963226001
1660.7367728412828
5.9048946100662425
6.22684828164684223
7.17218309470269055
9.37352772416462621
12.3920414819407743
18.4352733299848595
27.0659598382285616
28.9520164234111412
42.6831840604326871
65.4654047833520139
250.080663284708493
596.820491300073854
970.709810961173162
1270.71318985169
1632.05964860546146
1639.84825376346657
3.75176659381307864
3.90342858137286663
4.98848263587997831
6.44488381247890274
10.3536634614618386
18.7873982540324
23.8622311142625882
36.6836842217519461
38.8662320535658665
14.7274309069286975
5.54068871460000612
7.8097666388243594
23.0773623666550449
448.379664311845033
823.436283281910619
1531.37261515987575
2.81669536861410785
3.14991844040926861
3.96697247107498319
5.33836266331568687
10.5715070284294139
13.8464549980683245
14.0333173719094297
37.1822280871355062
44.9916257062562579
14.1661431039863963
2.32706047353233414
1.50621783158441858
4.49025537119738338
18.9974024398605081
182.542885065793769
565.382349975292982
1265.36408903080701
1270.64242746415357
1278.85447024095106
1290.48146648186275
1306.50415647605382
1327.37227838871377
1353.39700228119932
1384.82525689241402
1421.12040302434934
1460.80453359875128
1501.57882075294242
1540.60172256489182
1574.64194562163016
1600.85105363692219
1616.51604495561878
1615.84672087419221
1264.416140695492
1269.42999314885833
1277.54669147966206
1289.15432890745956
1305.10959763796723
1325.98544902763979
1352.16896641237213
1383.84001922890911
1420.4658785842023
1460.5769958360379
1501.81888953650878
1541.29519401301104
1575.64854913508498
1602.19138416097576
1617.62519979117292
1615.64104935556998
1262.44996694078168
1267.03821897871808
1274.96148738755119
1286.50912155428273
1302.44270175741667
1323.39780292213072
1349.81660260528611
1381.8931062443246
1419.14683710236977
1460.11583037552009
1502.33046535364542
1542.74614125943936
1577.81942896596092
1604.89634488275851
1620.18120426836458
1615.34741168773053
1259.42149178331238
1263.48948366202058
1271.1524885581
1282.60993640155698
1298.50829185760108
1319.52964352986533
1346.22206171075413
1378.87008643828699
1417.07471834223838
1459.36720816035472
1503.08514755169767
1544.94025800607301
1581.14507559254707
1609.0420354958469
1624.3481636858794
1614.40900983104711
1255.25764128567198
1258.76564649668421
1266.09935430144947
1277.41702085813358
1293.24956683813252
1314.32717627415082
1341.34063640955742
1374.72665766942123
1414.21450888959612
1458.33239142390676
1504.12513808420294
1547.94548514647704
1585.69221096346973
1614.66172194977503
1630.115277382866
1616.18827525256893
1249.9018732454083
1252.80898460053709
1259.71848522202686
1270.83639975010146
1286.55788888198026
1307.66137349773862
1335.02553663227945
1369.31557482892299
1410.45291295044217
1456.97127581641143
1505.47392298255204
1551.8122366838154
1591.51279681701385
1621.81771425512147
1637.53791167878944
1621.74337561699235
1243.25997396227604
1245.38872981697546
1251.79670883571225
1262.67045420167187
1278.24314604457504
1299.32198787054085
1327.02696819584094
1362.34728233191368
1405.55006813764658
1455.18186389554012
1507.15399762282595
1556.62298074206592
1598.67520933700803
1630.60947372394276
1646.70007451842912
1623.77457416187417
1234.01703402700264
1235.02549213484349
1241.22947509015717
1252.01215677026448
1267.59082721080767
1288.78656831695071
1316.98418538818487
1353.43612043764915
1399.05901985790456
1452.63558422856522
1509.04500057247151
1562.42099244538326
1607.23197357405866
1641.13258035043168
1657.67936016139174
1625.18091383509818
1215.03907650461088
1214.03552920757829
1221.10652351452472
1233.30980343931492
1250.43617997720548
1273.3738637721076
1303.48996362368757
1341.73538984775996
1390.11730891241223
1448.64629382271028
1510.72804499161884
1568.92044767294578
1616.95978722873201
1653.34357740190649
1670.4223406820729
1630.40411852349644
920.816840962604942
905.497349778670809
937.977750349915596
989.100496573432906
1053.50115709710008
1130.96970529936857
1217.46428370676222
1299.51050148251534
1372.23575087934773
1440.96828929796834
1510.91351669717824
1574.80634072704925
1626.27864819019828
1666.89683791213452
1684.45856878096038
1641.21595758745457
192.588255851254644
185.945898135299871
208.617466896894484
244.134463423030411
298.691400930204907
388.750919386977216
542.878761661659837
788.937287130512914
1093.08205567860955
1343.18011898980399
1488.21577228331466
1571.71726408340237
1632.34502100571353
1681.26310481416976
1698.58528252335373
1657.66494571983162
13.016634654643676
13.1595344998319934
13.4516732714269995
14.4275171235418025
17.7767394057896588
24.9033542608839085
50.0995886446106269
144.751774402278386
380.134960646015941
782.450607951002439
1227.13494073760739
1513.81302787226491
1634.27536616182351
1693.20637029416594
1708.761221752746
1680.31755237330867
10.8822108128879425
11.1973117306862466
11.9987403114994731
12.1735957363553577
14.0490823822936495
18.6787074813197904
27.5128047440083883
37.550209504615168
84.0483707591992442
400.429974274900815
868.114853542869696
1320.96855085589345
1617.67878965261593
1688.72368440439914
1705.28972725050812
1682.33189287979462
5.99768549053220745
6.26647386233397263
7.04268185351427878
8.02722064424071569
11.4893242642321898
18.3006691368056593
22.9661842411150232
27.7348686833507507
31.7907188531296576
30.9022173770972621
242.621956157180165
697.830570751656296
1068.7340398948229
1478.05494487980218
1663.86703515089744
1663.19439406702145
3.83111142027431972
4.01772462979718359
4.59131440388172862
5.70153585645052896
8.89137889220543975
14.9344074998190255
23.2703089910424197
31.6950706981708805
21.0791053655741365
9.73385026796898778
4.89366311293240308
11.2316701573227729
93.335508478984508
628.860213023196138
1006.45062642445816
1572.83025576535283
2.88388466871104798
3.04317917640481772
3.66550447391699707
5.07876068829278982
6.81320001515834495
10.261497689295302
19.569947285702586
30.3478952186365873
27.8348679034472148
6.80923978936847174
1.80097083815500425
1.93935919854754624
6.91681921091093521
25.2701594432701242
282.044149378608893
810.665529001356845
1265.84450883232671
1271.19724790534497
1279.57008127478775
1291.4886739832325
1307.93420163293285
1329.38642411966953
1356.16725289679198
1388.47158982049586
1425.66031559926
1466.15800177910933
1507.62190594466097
1547.30630904866439
1582.15110441068032
1609.78730627796267
1627.68748711950684
1630.14052837165286
1264.90934525104512
1269.990682608729
1278.26971672829563
1290.16736292883343
1306.54864476024977
1328.01752722155697
1354.97052520604916
1387.53334666371256
1425.06642712515327
1465.99606631244455
1507.92471022400377
1548.05236969759244
1583.22714862797102
1611.22673446753834
1628.76938103896669
1629.40301195955089
1262.96378797925991
1267.61516592476369
1275.70267905210312
1287.53935478513495
1303.9011985585696
1325.46101636723938
1352.6754658582181
1385.68187217202399
1423.88034611224361
1465.68827274417299
1508.57868981464412
1549.60985466782017
1585.46421126770269
1613.96777871231757
1631.25788394570213
1628.52628258180584
1259.9667547426277
1264.0969586205058
1271.92472801243184
1283.66588629134117
1299.99012724228874
1321.632383736571
1349.16423198711414
1382.80698914785557
1422.02061856593718
1465.18934915675072
1509.56432687538131
1551.97934828344296
1588.89725576226192
1618.14966418248537
1635.33682447896467
1628.42732313575402
1255.85763504149213
1259.42089797795688
1266.9187651438549
1278.5069023985202
1294.75407047054136
1316.47132264805964
1344.38666465774236
1378.86213026980545
1419.45298570990531
1464.50570261558437
1510.91743658706309
1555.21259785146799
1593.57123172137472
1623.8047898271418
1640.99857969248683
1629.42154090758709
1250.58862228823978
1253.53268107870144
1260.60388175659841
1271.9682872990154
1288.07935071542693
1309.84397664658968
1338.1986167203022
1373.7115711154263
1416.07593133265959
1463.61533982587002
1512.6611602165251
1559.352629098953
1599.53024404303255
1630.99502526791002
1648.3356829309414
1632.96384961108515
1244.07829879162045
1246.22829138036468
1252.77719715489116
1263.84929980547895
1279.77025221553504
1301.53877761962212
1330.35884778643549
1367.09344816551538
1411.6952583838804
1462.40665684998976
1514.83523593517225
1564.47041686817124
1606.82395739095546
1639.80724650555226
1657.40625037266159
1636.83784416165736
1235.07179680197351
1236.10400763323219
1242.37059947649414
1253.23130774662286
1269.08930978934177
1291.03031154191763
1320.53275065472758
1358.65610001100367
1405.92970967260021
1460.62439037213471
1517.37977433258493
1570.5994206448845
1615.49517529651575
1650.32571619182613
1668.24582505537273
1639.52701129384309
1216.63847265237132
1215.6615486841506
1222.62649071853775
1234.59359975511143
1251.88322144167023
1275.72118352590473
1307.30051858473007
1347.60525044706856
1398.04404941857547
1457.85715554334547
1520.00849877581277
1577.46454227865911
1625.32363225770132
1662.47639377311657
1680.80520421378287
1643.84527201977539
929.710869681325221
916.142642673431851
948.699437550331936
997.117264147140418
1059.84909018750386
1139.6486193971059
1230.38599413845259
1313.17475665620918
1384.26465226044684
1452.64408254421869
1521.8674713677392
1583.85233739267574
1634.77492007474916
1676.01662739780159
1694.47407359266708
1655.29273678340496
196.991161015557651
191.695846933565349
215.920722192914923
251.038369962161028
305.082426073424131
399.122357960859063
568.803048044066259
836.150102875743642
1146.84295202158228
1379.21535368542095
1507.63875457601011
1582.94381463960644
1641.85665863417012
1690.23690798411053
1708.2328653661541
1674.5043320778957
12.1411320924743347
12.2382711931783223
13.1045401027196267
13.5891818950375249
16.8322143693583861
25.0155321173416247
53.7996980126412865
163.507847309695563
430.368898175268271
867.679866363760539
1294.59841753979708
1541.1514169629645
1645.9093867157419
1702.0933002906836
1718.22054185913794
1710.56296782209097
10.7100470253499367
10.8618222140494218
11.4815481820120624
12.0530138246352703
13.4033863274663592
17.6943502575655742
26.4099262867916202
35.7965915132609638
95.1445460752705685
442.085874405764628
931.051712688687189
1375.70339218908657
1636.95518110646685
1698.84782519418445
1715.11589734953077
1709.21624660473094
5.83066934504012124
6.02128554759619306
6.67084413743003513
7.36900496667760407
10.2203996429523514
16.4829446329166664
20.2264803390192434
22.8247641288250094
24.3285802995110778
32.4023087208522327
289.916400567511403
769.950936713383726
1122.91136422606428
1542.60609588636294
1675.70000223814623
1687.23726256902114
3.74995686273590545
3.87286001501494148
4.24040371898612722
4.95605982228605679
7.98525630608491443
12.2406712511870239
19.8548408997324799
26.6622906851229118
18.556970527333128
10.0689014433348021
4.87314788357264828
11.8731346788964345
171.201657149831789
695.017012800705515
1076.45906626688543
1599.35545244705531
2.81212095111647864
2.90047429157956493
3.25278333533096564
4.34491071649762439
4.83436690754114373
7.97549572799673356
18.8831394560674433
25.534643334089786
22.531054402107717
6.34580916368606562
1.6006252071032121
1.5312267983365897
6.27132257255325687
31.7091525000782823
338.580966773701505
969.066223991873358
1266.32833158400103
1271.76753038218612
1280.28692005545872
1292.44395316093437
1309.22535638261593
1331.14356215761768
1358.53210300124351
1391.53365604473447
1429.41059086386099
1470.49186610717311
1512.39814693182211
1552.42959602417955
1587.67024787359628
1615.96786214650137
1634.74707587425564
1637.99466401971335
1265.3815968307938
1270.55731595137649
1278.99205900109428
1291.13130685811052
1307.85505313245039
1329.8013821531199
1357.37684912823806
1390.65337679657341
1428.89022742219936
1470.41674978934839
1512.7982483813505
1553.28319664335413
1588.85788950836832
1617.49366925593313
1635.92032289120971
1637.49497477904947
1263.41703311579386
1268.18748010441004
1276.44348581431359
1288.5240419667864
1305.2312929977511
1327.279804931954
1355.14080648908612
1388.89450389318745
1427.82861268315878
1470.24964703531214
1513.58839481657742
1554.95825824138979
1591.18974692055122
1620.30652679795185
1638.4700418603868
1637.83540635636587
1260.4178516966665
1264.69389445565707
1272.69681184758178
1284.67965667408384
1301.34943630077737
1323.49805760695267
1351.71719926069795
1386.16212171318853
1426.16078836310339
1469.96422976683721
1514.77258261239353
1557.48765493179985
1594.73661772171931
1624.55216368029505
1642.56720620436408
1637.23355959158539
1256.3484820815986
1260.0548335974338
1267.73304938312685
1279.5568880983792
1296.147610878455
1318.39680016417174
1347.05687825384825
1382.40989134491269
1423.85209084038274
1469.56614776640617
1516.38165708240308
1560.91808314546734
1599.53912822769371
1630.28962350591746
1648.2687736797177
1637.40189427133373
1251.16822389850336
1254.22486978469419
1261.47199072898138
1273.05921815575357
1289.51228446401205
1311.84993625562129
1341.02896709249148
1377.51527048065077
1420.81073498799606
1469.03663857457104
1518.4370368697389
1565.29058354484482
1605.64027925558162
1637.57869764407246
1655.68328595746516
1639.26243488936097
1244.82629061258945
1247.05727543802709
1253.72096535384389
1264.98710336349495
1281.25436932039838
1303.66321032865949
1333.41206758600947
1371.24200323615855
1416.88706667392717
1468.28892358330745
1521.0046871897498
1570.67093023635425
1613.08069433682908
1646.49177736772504
1664.80255423426524
1642.8046927100138
1236.2152828022638
1237.20890972498091
1243.44804053123471
1254.42976815298107
1270.67362311568172
1293.38205971009234
1323.93160238117161
1363.26104991888792
1411.70973199114223
1467.12918196876626
1524.07089255802089
1577.08902638081554
1621.89380962599671
1657.08223512166705
1675.6341676693371
1646.31254202752029
1218.7670771658718
1217.24969080114602
1223.99299007609397
1236.04283047982995
1253.86908632163318
1278.67265984118376
1311.27349858789012
1352.85689309360305
1404.55678927213671
1465.22682088063402
1527.3314200681948
1584.26082737002594
1631.79616666673451
1669.297904636569
1688.07220446820997
1652.85336536101431
939.39929121251896
923.413008744191302
956.600577300202758
1004.46635691988024
1068.50577559063504
1151.9938604772185
1244.21989799407243
1324.39062487409842
1392.91972014504063
1461.26115185748381
1529.95137080362451
1590.86776751205184
1641.56167381231626
1682.77487088478051
1701.71999422145655
1664.31935839343919
199.705997743865368
194.628766645719821
221.096393626949634
256.616695732072969
312.376821490893462
413.939601532339509
598.350574211859907
879.1002210177802
1188.80265754424022
1404.21913039791298
1520.40322697350962
1591.83422753189257
1650.20722108364203
1696.67790531713763
1715.01028826372362
1686.07850270124004
11.0892680215160677
11.5233679289051487
12.5939345814716717
13.009088846549977
16.3184574270664982
24.8052927648073194
56.9997587657542866
180.270278561396736
470.8460047988425
932.067172930593642
1344.53742544943339
1563.96043914916208
1656.49854068356262
1707.98281248824446
1724.72040013833362
1721.20889905939862
10.308447794681749
10.5167111099921655
11.0191341320867355
11.4027386332360638
12.739894241196815
17.3852243442068222
25.4308722740223416
35.5881159553075435
108.176106845519627
473.9865262451425
981.934623073728631
1415.01299592090231
1647.10006284300471
1704.17814792535523
1721.07446345118501
1727.29477147061675
5.51308052022283501
5.69981948825954365
6.23935765271459797
6.83119292508513354
9.83177041122141482
14.6917215761110924
17.9830021556416391
22.4531886526525923
25.5798320472143352
53.3423820757307681
352.168705265137135
814.155502964047628
1153.80742513524478
1557.677494241055
1681.01558167376675
1706.56392526759055
3.46363197367151265
3.55111609781696913
3.84201833749833987
4.51935941916401873
7.54672233106207013
12.5306268583703702
18.3427540501772164
22.8934125705210114
20.1701359782400118
12.8470156054822215
6.688715966013282
14.989348027663052
215.551933528346012
707.214708543202278
1130.93897869235934
1618.80664874809077
2.58827195653023168
2.64609587912084221
2.83437309477390365
3.72092560244453763
5.19131276000972264
7.57952460099068581
14.7766337317754921
25.3710860917000254
27.911782333082563
8.29596748863616185
2.05543656513094897
2.3992730139648013
10.3442812441222873
60.143266507996394
339.896896007109888
1056.38833864668641
1266.86601689716326
1272.40708600167545
1281.04044848699823
1293.34597446680755
1310.34132188202534
1332.59116267225954
1360.43688862740419
1393.95929283871055
1432.33341314580753
1473.81900854777246
1516.01473483051268
1556.24576220198674
1591.67331210202769
1620.1833939317205
1638.99125237834073
1641.55673694941584
1265.95216463163479
1271.21280637898349
1279.75072424319728
1292.03115759270531
1308.97606039500829
1331.27061923403812
1359.32089277328055
1393.13525635664882
1431.8835098272873
1473.82050507620329
1516.48898031424392
1557.16182235305155
1592.90336002898016
1621.73425830428664
1640.23707927627947
1641.10568263231812
1264.04042285646005
1268.85425112848225
1277.199483177194
1289.41699313066169
1306.35511740805396
1328.77365282578239
1357.13864092518793
1391.46164485472036
1430.93298842851232
1473.77261277661546
1517.39196365250541
1558.93167121743727
1595.31065884920531
1624.61116429429535
1642.82608726802482
1642.68455508926741
1261.06603207760008
1265.35157541821195
1273.43974982669215
1285.56117525886498
1302.47703818856598
1325.02786291448479
1353.79533646936261
1388.8570682420077
1429.43084689698139
1473.66008078224218
1518.73695969394976
1561.58870595755684
1598.95000893528527
1628.92646218423124
1646.95769708287548
1641.26317938596389
1256.94947862807794
1260.68338617701988
1268.45798080006875
1280.43135355505888
1297.29071436260824
1319.98216039638237
1349.24642455736171
1385.27878984373524
1427.34923071507546
1473.49002929122116
1520.56184885395373
1565.18583115139586
1603.87260512311877
1634.76619756821265
1652.74314114258641
1640.82355405086219
1251.6370183471538
1254.78981284321799
1262.17811818601467
1273.94549175817087
1290.6998818810921
1313.52560132097256
1343.37171970759414
1380.6125284247355
1424.61277574435576
1473.24957468577554
1522.89738785983718
1569.76790897305978
1610.12561270902142
1642.19038725358882
1660.25488812688445
1643.04856430770928
1245.00667148443677
1247.46453675779844
1254.40263830206209
1265.93092281691906
1282.54796259793602
1305.49258626109304
1335.97196221752051
1374.64007761180619
1421.06248647079542
1472.89652291598486
1525.78778949867706
1575.39673667931129
1617.75021188900564
1651.26439862785469
1669.4705224790132
1646.15264856200179
1235.81987850597557
1237.3892618693385
1244.08328194033083
1255.52539516917886
1272.20284040555634
1295.49313835855446
1326.81588278244521
1367.06338030404549
1416.37339549159901
1472.25121179163443
1529.21079383501501
1582.09563720380061
1626.76575397961938
1662.02404939202461
1680.39600496311527
1650.25266592728826
1217.2718056468475
1217.16755368051963
1224.76722627345271
1237.54551516171
1255.9919601659185
1281.38897111533356
1314.57876762989463
1357.16525923050222
1409.89204055569667
1470.87582712384165
1532.85666167225804
1589.53864472035229
1636.85936260165818
1674.38614830607435
1692.86682404850922
1658.63546333590875
934.776968694376819
928.329931014014051
962.550415014381429
1014.08235162561766
1081.14590359174508
1165.4287785069796
1255.10925229678037
1332.16176891347254
1399.18303352637804
1467.3941743096525
1535.62164999553647
1596.35456999442977
1647.24997027654604
1687.85096154450525
1706.50969085703377
1669.99328984827071
201.392863516014785
200.851993326522233
226.441174305731209
264.062184398580371
324.370116997370076
432.662559404042156
628.077465875291523
915.468747683872834
1220.85168127359816
1421.85417935672854
1528.67165972900011
1599.76065756717935
1657.15023205031753
1701.60089479635576
1719.92977345048098
1706.12880378559589
11.6508158011777176
11.8418890811362036
12.7454856075867013
12.5312912622896526
15.5726165834550994
25.7690487525872207