/*--------------------------------*- C++ -*----------------------------------*\
| =========                 |                                                 |
| \\      /  F ield         | OpenFOAM: The Open Source CFD Toolbox           |
|  \\    /   O peration     | Version:  2206                                  |
|   \\  /    A nd           | Website:  www.openfoam.com                      |
|    \\/     M anipulation  |                                                 |
\*---------------------------------------------------------------------------*/
FoamFile
{
    version     2.0;
    format      ascii;
    arch        "LSB;label=32;scalar=64";
    class       volScalarField;
    location    "0.690000000000000391";
    object      rAU;
}
// * * * * * * * * * * * * * * * * * * * * * * * * * * * * * * * * * * * * * //

dimensions      [-1 3 1 0 0 0 0];

internalField   nonuniform List<scalar> 
29184
(
2.84092710307119712e-05
2.7322663018630165e-05
2.62220463819091749e-05
2.5177282819715841e-05
2.43148235782637511e-05
2.36257174515325115e-05
2.30446865092995302e-05
2.2507700165191887e-05
2.19871538561085833e-05
2.14090781088388222e-05
2.07770674764791139e-05
1.99669846656758715e-05
1.90830946511498872e-05
1.78450517588186118e-05
1.68081555710158261e-05
1.57388667178301732e-05
2.78229607975002342e-05
2.62537009336035218e-05
2.51693202346119526e-05
2.43843931262394466e-05
2.38226180475406327e-05
2.33547265387502168e-05
2.29075454393549905e-05
2.24566018536027894e-05
2.19742739030615104e-05
2.14067893730161454e-05
2.07201435242461664e-05
1.9847414758994129e-05
1.88221533919343239e-05
1.75555151349280313e-05
1.61955696090257961e-05
1.54369577153959741e-05
2.71029112170252446e-05
2.52091520924384279e-05
2.42083944744265118e-05
2.35875818005745274e-05
2.31644852200662719e-05
2.28296383595680777e-05
2.25119461637708214e-05
2.21736533449533061e-05
2.17745328320839886e-05
2.12523587891654267e-05
2.05583127977509564e-05
1.96421405340257068e-05
1.85307476843515153e-05
1.72168734336492448e-05
1.56832013750237953e-05
1.52375152336233052e-05
2.62802207996741062e-05
2.42644385419621169e-05
2.33560482292526852e-05
2.28671157725573291e-05
2.25656911594232984e-05
2.23464168392353522e-05
2.21447710691135271e-05
2.19155512680158511e-05
2.16036901049110111e-05
2.11320147553293947e-05
2.0435910887349499e-05
1.94763484934264496e-05
1.82881380107317813e-05
1.69146452780989164e-05
1.52835673299631383e-05
1.49656426903431322e-05
2.54058196165882948e-05
2.34204252952190988e-05
2.26078905200893767e-05
2.22216361925065833e-05
2.20141073925147618e-05
2.18880564465105664e-05
2.17885482703089737e-05
2.16659969474923301e-05
2.14482435658036533e-05
2.10359205312028666e-05
2.03431862185533286e-05
1.93416418863000768e-05
1.80820398445466657e-05
1.66447023374515486e-05
1.49515692659613213e-05
1.50285765455794979e-05
2.45157948037943685e-05
2.2668309120289567e-05
2.19584292640641331e-05
2.16521658520754056e-05
2.15127515780559181e-05
2.14581728028659057e-05
2.14466277752869827e-05
2.14284477508150781e-05
2.13139436953208222e-05
2.09714238905671001e-05
2.02872170954186149e-05
1.92434477558128738e-05
1.79133398285953271e-05
1.64134467746346766e-05
1.46842378349942445e-05
1.50205170368536508e-05
2.36425092907343122e-05
2.19945364279038699e-05
2.13974663259459997e-05
2.1154612795118808e-05
2.10586915171412928e-05
2.10516556133043671e-05
2.11125840381623288e-05
2.11987299152173209e-05
2.12036405289480512e-05
2.09474225483983177e-05
2.02799425720724631e-05
1.91911880277593879e-05
1.77885808526976255e-05
1.62231176177625249e-05
1.44719725640999072e-05
1.49351551118724296e-05
2.28219644652572858e-05
2.14038773437857881e-05
2.09314039601941527e-05
2.07371193419837354e-05
2.06523885762248143e-05
2.06562296886272421e-05
2.07664559141517384e-05
2.09616481022244565e-05
2.11164174368785672e-05
2.09786485293443303e-05
2.03431492309533578e-05
1.92026816533141571e-05
1.77176105134253604e-05
1.6073957760296873e-05
1.43033539747015316e-05
1.47980664633609019e-05
2.21349944214168086e-05
2.10379839189095214e-05
2.06949974075741406e-05
2.05098776509134648e-05
2.03683905344540514e-05
2.03055649040764106e-05
2.04142122925357825e-05
2.0717052700051969e-05
2.10694167612628745e-05
2.10991973017153767e-05
2.05171890354604996e-05
1.93061434014004457e-05
1.77112958495699065e-05
1.59587992684168782e-05
1.4156492170426936e-05
1.45135533307466885e-05
2.6932678271077723e-05
2.64125290575187829e-05
2.55381237306524752e-05
2.43859605367289294e-05
2.31734344049844266e-05
2.21398957254607148e-05
2.14226353697387275e-05
2.11726171634608597e-05
2.1362551944949604e-05
2.14662321163251544e-05
2.09256461301874165e-05
1.9567336054851858e-05
1.77924417195284625e-05
1.58698152038095063e-05
1.40155153895688967e-05
1.40809457880404524e-05
8.72966777778207104e-05
9.14379484050561347e-05
8.54753377155569125e-05
7.52247982641567449e-05
6.50882525048429599e-05
5.56369552335948339e-05
4.63377438792624013e-05
3.69618389086688647e-05
2.98987435068795215e-05
2.46395672762769025e-05
2.21572165336991892e-05
2.03098165432982118e-05
1.80386648925900845e-05
1.5820680738242554e-05
1.38940113113819944e-05
1.38031573678203466e-05
0.000829760052741960346
0.000872653281055213209
0.000787801256226526082
0.000712908299336487833
0.000612978267572781882
0.000533902336224523861
0.000464813503058134655
0.000310387161465216328
0.000153547396885340103
6.72591637977208034e-05
3.42589677435742846e-05
2.35844064824623541e-05
1.86357027106050814e-05
1.59102175113305396e-05
1.38539617334068772e-05
1.37434669829501919e-05
0.00194118493968146598
0.00192914044503694716
0.00180571738057715907
0.00179910463040845801
0.00160338923157213667
0.00139738115560459979
0.00123385278341971768
0.000852726180912549963
0.000425597758313414122
0.000137610735798909844
5.2592457039510459e-05
2.68412520604922491e-05
1.80462968066082348e-05
1.52269833322776135e-05
1.37300357458200213e-05
1.38338052909212092e-05
0.00436923596870391652
0.00412209728223365997
0.00355702143325526158
0.00299871920423699749
0.00242272361412557884
0.0018237104957927546
0.00158113780760602029
0.00149657175330662447
0.000620721702198945551
0.000223835390478287183
7.6743833795289533e-05
4.00831291147803117e-05
2.63806185870713719e-05
1.78937411359792473e-05
1.41252597448945292e-05
1.36446928500089126e-05
0.00820128908766671119
0.0074634318292328989
0.0057373091586834183
0.00406989369253482527
0.00280712075540784801
0.00214819937366820569
0.00170460661077355522
0.00125224002188281973
0.000571163816061960703
0.000471688228991964551
0.000659914993508342704
0.00041564560558511528
0.000144674236644092984
5.22461991479515823e-05
2.50633445612988048e-05
1.52993239776482913e-05
0.0127680804443346171
0.0100995679700684043
0.00753913662706504322
0.00528388276623083762
0.00341297411537640942
0.00254963280330852476
0.00229700846487347664
0.00140344470962069381
0.000605508865713037868
0.000762631043771798845
0.00268133985675333975
0.00345528601377676544
0.00122448375162477626
0.000395576623404446089
7.96348592832084746e-05
2.77763260715533706e-05
2.84911975068457634e-05
2.74484537208116936e-05
2.63696183492248249e-05
2.53494646194270425e-05
2.45224517150610301e-05
2.387991940678347e-05
2.33543411022584386e-05
2.28867296398754664e-05
2.24412605500023404e-05
2.19629085809383105e-05
2.14312936138132098e-05
2.07780898133765167e-05
2.00464303321098453e-05
1.9143065164563808e-05
1.80602165169794417e-05
1.85564382108174658e-05
2.79005320002659641e-05
2.63876865685647433e-05
2.53363517333408642e-05
2.45804420625692913e-05
2.40508459791672409e-05
2.36190469572460194e-05
2.3214958789105359e-05
2.28172507444681764e-05
2.23986562545770593e-05
2.19125393907810429e-05
2.13232947700865057e-05
2.05874441078694213e-05
1.9733055053369045e-05
1.87423492863668664e-05
1.75562775586710839e-05
1.83096645807107996e-05
2.71832712694431847e-05
2.53579650812479469e-05
2.43950959204812299e-05
2.38046703969228923e-05
2.3411732023032651e-05
2.3107742454124457e-05
2.28240103226506089e-05
2.25267714929817539e-05
2.21788589901498876e-05
2.17248914182993348e-05
2.11205191729242639e-05
2.03321223171855325e-05
1.93841772797956605e-05
1.83297074375471246e-05
1.69949583747029043e-05
1.81173453255955685e-05
2.63647826800557121e-05
2.44131796548583946e-05
2.35427345074265292e-05
2.30886973372352648e-05
2.28202778615560076e-05
2.2629757605240454e-05
2.24544183191053131e-05
2.22543449129248549e-05
2.19808676030504139e-05
2.15656711219552988e-05
2.095409316696949e-05
2.01193728446677324e-05
1.90911035360292347e-05
1.79686811746352638e-05
1.6545083193965973e-05
1.80216159775335361e-05
2.54789581966014898e-05
2.35392240824687156e-05
2.27641683161613093e-05
2.2421897571020744e-05
2.22546663645388393e-05
2.2157822063382764e-05
2.20778800367761236e-05
2.19727685464730738e-05
2.17814756669542302e-05
2.14168917963577039e-05
2.08109379498539638e-05
1.99393546276351831e-05
1.88414126258207945e-05
1.76486277725126246e-05
1.61600368728303314e-05
1.79178486696059327e-05
2.45503334027087718e-05
2.27331341757477802e-05
2.20665735475698622e-05
2.18146356780479043e-05
2.17205788184627223e-05
2.16927590734638329e-05
2.16922051670503868e-05
2.16796039749332687e-05
2.15816460067889244e-05
2.12844009629387562e-05
2.0699539277315772e-05
1.9800597848311208e-05
1.86374487458579213e-05
1.73723207382926949e-05
1.5825862496937147e-05
1.78917657458299738e-05
2.36121934518209925e-05
2.20122245476345879e-05
2.14701973725758834e-05
2.12845037835805072e-05
2.12296778343755965e-05
2.12418560524113362e-05
2.13044648316547733e-05
2.13862611315343222e-05
2.13998041274065884e-05
2.11903477022212685e-05
2.06396248132367735e-05
1.97162082554646401e-05
1.84846970842493845e-05
1.71388640679195649e-05
1.55341516185646583e-05
1.77457504593934506e-05
2.27279384754611218e-05
2.14176966413558469e-05
2.10036137795695772e-05
2.08517053339141734e-05
2.07962404536253934e-05
2.08176162333748759e-05
2.09312963346067147e-05
2.1119597604839687e-05
2.12742314150431103e-05
2.11747317364541043e-05
2.06611762994919027e-05
1.97010740891436844e-05
1.83870122721546385e-05
1.6944405552588154e-05
1.52779100227447173e-05
1.75413959698405214e-05
2.20519751412111394e-05
2.11042306110249287e-05
2.07930634595492193e-05
2.06140746507464502e-05
2.04918372246771634e-05
2.04656814244613703e-05
2.06088135147083394e-05
2.09236780570028448e-05
2.12645316160749444e-05
2.12941218144537569e-05
2.0804606619694956e-05
1.97735651425369095e-05
1.83460219423096062e-05
1.6780434737948557e-05
1.50507878659487594e-05
1.72596613332948881e-05
2.67300562093585482e-05
2.63313317754345342e-05
2.54517382950731662e-05
2.43506557475311474e-05
2.32433149220777962e-05
2.22866918923842974e-05
2.16284542594221924e-05
2.14332475733649591e-05
2.1625872930344444e-05
2.16925635898740647e-05
2.11627896859819617e-05
1.99885623864451786e-05
1.83779485877085524e-05
1.66354193424256274e-05
1.48495648080814265e-05
1.68285136022015116e-05
8.4798508012919624e-05
8.82013650038810607e-05
8.2422597016047335e-05
7.41965675051744784e-05
6.54603939141861412e-05
5.59214756774401475e-05
4.56127495461599244e-05
3.60579834266575559e-05
2.90737287298082316e-05
2.46136690481398636e-05
2.24309445089895953e-05
2.05981178005135336e-05
1.85409924229959031e-05
1.65238042703824952e-05
1.46841385722587316e-05
1.61961584828422286e-05
0.000790178072964042356
0.00081615693104418257
0.000770715413377184421
0.000720328360050542663
0.000643732988304065697
0.000534752465024456434
0.00041000068150191983
0.000231264715428017542
0.00011893356668792576
5.70561208388721631e-05
3.17217123868094786e-05
2.29033480398721746e-05
1.89456840207861717e-05
1.65501834699899287e-05
1.4595102551085025e-05
1.56166990921943149e-05
0.00190247335351846018
0.00187693437182148378
0.00183205862149421429
0.00187027284816809335
0.00180145615259315914
0.0014595296097816388
0.00109913882332873586
0.000589255553482754646
0.000310451741374548069
9.45401263803893617e-05
4.13166280431284918e-05
2.39874488874867001e-05
1.75897596883383939e-05
1.56977564691076022e-05
1.42124038741169184e-05
1.51539671201062148e-05
0.00403890878497892378
0.00383636681602927184
0.00361597779296795674
0.00343027558907373856
0.00297812795871514211
0.00203788327919240042
0.00152587677508533078
0.00112971207039326473
0.000571540847338240852
0.000249022514512254798
7.82419350187587198e-05
3.54060703977648468e-05
2.21369665161184475e-05
1.61422566488969307e-05
1.35494659964762091e-05
1.46400125110474218e-05
0.00723595472856232522
0.00701364817431943035
0.00622491380801690024
0.00526871460061966584
0.00332692245843894908
0.00194801212858196262
0.00162263855865796953
0.00117420417792592604
0.00076197552838763857
0.0010934508221787714
0.000710260488388891171
0.00024019964298304091
8.06818996311610523e-05
3.57759427353629414e-05
1.8829909052406581e-05
1.44952443817151454e-05
0.0108678760650205621
0.0101961894117578375
0.00835815231108037043
0.00587629895522611811
0.00320879192666924081
0.0024613473796779666
0.00252471782874922604
0.00116762230084563974
0.000723157246195184995
0.00169388516488659159
0.00439001099223947002
0.00221992704291198214
0.000738774029933990384
0.000211339931563603713
4.93393790813268857e-05
2.01717259131227001e-05
2.86130645998051147e-05
2.7600409427219775e-05
2.65394358405367512e-05
2.55439001818594319e-05
2.47551737144388866e-05
2.41654935917307441e-05
2.37057632458673267e-05
2.33189897500082113e-05
2.29647990267866187e-05
2.25962587874634046e-05
2.21828003965704858e-05
2.16778327276557035e-05
2.10924355730620892e-05
2.0372498537351203e-05
1.95431907779369313e-05
2.10253504041742224e-05
2.80530123105727786e-05
2.65744307711921443e-05
2.55365696293940053e-05
2.47946024063238362e-05
2.42912338799140978e-05
2.39005113266720519e-05
2.35529285429628705e-05
2.32268958003507211e-05
2.28938599862543917e-05
2.25080500784170656e-05
2.20330510270060702e-05
2.14332220630003085e-05
2.07342844887364167e-05
1.99426087834687689e-05
1.90093864441342581e-05
2.05201106367860282e-05
2.73790963777553857e-05
2.5596887340399492e-05
2.46378035505627808e-05
2.40438196275382507e-05
2.36605729574495654e-05
2.33858389905666133e-05
2.31505926997700755e-05
2.29194221877919e-05
2.26527795307819921e-05
2.22940389793045799e-05
2.17974855450619084e-05
2.11346929720427834e-05
2.03358317628718696e-05
1.94745442233898813e-05
1.84015205765951355e-05
2.05724775895047129e-05
2.66216458075810926e-05
2.47042792508727199e-05
2.38209569953512055e-05
2.33441487482064254e-05
2.30693229910711436e-05
2.28968228108401485e-05
2.27631222064009728e-05
2.26257787595210159e-05
2.2432791729798629e-05
2.21119498295533533e-05
2.16049494491385675e-05
2.08883950433783608e-05
2.00001459066324605e-05
1.90650623046091965e-05
1.79002502253252028e-05
2.08813429885137627e-05
2.57939488854801235e-05
2.38544122033049252e-05
2.30459780920146687e-05
2.26665258015797488e-05
2.24837953488623535e-05
2.23996234357159175e-05
2.23592720548440666e-05
2.23187516408576399e-05
2.22135291187574033e-05
2.19487190593479063e-05
2.14472088987427862e-05
2.06860994102828872e-05
1.97148479637255914e-05
1.86978335402266966e-05
1.74656320448050327e-05
2.0928037340342932e-05
2.48885360885786119e-05
2.30268261601444051e-05
2.23121995967306763e-05
2.20196082216204789e-05
2.19113720413107676e-05
2.18980732884786788e-05
2.19404235599843917e-05
2.20004745790967133e-05
2.20022571316755544e-05
2.18171687902025228e-05
2.13385355405259487e-05
2.05383487087813926e-05
1.94823151961377761e-05
1.83725055291848513e-05
1.70716905465615487e-05
2.07068924909622832e-05
2.3917245202362346e-05
2.22550789179477039e-05
2.16644276930064222e-05
2.14443692037563227e-05
2.13818911665950107e-05
2.14115130666527165e-05
2.15209804459864363e-05
2.16863002920843289e-05
2.18177651279765756e-05
2.17360591116285592e-05
2.12920772490875982e-05
2.04509220266485657e-05
1.93033470644295956e-05
1.80874302750753297e-05
1.67080902287285109e-05
2.04268149692186228e-05
2.29594485682849892e-05
2.1622888965854363e-05
2.11667740790916651e-05
2.09874788691319539e-05
2.09265975298641019e-05
2.09626828377407917e-05
2.11228475183087564e-05
2.14015559574203194e-05
2.16864857146567227e-05
2.17218405198718911e-05
2.13100406364258997e-05
2.04204716243552286e-05
1.91753669930441747e-05
1.78405117271883661e-05
1.63733375431873848e-05
2.00995696419670178e-05
2.22381190807484725e-05
2.13089126869077803e-05
2.0952351315729951e-05
2.0744468520938656e-05
2.06095711988072088e-05
2.05937379678955163e-05
2.07844500081136241e-05
2.11885423182576107e-05
2.16479470358670936e-05
2.17947340060780471e-05
2.13927371591838985e-05
2.04461187037464583e-05
1.90965359799295181e-05
1.76241580844133535e-05
1.60653816698188469e-05
1.96595716591484336e-05
2.67201875567585779e-05
2.63196086870202545e-05
2.54167778280556254e-05
2.43360638450797988e-05
2.32449978148277216e-05
2.22917707004714803e-05
2.16797171386569912e-05
2.15800745037744132e-05
2.18874334487985675e-05
2.20446450770746708e-05
2.16035301220892414e-05
2.05730694715472023e-05
1.90844849067512565e-05
1.74248814609666407e-05
1.57823509173664125e-05
1.90650172788306367e-05
8.24955062790081665e-05
8.54706141431923897e-05
7.99954824097010757e-05
7.24204703690133934e-05
6.37768562972624474e-05
5.41628579947175175e-05
4.360082235740143e-05
3.41487741254772073e-05
2.77619638051096122e-05
2.4228979466533703e-05
2.24827285884117019e-05
2.10328757686514607e-05
1.91966992843434743e-05
1.72486114530021407e-05
1.55347202843827539e-05
1.82824453904034276e-05
0.000770440296870287958
0.000799737551903166631
0.000757112726466347362
0.000707002951382345928
0.000622649725862931794
0.000510738866209265721
0.000355014056813185246
0.000188784404191453582
9.56827439866501423e-05
4.78505676423019824e-05
2.94705924541706741e-05
2.28605125644278433e-05
1.95318417832100959e-05
1.71748068602161206e-05
1.52907508724348039e-05
1.73860762677098626e-05
0.00188968726045346471
0.00183881652157895782
0.00180700176493410296
0.00183735737646349793
0.0017645671333820917
0.00145699071272959563
0.000968998567966568194
0.0005061954323576631
0.000253323155000440123
7.45931456594783844e-05
3.47961174046720407e-05
2.26310760249707365e-05
1.77526405839969243e-05
1.60499805960104363e-05
1.46263453868384078e-05
1.64475816046859244e-05
0.00376321672548528404
0.00357687660921263573
0.00337883566575061323
0.00340712607896560783
0.00302505742350651051
0.0022129430842530236
0.0016681372295843191
0.00100481422109425112
0.000591566138318013368
0.000273463473441964663
7.66088151865560981e-05
3.27594881431256821e-05
2.06823330089119119e-05
1.56381627273049467e-05
1.3947828152497776e-05
1.56252619415481981e-05
0.00652405715937763846
0.00608886203792502727
0.00572637625720865458
0.00555170751082651424
0.00403964963855918142
0.0025148311273396934
0.00181448955512089811
0.00117156153697204387
0.0013946491826403915
0.00167367431795099214
0.000660474491956360935
0.000199621610947841449
6.37108002746402822e-05
2.8132792148535851e-05
1.71075825943485444e-05
1.50317546042201378e-05
0.00950744863808878661
0.00895897048344029313
0.00842953287284936917
0.00678936679302332476
0.00484303879668136934
0.00354508677767169118
0.00220738487011660437
0.00120233634360349031
0.00112804922593939469
0.00383908820941108704
0.00488531831665592157
0.0015834742724393433
0.000502444412694138631
0.000120569422214775529
4.01202437970755202e-05
1.83127323729098829e-05
2.87422901374125899e-05
2.77444605417931311e-05
2.67037628884658547e-05
2.5741472286340949e-05
2.50007884652467208e-05
2.44734680160682603e-05
2.40892181720363173e-05
2.3792117591209121e-05
2.35384130152172285e-05
2.32840667150705265e-05
2.29913516148200615e-05
2.26209186360265993e-05
2.217185942108154e-05
2.16079239514629243e-05
2.09608146583229065e-05
2.28154005336457206e-05
2.81662709583045819e-05
2.66936098913982013e-05
2.56793900447123005e-05
2.49732314840180633e-05
2.45190935040888171e-05
2.41918917737969878e-05
2.39218847876731443e-05
2.36857482423705095e-05
2.34511726157839336e-05
2.31708603773060179e-05
2.28063413249827277e-05
2.2324124710075842e-05
2.17531054101267399e-05
2.1093327261776956e-05
2.0304261149589818e-05
2.21270802042265678e-05
2.74671896914970815e-05
2.5706597358426817e-05
2.47734015470554142e-05
2.42097982542008024e-05
2.38707769999124056e-05
2.3659605317605073e-05
2.35061476744519464e-05
2.33695977952392771e-05
2.3202733826360855e-05
2.2943639439469006e-05
2.25465761889025499e-05
2.19886332593335111e-05
2.1309391258820663e-05
2.05777085998169928e-05
1.96334421345891941e-05
2.22072045661643545e-05
2.66891807164553684e-05
2.48199586139670593e-05
2.39587692768550094e-05
2.34995145799980544e-05
2.32598663391251693e-05
2.31508020769491426e-05
2.31063944787453831e-05
2.30734025023976032e-05
2.29856848099182865e-05
2.27601707031242321e-05
2.23400993721021501e-05
2.17130046794638954e-05
2.09315493595432008e-05
2.01200229595862997e-05
1.90684465460883425e-05
2.23889591592087564e-05
2.58591388545587419e-05
2.39843667524326661e-05
2.31860139983508976e-05
2.28066892399553872e-05
2.26510131143899252e-05
2.26356253368303449e-05
2.27001388390366754e-05
2.27817658931779845e-05
2.27920371682567516e-05
2.26162344173092655e-05
2.21821986254861439e-05
2.14876872650856748e-05
2.06056466416521135e-05
1.97034263730215561e-05
1.8575828287966539e-05
2.26868964001182188e-05
2.49743715591026028e-05
2.31638830525611256e-05
2.24420003057761932e-05
2.21371919736318239e-05
2.2057852203229638e-05
2.21302835944688583e-05
2.23040345800570137e-05
2.25124277990175958e-05
2.26432771777822894e-05
2.25336759605097164e-05
2.20901859824815518e-05
2.13229846246561244e-05
2.03335352703044563e-05
1.93280149559629464e-05
1.81255560856419201e-05
2.28353391341988533e-05
2.40363411772034441e-05
2.23845644715813148e-05
2.17738222025184541e-05
2.15402035466908858e-05
2.15190473392551272e-05
2.16594634712831522e-05
2.19316403154841886e-05
2.22736378068845419e-05
2.25471724962638915e-05
2.25204899684008548e-05
2.20672340932932328e-05
2.1219386249614857e-05
2.01151133703949909e-05
1.89917540400207152e-05
1.77025599038199843e-05
2.26350448161235762e-05
2.31110659018099011e-05
2.17451671150679922e-05
2.12637407401734734e-05
2.1070799092643272e-05
2.10607895962523125e-05
2.12252023032914226e-05
2.15679784571972588e-05
2.20418307537752991e-05
2.24782971629145831e-05
2.25505732204380376e-05
2.20900875564694162e-05
2.11647742254416847e-05
1.99488856100006639e-05
1.86925708198014368e-05
1.7302039671719392e-05
2.21721633860821809e-05
2.24281740879116035e-05
2.14437216548463792e-05
2.10489364918551794e-05
2.08111292236891878e-05
2.07208036796414811e-05
2.08291522856883828e-05
2.11967473046092178e-05
2.17908180470303498e-05
2.24066018815192425e-05
2.25852621782633741e-05
2.21293502266249747e-05
2.11541890057682518e-05
1.98346275012226074e-05
1.84228609824365036e-05
1.69258035064076207e-05
2.15983525070146354e-05
2.68022064803082594e-05
2.63379092294872042e-05
2.53173231932940386e-05
2.42025567906829223e-05
2.31776825085386262e-05
2.23236662862966192e-05
2.18325379160488929e-05
2.19272008908895611e-05
2.24510928562119425e-05
2.26872319213352534e-05
2.22336757395646851e-05
2.12319644147360429e-05
1.97847049525385866e-05
1.81657464301227483e-05
1.65738864062793827e-05
2.08253358415242729e-05
8.11109862849070313e-05
8.33240388240325208e-05
7.74359365849438706e-05
6.99788052953713885e-05
6.17779102981177156e-05
5.24568036528693098e-05
4.1934881358212292e-05
3.29360787970399559e-05
2.72171775049300597e-05
2.43298195846990888e-05
2.28747287036989226e-05
2.15986714950380903e-05
1.98323701913506598e-05
1.79253088221233697e-05
1.62234412173031381e-05
1.97986255915964355e-05
0.000767338997163104154
0.000808614065623478474
0.000747974841313777316
0.000693054832907091952
0.000607546892443102315
0.000496241809068563144
0.00032819241031816507
0.000169968919098559978
8.4672771155620133e-05
4.35312714020979938e-05
2.84421066963752285e-05
2.30573409066962808e-05
1.98931176674374874e-05
1.74570528608887034e-05
1.5665837176856813e-05
1.84379504740393888e-05
0.00187071537693697275
0.00188483578531679647
0.0018765334034364057
0.0019068099751915822
0.00184347390446151023
0.00152060029196150119
0.000941591295366369686
0.000484030439660964576
0.000225674262411349141
6.68893112780390869e-05
3.2459405666178101e-05
2.21454535820251285e-05
1.80140220408779701e-05
1.63754566472630649e-05
1.49662936111880599e-05
1.73301109118414194e-05
0.00370831792496313997
0.003660053482029379
0.00351782276816138464
0.00356603011673744955
0.00330429875309436009
0.00244796209106631912
0.00179206054817211973
0.00101963535286934146
0.000600587139656391352
0.000253525269640414159
6.73263694458154646e-05
3.09563582767743436e-05
2.01918826020194885e-05
1.57499126052688047e-05
1.42697668748749021e-05
1.62681088837800245e-05
0.00630989138552597202
0.00617480704762630572
0.00597845847069733254
0.00610092713179780002
0.00465739918701959903
0.0030774677710492292
0.00213143681671013312
0.00128782408184730033
0.00133311020316921667
0.00135482663502200216
0.000553431540071555139
0.000178157273792962229
5.63812492843240124e-05
2.61026196006468669e-05
1.67086479916270921e-05
1.53738363522817755e-05
0.00901432873026806157
0.00893777594098664301
0.00892150303672837285
0.00811016334758575021
0.00650371585291191923
0.00448865821496047777
0.00240132207674681854
0.00134337129370802936
0.00124849835495357869
0.00308494552489072763
0.00449311813766106391
0.00149979867955108499
0.000460088467061897015
0.000104598238070923493
3.69924073281137239e-05
1.75219827141753382e-05
2.89117825290721786e-05
2.7920314806900146e-05
2.6893129219073787e-05
2.59609800419814868e-05
2.52674630346745443e-05
2.48026974348085551e-05
2.44947727331667433e-05
2.42878645915870446e-05
2.41370013905869757e-05
2.39981829678112303e-05
2.38317911155804373e-05
2.35978378698658122e-05
2.32973310418692548e-05
2.28887994555907627e-05
2.23395927921930664e-05
2.44887635403036862e-05
2.83798883425637015e-05
2.68825381727509969e-05
2.58632621558807163e-05
2.51788272713754115e-05
2.47712546283845907e-05
2.45095871291197283e-05
2.43183369946537162e-05
2.41702141770276661e-05
2.40298618719791129e-05
2.38491890612966761e-05
2.35895776599145489e-05
2.32172125768681445e-05
2.27661655229193068e-05
2.22193509051632185e-05
2.1514484971457664e-05
2.36661776281974157e-05
2.77310258195393396e-05
2.59085171065276992e-05
2.49527811819091726e-05
2.44031284052557275e-05
2.41120044738860229e-05
2.39742168461852726e-05
2.39074698975222091e-05
2.38613495453884673e-05
2.37839012889672386e-05
2.36140454628364827e-05
2.33102727691142707e-05
2.28519725533348988e-05
2.228281056026583e-05
2.16537605334578298e-05
2.07863893541106258e-05
2.35837515462373298e-05
2.70140773685194475e-05
2.5034712901759755e-05
2.41323251995852462e-05
2.36801398036766651e-05
2.34926735696641167e-05
2.34677145058094927e-05
2.35198512448082266e-05
2.35800620873827183e-05
2.35752485854442523e-05
2.34253429357206433e-05
2.30836993150016372e-05
2.25442476393525256e-05
2.18630043374083085e-05
2.11455776660328383e-05
2.01538178830285474e-05
2.37496879178329603e-05
2.62502172309116115e-05
2.42136986809444293e-05
2.33555826893506672e-05
2.29790050922224927e-05
2.28839542768434631e-05
2.29672438474153422e-05
2.31401145561384624e-05
2.33167450142486862e-05
2.3398986324206786e-05
2.32783719077788718e-05
2.29031439232376642e-05
2.22823947600468942e-05
2.14946520900964837e-05
2.06794728917435416e-05
1.960140639150689e-05
2.40331131252147267e-05
2.54178094147280227e-05
2.34002960162240683e-05
2.26051618697475909e-05
2.23056467034933663e-05
2.23021577140421816e-05
2.24935100027850661e-05
2.2790849061950146e-05
2.30959071308837404e-05
2.32826974958715814e-05
2.31982571020222354e-05
2.27880008984824664e-05
2.20779174224307983e-05
2.11816868986411325e-05
2.02580659461450544e-05
1.90971402565245988e-05
2.44461769651510082e-05
2.4489261205952503e-05
2.26011765059519637e-05
2.19185516086814807e-05
2.17039024079557155e-05
2.17817104468678159e-05
2.20667812632583058e-05
2.24820344521482766e-05
2.29258269888241156e-05
2.32381993744737347e-05
2.31993742247299593e-05
2.27482183974114732e-05
2.19384457671348701e-05
2.09276833006440241e-05
1.98789942147419587e-05
1.86235041955806798e-05
2.46194390427876526e-05
2.35071574421780527e-05
2.19060180945801284e-05
2.1375740828619744e-05
2.12245902529681136e-05
2.13372562410465925e-05
2.16685290012451421e-05
2.21730219481079524e-05
2.27606755762762013e-05
2.32284774652223024e-05
2.32581296806531109e-05
2.27668430115929516e-05
2.18632501082363682e-05
2.07331385602268361e-05
1.95349517704464519e-05
1.8172402638010252e-05
2.42080840708845001e-05
2.27159957733145996e-05
2.15334298085451513e-05
2.11222820276114243e-05
2.09430183430915035e-05
2.09812911447916906e-05
2.12590636418930294e-05
2.17973677671749339e-05
2.2523220407836538e-05
2.3190232271921877e-05
2.3320223078377033e-05
2.28161400502856282e-05
2.18495476628791754e-05
2.05911762881714995e-05
1.92088437189587966e-05
1.77391843114043149e-05
2.34293962625281808e-05
2.66586529041501388e-05
2.61324150208126957e-05
2.5228039197296118e-05
2.41995888143914163e-05
2.32972818616883242e-05
2.25533737669021594e-05
2.22026348532976024e-05
2.24941603914726407e-05
2.31813459720884283e-05
2.34176332909230079e-05
2.29269271243256015e-05
2.19161197689875521e-05
2.04870976662484226e-05
1.88762434955663954e-05
1.73149256344604552e-05
2.24225732384342797e-05
7.99755591536187982e-05
8.19024939432829932e-05
7.56845136162591586e-05
6.88520457069561616e-05
6.10886431972851144e-05
5.15721131978222301e-05
4.08871519799866164e-05
3.23255299723856378e-05
2.71903506349652822e-05
2.47477841706481466e-05
2.34529804985891825e-05
2.21782288264175752e-05
2.04170356939150151e-05
1.84420138841188241e-05
1.67055744219601593e-05
2.10539310306823319e-05
0.000782940275550857937
0.000821872411732070822
0.000747719849631145266
0.00069772433977885592
0.000618370598904745164
0.00049115839980987076
0.000307412349100432932
0.000157759139418703841
7.88192985550789529e-05
4.12611868635373425e-05
2.797248225148101e-05
2.3072915984295912e-05
2.00395079914941616e-05
1.77298874117377543e-05
1.60542337448141121e-05
1.94171662627425574e-05
0.00191595871644577049
0.00197929031347380971
0.00201098193835421227
0.0020594571716144568
0.00195362662127464715
0.00152424139848696127
0.000888369425640821815