/*--------------------------------*- C++ -*----------------------------------*\
| =========                 |                                                 |
| \\      /  F ield         | OpenFOAM: The Open Source CFD Toolbox           |
|  \\    /   O peration     | Version:  2206                                  |
|   \\  /    A nd           | Website:  www.openfoam.com                      |
|    \\/     M anipulation  |                                                 |
\*---------------------------------------------------------------------------*/
FoamFile
{
    version     2.0;
    format      ascii;
    arch        "LSB;label=32;scalar=64";
    class       volVectorField;
    location    "0.690000000000000391";
    object      U;
}
// * * * * * * * * * * * * * * * * * * * * * * * * * * * * * * * * * * * * * //

dimensions      [0 1 -1 0 0 0 0];

internalField   nonuniform List<vector> 
29184
(
(0.00526927554788666 -0.00246317337299506792 -0.0330839114525397701)
(0.0294273881426241543 -0.0078868340498427815 -0.0376454378875225246)
(0.0643258958428578748 -0.0100239249670827039 -0.040069401862297363)
(0.109271170779058693 -0.0106792255880333239 -0.0438556337868417495)
(0.147897359150724939 -0.00936853390199457285 -0.0493928912369691747)
(0.176156083077552927 -0.00704234299807115095 -0.0573873565559412935)
(0.197471703861640202 -0.00489145367005670503 -0.0685622333851861054)
(0.212278343870297398 -0.00327935524977957535 -0.0840975247043666135)
(0.221825191518224024 -0.0021604754271040633 -0.104061707795811142)
(0.227603786226917792 -0.00174711653030235558 -0.130323530252079101)
(0.232070758723530141 -0.00190816646498890284 -0.161850245844934293)
(0.237175693997376896 -0.00313416902120939103 -0.203957851401913859)
(0.245418484818464677 -0.00485730149656473081 -0.250574474733566477)
(0.258444147604143859 -0.00775828799317963488 -0.331565723791762856)
(0.277517673711719592 -0.0131844142561321105 -0.406623448661348863)
(0.155772004301295341 -0.00305323064924644056 -0.71162819531788668)
(0.00838423884362475905 -0.0104608822678471103 -0.0334614966966997537)
(0.0351577456310820241 -0.0252449999463018673 -0.0369287487234431985)
(0.0717262407217029302 -0.0287624598367641551 -0.0395356108839935716)
(0.107233910332931587 -0.0275162269994748201 -0.0430295654898100385)
(0.138269196671625155 -0.0230832329653335722 -0.0483417443427511945)
(0.164675116043893482 -0.0175479976034898823 -0.0562525805107898999)
(0.186179828255654017 -0.0126994164942723451 -0.0675575510796692646)
(0.202318831566659363 -0.00896998319449822737 -0.0829951749719291809)
(0.213446821505075657 -0.00641520242624819478 -0.103179675841374469)
(0.220842091321334977 -0.0056269648664942877 -0.12888622298939284)
(0.226578999931831948 -0.00670939024912434526 -0.160714662359773913)
(0.23318295083259899 -0.010534930584377683 -0.201070759730649001)
(0.242943899727050133 -0.0164490641617845157 -0.250031626242085747)
(0.252259093682487945 -0.0243409989200746267 -0.325257405006286859)
(0.277690124249447445 -0.0433731162947262536 -0.411445218394341228)
(0.150691299579065713 -0.0108323801887762194 -0.726985637773758797)
(0.0117544642708542722 -0.0216359834721962449 -0.0334736863586836964)
(0.0415210738269972679 -0.0420704614010056488 -0.0375465742148870102)
(0.0764436491689527292 -0.045848900101749808 -0.04018945328789017)
(0.110464620434703467 -0.0427313045669023284 -0.0434987129763411071)
(0.140758806969363603 -0.0364201982486844836 -0.0485991144597658631)
(0.166638195219059065 -0.0290016922942090589 -0.0563898678847679219)
(0.187726154442534293 -0.021911457163430393 -0.0676865760283847095)
(0.203529701441357458 -0.0158741573441879419 -0.083231073199323824)
(0.214169220447161801 -0.0115628495638708563 -0.103624833274072625)
(0.220803762744489263 -0.0100038655237782124 -0.129579714558349379)
(0.225415241447253223 -0.0119524841161718909 -0.161652049685588856)
(0.230833675135577038 -0.0180601300819806555 -0.202066792734676648)
(0.238942034940170606 -0.0284374272543695961 -0.25112955171726864)
(0.247502849279778642 -0.040623359656072118 -0.324858609961074796)
(0.271054980403417023 -0.0728074395897198856 -0.411230503291620864)
(0.1344679291564429 -0.0222094493624451009 -0.719579673163284639)
(0.0145129398359871049 -0.0353131099222875264 -0.0333785611101166807)
(0.0469600751505102193 -0.0590524553981925104 -0.0377152798824189062)
(0.0811458827106973229 -0.0627792347277262852 -0.0402396518600090028)
(0.113806954408619057 -0.0581801845761370298 -0.0433637345629282814)
(0.143212357477939811 -0.0499205280145736674 -0.0483372227727788747)
(0.168627064073623045 -0.0401885305469112594 -0.0561321058301130632)
(0.189385919689103177 -0.0304574945233507012 -0.0675940715957907556)
(0.204742032661531737 -0.0218557371341331214 -0.0834615990749543318)
(0.214551279502006365 -0.015609071178086048 -0.104316348960138555)
(0.219852216222212793 -0.0132369606126857657 -0.130783187701278475)
(0.222683972194492763 -0.0160211764711063187 -0.16332186408812413)
(0.226131617511580202 -0.0246175148159047501 -0.203908990864570122)
(0.232213365607512601 -0.0393583916870884065 -0.252935230487161433)
(0.238675171968845995 -0.0568332550633446065 -0.325473594718930337)
(0.26175991306210783 -0.0980371101031467657 -0.409934545767091651)
(0.124639205869143982 -0.035883757426044452 -0.709375917391407373)
(0.017061970095790472 -0.0513199798218546416 -0.0324426599723228182)
(0.0525587363477001274 -0.0759899074939498348 -0.0363803503132796649)
(0.0865333691489181267 -0.0788831098388121932 -0.0388213430726481318)
(0.118174800263988231 -0.0726578785109759651 -0.042111604223339795)
(0.146941426242429007 -0.0624959682174595216 -0.0473632807171635931)
(0.172116356369948126 -0.0505855934368749927 -0.0555124335667500357)
(0.192674631523687634 -0.0383418642632292542 -0.0674214644146849673)
(0.207502595355494618 -0.0271672049129955406 -0.083846156301926128)
(0.216133193080723623 -0.018862692252114413 -0.105367466945518018)
(0.219468019003619036 -0.0156326484997204862 -0.132531891167573579)
(0.219722220359186787 -0.0193021173832078723 -0.165650378977796164)
(0.220338082841290084 -0.0306403081091982873 -0.206411048009516568)
(0.223604506342679421 -0.0499054637658923328 -0.255199680884223401)
(0.227670802991489035 -0.0730616386597209566 -0.32627455918531939)
(0.248791820827451438 -0.122383776603632075 -0.408119003541045799)
(0.114692246024494932 -0.0507761543989465533 -0.699209334640713775)
(0.0203605845738489381 -0.0693190144935628139 -0.0300794410725898596)
(0.0592685711817679609 -0.0925735020374065104 -0.0332416492612111827)
(0.0930880301539395438 -0.0939184670790405435 -0.0360409795788811452)
(0.123665305952806961 -0.0861689287536346188 -0.0400170654770290804)
(0.15188840096189396 -0.0743525373372896647 -0.0459618463351844225)
(0.177050002864370809 -0.0603744144833057855 -0.0547653303829941582)
(0.197623687478911014 -0.045506174211989478 -0.0673314419705779571)
(0.211955623412329791 -0.0314216676600924394 -0.0844604891717990469)
(0.219108039012043759 -0.0206772194468134995 -0.106763346348657348)
(0.21985916997721297 -0.0163469137027523956 -0.134724032334434335)
(0.216715434948954094 -0.0212247577477550076 -0.16846485774332734)
(0.213602831662546566 -0.0356523080989760155 -0.209356710102992144)
(0.213197643561023775 -0.0597347620387236183 -0.257773844630610316)
(0.214385633033410544 -0.0889513064277143162 -0.327023494511182622)
(0.231765372059866082 -0.145413096111745244 -0.405994261073435114)
(0.101181659836113422 -0.067406399307260001 -0.683115179547798879)
(0.0250205142490487441 -0.0881940877508182591 -0.0260141190802857525)
(0.0669020576618327423 -0.107781377808410975 -0.0297993443123412208)
(0.0999097742540217409 -0.107130636972697021 -0.0335901762396453585)
(0.129214489567803736 -0.0982397285837960099 -0.0383396140401430635)
(0.157157243696923271 -0.0853018138430094441 -0.0448887636402435786)
(0.182800634491629421 -0.0696870866183812304 -0.0542548380389208662)
(0.203882850726751913 -0.052419555565779534 -0.0673694353137360841)
(0.217982561290545662 -0.0352788168179236708 -0.0850800292036825861)
(0.223491030391522683 -0.0215051840851470458 -0.108060344294850674)
(0.221083864327544066 -0.0156858012799148544 -0.136782619778412939)
(0.213745065435227866 -0.0214699509933337918 -0.171177956457640945)
(0.206092263786291807 -0.0393330537187842333 -0.212222000229253638)
(0.201225309672912245 -0.0686863328362670028 -0.260291374522565788)
(0.198891921860066545 -0.104377355943512898 -0.327685169644920227)
(0.211569902625909634 -0.1669864894873965 -0.403635751999963877)
(0.0861348857298946252 -0.0868147693426089273 -0.665182783940492128)
(0.0302912886165104082 -0.107751914112160466 -0.0214548812457149678)
(0.0738078515109922145 -0.121571499407043704 -0.0287678691494470881)
(0.10494622536574405 -0.118124680337137355 -0.0332961841180231671)
(0.133204172078253885 -0.108314581140914717 -0.0379638921462069207)
(0.161722711464289154 -0.0946150357326668995 -0.0444735375451878953)
(0.188818468161434633 -0.077666239460754849 -0.0540929858201946376)
(0.211308463206938246 -0.0582028335611548542 -0.0673543416775352621)
(0.225642729422804555 -0.0382700694962527996 -0.0851913302947802237)
(0.229473065333977488 -0.0216506711510371097 -0.108468572702380806)
(0.223278866123164277 -0.0141288467774350369 -0.137847994859722683)
(0.210815606592464233 -0.0204443739243566659 -0.173041329017338263)
(0.197751202794333336 -0.0416373142089869613 -0.214590623913923584)
(0.187572946648732752 -0.0761608732393069532 -0.26278068861635151)
(0.181224629451906788 -0.118742663062148077 -0.328587732684475053)
(0.18844643064318034 -0.187363656244923515 -0.40135478385797041)
(0.0717130109426932505 -0.109993388392142538 -0.646292478979122231)
(0.0341251835787324612 -0.133023814471994045 -0.020875359141377333)
(0.0776715770352341961 -0.139550336179635248 -0.0315791896256866628)
(0.106318083321626608 -0.133065568662232625 -0.0345800211486951212)
(0.134908286986374276 -0.122212476201296424 -0.0376375090133017343)
(0.16556948289558826 -0.107464295789799283 -0.0435632972959606179)
(0.195421557336456581 -0.0883647501524604945 -0.0533786932367735015)
(0.220563801108997204 -0.0647841215216716504 -0.066427716723394481)
(0.235370929793828426 -0.0393426430587310028 -0.0837762762031586533)
(0.237440466062466271 -0.0179529025026492969 -0.106981521020423978)
(0.226684894165163825 -0.00957901954321409461 -0.137185821282424542)
(0.207981676517001585 -0.0175459608191569742 -0.173716730606704783)
(0.188362249796535292 -0.0425205993466615181 -0.21665662185560014)
(0.171999201267201612 -0.082161819784890705 -0.26582120235153206)
(0.161673774784460739 -0.132250077872191646 -0.330242954262162214)
(0.163960906934925599 -0.207101387887064586 -0.399455487947782018)
(0.0604550528812131879 -0.139512959426926847 -0.62609834063918679)
(0.032625794854307201 -0.164225089080527464 -0.0263145216012090413)
(0.0740129604833770632 -0.165610306767181026 -0.0348115260084557315)
(0.0992991276266927403 -0.158022873708242473 -0.0340919697657715154)
(0.130321229593819643 -0.147762515583263171 -0.0332944141271476757)
(0.164149978262869922 -0.133768529607051601 -0.0376856460635616869)
(0.197656975905435045 -0.114276373286691324 -0.0447258622880631548)
(0.227091056704633004 -0.0876814916806170352 -0.0583881195792258154)
(0.244764620394273935 -0.0541170544259300113 -0.0760984953911822554)
(0.246446338451631802 -0.0189757848208608956 -0.100933650051174162)
(0.229604834382763134 0.000509138914190729319 -0.133936663737756034)
(0.203362850192663203 -0.00973419080976250899 -0.173665174330128763)
(0.176323693105063961 -0.0404722985089824364 -0.219305018581533145)
(0.154182289546922119 -0.0879468171555318895 -0.270100843390049139)
(0.14162974690578195 -0.146140623361343758 -0.332783218301456185)
(0.140027900947074152 -0.227068685671905413 -0.39822531140540357)
(0.0504027884868940429 -0.171643865516614064 -0.605003164838045171)
(0.0187092929839298462 -0.187490058972686335 -0.0359480749861159771)
(0.0495885235197454158 -0.179933200252904574 -0.0310173959536633355)
(0.0626841435162753396 -0.170435385551649998 0.000981836381405571442)
(0.0944117840628673488 -0.160786503864500524 0.0160978476829919497)
(0.12833859484810678 -0.148159070920355157 0.0169746657371841955)
(0.164078860383574582 -0.131760150197274162 0.00243792626199218054)
(0.196278882976147651 -0.110093080963872297 -0.0195806141132953866)
(0.231094378426887181 -0.0813463477391377088 -0.0520004570023126431)
(0.237560024071583442 -0.043366621662721129 -0.0867118088381572671)
(0.22393255381872279 -0.00562828703179613782 -0.128071315632285632)
(0.190914922049452013 0.00363916756921104246 -0.174625579637105982)
(0.155257721814334504 -0.031682050885366006 -0.224680068291122248)
(0.128764959828243403 -0.089977146964036539 -0.277618012961325156)
(0.118631702038624762 -0.157949467806021954 -0.337732272146687829)
(0.1127965560581526 -0.24799743495814211 -0.400415104016133783)
(0.0401300992503420967 -0.205063876181371924 -0.582030397493489504)
(-0.0160851481109538681 -0.18861663443943319 -0.0372797464095412923)
(-0.0150674290340810438 -0.164901317991715979 0.0252484017819548621)
(-0.0362474307736927737 -0.143760265862053149 0.0975620396490951003)
(-0.030529913962442673 -0.123905866692436806 0.155903603957350756)
(-0.0434955575481013948 -0.102482917999494508 0.204027726783284291)
(-0.0456869716253819336 -0.0845321985053606867 0.205287079955099511)
(-0.0517978208506427451 -0.0652971952397389255 0.106673142881701113)
(-0.0694877811786050736 -0.0514385051167999749 -0.0282999448242072377)
(0.0144983781131945155 -0.0179376396594895793 -0.0939866220447731077)
(0.10019962579873827 0.010171726807023912 -0.141930503108558981)
(0.120545362260904773 0.0048982261183450641 -0.189058250392253741)
(0.100393047852522038 -0.0184087356671193657 -0.244424309055549599)
(0.0611933681321136375 -0.0810912605148447208 -0.300344787706351868)
(0.0683664366400110052 -0.167008681417072646 -0.35543621163894068)
(0.066585935690444284 -0.273818947771471422 -0.414428952661519523)
(0.0214414567851822432 -0.23806253003622932 -0.554672043291907668)
(-0.0446062875554675761 -0.187107269895676526 -0.0191102806928172518)
(-0.0722325499973793944 -0.145851214904457016 0.0765236601177998327)
(-0.127542353639994333 -0.104508694385690021 0.178872889391325396)
(-0.147932340702403076 -0.0557252952572113991 0.26857265674904629)
(-0.205191397873470571 -0.00560726701002868533 0.357647825319745094)
(-0.268340943879801785 0.0298710513851982995 0.374026013437367244)
(-0.38497837992128825 0.0444365600758060003 0.178824919780911945)
(-0.577818181197520264 -0.00266681437467840288 -0.0728394484872389447)
(-0.661462558317821303 -0.0111280801017183423 -0.175075083043741836)
(-0.52825171662055348 -0.00742651381060729227 -0.234987014040025977)
(-0.34253869971689932 -0.0113203269445136812 -0.287368895693123849)
(-0.209078324386800768 -0.0483531337307177705 -0.325031831926559822)
(-0.140934118405837583 -0.117198633202108354 -0.361586760430385623)
(-0.0573198672379617857 -0.205182628419569912 -0.400200346951693375)
(-0.01623017435754847 -0.316293135232174505 -0.446116573895339097)
(-0.0147994243328849161 -0.281387832441054253 -0.523171456646334132)
(-0.0747267184490240516 -0.152176139156830981 0.021178053462403014)
(-0.131450922831747974 -0.0905236730834600434 0.154986967125663844)
(-0.21095354816446954 -0.0363574550867752019 0.267408990451404704)
(-0.24457128980775622 0.0353267613701328115 0.35868074180984133)
(-0.289438444218450941 0.0992840930714721792 0.420968552977182831)
(-0.340717896965506972 0.148770802154823634 0.432632048258320911)
(-0.438539932081405848 0.173022561030516164 0.286294081917804755)
(-0.583666312607422522 0.0414419255077250193 0.00451083176908220491)
(-0.694483022460903432 -0.0670877525107941436 -0.127756864730636743)
(-0.747369510053056185 -0.111141428433894116 -0.213784221966407173)
(-0.719481083588175085 -0.131029429344089537 -0.309952899083409061)
(-0.597563173419265237 -0.172501751676486709 -0.368648733034860177)
(-0.439218303126014564 -0.242115711730977512 -0.415987939699616727)
(-0.261567574254425561 -0.304490445438759194 -0.450372464532423356)
(-0.130665633539647941 -0.396384079668648082 -0.480815208036388719)
(-0.077413327015022057 -0.360887508417063407 -0.486361959543401112)
(-0.0923752988587283608 -0.08628504010585894 0.0664477838779692492)
(-0.164002504448789888 0.000154959608647781133 0.232455123877932712)
(-0.258961949232098809 0.0618174316008760147 0.348898341582005889)
(-0.292923691265359887 0.130841467085552721 0.424331613827556464)
(-0.327245859076388812 0.190356428778216957 0.442560903342959999)
(-0.412168735396718167 0.268961905868469908 0.395478814248479749)
(-0.528155752994590943 0.276094900913258834 0.216676172812525936)
(-0.56073976730166164 0.0691097556586357797 -0.0331833838976636347)
(-0.528846659107552575 -0.0728008077432895362 -0.133973942849451466)
(-0.597716432703716327 -0.0821441443500899038 -0.147712124893039309)
(-0.65340106701440348 -0.145189477566861763 -0.128546813728000031)
(-0.706707210430869592 -0.256544756347662051 -0.170846251012843675)
(-0.635078748857019093 -0.359202523435304899 -0.329544131111644822)
(-0.46805957321307845 -0.442081016438139685 -0.43811706834031594)
(-0.263762071335519044 -0.539278195753546519 -0.487698786044299226)
(-0.172841356852810685 -0.478828072588668996 -0.461140731000724613)
(-0.0961290175508642264 -0.0224615340862483748 0.0824522121131384123)
(-0.140720045252566761 0.0805719852004824488 0.248416325963248308)
(-0.225051766969948719 0.132640713710609287 0.341091527922691318)
(-0.266677499570397214 0.200006729072920941 0.401423120436935676)
(-0.323243560358406901 0.277755156005970338 0.401265442072812728)
(-0.469125323711308273 0.387172573303558254 0.296220940193236915)
(-0.602505916995714763 0.401221306623673946 0.10536276345447286)
(-0.506880208100422891 0.0390856943603072465 -0.0852522728075451736)
(-0.413416421249454435 -0.101912362711948909 -0.148625455850927346)
(-0.435577555755284007 -0.0538082323095506049 -0.137233140374905915)
(-0.470860838564189477 -0.0295363890338253277 0.0056890876896253037)
(-0.552089571209996244 -0.0671970498682061684 0.146572104188010366)
(-0.614511798023592237 -0.279446112133779123 -0.0448762846032319807)
(-0.525875884843378771 -0.521617225221582825 -0.252989235781800881)
(-0.389881004262718656 -0.703393215030658658 -0.421664457533131587)
(-0.283083571276188162 -0.615665589543193059 -0.470299369781088883)
(0.0047540656600621933 -0.00253818064626070653 -0.0306842135632286392)
(0.0279405660926791873 -0.00787958192405055144 -0.0345698875074905015)
(0.0617158480506647955 -0.00993759235851560119 -0.0369984851761671965)
(0.105258509218665475 -0.0104835465986028529 -0.0409539585590574309)
(0.141523136077159273 -0.00907091072651886043 -0.0467059940436836199)
(0.166922328558215427 -0.00672055974573592795 -0.0547741316784910795)
(0.184821150823270025 -0.0046324077067841779 -0.0658204399139551977)
(0.195695550062101653 -0.00312395754473070554 -0.0806779940306752846)
(0.200756228723829588 -0.00215706400804651678 -0.0996804031840810845)
(0.201456612331360474 -0.00184947098820042793 -0.123806520230852118)
(0.199619891863410809 -0.00217518914988496827 -0.153190936876075628)
(0.196897381723382336 -0.00340074137099224613 -0.189500440777080698)
(0.194474955899349822 -0.00493592244381269203 -0.23428122214747768)
(0.19051509319442772 -0.00813024546266740734 -0.289228848481194567)
(0.184374167947870454 -0.0157427329541749081 -0.366800783065819869)
(0.169797042045615576 -1.83833096383272193e-05 -0.416687541673488149)
(0.00790840508142713269 -0.0107526795814327468 -0.0304487995375591521)
(0.0336976318472133191 -0.0251069812754556657 -0.0332195652689695822)
(0.0690287453885273378 -0.0282879286406839472 -0.0357740314909654952)
(0.102932918049716868 -0.0267835449404076296 -0.0396547933594477986)
(0.131934155210433335 -0.0222116213706230956 -0.0454560028146033593)
(0.155783989013711849 -0.0167479041936245444 -0.0536786603070042029)
(0.174164849311632786 -0.0121663084144168626 -0.0649184080563995902)
(0.186637215890828378 -0.00881380126093828965 -0.0797764124738122582)
(0.193526482069561828 -0.00674053756863101858 -0.0987682640582630833)
(0.196084929937024421 -0.00635087162923830655 -0.122472944142266116)
(0.195885562721906381 -0.00782715288377184605 -0.151433626180745878)
(0.195235188014355132 -0.0117199411802711827 -0.186918195821204197)
(0.193175055734829459 -0.0171604909863571319 -0.229829553813898246)
(0.194806239913581453 -0.025110765925430361 -0.285788532570012022)
(0.174758602014015357 -0.0439593517046177329 -0.344961023152160207)
(0.161483195482531844 -0.00102753016916855484 -0.438276601785325515)
(0.0113212971418647657 -0.0221081504040302745 -0.0293449225103478949)
(0.040056574435406854 -0.0416829089571972358 -0.0328638782525384754)
(0.0736720747101675538 -0.044892790735522381 -0.0356604979710573936)
(0.106077900685772178 -0.0413940913808685251 -0.0396637881639327547)
(0.134294656800151208 -0.0349335839556526792 -0.0455436693052554617)
(0.157553072024555429 -0.027682277948710067 -0.0538562591153211243)
(0.175463313678694555 -0.0210634442013140043 -0.0652078232429988136)
(0.187564387974632846 -0.0157237215645393107 -0.0801987085191822185)
(0.193966119010095639 -0.0122485926121620285 -0.0993402494626784011)
(0.195798390918416998 -0.0114899035287003484 -0.123171345788591513)
(0.194576606287169968 -0.0140407254862611585 -0.152220738816249257)
(0.192918837097432738 -0.0203662697109786156 -0.187673479411565258)
(0.189514278941462111 -0.0301962895098559642 -0.230497365553848449)
(0.190607726575119901 -0.0418502262784126652 -0.285932089887767693)
(0.169286833233232986 -0.0695870047163936328 -0.34654138830371306)
(0.145398433361457774 -0.0051938055514117714 -0.433926752711540797)
(0.0140893457717785227 -0.0358210258545092197 -0.0281064424621457649)
(0.0454752243106968448 -0.0584325776009149353 -0.0327196190433908726)
(0.0783656161950317398 -0.0614221098644481336 -0.0358975124900672224)
(0.109397931619814565 -0.0562428575718967039 -0.0400082306263781773)
(0.136654170596964886 -0.0477393316239407492 -0.0458972392216570324)
(0.159337771746895784 -0.038257880897549508 -0.0542411775047907524)
(0.176811979047067191 -0.0292706954296643972 -0.0656997685839498385)
(0.188394524275167202 -0.0217855123201061082 -0.0808717184377169274)
(0.193958117389557566 -0.0168431600731742195 -0.100242696590472843)
(0.194535269099279484 -0.0157074075712055616 -0.124294971152627012)
(0.191705661373281822 -0.0193175359846231992 -0.153500992251360796)
(0.188353345164954222 -0.0281539817968973552 -0.18894938226702554)
(0.18330360250383837 -0.0421247114005995973 -0.231619451308472252)
(0.182823978259555098 -0.0584061875661850208 -0.286432838811113921)
(0.162545358052952477 -0.0933689326729287838 -0.345813494661722065)
(0.134392856475289202 -0.0137774861854820536 -0.431902054849895911)
(0.0165337846245350688 -0.0518447902897155796 -0.0271948682236324846)
(0.0509626474596441559 -0.0753195251844228364 -0.0327506370715520273)
(0.0838087365208039503 -0.0773030234392236143 -0.0363929668981755189)
(0.113895692802012463 -0.0702342847235485068 -0.0406544526514130838)
(0.140461063676534353 -0.0597035553000946351 -0.0465541570796020529)
(0.162775989852782799 -0.0481716629121957465 -0.0549074892926233044)
(0.179906885321032162 -0.037047873584657505 -0.0664494790583949752)
(0.190852900659365554 -0.0275332095744183596 -0.0817914834916812356)
(0.195193791231373898 -0.0211043993744794989 -0.101392904865176534)
(0.193865197029895853 -0.0195479515992890915 -0.125686023746692632)
(0.188626632440983322 -0.0241892651040158772 -0.155055665768458056)
(0.182720747406348416 -0.0355862272191472748 -0.190508897129418181)
(0.175317268503914159 -0.0536832711653586758 -0.232917165969898782)
(0.173197928243640165 -0.0749164719770250842 -0.286950346384165778)
(0.152857985663490542 -0.116354115095736454 -0.344312184529793064)
(0.123814199707184366 -0.0239832579292320637 -0.431293095803218618)
(0.0194738760666902204 -0.0699375109288751101 -0.0268354116232613557)
(0.0573442634578645721 -0.0921027656512299758 -0.0326352398408785507)
(0.090358099935786973 -0.0923500707000413923 -0.0365226248209887805)
(0.119630755615963216 -0.0835019118070378374 -0.0409552697902184279)
(0.145742083936119537 -0.0712779165318313673 -0.0469532024661050845)
(0.168004733101526194 -0.057942402647485472 -0.055398479275557494)
(0.185036807638670558 -0.0447079364791878181 -0.0670855945230976608)
(0.195335815674817614 -0.0329330398683838066 -0.0826534937328633618)
(0.198056353555130932 -0.024667877415298748 -0.102553950240714647)
(0.19405248633610947 -0.0224818262786306566 -0.127167190395320151)
(0.185434865285167116 -0.028099094001729906 -0.156792570683569388)
(0.175978777897867089 -0.0421236626291265695 -0.192284441361766006)
(0.165497844628695323 -0.0644908451349435752 -0.234367123840196839)
(0.161367693266425055 -0.0909870375660168512 -0.287336379919919338)
(0.1404587293134541 -0.138828525897517097 -0.342443698710264421)
(0.11251566601560202 -0.0360871348565165243 -0.428550317111032031)
(0.0233858578279164883 -0.0893028564054905438 -0.0269410664271561608)
(0.0641956654428590817 -0.107967526170936384 -0.0319990356292789643)
(0.0968133162050987262 -0.105961055912795046 -0.0357759631356356425)
(0.125284249669100706 -0.0958185332974116066 -0.0402938768922768351)
(0.151426652464416583 -0.0825836936296558272 -0.0464486876869538434)
(0.174270739873803038 -0.0679749408131547217 -0.0550984513567989581)
(0.191715372254801231 -0.0528639087969322297 -0.0670448330052188096)
(0.201531102557991476 -0.0386107597243147554 -0.0829594351808715103)
(0.202285278365453236 -0.0278363598163419226 -0.103345986052925415)
(0.194826620074734058 -0.0243167216218577453 -0.128543612166711008)
(0.181900366197586094 -0.0305927651860443406 -0.158669102028673986)
(0.168058876587219436 -0.0474146971236844433 -0.19426115357301868)
(0.153873789979542014 -0.0744292982708950612 -0.235924105229656234)
(0.147238163406276767 -0.106699553369034361 -0.287582539107533453)
(0.125632965242833766 -0.160965379683989357 -0.340349289152242662)
(0.100203870723691149 -0.0507747823613925869 -0.423759160071489172)
(0.0274476402846747757 -0.109765448609591004 -0.0274251264617826583)
(0.0696341686096769441 -0.122670194439265579 -0.0308970369347609311)
(0.100790052328139923 -0.117864390436867889 -0.0341467416076045999)
(0.128898763026815272 -0.106892066642825606 -0.0385106246713167386)
(0.156112238666454239 -0.0929924196842791539 -0.0448246530112377459)
(0.180549717697669532 -0.0771180335012524726 -0.0537210528728498601)
(0.199173354419913712 -0.0599706289984496266 -0.0659253675071322653)
(0.208788088330722627 -0.0431929294796830482 -0.0821972313350872869)
(0.207380596948965407 -0.0298706881806312663 -0.103304788952227694)
(0.195830428672160634 -0.0248711038924139261 -0.129597638371516527)
(0.177835573518988349 -0.0314487617755756788 -0.160726421922151419)
(0.158967681857392629 -0.051044353686823557 -0.196635377146079815)
(0.140442860888267546 -0.0830266140494254623 -0.237831481146741269)
(0.130811875151926243 -0.121828953948027202 -0.287978215402223403)
(0.108397904344831014 -0.182927593180930242 -0.338394655521071619)
(0.0865908237531148317 -0.069233967637365626 -0.418081644105849137)
(0.0297397728693898564 -0.135664755041835533 -0.0280242661285138757)
(0.0712127938974209396 -0.141306121130203743 -0.0292511028267547907)
(0.100138142635172817 -0.133809823190238153 -0.0314329040557559738)
(0.129505373243777755 -0.122185871053331951 -0.0355222952757528326)
(0.159460492748956184 -0.107102749445809664 -0.0421821564548869321)
(0.186784192566656349 -0.0883940930740891306 -0.051271930623973859)
(0.207576973211600763 -0.0664835761076328774 -0.0633111985774569147)
(0.217136885960660109 -0.0440882176409738216 -0.0796081609700894088)
(0.213439217123187225 -0.0264694473756852122 -0.101749733735746223)
(0.197310591200264035 -0.0210451278820151313 -0.129922846727173469)
(0.173702093669232838 -0.0298514156970172452 -0.162891344051984965)
(0.149083937553268292 -0.052978471336654398 -0.199609965661903754)
(0.125347548788887986 -0.0902412956865843718 -0.240526030951459607)
(0.112450309375666746 -0.136430673261937974 -0.288997589161109569)
(0.0892855593027209737 -0.204861770732097576 -0.336938131351189829)
(0.0714633453292492088 -0.0915389750241465683 -0.412242382051430822)
(0.0267179503004423939 -0.166539406795889217 -0.027920703567895333)
(0.0641723806932093521 -0.167431626160986974 -0.0244389301016510602)
(0.0900470801849820035 -0.159521102622854627 -0.0243716644789400451)
(0.122688702937809979 -0.148872148923909098 -0.0286977544567491201)
(0.156250129221256029 -0.134054056974231284 -0.0352569575976968766)
(0.187322728683280038 -0.113690914013592256 -0.0444444749805790185)
(0.211994182235964723 -0.0869456996780674368 -0.056104366962236904)
(0.224334714126583984 -0.0547610666026178278 -0.0727638822039147204)
(0.219812283258884633 -0.0239306869345396779 -0.0972415188942939712)
(0.198274706794715594 -0.010831587549127707 -0.128951978008540386)
(0.168466465350445016 -0.021979213913979799 -0.164997203967377104)
(0.137648608411698431 -0.0522091914422183265 -0.203161478384346422)
(0.108659312358855467 -0.0972087918380343807 -0.24414476331158147)
(0.0936458026885052669 -0.151280178419488542 -0.290868540355120053)
(0.0695798720338473425 -0.226661267784381781 -0.336313374984478997)
(0.0546366998714591934 -0.118413610131366934 -0.406490989527089119)
(0.0114487669311427384 -0.189546987828304286 -0.0229441556130539313)
(0.0346153810855712243 -0.183825123950309283 -0.00954694390801189355)
(0.0501088567200891483 -0.175265204833461696 -0.00321826095856132203)
(0.0817002853089362768 -0.165436645411970173 -0.00220683063969739912)
(0.114827328270457843 -0.150986525041706704 -0.0081484206687972658)
(0.146482037102262375 -0.132451497957136205 -0.0172503920106492105)
(0.175908133137733319 -0.108856377657929299 -0.0353143114309687894)
(0.203873277443616663 -0.0786926168144618798 -0.060156256759912978)
(0.208608956690450903 -0.0415544949290458654 -0.0901661478804003103)