/*--------------------------------*- C++ -*----------------------------------*\
| =========                 |                                                 |
| \\      /  F ield         | OpenFOAM: The Open Source CFD Toolbox           |
|  \\    /   O peration     | Version:  2206                                  |
|   \\  /    A nd           | Website:  www.openfoam.com                      |
|    \\/     M anipulation  |                                                 |
\*---------------------------------------------------------------------------*/
FoamFile
{
    version     2.0;
    format      ascii;
    arch        "LSB;label=32;scalar=64";
    class       surfaceScalarField;
    location    "0.810000000000000497";
    object      alphaPhi0.water;
}
// * * * * * * * * * * * * * * * * * * * * * * * * * * * * * * * * * * * * * //

dimensions      [0 3 -1 0 0 0 0];

oriented        oriented;

internalField   nonuniform List<scalar> 
20536
(
-1.04821624172828113e-05
-2.40388121861305675e-07
-1.0914801492233657e-06
-4.02551353846500083e-08
-4.26751235440145279e-07
-1.77584245876835831e-05
1.92438068733816791e-05
-4.1346772777800132e-05
1.28095371881299115e-07
-1.7401301356884658e-07
7.76354021515608716e-08
-2.08953854589529987e-07
-1.66323901593817939e-07
8.60177566532423155e-08
-2.37745290138812192e-07
2.70299201537435429e-08
6.70985479586395655e-09
-5.95849520077019869e-11
6.47967325446205461e-09
-1.7494841005216111e-09
4.24732615898274816e-08
-2.55231188467102734e-10
9.16006931722835523e-09
-3.48986363684124443e-09
1.08921966239774589e-07
-3.67173678207789942e-10
1.05607256601654794e-08
-7.79057601384466808e-09
8.24818938928975771e-08
-5.09114136622373848e-08
8.94221883177951005e-09
-4.20478233201368041e-08
-8.35723606700195233e-08
5.39946534876948068e-09
-4.31339371034577067e-08
2.17257831182603536e-08
5.38929781338127772e-10
-6.67912244662132283e-11
1.4441781469114233e-10
-2.55359178701584405e-11
3.16950159792717033e-10
-4.434897452230298e-11
7.62865147125938605e-11
-1.75411827480986972e-11
8.44085224627869078e-10
-9.35072840572092762e-11
1.16952205656693719e-10
-4.23771573551467948e-10
5.81652332345617235e-08
-6.16968082804972371e-10
5.91197251892288456e-09
-6.65075072874516097e-09
-5.50708705945677104e-10
1.64870169086824428e-08
-2.90425132428292989e-08
7.99701309398475908e-08
4.2750438024736153e-11
-5.81873476567604893e-11
1.16846876769687878e-11
5.00894213489548692e-14
6.93552437829175905e-11
-3.38195823744688415e-11
8.60320229239515191e-12
-6.4441880013209324e-13
2.38027252793580221e-10
-3.35293775961106635e-11
6.2315351226654216e-12
-2.11849046185417629e-10
3.24083594531148983e-10
-1.09188346953032396e-10
1.93659043547748381e-11
-5.89322293905763688e-10
-8.44647689577520653e-11
2.2196549982354241e-11
-3.98405576102297739e-10
2.48566325797635859e-10
4.0586225262513481e-11
-5.17509777717405291e-11
-2.60215294305340978e-12
2.41437793770782073e-12
4.30426358929846171e-11
-2.38177292572179886e-11
1.28526222322098632e-12
-2.74749194765899471e-13
4.45748842294994671e-11
-1.411915005667435e-11
5.71571741106066365e-13
-1.89391897428088412e-11
6.2572402149090039e-11
-5.83336693498699507e-12
1.30184573467834972e-12
-1.1740679026502839e-10
-2.55619553407617767e-12
9.40388518553385416e-13
-4.55368484825916336e-11
2.5957410506900846e-11
2.40754014851552397e-12
-2.19800095563441573e-11
-1.17142324054223915e-12
2.1564019995159218e-13
1.11192758656147303e-11
-4.19841727335882423e-12
5.08208466324228116e-14
-8.30880117973359939e-12
6.82499394460945321e-12
-1.79976592080866794e-12
2.82779145265747427e-13
-1.89018265771427573e-12
2.71258034710321626e-12
-4.55914809172892849e-13
1.25178381767893144e-13
-1.09813178939567068e-12
-4.21122241498134684e-13
7.08595560596159399e-14
-3.7554031667772901e-13
1.32493145855158272e-12
6.63751773185139572e-12
-1.67974669588112048e-12
2.87162005314236894e-13
-2.47128974621543588e-15
2.55642122946116117e-12
-2.39558115509706213e-13
1.0883666570954837e-13
-2.43917716255790973e-16
5.46636589131018445e-13
-5.92462934848417678e-14
3.7224537170942468e-14
-4.94756890123078024e-16
1.42467422762789136e-13
-6.131679412889507e-14
1.22775170571531317e-14
-1.03775126029770597e-15
-3.0405417481072406e-13
2.98601857682424066e-14
-9.80287798888728726e-15
2.82834896166555466e-13
2.91565030438712522e-13
-4.94546305378491118e-16
3.06039271762273832e-14
-1.48015826244634552e-15
5.62999993192638956e-14
-6.76825329812792232e-15
6.2112046799263255e-15
-6.97584630931732235e-16
1.67318232555075523e-14
-1.5721589598109655e-14
1.95324566925863397e-15
-7.91464700719427132e-16
5.77888039252378722e-14
-3.18257628348319775e-14
5.30006727336574906e-15
-2.53280165243419338e-15
-8.05335279503994576e-13
5.244428087308537e-14
-4.3169936756254898e-14
4.76220898023870039e-13
1.35019408339069122e-16
-2.79562324428661697e-16
1.97203445563785165e-17
-3.38506306899656958e-16
1.77404902997902723e-15
-3.23904420005182965e-15
1.54941332107763878e-16
-1.13619994226023284e-15
1.10723947187253065e-14
-2.85822940432432132e-15
1.22082931244993917e-15
-1.0037068270601691e-15
4.08810901621485078e-14
-6.08320538309054299e-15
1.52320582375317646e-15
-6.65956204260677125e-15
-7.86694166690104833e-13
1.18715939582992471e-13
-1.74917599102149773e-13
5.77881459911650479e-13
3.07559590351145543e-16
-1.28915547072130173e-16
1.75303197971483711e-17
-5.04706820541584937e-17
1.79403874474625903e-15
-1.61433134137862145e-16
2.99037748337141742e-16
-3.59191371303155789e-16
9.07138376556114399e-16
-3.55191762002352558e-16
1.88507965151625428e-16
-2.01741062469444243e-16
1.00218990314188499e-14
-3.76932184819960242e-15
9.95601280386881855e-16
-1.41586462254823645e-14
-1.99102659492948665e-13
1.28877384894302824e-13
-1.20678246401372552e-14
2.7054283645091092e-13
3.37284153133059172e-17
-1.79136339422936426e-18
9.58886231109561485e-18
-1.93597578003493048e-18
3.46697999007968248e-17
-1.46080011971994894e-18
1.04825569944777527e-17
-2.63115555396464532e-18
1.3464046379110941e-16
-1.19369824344891237e-16
3.33142770327737213e-17
-1.63693051115799503e-17
3.11108355767422369e-15
-7.20828346807437773e-15
5.77418479760633668e-16
-1.76211567501743774e-17
-1.18240292510355565e-15
2.46687683855199672e-14
-1.10466092728716999e-17
4.50896579830208974e-14
-4.22056670531227229e-23
3.15472473135915498e-23
-5.31997739365179136e-24
6.80642856642798272e-20
-1.04951268584064947e-23
-3.64560467600404476e-21
2.79142110455340627e-19
-1.10197575650207543e-20
8.76895561875635545e-20
-3.04862536221204396e-20
2.21928189821554964e-19
-1.27342283117805815e-19
6.08591017592018779e-20
-2.26831605630679002e-19
2.0718133073709744e-17
-2.84483314954112301e-19
1.22347424147863638e-17
-1.5021413251346353e-18
1.54893956849433547e-15
-9.15943493443087748e-19
8.28951755770899006e-16
-5.07640119203490587e-17
-5.29320853534807338e-20
5.67356613195835254e-17
-1.57588453816659907e-18
8.89071375663694532e-17
-7.1877725817403311e-24
3.49826138813392194e-24
4.20674517737817296e-25
9.32710065050018272e-24
1.00804269919325034e-24
3.53488369668811517e-27
2.16433266086601264e-21
1.970390404688056e-25
2.90412996046282944e-22
-2.57001154678587205e-22
1.83090860065309592e-20
3.04344942724621804e-26
4.06752951463048333e-21
-2.13435291199920411e-21
3.41419411557535308e-20
3.40302885281054356e-27
1.25759468586597183e-20
-6.73172028269450185e-21
1.17335454881960282e-19
3.2644683254428825e-24
8.21469298320446064e-20
-4.90095285801236703e-21
1.12387902935487024e-20
3.02126018218580021e-21
1.04922953142333388e-21
6.55165858153169516e-21
-4.57610129127245201e-25
3.48607196698108842e-25
3.58988076313072966e-26
-1.26416795478547985e-25
5.26291540795725932e-26
8.90102118487906075e-27
-2.30096157296248431e-26
4.4703625476375973e-27
-6.45299057577058847e-27
1.70868137151494977e-27
-3.18227637087680331e-27
2.7823242029334447e-28
-1.16770767902450734e-27
2.84140564778289991e-28
-2.99881702234544038e-28
1.39427448347806118e-29
-1.57463255118582421e-28
-7.01396865132107842e-29
-2.17023665137255489e-25
8.38900902800557067e-28
-1.85932881139720222e-25
6.9421752204565616e-25
1.53585082941773354e-24
-7.98452893502781402e-22
1.63490071831794325e-21
-4.29640601585480937e-22
-1.49610736468407794e-26
5.31266947219155675e-33
-2.16990119769511965e-27
8.88237808625268339e-32
-1.71771617313877979e-28
-4.98853706274822056e-29
2.72920887020073206e-32
-9.56013400366594598e-30
-3.65825260157601252e-30
2.09590606048909626e-31
-4.01258751942081206e-31
-2.22259357923289821e-31
6.00179330975549956e-32
-1.78430082975390932e-29
-1.65547693561682866e-29
1.96741124150628242e-28
-3.80719724966291151e-26
4.28642230521990435e-25
-1.70153703944723931e-26
-1.20903403211299206e-05
-1.00316805620500859e-07
-1.99840661334736647e-06
-1.78221659762095712e-07
-1.67499236150046393e-05
-5.23057755097012576e-05
7.29435073919460663e-08
-3.61838192137966151e-08
2.01830845786008805e-08
-5.11164382710731946e-08
2.50755935963649235e-08
8.99552174852789366e-09
8.76665789691458405e-08
7.96665963707177e-10
2.20452799157306506e-08
7.77379364599987092e-08
-1.41046150295251632e-09
1.87888142090343515e-08
2.43264264273678025e-08
-1.87214233176570878e-09
4.363320192721509e-09
2.72002218436763804e-08
-9.07686691747532342e-09
1.16163793054317933e-09
-3.08524521613545577e-08
1.43632974901993663e-09
1.04879825590198731e-08
2.57562538803817498e-09
-9.78147054959264343e-11
8.26299731168636496e-10
1.00787087281331251e-09
-9.17044711539760972e-11
3.09958886296810884e-10
9.01687649908071273e-10
-6.24036000410061569e-11
2.3009686413051978e-10
3.17775813088360581e-08
-4.07174395948346816e-11
2.4244969300040133e-09
-5.11144394904048589e-11
4.06025743877031161e-09
4.7396891504126011e-08
1.30316436880557808e-10
-1.02828790988931524e-10
7.26135414529760755e-11
8.77192886477176632e-11
-4.90019411972020824e-11
3.22388074712393209e-11
5.59022977170218718e-11
-2.22074503071336557e-11
1.06831955522592954e-11
4.66650860545791143e-11
-1.00225256050805324e-11
4.40399101034502999e-12
-7.06422296548767021e-12
1.90123950224025087e-12
2.64617045621251576e-11
4.62507573881514904e-11
-5.64385903762003481e-11
-2.50512924952025687e-12
2.46159681999516103e-11
-1.75587085543022193e-11
1.51826466699630834e-12
1.26496309661109595e-11
-6.19236983066783075e-12
1.59731961819701046e-12
7.35487671673795928e-12
-2.21120855277797158e-12
7.33746423415003741e-13
-1.2017606179907135e-12
3.268058366346346e-13
3.47007805667518374e-12
1.93843441446829999e-11
-1.42152332049079211e-11
-1.20482600968415937e-11
7.21634694825980334e-12
-2.95377468372242863e-12
-4.77699340587089437e-13
2.50002577991246913e-12
-7.82560599289053806e-13
1.85024059962611456e-13
9.61056593764732942e-13
-3.06439587346431343e-13
1.41557734916426828e-13
-3.85237450679524203e-13
9.58655055112599395e-14
7.39335184641922666e-13
3.16169794949401162e-12
-4.28834759790071883e-12
4.20473399995969987e-13
7.4839807037347566e-13
-5.56688963006084821e-13
6.66805052953560643e-14
2.18230653297407475e-13
-1.12118054211847867e-13
2.53311015075896007e-14
1.54126882528170385e-13
-8.32527309685593294e-14
1.43107524224381084e-14
-3.45398664169050808e-13
3.9726709496280957e-14
4.26359142390645918e-13
9.04318896557994942e-13
-4.13523091494456653e-16
1.86014105543988326e-13
1.01440820445782507e-13
-1.32548698346044281e-15
2.12011126277592128e-14
3.92133115046857812e-14
-1.87146456948731548e-14
6.12427848841591412e-15
5.91088672331064874e-14
-1.10174971929463617e-14
5.88389434287942854e-15
-6.98145577407085161e-13
4.01521557931391391e-14
4.21365245269117429e-13
1.05933924721816693e-16
-1.8978822521072565e-16
1.10348099947166062e-17
3.48416488929079403e-16
-7.61843361785580897e-16
3.99838403846637725e-17
8.3197273246907323e-15
-2.43220828927915591e-15
1.18135487582536472e-15
2.00161162514978163e-14
-2.94590787028798094e-15
8.77360886195166239e-16
-8.06149517153913586e-13
9.72817373541111276e-14
8.26375879870170957e-13
1.82220567871237377e-16
-2.26510767079614265e-16
1.49707579524515532e-17
6.6766041521071738e-16
-2.5575564675446613e-16
7.14690890275602876e-17
1.57990886885401198e-15
-2.38743967162096643e-15
2.98821725573855561e-16
4.40267324293639235e-15
-3.04898940795411486e-15
3.65688455731503336e-16
-3.98261113298167088e-13
1.15215099024894853e-13
5.18151122979582386e-13
1.01433897587764613e-16
-4.20802582154890334e-18
2.29597413148356134e-17
6.0562349149436885e-17
-3.93006092411581581e-18
1.42630710454780403e-17
1.02150844301485578e-15
-1.24684546186428852e-15
2.47823508514274962e-16
2.33837534112638569e-15
-2.81018672391828613e-15
3.28901479323448837e-16
-6.83649609411584063e-16
3.12878664035591929e-14
1.06532703072247215e-13
6.77456687410918917e-19
-9.129400651565984e-21
1.65525789983838494e-19
6.28559920061181484e-19
-1.19255348486802504e-19
1.70092962573879589e-19
3.48185982943637946e-16
-2.51740011427792949e-20
9.62721428187438643e-17
6.58117407567668988e-16
-7.85110992021565059e-20
2.81363816506917702e-16
-3.34327634642302792e-21
1.1859471307539434e-17
1.93487127557688124e-17
1.79002129854380126e-21
6.77059227855728235e-26
2.70987846132298038e-22
1.41548598974479061e-20
1.16394808541533961e-26
3.40476293987161136e-21
1.13529930139599946e-21
1.64976724610366374e-27
4.21504662165117166e-22
3.09319484726261936e-21
5.71444972485874702e-25
1.67736363904900766e-21
2.56222260287749981e-21
9.29870818639508687e-23
1.15968957345491123e-22
-8.25235717565662401e-27
2.9044930827484516e-28
-2.05215879543871183e-27
-1.2997599182774499e-27
2.03192470758889822e-29
-4.10049206642558869e-28
-1.61097002624282874e-28
1.16651352629642648e-30
-6.94698279969525461e-29
-4.5117813800151789e-26
4.68479928235767871e-29
-2.93019986587355389e-26
9.15889392924510284e-26
-1.61696796932578047e-22
-1.38976491891820298e-22
-1.16550010710847258e-29
-2.9983138808162933e-30
-7.46380068651617666e-31
-2.45089875306906263e-31
-3.73049963098729994e-32
-1.69014747084587417e-32
-1.19494028461038184e-30
-8.30946694226205987e-31
-2.01113348877210153e-27
-1.53013884360594581e-27
-1.31826664959349568e-05
-5.80626615360543857e-08
-2.33980589509521447e-06
-9.22446221536363796e-08
-1.5786276273002313e-05
-5.82397897544481135e-05
6.41879095988574615e-08
-1.24273821970320566e-08
6.88896288044849543e-09
-1.70877760470423126e-08
7.14422969130747137e-09
8.61962397199448152e-09
1.21625828198395251e-07
-2.19554433000266818e-10
4.61054281994596053e-09
1.03213141232315655e-07
-4.28574785837621881e-09
5.28187757636190575e-09
3.02609895435201529e-08
-1.74414497932283169e-09
2.35448668314465521e-09
2.1811555586432889e-08
-1.64167107209022894e-09
5.46951866019197764e-10
-2.66675975820679627e-09
8.15631272386713104e-10
8.89412188435879638e-09
6.87571362584854994e-09
-4.87012027508633715e-11
3.77316478521759228e-09
2.55152293818332253e-09
-1.73086193951674073e-10
9.44465906279328707e-10
8.82507332781749859e-10
-9.89112741068208986e-11
1.54559217075417198e-10
1.37560230732610107e-09
-5.55910748707208005e-11
2.0372401866239189e-10
-2.98668950763188953e-11
3.72910804170929461e-10
2.46064600650552172e-09
2.76561418700270999e-10
-1.23825076826165508e-10
2.2007108889208953e-10
1.39010878655001439e-10
-7.23128770092979045e-11
7.58391135071149185e-11
6.91298929464008621e-11
-3.57882769008408393e-11
2.10380335134701239e-11
2.94720263920906891e-11
-1.79354647795146629e-11
7.65668553774029679e-12
-1.21825405693560132e-11
3.19463817515175853e-12
1.6827295042115543e-11
5.67834341101457693e-11
-1.21701554264201083e-10
8.53552382740868426e-12
3.68111560725356959e-11
-4.41766898843567367e-11
4.17292174590303597e-12
1.91001330960804983e-11
-1.58158148226313879e-11
2.61993576195375648e-12
7.4446035601270192e-12
-5.54589986618112412e-12
1.31180019642192791e-12
-4.51592380688257343e-12
1.07460819096477703e-12
5.4757835446775588e-12
4.10386426439278008e-11
-9.05556296958318783e-11
-1.22203473004572122e-11
2.00766372526651751e-11
-1.47639454821924644e-11
-4.18507986522638659e-12
7.63940933290148091e-12
-2.63150677659436571e-12
1.67419274866090377e-12
2.51611025509863912e-12
-7.2963880899883813e-13
9.91131545507238099e-13
-4.15570266758692042e-13
6.82004323321901957e-13
2.55839455140900824e-12
3.02605069785030196e-11
-2.82766542739848379e-13
4.00929366061783924e-12
3.86608291821107839e-12
-4.32085115436513147e-14
1.09097849149577996e-12
1.06109053408581423e-12
-5.30411409418261689e-14
2.96158855997953128e-13
4.6670808053015823e-13
-4.569871232084987e-14
7.94135556100086031e-14
-1.81265724894599954e-13
2.77486663796612809e-14
3.13705436916222659e-13
2.87195721863329448e-14
-4.95878048027223886e-16
4.43668767896906563e-15
1.09249903484388884e-14
-2.92354655141229115e-15
1.55556861272811787e-15
1.79181769450926124e-14
-1.34002085818106097e-14
1.83775836221355199e-15
1.4741629534788847e-14
-5.3570324916687072e-15
1.80249400541237457e-15
-4.48343912967382414e-13
1.78608015336184182e-14
2.41051051102566343e-13
5.13819446273084928e-17
-3.76169952838365187e-16
5.31264140868735834e-18
1.06979078343853645e-15
-1.50913294200691538e-15
7.58512963093775759e-17
6.86284133054827555e-15
-4.04471143273253208e-15
9.68922974229964305e-16
7.8041261218560895e-15
-3.24136781905214305e-15
6.14764284767379486e-16
-5.70329971382764465e-13
4.47209751861705352e-14
6.39395165012279914e-13
3.95691073654272154e-16
-3.83514132291790409e-16
4.08279015754065882e-17
1.23923947941207941e-15
-3.31398999372466774e-16
1.26463100500057027e-16
2.06587454158878573e-15
-2.91538734582187149e-15
3.22744900204840405e-16
7.75817461009183797e-15
-8.2605227051005047e-15
4.04939553576079353e-16
-1.91017820821477531e-13
5.72953972858190307e-14
4.82210878045486985e-13
1.62827217239842433e-16
-5.6148483123160675e-18
2.8316599844140849e-17
7.89739011359045989e-17
-4.72412995689750079e-18
1.52753877247908857e-17
1.74547893216694974e-15
-2.12653714114533311e-15
2.2021912127754704e-16
6.62330122356831837e-15
-1.01087495049979783e-14
9.53371169916183859e-16
-1.95991808122067435e-15
1.23043737226450444e-14
5.87120762999569897e-14
9.29336051321342499e-19
8.96061277018753867e-22
1.96668218250375777e-19
9.40548186167605066e-19
-1.45118458305479486e-19
1.8018671738486604e-19
4.83831619421630672e-16
-1.76418392183021908e-20
1.18312721706964711e-16
2.71467706773782569e-15
-2.77595056756714031e-20
9.16635704575400573e-16
-1.01907532470022109e-21
9.15553357543557023e-17
2.99141111063203814e-16
-1.97747388799378031e-22
3.02459700988453888e-22
-3.90014467763056683e-23
1.82126553001732542e-20
5.88567377860130499e-23
4.27018017189057382e-21
8.51029339103580619e-22
9.39059553913196276e-24
1.31900809393473041e-22
4.60468353797045089e-21
1.34100291491248612e-24
1.93704550051410875e-21
3.49154405366783251e-22
9.71169360031744407e-23
3.23232395376284534e-21
-3.82187649132896336e-23
8.00069090822375129e-27
-8.13656239424843199e-24
-6.93717533164932035e-24
5.4104751159884167e-28
-1.82406369004165562e-24
-9.94143793479030676e-25
2.99812646281845954e-29
-3.44573980123486731e-25
-1.20046518380392506e-25
3.16204522390505006e-30
-5.92625880847950012e-26
3.74318560309231739e-27
-1.87287586151915666e-23
-2.35750571658006195e-23
-3.33005703258986873e-28
-7.31639701451679379e-29
-2.09942586139889163e-29
-5.73298482852798876e-30
-1.04138558887059006e-30
-3.78029440633466361e-31
-9.19266746707336237e-32
-4.82709511331906318e-32
-6.97475425824039918e-29
-7.93763414109194212e-29
-1.44456743399380829e-05
-5.25278398255743971e-08
-2.40633475010419755e-06
-6.45262059142460778e-08
-1.45118397432313912e-05
-6.13081585471494115e-05
5.3328376525599184e-08
-9.57865825158920622e-09
-2.05556599277507896e-10
-1.18487252318184494e-08
1.77741854873057058e-09
6.18146102082076445e-09
8.62885893417971211e-08
-8.52061804512349865e-11
2.15731114576422359e-10
8.05096529723046526e-08
-4.01036375715253e-09
8.32252828355238504e-12
3.02647598785638605e-08
-5.09059001223841416e-09
3.71765825314202201e-09
1.94506768757452094e-08
-1.39338607743828926e-09
8.96206549036635356e-10
-1.18641327983892702e-09
8.63948906318252391e-10
9.11350780797700228e-09
2.48991705400582791e-08
-6.64746206172727202e-10
9.13653452809387747e-09
1.00614731515511284e-08
-8.67887264046498884e-10
6.52331998319160327e-09
3.40341228921839787e-09
-2.55655274615889705e-10
1.00668931634591334e-09
1.90267845144955277e-09
-1.3527434665637043e-10
4.52304468817384363e-10
-7.47610313189160241e-11
3.79067675181265669e-10
7.94614406736150039e-10
1.1169227499164605e-09
-2.74352026070567044e-10
4.00556692209809853e-10
3.57933214957029078e-10
-2.1310334079620281e-10
1.56739767284047872e-10
1.87364973826922953e-10
-1.03185813226552182e-10
4.27511649599017298e-11
8.2340444142063108e-11
-6.0224222844291497e-11
1.37111879584656389e-11
-2.85884220527052815e-11
5.45817940583202856e-12
3.66085249227113569e-11
-9.27055450235280306e-11
-1.81367448434114457e-10
2.99885817794749478e-11
-1.36483816800109081e-11
-2.27688835555546956e-10
1.16580195455136589e-11
4.60629059465748771e-11
-1.72409527310249644e-10
5.73980562625034595e-12
3.20430794897441597e-11
-6.07875476690789617e-11
2.43054618302391426e-12
-1.64822901037999043e-11
1.53298763399797473e-12
1.76482831772426549e-11
3.04171640570230977e-10
-9.48214358750060855e-12
8.71028723274483235e-12
2.32208556688063605e-10
-2.98235301358812483e-12
1.29490274520299307e-11
1.56115560644931057e-10
-1.03022083974441596e-12
1.29652059516499797e-11
2.82626468948215723e-11
-1.16918296413576538e-12
5.50875253698015796e-12
-6.27127608201905731e-13
1.02863511178662715e-12
1.19323617018032126e-11
2.69476789612677872e-12
-4.33641800012441018e-13
1.28439811152642158e-13
8.71684720511297821e-13
-9.1104265682057223e-14
7.45384871046316625e-14
3.10339778397340474e-13
-1.17881807766505024e-13
2.71168174642976929e-14
2.68287989749865946e-13
-4.18200504551639435e-13
2.79547489694025312e-14
-1.83852964755996143e-13
3.06269602147143031e-14
3.58816170356939441e-13
1.01093841986840289e-13
-6.91140733059822726e-16
6.00611864548095914e-15
1.44804317585128013e-14
-1.91277508338614322e-15
1.67324376598686821e-15
5.34638994931450971e-14
-1.04514322177280098e-13
4.40559865710310858e-15
1.58856240438063485e-13
-1.16634776618305166e-13
2.29232134849579125e-14
-1.75231930910302565e-13
2.05373585003084186e-14
1.72716606207283553e-13
1.14245557519654414e-16
-7.13355495512123611e-16
1.12870395485834688e-17
2.05035088848592833e-15
-1.39928543975116323e-15
1.11271056568247383e-16
8.21573951275847547e-14
-1.83463067172574315e-15
9.41684863480463171e-15
5.99841134094542626e-14
-2.07172255611494997e-15
8.27692094564746886e-15
-3.23447606215123141e-13
1.89495045577204522e-14
2.93212819047454866e-13
6.2819881840475448e-16
-6.03081293958714544e-16
6.6145161925382952e-17
8.30502422649972953e-16
-3.91802970661353456e-16
1.04809046657981168e-16
7.5651357669614402e-16
-1.13675284523927696e-15
9.9951995143259347e-17
2.81663112261557953e-15
-3.10682062375325834e-15
1.70799831173197997e-16
-2.760081096054764e-13
3.41110109544442675e-14
3.03362406234051487e-13
2.00038550472234134e-16
-1.15957773136740422e-17
2.63499837558364943e-17
9.81186550002899192e-17
-9.05182287138246575e-18
1.43828774065150016e-17
6.98139754878201932e-16
-8.23019695112176875e-16
7.36119301127315017e-17
4.12226464257762668e-15
-7.12557093433423312e-15
3.08876817745661031e-16
-1.71712484908687191e-15
2.27339672430598718e-14
8.33527698306680273e-14
1.97961916474373873e-18
-8.87254637613111355e-20
2.91585702099059503e-19
1.6366013112063583e-18
-1.17744658005256718e-18
3.68783998705768843e-19
3.4321495070090154e-16
-1.93613454099154749e-19
3.70912596077207806e-17
2.06026694988132811e-15
-2.25175725342649587e-20
5.29814443831943137e-16
-3.6790686579414462e-22
2.48731523882331396e-17
4.09825183532756211e-16
1.89305013437695472e-20
4.39183016325326326e-23
2.7740379312314917e-21
1.36000434681019727e-19
9.53413935617271849e-24
4.7591057231156399e-20
2.18562986946318357e-20
1.72528174430286356e-24
7.97187235755100603e-21
1.10013121231211283e-21
2.75925839636942546e-25
1.75364522729234467e-22
3.16184243379157793e-23
2.12800741472699594e-23
7.76442784035936859e-22
-5.71342635082979121e-24
4.76870534422833392e-28
-9.94978918576204463e-25
-1.17292181205110112e-24
3.5639780347275128e-29
-2.46653394219809256e-25
-1.94306373433975077e-25
2.21872671234386446e-30
-5.23652614765037566e-26
-2.70461959355266976e-26
1.65226326945534941e-31
-9.98596602761691369e-27
1.08674296401556415e-28
-1.37230635066686735e-24
-2.46013820001590967e-24
-2.04428296701186821e-29
-3.66474229018355629e-30
-1.44430042618042422e-30
-3.14734322621156327e-31
-8.20876763942196285e-32
-2.31123408165373974e-32
-5.27658252528787995e-33
-2.06365067753047133e-33
-1.63760128132038745e-30
-2.68279012410973428e-30
-1.66837508125071365e-05
-1.24985350187036511e-08
-3.00961057929756384e-06
-2.32643946202672642e-08
-1.2531258421203711e-05
-6.62978013674784308e-05
1.50998487405117356e-08
-2.49193675555865969e-09
-1.60131299760204874e-09
-8.01636742439278378e-09
-7.38292688121089049e-10
2.49674108016525875e-09
2.06216578192922782e-08
-1.74995610555342844e-09
1.33851760580426588e-09
1.37931427434272343e-08
-1.95463860885883527e-09
4.4508965764635062e-10
8.60248759028610353e-09
-1.16564683174619621e-09
8.22544625946448332e-10
5.74804367680388226e-09
-1.13994348011464794e-09
7.32456044490357928e-10
-5.58016108946977432e-09
7.5933213703443283e-10
7.97067221742235643e-09
2.3622407293426459e-08
-7.43180847246332878e-10
9.51094537757028704e-09
1.04260050940122283e-08
-8.05880169991467782e-10
4.54965557268220272e-09
3.22893566388279316e-09
-1.6419134203824983e-10
1.7385595702741475e-09
3.82941262280249826e-09
-9.24662219298554024e-11
7.89303289416471153e-10
-6.66709954471761786e-11
1.68445518419671596e-09
1.15738443046490561e-08
9.48222631762787636e-10
-1.48186307191424691e-10
3.28008716427892668e-10
2.91123274535250986e-10
-7.7804909462764619e-11
1.05508015480010522e-10
1.63532713174674242e-10
-3.46327690862428102e-11
4.3785144709647288e-11
9.32990714292713149e-11
-2.08002777665630694e-11
1.29307692318767997e-11
-1.20700112775749851e-11
3.9435538001524503e-12
3.79779621260343569e-11
7.18366200932191657e-11
-1.98058886979222958e-11
5.63936289046355489e-11
4.45625376572618658e-11
-2.48660317414930506e-11
1.59814983216620588e-11
2.14743740836499668e-11
-2.12181323161047573e-11
5.0810367167394675e-12
1.32260624715516215e-11
-1.44284739074357528e-11
1.94008078624185506e-12
-6.19131938774281423e-12
7.27527473390219273e-13
7.04594032939801829e-12
9.57884399444910342e-12
-3.09927737765190933e-13
1.95673549752366583e-12
2.62128554682001332e-11
-2.0457678403700613e-13
1.60697482055357516e-12
2.83780623122852276e-11
-1.52623876924197018e-13
1.67057414226097028e-12
1.02807371566014405e-11
-5.47248467432115633e-13
8.79633355596219423e-13
-7.06998815827720985e-13
2.27549124014792928e-13
3.32074772073128746e-12
1.73773214629826461e-13
-5.06626060953489043e-14
1.55473789384481741e-14
6.35063517864636954e-14
-1.76400656777135359e-14
4.69902131468344998e-15
7.33456341321766501e-14
-1.02676521534452215e-13
6.47786080062984367e-15
1.41431122435305738e-13
-4.27168378406830602e-13
1.07604728060755556e-14
-3.16170487191594699e-13
3.46586420839699321e-14
5.52954147239745102e-13
1.89231898193390416e-14
-1.0984173521580137e-15
1.21513497086198809e-15
1.14202685571889801e-14
-6.48226078076135451e-15
6.04457112873803014e-16
1.15002760325304727e-13
-1.13711961192081164e-13
7.372887124456853e-15
3.26576941443081584e-13
-1.44278360890489398e-13
2.81000144089452839e-14
-2.1196441507807434e-13
2.7033189843916088e-14
3.43280420999487653e-13
1.50552266853489515e-15
-1.16278983677776859e-15
9.13504323878525053e-17
5.26327775998430977e-15
-7.26217313982446154e-15
7.89395648368899288e-16
9.15152887815801487e-14
-4.34061844935652636e-15
8.63274486882536229e-15
6.46476915887942435e-14
-7.87274411892223009e-15
7.51851319353406233e-15
-3.27831485870869326e-13
1.83839712969745806e-14
3.0545570688233226e-13
1.2332113060601221e-15
-3.02128596512304926e-16
7.18233440224155772e-17
4.52819342054419501e-15
-1.26760321494359308e-16
7.41751922804076023e-16
2.6903119900315759e-15
-1.03371226182870715e-15
4.33694149164231547e-16
7.80019460427828477e-15
-1.77678154730001833e-14
8.89754908218724678e-16
-3.03153211517327014e-13
2.67849308774595391e-14
2.94821196893700304e-13
6.69289565233614801e-17
-3.13275260516327307e-18
6.18116171100888776e-18
3.19773571870266455e-17
-1.4937229618677154e-17
3.32735146401935875e-18
9.41917098036881239e-16
-1.14622286902533848e-15
5.88487057570401138e-17
1.88580528209118237e-14
-2.6347870186811632e-14
2.1671807578046432e-15
-7.46292244498936353e-15
1.79780755536006929e-14
1.10537751233322446e-13
9.20568591518270908e-19
-2.70821198894801825e-19
6.48802902119766191e-20
7.41506392007798159e-18
-1.03450060392430091e-17
7.36926773976995654e-19
3.66844546027630988e-16
-9.54711271681146632e-18
5.64472923667622111e-17
7.96606061522193478e-15
-1.86949686789034338e-17
1.50770285088388917e-15
-3.30108196989716534e-18
1.81701658243574394e-16
6.7385223965847587e-16
6.34937633157063814e-20
4.33925736128583208e-24
5.56021686072145172e-21
1.74901364658940369e-18
1.29713905967700898e-24
3.09959786840994395e-19
9.95162417059921816e-19
2.91777286730713531e-25
3.33999715793181297e-19
3.57305387758504082e-18
5.46450449550216762e-26
8.18042425303779465e-19
1.95932976651511632e-24
5.40689475831078331e-20
5.32675509500906202e-19
-5.77247452779956846e-25
3.98935832950930192e-25
-7.6791187599771216e-26
-1.6485376644682173e-25
7.69296084343572789e-26
-2.60069910216807897e-26
-3.44028642454890344e-26
8.45833217242207662e-27
-6.8107158405660376e-27
-5.71353894275331023e-27
6.85457063018381679e-28
-1.50925995100654931e-27
4.72150612599222006e-29
-6.43520538201159281e-26
-1.67507978949350855e-25
-1.74946633129965991e-26
-2.38964598361571068e-27
-3.2221972959925385e-27
-5.25661560220715626e-28
-3.27933742946950277e-28
-6.76919762004513205e-29
-2.34028605270959817e-29
-6.53093699171502076e-30
-5.39086666454344451e-31
-1.28908333974558085e-30
-1.76446768442175266e-05
-4.8541219893806768e-09
-2.58190441599248654e-06
-1.74664066562006522e-08
-8.61517726072935742e-06
-6.86731418518874391e-05
7.83202579321179048e-09
-1.75607890932680992e-09
-2.80613687091251081e-09
-9.58610443398684212e-09
-1.86248563844485936e-09
1.81313623411703131e-09
5.74825526729083748e-09