/*--------------------------------*- C++ -*----------------------------------*\
| =========                 |                                                 |
| \\      /  F ield         | OpenFOAM: The Open Source CFD Toolbox           |
|  \\    /   O peration     | Version:  2206                                  |
|   \\  /    A nd           | Website:  www.openfoam.com                      |
|    \\/     M anipulation  |                                                 |
\*---------------------------------------------------------------------------*/
FoamFile
{
    version     2.0;
    format      ascii;
    arch        "LSB;label=32;scalar=64";
    class       volScalarField;
    location    "0.810000000000000497";
    object      p_rgh;
}
// * * * * * * * * * * * * * * * * * * * * * * * * * * * * * * * * * * * * * //

dimensions      [1 -1 -2 0 0 0 0];

internalField   nonuniform List<scalar> 
7248
(
0.591391093100912424
162.438512649799037
0.266923144548827762
0.0180190036195576782
0.262420303828518608
0.270963638124896988
0.467048669400802807
0.778635715333831357
0.310664419359792554
0.257342381948601151
0.237582084878532607
0.226462882397662074
0.332194213743422284
0.880064960625833614
0.289088633040213761
0.289622306296101306
0.2908483729193026
0.299545129791131404
0.318280024685621776
0.289999187106224576
0.297427017607677258
0.306113490704267022
0.317720396479019396
0.332006212996107497
0.285305022554129872
0.294450921641595142
0.304337759261411822
0.314987254980878428
0.325988368557756536
0.271037108781178204
0.280309198370947699
0.29003660039186685
0.299633189614507467
0.30813721452734788
0.249836716868904796
0.258768110497246073
0.268076058717128363
0.277047317922580305
0.284587629613126947
0.222296556589857336
0.23061431406324101
0.239496138695163396
0.248364923268778542
0.256260973906098921
0.188978729001963219
0.196490055459872831
0.204862978229224502
0.213774088526074962
0.22261718741627301
0.150361567049859424
0.156699898806722998
0.1641513714098293
0.172661865883501214
0.182024002973278365
0.100808709345621889
0.103476129433472244
0.107060820793599687
0.111713434360916311
0.11760120143501436
0.12490248075138824
0.133752203241263551
0.0577333408593560318
0.0584986987606841979
0.059953049820064698
0.0623172218866424946
0.0658714704576568999
0.0709680892126294538
0.0780114831483994103
0.0122709978605235297
0.0106665282695586824
0.00941356313129036205
0.00875937488270761913
0.00903962954379852225
0.0107015025533973174
0.0143171292628271364
-0.0347125887282047907
-0.0391472662160578799
-0.043682518259757476
-0.048095937333724581
-0.0520653698002268503
-0.0551374829456850596
-0.0566887825023682929
-0.0482221977723779893
170.860170625288447
0.0854053608126105063
0.0701900537417528697
0.644467126978467419
0.939608541143289955
0.65258189002643896
0.241238988895116441
0.147576536773451311
0.273447035545842099
0.246887429297320465
0.233467838626728652
0.295878134635825019
0.592001664910780878
0.297719892439225198
0.295869736137283568
0.295162807818501405
0.30099367026390067
0.315876764509320451
0.296413236654145651
0.301192658319649087
0.30734212085621837
0.316575032350291274
0.329152631888509184
0.289484186869464699
0.297360550635279719
0.305599618753850832
0.314514604153672495
0.32413234060934637
0.273648974066792838
0.282214129710299744
0.290798044743597717
0.299204259468859979
0.306951642991908469
0.250683251408895469
0.25906050457141877
0.267582969799997017
0.275736685108313229
0.282702136347026012
0.222024400548135048
0.229826052065076919
0.238001248814924793
0.246040030415526911
0.253107130259439261
0.18801473410109365
0.194986539185432878
0.202600264692555543
0.210506672539624046
0.218088530843125683
0.14900396509619504
0.154775809834152039
0.161411505719951331
0.168775763453032329
0.176559986794817686
0.105509005685784946
0.109596641617040844
0.114668330474105087
0.120806750299943449
0.128022383288351499
0.0583431534025939877
0.0601674217464469446
0.0629504155973291124
0.0669617125622906373
0.0725019480449618503
0.00782986848050944671
0.00667662975726619756
0.00625171516519472739
0.00693732881510697626
0.0092298493764850463
-0.0451799100209465745
-0.050039799789216112
-0.0546418136247992098
-0.0585886063618606401
-0.0613199594199105094
-0.103590885270034044
187.752278939892676
-0.00646241298091314309
0.0117239683234603431
0.887473712712738338
1.30810088128595559
0.644012197567092493
0.154680149607612782
0.121079380974325232
0.289809085335952843
0.260593610908507967
0.246218106218709099
0.241883219477654704
0.26615272712917265
0.306619604182775674
0.302482064506146453
0.299635243299527398
0.303358152455715735
0.315286458370775957
0.303898747898544097
0.306052923983764102
0.309558859880736947
0.316199724512670588
0.32714412173554841
0.294456846481719825
0.300312648060599541
0.307157054242086724
0.314628983344990287
0.323183293017741902
0.277087501700988448
0.283978594048043653
0.291495670824070463
0.298933822546670502
0.306048001420238858
0.251382603414265271
0.259238395440276992
0.26708713826411179
0.274547083703122086
0.281021986065336904
0.221843480626607581
0.229134249806928703
0.236652923291676975
0.243944518688677586
0.250288732024317229
0.187139346133508605
0.193598185862643241
0.200516443798246485
0.20752737350601963
0.214013694818681321
0.147740176561290848
0.15298351788555889
0.158872776277645816
0.165209267287290268
0.171604822473800156
0.104052930209990249
0.107613281426218441
0.111932686919324856
0.117013689498902146
0.122762556427174083
0.0568252074427382584
0.0581454844453036662
0.0602136451062401795
0.0632269099940665352
0.0673953753939128264
0.00633354969789354152
0.00471579963146493558
0.00363588832815229038
0.00341820708762243745
0.00449290932687850669
-0.04659108144114181
-0.0518653085777385295
-0.0570527749547188046
-0.0618040755193703314
-0.0656063952163190717
-0.208948694980039901
199.244437774764748
-0.0646939876726126545
-0.0136847613782539474
0.588583312088095445
0.833012593196437168
0.668941144835011769
0.180125835301630427
0.117061759871332174
0.529768061327972384
0.409610482245019447
0.261109682223526429
0.244786980869024479
0.262127985029107891
0.314177939961347186
0.306351354727295799
0.300861477679795764
0.301006835182441979
0.310277150766219811
0.306909573978914552
0.309225468442154539
0.312364923434853392
0.316652275441216657
0.325709324340655915
0.299728057674441384
0.307528798040255236
0.31301914315773427
0.316506807305455107
0.322986072550432879
0.278644749766570443
0.285658829534078396
0.292248459172023467
0.298794491490566971
0.305333061139767437
0.252030244149360538
0.259322610343034499
0.266588362969279735
0.273497476338653733
0.279597780469880486
0.221592137878765055
0.228458719391111093
0.23543382181416167
0.242113298403343086
0.247876669423396034
0.186304270470113997
0.192322913307623466
0.198652752098358837
0.204924888538991185
0.210533936476714201
0.146581838938016629
0.151368236500250247
0.156618968987224494
0.162091887231602089
0.167349347950619787
0.10273380962389958
0.10583276815192999
0.109499879747553736
0.113676121967968724
0.118189054677007618
0.0554540289990385835
0.0563307040218151839
0.0577735128439452808
0.0599218370345278237
0.0629155498036784999
0.00498362655842218318
0.00295545114433906891
0.00129915142954383292
0.000292038821162463925
0.000313486805563208994
-0.047863077964708893
-0.0535029796465520055
-0.0592052021895474942
-0.0646590360978445133
-0.0693862973191186477
-0.478126727660106277
215.527966673672807
-0.0997176792027019004
-0.0160107719051816449
0.444109169297359274
0.364596405582119587
0.265659568937060442
0.189680940454170194
0.117426742092639674
0.514844052269092134
0.44540801056338114
0.283461016747302952
0.244109358942640103
0.304147787521527768
0.318006582645177172
0.307702647998301604
0.301373126533557301
0.300539668673226845
0.307868290761001528
0.308587452741987511
0.310911265301977102
0.314519302677350565
0.319023224282709184
0.326491537425789125
0.298716699740206038
0.305903880913049875
0.311472824073376953
0.316574123056369949
0.322892416833853002
0.278864869090728495
0.285627475940330444
0.291923725945256729
0.298180127126259853
0.304567514380707449
0.251987799872514906
0.259034494334381915
0.265956029780876846
0.272520816556181322
0.278384778009271305
0.221051306709668827
0.227624640087098373
0.234222856559002934
0.240481440088430726
0.245858255755795979
0.185474101179802175
0.191159315468101165
0.19703857014119594
0.202748778244884881
0.207704609768318199
0.145541338597158315
0.149963641149527344
0.154706678903092393
0.159502091172894933
0.163877454447587806
0.1015893524752641
0.104312437993125812
0.107450455559000235
0.110900412726291975
0.114429955633921776
0.0542776211598141739
0.0547882401385903495
0.0557172110067423107
0.0571599812995719492
0.0592045136195005206
0.0038308389091027289
0.0014612230644957592
-0.000672976947404779128
-0.0023306628774520631
-0.00316888005461488228
-0.04894845670717448
-0.0548927965637176773
-0.0610223306126023435
-0.0670562884762725131
-0.0725413304565557804
-0.415009471853311829
214.738994578002746
-0.0915051872192677723
-0.00163568028035339873
0.349841209951019028
0.270660420539019675
0.20973294067123141
0.180634781221571922
0.129582237746630302
0.396912881221490765
0.304487923993451814
0.261886176736248533
0.294756308755656782
0.331205163091877364
0.325675609413524692
0.311268299694049122
0.302370417184927021
0.302684712793206134
0.309024487241349011
0.306377705244104126
0.310091506396299565
0.315189416081551266
0.319723451859930508
0.326519579236794255
0.296414026847139744
0.304693135505397117
0.31042151169018567
0.315492370484729612
0.321922974494062153
0.277760864319725242
0.284707274306107871
0.291026254708196319
0.297279803917465224
0.303735010901969915
0.251317041457418622
0.258297132694280618
0.265070274369514747
0.27148238557614085
0.277271996453036185
0.220284342028998187
0.22671098162766859
0.233094279304177476
0.239109847155960953
0.244251795042589592
0.184673425784704914
0.190138791110324751
0.195710555823704502
0.201035928962186278
0.205536585681717066
0.144659261764008479
0.148819561335944928
0.15319481735065188
0.157502656567965249
0.161245627311760398
0.100663506557350943
0.103105934848628247
0.105849019153507071
0.108760513476933621
0.111572619764244166
0.0533419569938605523
0.0535739000194514065
0.0541121084958543011
0.0550213464048600123
0.0563562247911126579
0.0029197625213463153
0.000287404791201268945
-0.00221429576649723224
-0.00437072863149508013
-0.00586324819880219665
-0.0498054080302315558
-0.0559843855240794441
-0.0624430113750436
-0.0689233369968149934
-0.0749920534773505509
-0.0349523598632126425
209.49592154836489
-0.0378136277328756931
0.0182991987870690376
0.767330639590193542
0.425637673165278896
0.228431181815487327
0.188730550289583576
0.151284079967678009
0.693283788238206689
0.416636244228184183
0.270173678527770578
0.248436557186850177
0.310461772601801411
0.425112316937044266
0.307544907666924494
0.297693829589664283
0.300677417521395429
0.310674749214935098
0.302048840522315343
0.305748887401311231
0.311600653825924445
0.317653698925117634
0.32564792440436463
0.291135202268197446
0.301137703153555425
0.307972043188298572
0.313703077199026348
0.320742133525679984
0.275910379159684249
0.283216408007527065
0.289755716840482458
0.296188747660559692
0.302871927021908349
0.250306123852758244
0.257232718883905864
0.264053969767284014
0.270509152805699815
0.276360392504952534
0.219482971773437729
0.22587377711556797
0.232175567903254748
0.238079520459493682
0.243110823106087476
0.184009425033746454
0.189348785247591994
0.194739179157391529
0.199834032233020736
0.204061120337719004
0.144001175878191445
0.147997347311357108
0.152139184486719536
0.15613437256581475
0.159475524395558343
0.100004884657248383
0.10226326801908589
0.104745543198465033
0.107300980453867073
0.109639132396718145
0.0526887545391765619
0.0527335672598280431
0.0530080491898530654
0.0535557637537801695
0.0544050939257317984
0.00228837114642864263
-0.000522536298462368521
-0.00327472724761740473
-0.00577293955313967246
-0.0077194204738501894
-0.0503989057319498765
-0.0567374404469502963
-0.063420275144982774
-0.0702070301768043803
-0.0766857018312198518
0.40028896862983443
201.144789240958914
0.0158449875259000089
0.0470410110170535398
0.724539563497894612
0.710387561702046533
0.655159077199434337
0.305762598940006458
0.187149016875598012
0.843321152726815737
0.787354123267625994
0.73854535073130434
0.522908989720054063
0.282377339512160597
0.869658667327060098
0.840623785110904853
0.468624623713213617
0.299083975183582651
0.311809801863597136
0.754501621694616764
0.320991394854014567
0.309532337359815113
0.315358167247231702
0.324640557735216106
0.288998148016083922
0.298963676305589787
0.305619123760197731
0.311944826210292736
0.319722090167939177
0.2740319049326434
0.281536488071930546
0.288589056319943305
0.295346887082006904
0.302295851254412773
0.2494388051465391
0.256468411518334938
0.263373845419972497
0.269888934480662479
0.275828274738415702
0.21896668585500334
0.225333597389007906
0.23161903203235476
0.237503490366397202
0.242520168755118642
0.18360332806450344
0.188900386630859896
0.19421853267211911
0.199215581881871301
0.203321723028481283
0.143646397892828764
0.147564590815642105
0.151594194856266851
0.155438776339138024
0.158586904086705505
0.099659478952419861
0.101827806507671134
0.104180749563639471
0.106557853746702597
0.108652633774781057
0.052351908789301134
0.0523024503329566695
0.052442763182578768
0.0528039527005054674
0.0533921492827023059
0.0019647339014742895
-0.000937217255979308451
-0.00381739803781845979
-0.00649249358496221517
-0.00868423975733213782
-0.0507036458809633078
-0.0571232509129678129
-0.0639201777230778978
-0.070864766678718813
-0.0775612634980776539
3.2312128922247294
5.13931152114760881
0.459323168626969924
0.461862643723676469
0.27366942023767854
0.279185054823610945
0.321387666974835118
0.36328457648437712
0.406979593700345921
0.396610341685042
0.28380979988892352
0.306410796515005468
0.339422206099195878
0.346541915869055583
0.274440478580708136
0.296810317840487281
0.319356791467248102
0.341692114253450585
0.33336436028438915
0.278113541778663542
0.293019953995979632
0.311710425068936092
0.330634837857547381
0.331084417195708025
0.276420959380597686
0.289134877583237415
0.302004116575184223
0.313573613437135468
0.319385637240945097
0.266332814128518502
0.276960098539002275
0.287565138802507614
0.29698743186143195
0.303018800285245804
0.248969144762753614
0.258411153144466055
0.268097145182558061
0.276979134776645097
0.282844941285940343
0.225209999579817161
0.234841747195859429
0.245857536694391365
0.256737553503554705
0.264723522389468169
0.195103842659817367
0.204915675208111214
0.216207671949223468
0.228065957582824802
0.239424946925413273
0.158680403035903611
0.167438218122592963
0.177981306822896312
0.190441443482580186
0.204442979381892098
0.107035926721048988
0.110772304079423442
0.11603874322055284
0.123139622599060791
0.132427431676018642
0.144232613621693623
0.158712465023436083
0.0639201242563244149
0.0658083689442310327
0.0689903051633289632
0.073845569598539107
0.0808300495147610543
0.0904482708078823971
0.10321920088435324
0.0183899174561404158
0.0179116243111676482
0.0183472191339043612
0.020099324108989066
0.0236792929401616475
0.0297182274031540863
0.0388854797863966428
-0.0284515312330073274
-0.031794832767075884
-0.0347134462591890333
-0.0368230206784582945
-0.0376119683800765978
-0.036448474888522181
-0.032588912375758318
0.534639226932601241
1.23230576394634528
0.475686349115715446
0.467989696830624524
0.881551219217033388
0.527534395669103096
0.422183246405468948
0.395056404540242934
0.431199082193962302
0.253243013642865056
0.33306159407443936
0.388425136899823331
0.360756437284985021
0.37030332265777316
0.272056471488948126
0.295337351019232863
0.320722546203334458
0.339327858524679782
0.346878393877238067
0.278200583391538303
0.294151952982545373
0.311578767985368987
0.326745296429428345
0.334468504729888927
0.276419040367827384
0.289115110659093788
0.302296359707492579
0.314737000966648695
0.3228585702111334
0.266404959565139487
0.277237574751149296
0.288441575676438022
0.298959352133960743
0.30644412918658287
0.249324901073572303
0.25915762854266694
0.26947728778901342
0.279136780263790185
0.286228166056743505
0.22533812110207313
0.23498704092249087
0.245746224515664441
0.25663636089266928
0.265782305328286339
0.194808798876440675
0.20428999400828235
0.21541448381468406
0.227714959987477483
0.240166741217125362
0.15800100806295414
0.166649709994413753
0.177326039899763782
0.190153371141181388
0.205002371343651263
0.106590331070713279
0.110264777183332094
0.115490615329442825
0.122576868634547947
0.131892783513142348
0.143852695910929557
0.158833568207195408
0.0635785608093990678
0.0654328482553446777
0.068571975895756615
0.073381528460258541
0.0803397752541757382
0.0900158738245591949
0.103021231313918743
0.0180759136412328332
0.0175735652432140524
0.0179778984068801259
0.0196972980738500808
0.0232560151994804579
0.0293072237792008014
0.038563881154607689
-0.0289870806587887338
-0.0323495048071666541
-0.0352879011885348925
-0.037411664654765385
-0.0381986786175463541
-0.0370138246477979133
-0.0331044523210092742
0.612478062442705862
0.587250814489740813
0.559870807175300689
0.608326352325889053
0.829542189873555658
1.11520818958505363
0.621929797996615297
0.474836448576226366
0.522918317163537205
0.265736428258665613
0.296301411808072346
0.358961509851065785
0.395749570934687656
0.42185312366734995
0.279807580868590366
0.300681455056594549
0.326582237509414397
0.35313826266711279
0.373601075455130383
0.281819078241076215
0.297614511063681531
0.315091438710794869
0.332882073046087246
0.348769646507069764
0.277360694547157338
0.290259599960738635
0.304059121661286458
0.317923630707640903
0.329732894339771598
0.266929709988238117
0.278170786848307483
0.29004526479928272
0.301443830218620146
0.310365096333564794
0.249555739569723295
0.25972990797365364
0.270631993078823907
0.281117744267602387
0.289223533665172616
0.22532691076934655
0.235185484075126433
0.246202769106843716
0.257508584543182595
0.267453819813749161
0.194523446805951905
0.204010932804127021
0.215191337412816264
0.227765646926733123
0.240978461446255621
0.157465409209264745
0.166058039701907495
0.176746817354875962
0.189765551225249296
0.205245273475425954
0.106089635523962708
0.109726949643882063
0.114887769331840847
0.121897166575427388
0.131161269319780699
0.143178372960024558
0.158511773963627922
0.0631253678849705985
0.0649272235641331769
0.0679850000834715251
0.0726907604479090086
0.0795450406541736016
0.0891712848912530887
0.102293597571487357
0.0176283955869181892
0.0170669435445050012
0.0173843460258018036
0.0189900296663791726
0.0224171164047280852
0.0283507067380701083
0.0375632015938624983
-0.0295052149461611096
-0.032931967438161458
-0.0359622201426226598
-0.0382083398045004255
-0.0391477718796530566
-0.038133622723819996
-0.0343888096184861436
0.701404152270902914
12.5610887218833138
0.591899031994998492
0.554580758127319329
0.386273978897932191
1.09600711622587998
0.861023778929718264
0.5134100795140768
0.500290867215254398
0.263160561838413798
0.292984274073235629
0.383289349201544338
0.448674891263309783
0.449807512410115351
0.281632285342018618
0.300984421693471893
0.327752666930513026
0.35906961374468116
0.386845860739890635
0.283248261183607575
0.299089227489724552
0.31760998467232493
0.337668074475243718
0.355909117644679918
0.278355814709670302
0.291147265460600879
0.307635814082589998
0.322382393681321155
0.334259946114298823
0.26757087541623692
0.279245041868643296
0.291143410583224127
0.30291612218579983
0.312634355843647627
0.249603220342797527
0.259931823735839673
0.271100472404303239
0.282003028263170086
0.290706941143430042
0.22502370164401278
0.234935343956866438
0.246038055034618147
0.25756282506189826
0.268011294570463354
0.193922670476297854
0.203353190284976698
0.214501400295954436
0.22716237632363831
0.240745762992854134
0.156676335155812446
0.165159520667865739
0.175746708858479261
0.188729632488586957
0.204373236531843999
0.105393703302745459
0.108974475659054715
0.11402968443898405
0.120892832492515756
0.129988940299577554
0.141859372276754714
0.157162815518273741
0.0624628243516350545
0.0641846898345703742
0.067115373066356912
0.0716467582340574588
0.0782883347535243551
0.0876954763831052087
0.100672340463366872
0.0169808350294495813
0.016326594813598716
0.0165054670650075473
0.0179213267959302397
0.0211067109329034566
0.0267631639192539954
0.0357099863975836804
-0.0301570933940788453
-0.0336846004373463279
-0.0368627659158792462
-0.0393143236414590785
-0.0405250404058163372
-0.0398477188646680636
-0.0364920426087707653
4.64477372118867216
13.3710703637868935
0.622671385735550809
0.600640224873516981
0.532212719227078024
0.687778843620863611
1.15971543748053185
0.551987151886217053
0.505003836918527793
0.250377130460609554
0.272052320252224256
0.311463358335316076
0.404935438651759461
0.440526197698595468
0.277667834512195344
0.29484946888205299
0.321743102851313134
0.355138815522894946
0.391252596397092589
0.283433492560352551
0.298465071274847338
0.318149718217184851
0.33797023762506101
0.358228024503697784
0.278897569388677768
0.293161824955413264
0.308380915261080135
0.322215029454546997
0.335440582555740385
0.2680011695533418
0.279233973004107183
0.291309894830274696
0.303439778353146339
0.313505696484148888
0.249526646490420834
0.25987016830552162
0.271076917553321639
0.282050949435012965
0.290924735250448541
0.224548946568715518
0.234383508454898637
0.245377007975268513
0.256807670521764786
0.267280391382408444
0.193129424859567023
0.202389626643623727
0.21330387628264047
0.225695692821196975
0.239044244811845635
0.155684222082894536
0.163941473061807952
0.174220042887120979
0.18680770120256257
0.201974890558293235
0.104582097723236886
0.108066554531222728
0.112949550557126258
0.119556003790138504
0.128301400315422226
0.139717401837535754
0.154451560954031314
0.0616629830472372326
0.0632661037901561946
0.066007771787143843
0.0702668731081724091
0.0765401416119620565
0.0854688965920012839
0.0978496974990221841
0.0161935814809191052
0.0154090376581878467
0.0153911422467782957
0.0165283720505036633
0.0193384615849823138
0.0245142536928932807
0.0329284958033700531
-0.030923458760127108
-0.0345863554885156715
-0.0379660245314427866
-0.0407037940003694837
-0.0423049901335836101
-0.042135956740870853
-0.0393945873715178668
3.84996719826422495
5.59648610114226663
1.21930569658141397
1.55718379707535859
0.253025134114686745
0.21543185331082057
0.689566387356004062
0.653990594207111142
0.542882969325387488
0.250859902579788852
0.255409979275822985
0.512120084611905946
0.494297229488380119
0.442637063436207789
0.276377773277722727
0.290048648477998716
0.358634498090936005
0.46524673682727874
0.455916953221892018
0.283200808893432798
0.298814973758964431
0.313879330633161091
0.332113397448594971
0.355130388472793823
0.27951129935621194
0.295632184870973425
0.308506864423054972
0.320340226947564533
0.334490275328266473
0.268194800220942997
0.279029811215146806
0.291146761075655514
0.302996799521639382
0.312946758677689008
0.249414599469430009
0.259597244695221663
0.270594485379986316
0.281324882907278695
0.290075604157344402
0.223952353632954404
0.233563564705901755
0.244244759402884121
0.255300174534638546
0.265422755412057509
0.192169059689949573
0.201130883355141982
0.211607794759835321
0.223406528082328859
0.235998215020397556
0.154497558882696895
0.162405091339561075
0.172169558184093102
0.184019939823457129
0.198140373801406672
0.103678521313988956
0.107018781129923926
0.111657720151709564
0.117893087377352421
0.12610164031550064
0.1367580082614272
0.150422436687637051
0.0607531247579384537
0.0621955921333027725
0.0646843025024172041
0.0685710750258929636
0.0743178853430632586
0.0825195742439068375
0.093912498726946167
0.0152964991718410933
0.0143450803512070717
0.014074374317355887
0.0148470132690192384
0.0171495430133234567
0.0216254940076033159
0.0290866966441400768
-0.0317878497785842248
-0.035616508414430155
-0.0392444766150509897
-0.0423400368969575405
-0.0444430473684791841
-0.0449425909683597025
-0.0430821532125785223
3.16769969214136227
3.01126996636192468
3.90900012239106553
1.36431952011335089
0.319742139653532709
0.196664247620285504
0.242856903481917435
0.525586971817562643
0.893407686052095196
0.252085333550951918
0.247658496539274658
0.253252406604607627
0.629670709718346933
0.640967707089441618
0.275915284029301711
0.283881988826513276
0.378665379076198128
0.550297394000235918
0.467620828956866352
0.283374181474490283
0.295419911039678851
0.319591539589570539
0.325052512062074861
0.345621750462142441
0.280412324213693331
0.296129428267314587
0.305428903774316807
0.3183258333084239
0.331404548058856552
0.268414679142562285
0.279040583172829482
0.290656162111562533
0.301891712689207059
0.311397579662031576
0.24935887905696219
0.259203302742526731
0.269778342537308979
0.280058457855771215
0.288508372169238081
0.223326513732884063
0.232584565367147278
0.242777641964451091
0.253228532054682931
0.262734913411867388
0.191110603748308822
0.199655858297728778
0.209522998213133194
0.220479677272796465
0.231963719823877951
0.15316935379405669
0.16061700873515336
0.169698633584387221
0.180554407705019376
0.193240495872825907
0.102724461451717236
0.105873071420843734
0.110201534518821392
0.115966148040447317
0.123483113865762426
0.133137587954732267
0.145357523467762373
0.0597703695318534192
0.0610130519910172739
0.06319186139821871
0.0666200450919874898
0.0717078411147754752
0.0789787587696360316
0.0890723162866799145
0.014321332647050029
0.0131711424004562275
0.0126002388646988487
0.0129364254652243413
0.0146225931756526952
0.018240300708921537
0.0245461310028011158
-0.032726682108180416
-0.0367451980990709873
-0.0406578203434832322
-0.0441660961453649303
-0.0468521714243962523
-0.0481459369676054891
-0.0473350574563182191
1.97454026767443147
103.772413875016383
0.931934489709880354
0.0436622069647132349
0.254354189978598433
0.338423306281312619
0.201444238968319228
0.70251750905488497
0.684527521424125651
0.250795080780362556
0.235379263815825135
0.233147388711880121
0.480800697780806807
0.891638815590382938
0.280360207354083291
0.283458487485378718
0.329660765235703257
0.333862645711560879
0.332854718461714882
0.285963997148344584
0.29479115361585756
0.31294510736686576
0.347651919082613003
0.338493837305630207
0.282510875802248818
0.296917105927404834
0.304835006813409026
0.316730278324588888
0.328880186077484371
0.269575511325127581
0.279489303358156471
0.290229172197718266
0.30073666216835615
0.30977057815830078
0.249545337945091844
0.258934850698252228
0.268910756840041676
0.278583948548206339
0.286611143874112184
0.222761312113485238
0.231569620656111641
0.241139513161967911
0.25083421663078237
0.259582516316441247
0.190025405183488288
0.198072677968943234
0.207217029368446159
0.217177037229160846
0.227359393759499678
0.151767109259941829
0.158678122253279819
0.166967212396357062
0.176674717694855654
0.187717765666008674
0.101757291927068783
0.104677145352205653
0.108646421850020825
0.113870782156521008
0.120593930690859386
0.129096725911019117
0.139659184532934355
0.0587525189288622823
0.0597653364820131261
0.0615926825146099755
0.064502076833978475
0.0688412099849064069
0.0750488448843648903
0.0836492183142310969
0.0133017970037533958
0.0119298144810762053
0.0110255628222990631
0.0108765860385782488
0.0118739440650642934
0.0145325511859374142
0.019520026653350505
-0.03371186577860006
-0.0379358164438746218
-0.0421559695036635221
-0.046111060153625219
-0.0494302599204120771
-0.051599270471558753
-0.0519527396855819085
1177.03238136423192
409.432964096932267
347.45125450027183
27.5412213819182412
48.2284780602079621
25.5505006179463408
30.0505929514813701
3.45456251374840395
14.6441418967939239
10.5827690268965373
17.2678477956493523
474.943551897972384
142.242206425283456
207.201020372342498
95.3507930447036784
27.2202366214991685
28.6842161345915194
47.7372019703083907
3.31176894869361327
18.8327574361224457
17.8451986288197588
17.2215828615590709
236.541466718327399
141.151975126544215
247.666777863921084
222.757257699562018
189.60861755999187
122.032506327352309
60.901575403961715
49.6570887377580235
85.4605686256559949
24.1069167066314165
6.2837145041796596
63.7443949509535486
133.089549309916521
118.604945762975106
118.652339660590513
86.8299114338308016
127.314561089758286
47.1426930856240034
92.873369919624281
92.8624113890163727
49.5494718704068617
9.05504792781935741
36.6606149291035877
38.5491329589114855
29.9142310917236429
29.4830359758222684
25.7785209343675987
27.87037104486609
25.7454622049231858
18.6768216965897942
24.6040992513422161
28.3859681052956319
18.5218106203375115
37.2637167442894821
27.62457094962312
21.1836381733947547
17.7417171102776763
22.3318735052532737
10.2515648238304351
9.58595297200397845
8.03374634360474893
10.5500074640368489
3.43103323957389428
4.24872155989474365
236.590442659843262
96.317333031195929
41.4167652361551575
41.8489518055762701
36.9832402422663549
24.2628412266226974
37.3327429921674607
62.8187311574447236
10.9922550594702795
9.22360239578250507
7.95492526010699397
355.283039998156369
347.902738035074265
350.566007841769363
317.644849278129584
292.575379844963095
300.710998683518028
260.920733850982799
200.138375101564861
250.106741288556719
216.768938184816449
107.973891678513411
3.2596039816190352
1.2156878621882079
4.74760709213523402
4.2791326714367699
0.507222392643276732
0.617167745460163397
0.836399109516253625
0.974545068873978404
0.447354734765944562
0.500745483880642439
0.850743172421803862
0.929306393691512689
0.35997537363274501
0.456496275638630877
1.0753217313024408
1.15424039973251169
0.327116193336047911
0.333153155961248837
0.393726345257566557
0.524452456219870244
0.318079888486579587
0.321037487309958236
0.331478325776535021
0.348145466306993667
0.314573260363799512
0.308678078301378833
0.309848936551043008
0.357969927651112962
0.301818918908206668
0.293551236652056791
0.286881227007363293
0.369606126891486531