/*--------------------------------*- C++ -*----------------------------------*\
| =========                 |                                                 |
| \\      /  F ield         | OpenFOAM: The Open Source CFD Toolbox           |
|  \\    /   O peration     | Version:  2206                                  |
|   \\  /    A nd           | Website:  www.openfoam.com                      |
|    \\/     M anipulation  |                                                 |
\*---------------------------------------------------------------------------*/
FoamFile
{
    version     2.0;
    format      ascii;
    arch        "LSB;label=32;scalar=64";
    class       surfaceVectorField;
    location    "0.810000000000000497";
    object      Uf;
}
// * * * * * * * * * * * * * * * * * * * * * * * * * * * * * * * * * * * * * //

dimensions      [0 1 -1 0 0 0 0];

internalField   nonuniform List<vector> 
20536
(
(-0.786969480443405089 -0.81856212481327717 -0.258873256086578518)
(-0.204035427282735077 -0.535363946563239712 0.169211627569818973)
(-0.843561953837964729 -0.916505752748527636 -0.0820791067281751718)
(-0.614712443302799172 -0.802783842421628258 0.00395619658820711706)
(-0.0578741219874689197 -1.58594333672996424 0.0706224278022914431)
(-0.453287152788246772 -0.746698637959864131 -0.319906057860377568)
(-0.459899525684630994 -0.901197073231895018 -0.472159209324611362)
(-0.46946920666922981 -0.388807319323735689 -0.477131603492087775)
(0.479066094292929234 -1.06502197762174378 0.498707311458688185)
(0.454593648946776396 -0.465316719652064392 0.285267208584734477)
(0.500047354083705264 -0.17052714515725062 0.333868184931331136)
(0.399202281464341779 -0.353807563218826782 0.496662541258329371)
(0.415209426531077841 -0.878353512897183109 0.371802189563115393)
(0.387520840956052104 -1.78055616539097383 0.399500442699005198)
(0.353789038398792055 -1.51860336817912733 0.571131834893386703)
(0.141457446884686366 -1.67606619185794448 0.462497099429133085)
(0.378583328891920479 -0.0753723996773800059 0.0809180458384209239)
(0.437873226781281433 -0.0133045929188129828 0.105387389165563908)
(0.312702012298892662 -0.00273198862272255871 0.112322815800629444)
(0.31665515024626778 -0.0515052186037193577 0.0973655531549925263)
(0.409001339126403851 -0.218704647469932234 0.0575421821212636353)
(0.502125042052980142 -0.0868279808492019578 0.088943040562505099)
(0.415662888775385209 -0.117037811953390664 0.0624273829007502279)
(0.375582060467520074 -0.169809874232400182 0.0392036082926015272)
(0.42849694615630074 -0.411371814979593575 0.0952301657451378319)
(0.524132256581137823 -0.213241716426982392 0.107603623799502085)
(0.478021481884275623 -0.297062147283458089 0.0474516686505693785)
(0.393293823881918025 -0.313744131837787821 0.109849763102275025)
(0.497756833263453491 -0.561656992297787316 0.158362086689161519)
(0.535463454418710016 -0.375602540123954387 0.136669260912132606)
(0.527171565666219921 -0.471592955629679789 0.0801384852639243084)
(0.417569196458217495 -0.561624128003199274 0.201514190906456531)
(0.522238847151520025 -0.521226675823648011 0.162267841956267367)
(0.521495794006988089 -0.522696005391546037 0.1094807347393187)
(0.414841869165513688 -0.71205601194465562 0.278956028435515091)
(0.420569826260014046 -0.538766459041115975 0.199021824357871191)
(0.590446754134517193 -0.0408060690238073939 0.113412383889648125)
(0.496754228203387771 -0.141791448526785269 0.0531741219088569042)
(0.547259885185957029 0.00397644680644074124 0.109738188405319126)
(0.563088206079963016 -0.0695156685750723258 0.0764401061374454793)
(0.620841870135011131 -0.0922229422421254053 0.139004482240743521)
(0.550337941228425054 -0.157827343212265547 0.0757309741400746667)
(0.604919046746243527 -0.0437322871966981941 0.13418180909845312)
(0.608701482028532914 -0.089926944711765211 0.113868087412647562)
(0.620141862077000949 -0.190974087463532949 0.149042718966496734)
(0.584165570358043507 -0.193987449921202898 0.0949876431159864948)
(0.627497214243783685 -0.11650108568580958 0.138672977418261373)
(0.609506853715960806 -0.149981854253597002 0.150888023631579993)
(0.590106922757850372 -0.337138433830353357 0.14057501617923826)
(0.60771697959265869 -0.282972891281316419 0.100375512735269914)
(0.617969000662407897 -0.224279087513758912 0.127429792046792278)
(0.585061428151395946 -0.300361443278263363 0.162485843751800613)
(0.5945277007915587 -0.39295165326269299 0.09019760816914138)
(0.589908113755883146 -0.377917447944267737 0.106712758146198697)
(0.539540659687418711 -0.472380509991313702 0.155753710373235099)
(0.549071401653028146 -0.469950437185208791 0.116971826523577391)
(0.462985144162203932 -0.231832851232437825 0.0154927121592835417)
(0.3960134308134311 -0.243574783732104644 -0.00109025912899596983)
(0.439346928457220787 -0.192193536322494529 0.0273205246147688631)
(0.440385519461611918 -0.24178285509507752 -0.000350421079581609164)
(0.518638115420940626 -0.245086200091440942 0.0317141350153178)
(0.438451362221808583 -0.262760418606320989 0.012764636038490899)
(0.484696482897184866 -0.223553038698599882 0.0353813536560538336)
(0.493649008895407526 -0.242391666474567335 0.0148958054778086726)
(0.578751382236643352 -0.275674411677968523 0.0463204368847598136)
(0.487521736711280629 -0.281404888069855363 0.0298859412259873738)
(0.536802590536655799 -0.255041756618172577 0.0451552665742350895)
(0.550093301453776884 -0.252889914908054181 0.0403110541370014439)
(0.610544982730708563 -0.334790376924115618 0.0499981047251728539)
(0.538890011539952862 -0.319846544713844327 0.0390591280753314202)
(0.590137642036220544 -0.306862171706503151 0.0505851176072650635)
(0.589643899308395891 -0.314129541053730643 0.0542633134109692383)
(0.558734313004366934 -0.380969003070087464 0.03713139244394488)
(0.611586440287761657 -0.374317991725466259 0.0477705033377639893)
(0.588277824320033726 -0.399489764881063025 0.0530049701701724371)
(0.607447418759906155 -0.394604449508390964 0.0437055353268656355)
(0.373178717148271166 -0.288611426012022665 -0.00381833524978859168)
(0.341204633747450137 -0.291685781178031678 -0.0075315952835285525)
(0.35082528005032626 -0.252706631945694815 -0.00642295770350294944)
(0.360347108687608164 -0.281311148284416057 -0.00993252625544664702)
(0.41019431337925627 -0.313159506456299475 0.010936442249160596)
(0.370855754734514431 -0.319136105707923223 0.00455424278616094191)
(0.387928041621592612 -0.288598029591654981 0.00703634592374682236)
(0.392850159680281918 -0.296174629006121626 0.00235507454103486965)
(0.450999557532250961 -0.340484318004151687 0.0226246324165590464)
(0.405383303208604939 -0.345088435564818552 0.0179941323043741573)
(0.428743846685889662 -0.323436630270805658 0.0225011043755293759)
(0.433518957491824564 -0.311565958798696307 0.016316233265041797)
(0.487153504589341702 -0.381979307842158278 0.0261924157941033978)
(0.44142024072932845 -0.381498545701088043 0.0255882410630487098)
(0.469377044120605602 -0.363838673083291708 0.0314858546754094026)
(0.474127766060595368 -0.35006310855551237 0.0225206743710704843)
(0.471517345049822845 -0.43188643567839935 0.0277698860838193236)
(0.5017499297363337 -0.414151818620091594 0.0326706786730541418)
(0.505389297160108941 -0.408758352663264102 0.0212718675986966893)
(0.512518720268440142 -0.436325045412533086 0.0248093878224753157)
(0.338807542597165889 -0.321305911010454137 0.000840982752421011448)
(0.30662848415770283 -0.316265102883614979 0.00142809582494039106)
(0.321007942831432691 -0.283462845080118986 -0.0083980256501720342)
(0.325232130748492332 -0.308387844883697915 -0.000636394307767288413)
(0.366555424911575389 -0.352705836809168449 0.0116119328413745206)
(0.330653551352174058 -0.345887083725572919 0.00883042331305153999)
(0.354127713858618853 -0.31889619496528282 0.0022520906258518803)
(0.348533459461788431 -0.335903386020957262 0.00908230536635682914)
(0.396799408242142992 -0.389802403511120388 0.0209577409508637964)
(0.356271451736279887 -0.379932658818063707 0.0183093211755157997)
(0.38611363374705121 -0.359455687237457022 0.0143635399863102468)
(0.378066849953909656 -0.368317325650705629 0.0180172257237346985)
(0.425807639524856396 -0.435384485972850399 0.0271657113527646391)
(0.382837276655272118 -0.421443276532292022 0.0262255294799454905)
(0.416976249937805188 -0.405059303962094275 0.023455353304913773)
(0.410843088720439009 -0.41240207635581938 0.0226103310512354404)
(0.406639319132346855 -0.470430118091487992 0.0332620215932190461)
(0.44332523152432779 -0.455565361379828615 0.0299995708068355009)
(0.438696618212122413 -0.46460476436235143 0.0262651126322200612)
(0.450514486753851751 -0.485480987241650896 0.0326355159852632637)
(0.297928143232471743 -0.343177673595689403 0.00941753638557091786)
(0.265319008955904323 -0.338222947094333926 0.0128450662187381548)
(0.287428667348055666 -0.321458513211922037 0.00488355393240635666)
(0.286644945481445368 -0.328534797981374194 0.00986128907685113708)
(0.320118729812772673 -0.376179630858602454 0.0155278116471928018)
(0.28423125822629397 -0.369623436318204601 0.0171151758816737963)
(0.312454319621786436 -0.353710069179520525 0.0100199971627134114)
(0.307315913774715843 -0.360073548118731435 0.0139203437270691583)
(0.342186943509649066 -0.415208708453057407 0.0235771097045974626)
(0.303145219620286954 -0.406061102190349854 0.024072400671332133)
(0.335587555662388126 -0.391276781127321005 0.0182280132989537068)
(0.329114672805634501 -0.396871569620698139 0.0204254116627516878)
(0.363066117843924507 -0.460265637645984216 0.0323218397203998697)
(0.321759876777140852 -0.448251031297815961 0.0323730647547274611)
(0.357320561245523638 -0.433910051472786218 0.0272803406939571974)
(0.350336713281833689 -0.440007296156663064 0.0279680214510663466)
(0.339359464180646664 -0.496262593279415909 0.0421304755909542791)
(0.377546677600188063 -0.48142462675711456 0.036493339405872946)
(0.369506655249525973 -0.488671327235840613 0.0369038902520646486)
(0.382902390329980968 -0.50941436204621382 0.0417517070038730467)
(0.251091680307912513 -0.365339436328869338 0.020542705714841028)
(0.222226473712973521 -0.356881183076117769 0.0203204328503559135)
(0.245552436020263942 -0.347232110567079366 0.0178096201797323973)
(0.242531635133966056 -0.350223966670426545 0.01921022154306537)
(0.26671707929999372 -0.400260312778114191 0.025659764905813124)
(0.235301290679881286 -0.389467498179562666 0.0244872518605021225)
(0.26204261821604341 -0.379980608631036165 0.0221144347932982974)
(0.257296540409867325 -0.383035128645745404 0.0227743776727379263)
(0.282160288198309406 -0.439864131313637663 0.0328683557214620795)
(0.247839484836765822 -0.426183301460413444 0.0310117943436854469)
(0.278163796048452761 -0.417104997385256471 0.0284834825673250108)
(0.271874757974383097 -0.420177904173515693 0.0287965991514490573)
(0.297252807311602085 -0.484823613509090035 0.0421817006252818288)
(0.259829494833425656 -0.467690358561665298 0.0398327789948456426)
(0.294219864209384563 -0.458928573973589604 0.0365168631788487033)
(0.286060565886375795 -0.462868192986048255 0.0369733101882787907)
(0.271114483111305149 -0.514766649788044206 0.0515927862333888307)
(0.310161386214857504 -0.505955791836187108 0.0465382840372138909)
(0.299882849026011977 -0.511645054695944457 0.0477793510280002665)
(0.312527212005915211 -0.534776857071069145 0.0539021851325317269)
(0.205974632855925127 -0.381379869857257359 0.0242649789960169837)
(0.180480605757665946 -0.37029709121894977 0.0223418640472654619)
(0.202393109398927434 -0.364233077967902275 0.0215946229220981105)
(0.199483227494802712 -0.365914046537241189 0.0221596166039923527)
(0.215874417334683849 -0.415692472832895343 0.0298392812983744246)
(0.188575222785784952 -0.401698376325621553 0.026904454969672198)
(0.213744177273538449 -0.396489998919373754 0.025912780229025989)
(0.208819465626054163 -0.398537676566635968 0.026559102717786446)
(0.224813593561844938 -0.454164597401131964 0.0379762176170689719)
(0.195364454657585174 -0.436669167818685811 0.0338926788891716069)
(0.224322221620067014 -0.432597160870258901 0.0324905537175609049)
(0.217129045229122991 -0.435074926922985161 0.0334465665046391331)
(0.232762704377162372 -0.497530631357273545 0.0492438646029525959)
(0.200729409355836941 -0.47586793558799223 0.0438098682003997611)
(0.234209301096958228 -0.472983712427530123 0.0415911262289881747)
(0.224237779267299986 -0.476275837076798936 0.043205473487181123)
(0.2044248366723245 -0.52019731437426131 0.0575859497883999955)
(0.243387097782652884 -0.518406180979916309 0.0539018616004381945)
(0.229945946715429117 -0.523002523879716463 0.056775374926954586)
(0.240068813309122997 -0.546350999622616795 0.0643267230914937316)
(0.162753136861944314 -0.390901427583547734 0.0249813400209206726)
(0.141093367922650537 -0.378214812940518508 0.021893027848950055)
(0.161593430213027245 -0.375785133444644648 0.0222394519376561753)
(0.158253935959825287 -0.375679543037760855 0.0226642567071349103)
(0.167633984031124089 -0.422777708426856913 0.0309578525604693351)
(0.145066090230098199 -0.407154528083008727 0.0266317268629832661)
(0.168347534565314205 -0.406041817218099454 0.0268180811498710953)
(0.163009925151509721 -0.406004914958129015 0.027519662179226325)
(0.170660994548974126 -0.458192233884958666 0.0397263294725023544)
(0.147077528273023922 -0.438900598769548123 0.0337340371209524023)
(0.173634691876697028 -0.43952082282739835 0.0337157079154133815)
(0.165786218617034714 -0.439536024954547022 0.0349190661178079426)
(0.171556571805081132 -0.497915697503952481 0.0521519533858471607)
(0.146733937345341098 -0.473948756113350134 0.0439187353843027706)
(0.177325268089850385 -0.476776763822513716 0.0435461393475421801)
(0.166184140969695998 -0.477011338222117331 0.0456214895504891832)
(0.143474678106054798 -0.513026955183760403 0.0582290350961007369)
(0.179205603764754584 -0.518650210635367759 0.0572433612084514015)
(0.163601435661462735 -0.519361668909152696 0.0607752656447496514)
(0.170152604682205361 -0.542805764850330164 0.0693865714506932268)
(0.123249194481778165 -0.394666502201902247 0.0235434146910126207)
(0.105439230785673257 -0.381478372337223981 0.0196085638446764181)
(0.123894323497010378 -0.38167953011647926 0.0207745829632471346)
(0.120406106303515337 -0.380247753617247886 0.0212943730519288277)
(0.124268292031228592 -0.423276883960780448 0.0294079114234663264)
(0.106432281868746273 -0.407293457455189134 0.0240475379956079996)
(0.12694112768537999 -0.409184045834066257 0.0253110870726779742)
(0.121638196577536717 -0.407594381647215287 0.0261245036851580868)
(0.122754408529103298 -0.454405455452187024 0.0379264430327527699)
(0.105081437687404244 -0.43493829745774476 0.0305734138356320087)
(0.128012290737151896 -0.439126234866995868 0.0320236127460393621)
(0.120319072531860194 -0.437190077941366995 0.0333193074985980997)
(0.118084180057547908 -0.488477294503909754 0.0499958170945563815)
(0.100780515567581858 -0.464581653704490394 0.0398660351722171652)
(0.126679001648883655 -0.471851688369566036 0.0415839031549815885)
(0.115778909432820612 -0.469358667947464392 0.0436770090340742739)
(0.0927023363105909937 -0.49649795763281751 0.05287452096258273)
(0.122378991685678021 -0.507892911980528106 0.0549395349254244367)
(0.107006777124677738 -0.504591502464495467 0.0583522193598957142)
(0.109526659107161389 -0.526073339253379624 0.0669022310679008858)
(0.0853868381767114021 -0.349005562248216827 0.0145473427157502208)
(0.0704834819749946273 -0.339797253930916587 0.0119752918335613474)
(0.0831566286975403274 -0.337281865383814439 0.0137908291576026958)
(0.087869239938587293 -0.371053817674171615 0.0166841793621170208)
(0.0729649579020811845 -0.360214143810261178 0.0134189254441355443)
(0.0859301162090270743 -0.358595210873366488 0.0153995866871321982)
(0.0886388479639937249 -0.394449739799631216 0.0201126871492717935)
(0.0740570699086661732 -0.381771912522446077 0.0158436399628193517)
(0.0901893930529580889 -0.383626365412429116 0.0176733743110016953)
(0.0870787352269805498 -0.381192237376869136 0.0181618300081907089)
(0.0872204050733072361 -0.419135945629185436 0.0252130404077737236)
(0.0733304019792648948 -0.404287532204447075 0.0195245258246562504)
(0.0907353920531559499 -0.407919439925073568 0.0216715162471173457)
(0.0861143869328518108 -0.404979461677851038 0.0224144568864762216)
(0.0829976114321614999 -0.445084390144077968 0.0325130059750963832)
(0.0702924892052490119 -0.427581564191217289 0.0248336000611577498)
(0.0890499389348155812 -0.433627894593172525 0.027473222508825345)
(0.0824385117654290317 -0.429877997156107972 0.0286237225014397273)
(0.0751728640731651604 -0.472301527186453074 0.0427447390402435207)
(0.0642906765889956905 -0.45146141760035885 0.0322880167990769462)
(0.0845421838328565822 -0.460786972530397188 0.0356486623574325812)
(0.0752740819733731525 -0.455816759685909512 0.0374401415982457755)
(0.0544183395740055059 -0.47571320613749607 0.0425845406392554304)
(0.0764245679982253345 -0.48949216717276911 0.046960132354573289)
(0.0635375644411641793 -0.482727251703579496 0.0497841378369639834)
(0.0627603718251870252 -0.500858202149110476 0.0569224623274479924)
(0.0582185547356580263 -0.351326262359128227 0.01084687456194669)
(0.045268084845666072 -0.342550389972595126 0.00821878813249959581)
(0.0567811365110542088 -0.340382456618333773 0.0102382703755159558)
(0.0593189445470983789 -0.371146800699441004 0.0125783860448378942)
(0.0465435122153855796 -0.361261882332923834 0.00930789305686125293)
(0.0581847316405576867 -0.359649416539657596 0.0115893083710981674)
(0.0589221246056939596 -0.391681528035035142 0.0152554786382038156)
(0.0467274326960721159 -0.380636756435416113 0.0110605718818962452)
(0.0606148745067441735 -0.382830034409998299 0.0133796505073475302)
(0.0581830875922839594 -0.379665252991562896 0.0137836003690439378)
(0.056599401543717745 -0.412622677122613135 0.0191450854780402732)
(0.0454884413706340071 -0.400303348676971038 0.0136635505992534212)
(0.0598813529234072106 -0.403999368117338942 0.0164699393234366588)
(0.0563530866369726241 -0.400112110269211507 0.0170610226177122307)
(0.0517843285821652649 -0.433610218431506544 0.0246086108851383198)
(0.0424257063097680243 -0.419840263655913315 0.0173580393498069113)
(0.0571220502070119845 -0.425585845759317905 0.0208680989316882524)
(0.0521712574525304562 -0.420616117747338203 0.0217486760011258475)
(0.043715711400814844 -0.454202802677680095 0.0321278183980888074)
(0.0370030063724143543 -0.438713101692084495 0.0224701370396028673)
(0.0517579794905216953 -0.447254144997052849 0.026960941643015799)
(0.0449474079227902834 -0.440708154694596066 0.0282883393570109477)
(0.0284508425132246751 -0.456262976222571615 0.0294166122628714)
(0.042947734410107602 -0.468607644693951275 0.0352336562969307945)
(0.0337160253353409323 -0.459797191091415536 0.0372771775716359485)
(0.0314251220815998239 -0.473882993194287838 0.0423226361486622946)
(0.0337647357100078691 -0.352134773000402745 0.00667980662741417958)
(0.022139077774101245 -0.343937878898983251 0.00417601926211805165)
(0.0329560077645714919 -0.341793136493704575 0.0062999360956687506)
(0.0341753393517463394 -0.370317571696206493 0.00779007889391962298)
(0.022675170629650257 -0.361526381173695122 0.00475786399604937685)
(0.0335702591919542562 -0.359571407419468025 0.00718410122117248747)
(0.0335814689154773846 -0.388730726267238036 0.00946864384294585602)
(0.0226182724755739049 -0.379451393513057678 0.00567008525268872677)
(0.0347639059660149879 -0.38130077714902294 0.00831227345042921673)
(0.0332388368583139207 -0.377688457748316997 0.00857444611590811936)
(0.031695907617913327 -0.406880920464272544 0.0118765044710200662)
(0.0217937811417059334 -0.39722882589536862 0.00700901625717424617)
(0.0338711913824034372 -0.400130312875114913 0.0102462683948700093)
(0.0316886698237698883 -0.39566714704539252 0.0106196209091334644)
(0.0281253270897450849 -0.424155309278534787 0.0152195655042714866)
(0.0199755693865736987 -0.41426507461916634 0.00889428861034296386)
(0.0315887279748813185 -0.418607330109519338 0.0129675728923864964)
(0.0285622798557722685 -0.412921140771494166 0.0135107026823552846)
(0.0223430676526627757 -0.43977265358135148 0.0197589309043854633)
(0.0168629923533427095 -0.429795613007741273 0.0114815548946119433)
(0.0274956706796097433 -0.436098254767262605 0.0166910366753936848)
(0.0233900164308408695 -0.428697750426674795 0.0174973280083721081)
(0.0120284935669035132 -0.44284200515979133 0.0149579070033058498)
(0.020969018326061472 -0.45180017548425172 0.0216699160633915221)
(0.0155233683445882564 -0.442033264513866375 0.0229030876483246604)
(0.0136624590210369934 -0.452717151029272458 0.025804691790861943)
(0.0111673481317295428 -0.353600471602629862 0.00225407663075324243)
(0.0108919206919343165 -0.343524071322029001 0.00212420755701118536)
(0.0112970661915244869 -0.371042309641860135 0.00263787035481847024)
(0.0110829478317558457 -0.360644629529677851 0.00243169030186490441)
(0.0110808117992173896 -0.388467183118504866 0.00321045766691714163)
(0.0114657394329559358 -0.381695360898231972 0.00281876184121324352)
(0.0109501366239662737 -0.37788731282731941 0.0029088848567411286)
(0.0104199610420585304 -0.405304582655235224 0.0040268003964971941)
(0.0111335955973456205 -0.399424110337208538 0.00347859623817724315)
(0.0103987957442095279 -0.394715193424558908 0.0036048071059838812)
(0.00917637340419826496 -0.420817899233562442 0.00515627800068342058)
(0.0103185253123584293 -0.416425028544098685 0.00440182204991274029)
(0.00930228140224026792 -0.410440454196794424 0.004584444649100506)
(0.00716073980248264907 -0.434049665784009053 0.00668053099353234543)
(0.00886704175246645111 -0.43191738960544801 0.00565976860802518827)
(0.0074951408191414751 -0.424175894985272361 0.00593228301036358759)
(0.00656089579444635567 -0.444873442767792338 0.00733699526155743437)
(0.00473262672942920473 -0.43476434109229728 0.00773431816976972563)
(0.00407481102020252391 -0.443734232906947801 0.00868123902274694353)
(-0.774689812762761165 -0.84464226589511493 -0.144519167837010909)
(-0.139479172471522639 -0.480822190262993332 0.0998918201146894585)
(-0.806244256385860503 -0.873604199227374312 -0.112588405288677529)
(-0.00789218984472483953 -1.516310739151985 0.0308649493946408886)
(-0.414262682609352562 -0.7342525593028707 -0.252544389501145106)
(-0.442993757992713177 -0.403917075455542063 -0.293989631372552296)
(0.536386333064188481 -0.88606133292647582 0.275275937346340704)
(0.572625270803149067 -0.272498516385289324 0.150920318368765738)
(0.640274412760051148 0.0218003400358309923 0.164247459352833192)
(0.493807208431962297 -0.712146433070987461 0.181779453645868311)
(0.487526610002323002 -1.61582215615049973 0.250014284419148469)
(0.101432851513382577 -1.32193091401727481 0.205720711096911424)
(0.386036285929291845 -0.0443974008987333274 0.0938734940231139708)
(0.422088670703568258 0.0265991807290322721 0.11672895398974574)
(0.34710185799077875 0.010832234049946576 0.0855162073781765841)
(0.486021324445379765 -0.195395311766915936 0.0645581364993392387)
(0.518456893468648872 -0.0658594115324313834 0.111001688155201339)
(0.476140599996036862 -0.113478960042274327 0.059262806239562503)
(0.552589179103302519 -0.357283287933543747 0.0498836379444453776)
(0.581386439546921485 -0.176964785685248871 0.092952647242099104)
(0.572783252607130589 -0.275230934649230374 0.0291655810745665711)
(0.627858865323612125 -0.432631968723438454 0.057423834668293601)
(0.609677111909917913 -0.299054959328978076 0.0843633236756758664)
(0.64704588572539623 -0.421995322510299531 0.0309343445636082667)
(0.589165060611350988 -0.416980515399583918 0.0790663902914711114)
(0.63556690279369854 -0.427770240113059252 0.0418323598759998277)
(0.482587122909949984 -0.357726212185096093 0.0708722269453562481)
(0.569897271567307739 0.00105022863354974614 0.133857148121833108)
(0.489852585439789989 -0.0745587037460159474 0.0857064250380758924)
(0.538173020679121095 0.0525821060809907315 0.12368779065912465)
(0.615159485977120224 -0.0680104306403824382 0.139396198897961371)
(0.539277588415003284 -0.126182562112030161 0.0955497282815112453)
(0.591741613904156361 -0.0259677559756575707 0.134162898565569511)
(0.634223569072337123 -0.149806085736035266 0.12743233297332987)
(0.580134234422395867 -0.187548178393367515 0.0961598494142733851)
(0.628176687537619238 -0.114684726564724421 0.128781847527209448)
(0.619488898569513724 -0.265058101627672515 0.106005879298853564)
(0.600389663105969973 -0.260229049345802432 0.0875272462525550354)
(0.628980248448050117 -0.209340323587570487 0.114642905378338961)
(0.606966853252085992 -0.349988604345525811 0.0740870199141399621)
(0.607625389388964487 -0.349406803657162146 0.0957737369971549957)
(0.581551115469460922 -0.386419339699056508 0.0823467489080016712)
(0.46391546917187515 -0.183913723788656502 0.047399005197754078)
(0.394158777694115836 -0.188121439074765889 0.0221107365423869294)
(0.450417509754186041 -0.122517300414280716 0.0697950118453961044)
(0.506644948765464176 -0.233508595225331378 0.0523133787978232595)
(0.434173162296968951 -0.234872453311396584 0.0306033026227564564)
(0.486215148388953688 -0.190769179785180626 0.0698593244570617639)
(0.552148149037606117 -0.286229516646707149 0.0562547626934984668)
(0.478024700511264555 -0.283731339581816067 0.0414421625458883183)
(0.524785497902381159 -0.260646460263558755 0.0688303914972181879)
(0.592060008873579569 -0.346389786507853958 0.0556083868678414264)
(0.52062467461687334 -0.335459341778971631 0.0477566798016675204)
(0.562422180264086302 -0.330704339957981819 0.0652620052271921242)
(0.554602057019728312 -0.39374681645773818 0.0475980582421245621)
(0.594105353117525103 -0.395439808441583773 0.0600289257695477071)
(0.611088458564170711 -0.401213187407789107 0.0523271586818146658)
(0.366218586483631814 -0.252693235525327187 0.00531503396738936245)
(0.330628589134308648 -0.246352300366015686 -0.00627385478058962998)
(0.351986387562123859 -0.210341501608689141 -0.00537017402224987048)
(0.407406039992843361 -0.298875153406161276 0.0197320863708214597)
(0.371200000745696923 -0.2885099342200943 0.00575418642047833152)
(0.394420694574908359 -0.25974806432118358 0.00618402178507458915)
(0.448623009230380843 -0.34679098534994568 0.0329440796540573372)
(0.4094741772243361 -0.335714983731850214 0.0198385588206184266)
(0.435134218640793158 -0.314297007577834298 0.0205201565212169736)
(0.484739608106541986 -0.396011183861224969 0.0397463511759506838)
(0.444933053329082173 -0.383957341049327994 0.0302899614822172078)
(0.473278877859036107 -0.367737841046206049 0.0317148464447314579)
(0.4735578162108387 -0.434583119924745076 0.0356764653177948574)
(0.503418533611102226 -0.420810155010477305 0.037060165592819036)
(0.510429109105491663 -0.446948326237284643 0.0410616166121838821)
(0.335912058947959724 -0.281053129034947613 -0.0058347023275006054)
(0.301808126021785528 -0.287197528439537331 -0.00383918760333709034)
(0.323753202027323161 -0.249970400507896928 -0.0194843985586242094)
(0.373757908351387669 -0.325646045393571337 0.00586065887027532786)
(0.335928482128231065 -0.324465563845623139 0.00448841884820725887)
(0.363102348078049864 -0.292615072648097496 -0.00741790428756328602)
(0.406534794957357504 -0.374712587688430687 0.0171844406487782764)
(0.365429737673159449 -0.367949828945581703 0.014885572395991668)
(0.397363523574369604 -0.342906943811704223 0.00671856123230018653)
(0.434155080281434791 -0.42524017936907238 0.0262200756240614091)
(0.391459534528056929 -0.414352528990610813 0.0246423025929115441)
(0.426644446831111135 -0.395028599842359551 0.019167631379257432)
(0.41423258999216872 -0.463544943951940458 0.0331538193044752655)
(0.450871364631057592 -0.447364546585363621 0.0288005562829066301)
(0.457225566446604781 -0.475545971343007301 0.0336069466991952281)
(0.301510187415389985 -0.331990908795753104 0.00648393357237072795)
(0.26766209441241523 -0.329566973295409349 0.0107556404728009931)
(0.291041803661074461 -0.313765941664568782 0.00677777403600323368)
(0.327562416089627439 -0.368807219448239076 0.0135133323739235651)
(0.290265679611535987 -0.363184305029443544 0.01578884164277429)
(0.318568216690009343 -0.348281026302899643 0.0126747789385803326)
(0.35037781214743019 -0.40997812414704965 0.0223434343401249166)
(0.310606132090553932 -0.401439118321535615 0.0230854180286818346)
(0.342701426093340533 -0.387733034236611485 0.020273409726648213)
(0.371198062401945916 -0.455069040583916118 0.0315760462733253311)
(0.329780548677767404 -0.443791511747397616 0.0315591619141788737)
(0.364478508033460602 -0.430755153011861069 0.0283993280592481599)
(0.348348599634398903 -0.49054525135665894 0.040890221957875339)
(0.3849794162205461 -0.477266827766809287 0.0365397336942712633)
(0.391396417687806586 -0.503024007299533005 0.040801643286026798)
(0.256063217164709422 -0.361873282869246193 0.0200605485432045344)
(0.225719071706217689 -0.354225148726296291 0.0195806322643929456)
(0.24911713783925693 -0.342972312108060284 0.0186798403117694571)
(0.272985335020551279 -0.396825293238178445 0.0253609272975325803)
(0.24048550480970049 -0.386661027424008708 0.0238776274067964492)
(0.266999358108007734 -0.376162467371484177 0.0227230749721528819)
(0.289610386599174596 -0.436169440045208301 0.032301145602735809)
(0.254646532831753925 -0.423242042543198305 0.0301095854669451816)
(0.284364291298413063 -0.413563535051456266 0.0282403021551867611)
(0.306288314262589956 -0.480060752300686677 0.0408733375987288469)
(0.268599670472917051 -0.464105208097440491 0.0382692469210873243)
(0.30175881447459374 -0.454985248202432135 0.0352345073855210647)
(0.282434000886205405 -0.509757698001475856 0.0487637707413660013)
(0.31942212185369534 -0.500685490587490123 0.0439148443019159382)
(0.323649602655992907 -0.527877015911546454 0.0512933713301664262)
(0.209774847049310403 -0.379343207030018559 0.0233977111279848674)
(0.183505933854288872 -0.369415992581601127 0.0216034159441581552)
(0.2053054327702796 -0.362706494685498204 0.0206884027740034983)
(0.221707089128532764 -0.41339468695673709 0.0286262855762090263)