/*--------------------------------*- C++ -*----------------------------------*\
| =========                 |                                                 |
| \\      /  F ield         | OpenFOAM: The Open Source CFD Toolbox           |
|  \\    /   O peration     | Version:  2206                                  |
|   \\  /    A nd           | Website:  www.openfoam.com                      |
|    \\/     M anipulation  |                                                 |
\*---------------------------------------------------------------------------*/
FoamFile
{
    version     2.0;
    format      ascii;
    arch        "LSB;label=32;scalar=64";
    class       volScalarField;
    location    "0.119999999999999996";
    object      alpha.water;
}
// * * * * * * * * * * * * * * * * * * * * * * * * * * * * * * * * * * * * * //

dimensions      [0 0 0 0 0 0 0];

internalField   nonuniform List<scalar> 
7236
(
3.22105915865073754e-06
0.000193090771547078677
0.000833714052643594068
0.00214920405248327472
0.00363388160085807016
0.00634508616514527224
0.00773045627366213042
0.00901076835286386026
0.0082469685559272525
0.00758939036384520711
0.00634048018103536282
0.00503386093198561219
0.00385116094370741967
0.00291948737215661641
0.00213441633950870683
0.00144642603130803581
0.000567331917459913725
0.000238208007364967638
0.00012240153069643784
5.29753642807878535e-05
1.91712274446125992e-05
5.34422727876082412e-06
1.23068322131855336e-06
2.43907004893364646e-07
4.18092704227536947e-08
6.22082975796208017e-09
8.0467755729255022e-10
9.3426734499285813e-11
1.10920765783786852e-11
1.7923913946368505e-12
1.56537268255836169e-13
9.21266344147054664e-15
4.64357593951709816e-16
1.89405003793313485e-17
5.96640758432671366e-19
1.34836374806632348e-20
1.86985510624458192e-22
4.72100938697388486e-24
1.06227335383522931e-06
1.24053614152698267e-05
4.6883516083538099e-05
9.66259902276793718e-05
0.000129229086326104216
0.000144416717850534896
0.000114405065786028982
0.000133216748666709376
0.000161744074713432532
0.000231500909907216999
0.000346913359820782779
0.000558031823584580373
0.0006337387002011178
0.000682705173403791682
0.000678006340800071418
0.000651053818279275463
0.00054045586216877931
0.000423176530840015433
0.000217965059039078969
7.38212934941049248e-05
1.71889702069513135e-05
4.92735740922187225e-06
1.16565674044899449e-06
2.3518322355854865e-07
4.08854058354713233e-08
6.16107949316527071e-09
8.06914703217629916e-10
9.50451327345691013e-11
1.15421144183913856e-11
1.86499025006056458e-12
1.64564062908792321e-13
9.83589159540026278e-15
5.03011989902636124e-16
2.08274891001562845e-17
6.66436113508516399e-19
1.53059253410763924e-20
2.15127829657297713e-22
5.70923522300536854e-24
8.12562036552911654e-07
7.97043464245177354e-06
2.04975036194409911e-05
2.98813319647110173e-05
3.60932256762536938e-05
5.17730257451626551e-05
4.24438265560568752e-05
4.63156647462516485e-05
5.54365120195018457e-05
6.16080257435299989e-05
7.21544181997416827e-05
9.8959616160869667e-05
0.000116748148488455202
0.000115285178426509182
0.000123749540895272267
0.000123375168333514232
0.000170464468685562907
0.000148015473869963842
0.000103194633846232908
5.795226155449489e-05
1.79372912669020304e-05
4.29096645172715368e-06
7.45828753300083582e-07
1.41268999062255931e-07
2.48161420252046343e-08
3.77421727185430387e-09
4.983730129563501e-10
6.28665802594817002e-11
1.1172942975256268e-11
1.50164838153025413e-12
1.16167676196241975e-13
7.18767011848622826e-15
3.742562760557128e-16
1.58332876451696438e-17
5.21610367928206266e-19
1.25019771340914978e-20
1.89844849981595037e-22
3.67878283361240541e-24
6.97247033868084585e-07
7.38565431337393968e-06
1.53351022089059859e-05
2.10267261511529999e-05
2.24412905719870352e-05
1.96487893587180844e-05
1.4413918040946464e-05
1.30577556648754143e-05
1.64035260138648494e-05
2.22469237789704499e-05
3.00439225079899368e-05
3.74793384350469394e-05
3.90145069474175598e-05
4.40824698258241557e-05
4.95341785612721632e-05
5.19150177957060642e-05
4.78086339411908697e-05
3.61698085248253503e-05
2.23448995521458237e-05
1.45786534027286567e-05
7.85792769693338485e-06
2.37678367867155878e-06
4.09172457871495864e-07
7.33556535952470804e-08
1.30138167213481016e-08
1.997217261911966e-09
2.70821084190363605e-10
3.44373423925051008e-11
7.5146463719414783e-12
8.85749217319375369e-13
6.42678483205834758e-14
4.03872583890242155e-15
2.1247317965020337e-16
9.08126127350100647e-18
3.02565457339923559e-19
7.34841095380212753e-21
1.13688321412556641e-22
2.07549974817218511e-24
5.16949073872780743e-07
2.81681747042871379e-06
1.19958440812446863e-05
8.68525744982877494e-06
5.89705767554802495e-06
6.93797601276083138e-06
6.09050929952841084e-06
5.92594761738632466e-06
7.1470947581494204e-06
9.51601963077701666e-06
1.25486678077886203e-05
1.44604584617853866e-05
1.56630781313326641e-05
1.68741127166520332e-05
1.970572449965744e-05
2.16036917105325442e-05
2.07873839083570082e-05
1.61599899672674523e-05
1.01377864397294294e-05
5.11784814728081408e-06
2.14806822739424711e-06
7.66029262196136627e-07
1.80830111826818047e-07
3.50247585457363663e-08
6.26140394250056253e-09
9.68028558063330523e-10
1.41748302809295175e-10
2.71757908657031921e-11
4.62268119427541027e-12
4.46525684788036412e-13
3.3274960069421921e-14
2.11885631171619032e-15
1.12751090422013254e-16
4.87895159471926362e-18
1.6492270905795315e-19
4.07813195849661253e-21
6.47368325911529393e-23
1.06849588076051738e-24
2.67965277683242401e-07
2.98287933191395188e-06
4.42258321216053678e-06
4.66200313879613363e-06
3.26238373470092396e-06
3.11078849585088718e-06
2.94270906794100254e-06
3.04181352378125308e-06
3.59982492933424761e-06
4.5559986349476918e-06
5.49324378218911364e-06
6.14057589610598832e-06
6.44478082325206864e-06
6.84219267489205593e-06
8.10879647251422279e-06
9.02947928250873532e-06
8.85286343831697171e-06
6.97340910337170315e-06
4.40783929983977039e-06
2.28097914612559996e-06
9.21452504606471527e-07
3.09455171938522642e-07
7.8264710748918646e-08
1.57443951024048163e-08
2.82915302830648785e-09
4.6029093761026577e-10
7.71002743909919134e-11
1.75838040611449753e-11
2.40419316891136655e-12
2.13633325033547132e-13
1.61602345264251611e-14
1.04059152861646353e-15
5.59867233452354418e-17
2.45257366441553636e-18
8.41140083997453963e-20
2.11775340744088281e-21
3.44934937386754119e-23
5.11679068063001692e-25
7.33865326080628304e-07
8.71289907369891396e-07
3.19885268072758676e-06
3.24425971706262273e-06
2.08486267641417102e-06
1.70504261579973916e-06
1.63979998054196883e-06
1.70926096614180258e-06
1.91392560839222002e-06
2.20649586972961694e-06
2.5266514226014447e-06
2.73080578770646073e-06
2.79207973373901167e-06
2.90634643580062657e-06
3.41462182791288465e-06
3.7903658622185508e-06
3.71512149055224816e-06
2.92909609445238638e-06
1.85144850100392117e-06
9.45067654435438719e-07
3.9766214330295173e-07
1.3051489889100865e-07
3.31169450962594814e-08
6.74253036950479765e-09
1.2351927675237793e-09
2.10473954879172914e-10
5.04597678009342822e-11
9.69194508356648124e-12
1.08406070165496276e-12
9.66985828142403375e-14
7.39594199420793284e-15
4.81010689309160954e-16
2.61491824973995504e-17
1.15882168914614091e-18
4.02831529899354022e-20
1.03104754468209001e-21
1.71794520028503971e-23
2.30630792001339333e-25
5.58380440501986886e-07
1.96094266567982463e-06
2.93682295351472427e-06
2.10937450048707053e-06
1.1457081810041651e-06
1.04110833617580194e-06
9.83578564513644117e-07
9.74928071402040217e-07
1.01643267767920054e-06
1.10502190496645893e-06
1.19892106448134642e-06
1.23886260015901516e-06
1.23713727486198253e-06
1.2692743234292945e-06
1.45588018154036414e-06
1.58914644624784955e-06
1.53631416106760067e-06
1.20118466428064604e-06
7.54694895076586137e-07
3.78934019754595646e-07
1.57906958583615354e-07
5.22125236511929039e-08
1.34697169047262965e-08
2.81237405163511018e-09
5.41451197691371891e-10
1.24155614989225245e-10
2.98614192917093911e-11
4.3695853009505968e-12
4.63228635493314317e-13
4.16399218617800406e-14
3.21444039526299612e-15
2.10972530370164468e-16
1.15810061863459252e-17
5.18813315055017759e-19
1.82626753256965945e-20
4.74531469279171116e-22
8.0684263957056411e-24
9.86280784553628951e-26
3.47697040704301258e-07
2.62198398023015914e-06
2.03761607075104362e-06
1.25654111494184581e-06
7.60415823334282258e-07
6.757694799647721e-07
6.09047691095699694e-07
5.6555922262883284e-07
5.54283886282752011e-07
5.61071825408309675e-07
5.72469299846842618e-07
5.69133335361273306e-07
5.53843122027336649e-07
5.62416299938692974e-07
6.2287236284561153e-07
6.61765625471670284e-07
6.24959756697808897e-07
4.8145898130989699e-07
2.99343273327149952e-07
1.4914185794396619e-07
6.05472667843161975e-08
2.00973916050537198e-08
5.32987251696860389e-09
1.17106399897200301e-09
2.63951375424786224e-10
7.21369261379394291e-11
1.39814159737445714e-11
1.79619037213416275e-12
1.89176471306676675e-13
1.71392480047997892e-14
1.33399221659517556e-15
8.82948021376804501e-17
4.89100695073569662e-18
2.21337536589823255e-19
7.88227809174153213e-21
2.0765099153623717e-22
3.59498459620812869e-24
4.02541411995773899e-26
3.97196968632052646e-07
2.45551528169079083e-06
1.64401552081386592e-06
7.77123686236162623e-07
5.44683569811150045e-07
4.72623815839143287e-07
3.96871501788590981e-07
3.38426418568483168e-07
3.03755836456633289e-07
2.87933418088884483e-07
2.77215343590042183e-07
2.65575857851817392e-07
2.48918017760725996e-07
2.50203102118869778e-07
2.65502902245087058e-07
2.72533820099089838e-07
2.49699586836901692e-07
1.88711384703142264e-07
1.15727057966617704e-07
5.70751630036265274e-08
2.28254241838224388e-08
7.55887098501204015e-09
2.45761192699895418e-07
2.28517036364932393e-06
1.36019491420596124e-06
4.9988060356916857e-07
4.13551309877179304e-07
3.39512933110639549e-07
2.65469798697227563e-07
2.26973565878736188e-07
1.88310213929707679e-07
1.55933232693306624e-07
1.34196208184734795e-07
1.21870167460401598e-07
1.13308987418049675e-07
1.10903053304915295e-07
1.12168945964601692e-07
1.10669748805352967e-07
9.79260137424613635e-08
7.2375045683199109e-08
4.36384798341750208e-08
2.1249008851305957e-08
8.42959472657641962e-09
2.83672501920057846e-09
4.39042264534375245e-07
1.4251236667325232e-06
9.78651374024611018e-07
3.82403815199656788e-07
3.17172464000826775e-07
2.5002594471198797e-07
2.05565214638289258e-07
1.64178855615200672e-07
1.23892821243371673e-07
9.38181553793670582e-08
7.3452651643689765e-08
6.048922741082875e-08
5.27893550475576519e-08
4.87304995659664088e-08
4.68091135892767107e-08
4.41874233625457944e-08
3.76258277565435473e-08
2.71117058526615177e-08
1.60477516605399687e-08
7.71482397140676182e-09
3.03560744277614862e-09
1.07648738484049508e-09
1.86461156394419781e-07
8.2319176266894754e-07
6.51761259822680984e-07
3.30915225624452426e-07
2.43097468033178836e-07
1.96184457223757354e-07
1.5871250184068739e-07
1.16273629699705003e-07
8.08433691195613407e-08
5.60032492091660631e-08
4.00406964273475673e-08
3.02570738402527241e-08
2.44679369006243154e-08
2.11800817343004632e-08
1.92386028757103958e-08
1.73181269066162925e-08
1.41640504161290953e-08
9.93719780060667256e-09
5.76893923050491044e-09
2.73574780074443433e-09
1.13763096384857285e-09
3.95047574592870179e-10
3.28580890831282708e-08
2.15750739611050346e-08
1.50077936402751741e-08
1.12316729169198496e-08
9.08966890534735639e-09
7.78910073983477016e-09
6.66630206528388097e-09
5.22858921582210871e-09
3.56752873187748401e-09
2.02944714279166915e-09
7.33733327788448441e-09
5.09492582585011525e-09
3.84893185586275182e-09
3.1032975569529819e-09
2.51747603329107266e-09
1.87619414491528933e-09
1.28078356289521024e-09
7.55832367675111462e-10
1.44062357616104522e-09
9.9626256779401674e-10
6.87366978650501219e-10
4.63807743764460956e-10
5.91932057399992917e-07
6.62214971874102828e-06
7.59479050253814054e-06
1.1514479714829653e-05
6.92284266268772264e-05
0.000171821552376789254
0.000299212082747921993
0.000371316457436100941
0.00039397874555266194
0.000393307190575258665
0.000379320335656319085
0.000365997840352949837
0.000350826059010686845
0.000297804631705671208
0.000238529378294679727
0.00018207933557225621
0.000124750917847412843
7.23946395433898703e-05
3.49507779415690015e-05
1.40106884840759904e-05
4.68334702542879637e-06
1.31535048451404682e-06
3.13807558936653068e-07
5.9236699115190945e-08
9.54606763952250765e-09
1.33979958319784122e-09
1.64169058667367637e-10
1.94213114208988993e-11
3.54653489194877669e-12
3.75817614000722264e-13
2.51957348544704641e-14
1.46523556555292339e-15
7.11374649760401458e-17
2.79175424360804386e-18
8.46969363561140693e-20
1.84635153714489204e-21
2.48997075632660747e-23
4.87631794553055735e-25
2.73312636715645415e-07
5.03878683755078269e-06
1.37959106449944798e-05
9.35242519317576085e-06
4.3445517101725678e-05
0.00011038005991635688
0.000167147670969370536
0.000216921714368052091
0.000250271701549229398
0.000258750274131983797
0.000273879320478373587
0.000279876326215558501
0.000271806996382390961
0.000250289203463203102
0.000226272431378071411
0.000194016388784165432
0.00014799720891353377
9.18294183562542662e-05
3.72908309255153347e-05
1.12872408490296804e-05
4.07398730080027373e-06
1.20646500951008496e-06
2.97537572229563382e-07
5.7817718132298544e-08
9.44498832819689875e-09
1.34229318711957003e-09
1.66873564290285598e-10
1.99517563974446054e-11
3.67742700519546882e-12
3.94357549270135083e-13
2.67964682730460097e-14
1.58039008240628492e-15
7.78481481142571551e-17
3.10129369743813528e-18
9.55658792292614214e-20
2.11679137267499873e-21
2.89276379253406554e-23
5.9809170407550281e-25
5.233049115921699e-07
1.83514131326500808e-06
5.02500100196748939e-06
7.481765630711983e-06
7.22847235503637424e-06
9.90443041373972963e-06
1.65834303528973309e-05
2.46889410722139385e-05
2.50229356782982782e-05
2.93017710917621338e-05
3.69207114760550107e-05
4.5255794905206084e-05
4.86078549461352262e-05
5.63331124149788327e-05
6.12985354891229007e-05
7.00336654648082838e-05
6.63977115176066278e-05
4.97301506743112845e-05
3.15371260644969149e-05
1.20398202503661079e-05
3.5433351040279867e-06
8.54569062307808644e-07
1.72949011908957126e-07
3.46238841039014179e-08
5.71775353666648744e-09
8.20558797995891651e-10
1.10890052016846808e-10
1.9067603301781745e-11
3.03214668374168617e-12
2.77578822980685106e-13
1.9355649462704237e-14
1.16041472226709078e-15
5.81684181063271747e-17
2.36926850057117627e-18
7.52274443542724338e-20
1.74029142649995694e-21
2.56663424211290221e-23
3.86181066493576586e-25
4.86365800309257279e-07
1.41380821869443094e-06
3.38690388201083527e-06
4.16151445089295865e-06
3.80021580585374367e-06
3.92127441650181916e-06
4.59511572294299873e-06
5.27628802799131958e-06
6.29921689526040986e-06
7.98929573520335248e-06
9.79844342029132981e-06
1.13610024356147543e-05
1.22335498096565035e-05
1.37577747705577928e-05
1.53673114905392985e-05
1.62024374629584176e-05
1.49124663945186313e-05
1.0925252092468907e-05
7.69764330415560605e-06
5.12548349157968291e-06
1.98406114762019453e-06
4.51093097224806683e-07
8.78447344388255665e-08
1.79175702501372473e-08
2.98995443846298089e-09
4.33160705748031235e-10
6.0893559454922714e-11
1.31516765236702348e-11
1.81777839632103106e-12
1.51764065242132987e-13
1.07717921797942369e-14
6.52862957062316977e-16
3.30577516119964297e-17
1.36074973415197796e-18
4.37123936873538752e-20
1.02506363584869636e-21
1.54022452269431409e-23
2.18160204470158142e-25
3.89004627804728633e-07
1.28982191885887258e-06
2.37107628447539554e-06
2.14641487534245898e-06
1.83022763094820355e-06
1.70693160166702371e-06
1.70646879401739443e-06
1.60684093014949077e-06
1.89205714518095031e-06
2.60672715186896929e-06
3.40049270164715645e-06
4.09947872792573915e-06
4.56431143473831144e-06
4.99144671447669746e-06
5.86594600525032782e-06
6.51715701437840791e-06
6.29674897558287777e-06
4.75029015184902308e-06
2.82797138322942642e-06
1.33647571087835243e-06
6.03359153765017681e-07
1.88388898559767316e-07
4.15857987778285367e-08
8.48016768836130675e-09
1.43216555679395868e-09
2.2537547334892274e-10
4.28429430023476453e-11
8.20058661505543593e-12
9.30994546853099256e-13
7.76642672858723269e-14
5.59045573211671389e-15
3.42677919597105276e-16
1.75516256062167872e-17
7.31694044037755942e-19
2.38551080249246805e-20
5.69699052570714211e-22
8.77971792910857908e-24
1.12440266016237365e-25
2.52778534780927419e-07
1.07018305406536985e-06
1.53532930791100622e-06
1.09288789691837692e-06
9.11537685178749881e-07
7.69899349892985861e-07
6.33197609147425702e-07
5.93067664812656008e-07
7.7582344130014534e-07
1.02883140253794129e-06
1.3183499495259528e-06
1.55345027266125031e-06
1.70941756566148209e-06
1.88802558416385833e-06
2.29425823371687638e-06
2.61531537724265922e-06
2.5919468912275398e-06
1.9894607375284871e-06
1.19861792271226815e-06
5.70467670796624975e-07
2.19471436864468711e-07
7.25559939686661166e-08
1.82862025460595431e-08
3.79299590873204111e-09
6.76317428623521339e-10
1.14622955175981519e-10
2.74638205682634289e-11
4.40196114984307016e-12
4.41104007906655459e-13
3.72946566107895211e-14
2.7156327671596083e-15
1.68256482670845839e-16
8.7162201085214309e-18
3.68005209753712361e-19
1.21776793389849107e-20
2.96196072130381309e-22
4.68200132323498258e-24
5.39015984132548282e-26
1.89044347413138305e-07
6.21712066800329618e-07
1.00390039120544686e-06
6.53723835617372611e-07
4.8537064822675557e-07
3.42232703168184823e-07
2.84961708299147771e-07
3.09463722171240067e-07
3.73760232603041375e-07
4.64152027556177376e-07
5.67232603232180886e-07
6.4403681379124812e-07
6.88647541007542341e-07
7.51691322507032977e-07
9.17226764279890261e-07
1.05079691824584602e-06
1.0482080413596229e-06
8.09547189882034162e-07
4.90241507441232474e-07
2.34043280381659636e-07
8.95208548141570553e-08
2.90710067391745623e-08
7.56143222295495962e-09
1.66802602780239388e-09
3.05606347544562863e-10
7.28703790769632835e-11
1.55988222041204468e-11
1.9870328417036526e-12
1.97418349596110171e-13
1.68778260746722668e-14
1.24161803551977849e-15
7.7714058301999439e-17
4.06963377061686549e-18
1.73902991966791669e-19
5.83522446510682217e-21
1.44329338582902673e-22
2.33324928091794064e-24
2.43185701780329583e-26
1.95169200762150746e-07
7.40296815575203682e-07
6.76879131116263353e-07
4.01448324402707673e-07
2.52525175173088078e-07
1.73740291210595991e-07
1.56414135366507186e-07
1.69133106334378906e-07
1.89806897645483413e-07
2.21111014785959038e-07
2.55151628256701998e-07
2.77011078754820927e-07
2.87825789824656482e-07
3.10270519848419661e-07
3.72328147940058289e-07
4.21931103504439564e-07
4.17547173128879073e-07
3.21448301524177857e-07
1.94469029700447376e-07
9.27774448685326487e-08
3.55840293546908401e-08
1.15497920595265911e-08
3.05821764986370368e-09
7.08128144538187982e-10
1.66390271257282731e-10
4.24158624587690208e-11
7.10526626898135747e-12
8.41384442589370721e-13
8.40315958799971026e-14
7.25420675013603964e-15
5.38689117747204892e-16
3.40420017820583718e-17
1.80104626325862833e-18
7.78403164076131124e-20
2.64601763064522408e-21
6.64629424748991192e-23
1.09622131107920111e-24
1.04474544493836649e-26
2.23830238980893987e-07
6.60769707673991636e-07
4.73875638043102289e-07
2.61937335095638327e-07
1.40804635241296336e-07
9.90844361202315978e-08
9.40849143659541436e-08
9.4732035940064229e-08
9.93421429114872074e-08
1.07766304430302959e-07
1.16801274679301977e-07
1.21522639578322607e-07
1.22746471313007255e-07
1.30802210319849808e-07
1.52277728432076034e-07
1.68700014962959775e-07
1.63821109837799196e-07
1.24786986615061453e-07
7.50431539146635963e-08
3.56483993838706407e-08
1.3608590745564291e-08
4.43205613252383519e-09
1.22293688805117646e-09
3.19163403255369983e-10
9.2412615642208369e-11
2.0155108125912704e-11
2.90672993071265919e-12
3.39670528248226796e-13
3.41918900335462575e-14
2.97762795271996184e-15
2.23052628703587483e-16
1.42236212238108421e-17
7.59839381939994022e-19
3.31916013320083958e-20
1.14198701894125771e-21
2.90927209475935003e-23
4.88534749084057176e-25
4.30821151359352074e-27
2.15445763193697002e-07
5.7352676907540235e-07
3.14306837809852887e-07
1.60129050180204314e-07
8.39911844185875425e-08
6.47150100022506235e-08
5.91847680127384978e-08
5.47011089223710049e-08
5.3233695668637238e-08
5.36780002122619296e-08
5.44047722182765953e-08
5.41668942919409933e-08
5.29789835073601212e-08
5.56930381803766058e-08
6.23222701001659942e-08
6.68979478660139241e-08
6.32322456990520384e-08
4.73918145718660345e-08
2.82048078566040008e-08
1.33119261423000693e-08
5.06489401303011742e-09
1.69886679310283835e-09
4.99348931211125311e-10
1.89686492490001499e-07
4.6940796651467003e-07
2.15149206079316082e-07
1.06751656653889555e-07
5.47726444726686996e-08
4.57253914492034853e-08
3.85273910114883877e-08
3.22431710478336028e-08
2.84355022667167362e-08
2.66029639696364614e-08
2.55337447143079865e-08
2.44134799194314825e-08
2.29050672300114697e-08
2.37597575417251005e-08
2.53721862063865989e-08
2.62259934036842564e-08
2.39744978370691529e-08
1.76059560155614129e-08
1.03431223634858734e-08
4.84254057078200783e-09
1.89792590099001465e-09
6.44693682261642105e-10
1.93343640450854494e-07
3.94564226680410593e-07
1.63689531098311248e-07
7.05171009633124797e-08
3.92314226966613235e-08
3.25825692393039795e-08
2.52611470686761981e-08
2.17146180965868165e-08
1.78025223920892257e-08
1.46148931053415928e-08
1.2386622743888927e-08
1.1005226291281686e-08
1.02840112888393979e-08
1.00873977296975052e-08
1.02495274157583026e-08
1.01408364336773041e-08
8.92504113232424506e-09
6.40506619960547095e-09
3.7069597094533171e-09
1.74707013049206721e-09
7.1403607192201476e-10
2.91228267397056258e-10
1.8162688937826306e-07
2.51168049701585593e-07
1.08519312626171794e-07
4.29591624847113282e-08
3.07180796433424937e-08
2.36842773040553088e-08
1.94828496819785699e-08
1.53698312770871984e-08
1.14411397215589203e-08
8.53109184959811009e-09
6.56472745048351638e-09
5.3344697883001796e-09
4.62058437956160984e-09
4.26633312264632028e-09
4.09633999535919989e-09
3.86095017203883325e-09
3.26198791698255851e-09
2.28347403670620897e-09
1.32244168058971843e-09
6.54689441868285567e-10
2.98093534431622003e-10
1.42025890080699397e-10
4.91578170011424179e-09
3.45654733949018229e-09
2.58245388324148696e-09
2.07437900823419683e-09
1.80802269062275525e-09
1.63577099925369236e-09
1.45682469996281388e-09
1.18639396514539442e-09
8.4168494534437456e-10
4.95448155525404065e-10
1.24264681440541722e-09
1.00041764013316572e-09
8.34356825489575554e-10
7.12473313012606041e-10
5.97329382688631749e-10
4.61335957610455356e-10
3.10805492722402051e-10
2.06437419756550325e-10
3.47305159123079529e-10
2.45340129822115546e-10
2.00362283648768275e-10
1.66287427337431034e-10
8.42292969002358752e-08
1.21244266682011128e-06
5.79740958590254506e-06
4.92139588963202954e-06
2.5571252427889846e-05
5.5508458351924406e-05
9.22042279357941814e-05
0.000115529047182179345
0.00012010682803607679
0.000113762230985265772
0.000104084163922619363
9.34069261545493804e-05
8.13941320979196935e-05
6.86478800195542392e-05
5.62644749409640682e-05
4.37730751102072477e-05
2.98900399552201289e-05
1.66352767900209154e-05
7.60631608334379577e-06
2.85468006924070726e-06
8.89615717600036733e-07
2.33283536519675966e-07
5.21009445221118033e-08
1.00002391838093014e-08
1.66285114233797287e-09
2.28648293497909631e-10
2.93066659203961458e-11
5.40690249920184517e-12
6.53972450242917955e-13
4.96881230837962364e-14
3.27253975798566396e-15
1.83756521925377039e-16
8.5895648270331433e-18
3.24606742835741643e-19
9.48766094738449466e-21
1.99345836080455677e-22
2.60211652429493527e-24
4.05185993258206509e-26
3.84561189926096494e-08
7.26819749463300482e-07
4.53136423693946098e-06
1.53223297454978813e-05
3.42034363591458833e-05
6.1715746759058508e-05
9.92603465558225133e-05
0.000123224431441680353
0.000133123876749021385
0.000127782782594250855
0.000113693412315835483
8.97963482634035e-05
7.40939691275967324e-05
5.52246519612388664e-05
4.05154797469563886e-05
2.93537548867786072e-05
1.78978709508299653e-05
1.12568093974524889e-05
5.7290472547174168e-06
2.35192802540561507e-06
7.85222944585362366e-07
2.16022745543993652e-07
4.9796692324683763e-08
9.77629389378123502e-09
1.65488930035854458e-09
2.32809199667807315e-10
3.01320454652118127e-11
5.61050164380974473e-12
6.86094572721608827e-13
5.28015808093865729e-14
3.52442440917816725e-15
2.00668984257283267e-16
9.51638813321511609e-18
3.65035308814998522e-19
1.08352146191310754e-20
2.3125585429684068e-22
3.05766527835002677e-24
5.04605713928002469e-26
6.40516326580596703e-08
3.39436046668741807e-07
1.05469323325904867e-06
2.03443977210611736e-06
2.9816069095428769e-06
4.18002816614055548e-06
5.91995523117844018e-06
8.57103030048315435e-06
1.04145428370228693e-05
1.17823707443359305e-05
1.36467857300246801e-05
1.54809336578895276e-05
1.62102363755922079e-05
1.57589395319087007e-05
1.44273197935177057e-05
1.27700142421865737e-05
9.99643062708847254e-06
7.11765323336340564e-06
3.0539890576605306e-06
1.35069887735408528e-06
4.39145690194667118e-07
1.23391033942922249e-07
2.8935127246308699e-08
5.76456032288872891e-09
9.88455683161289815e-10
1.53405253318604778e-10
2.62642451835897865e-11
4.58910766077446841e-12
4.86017197683576905e-13
3.78254479767423868e-14
2.56459162584594429e-15
1.48232089179455594e-16
7.15797627541222924e-18
2.80995961000821613e-19
8.60442025999348589e-21
1.9209997406252329e-22
2.74443945108041508e-24
3.26601884716276784e-26
6.88224295429793802e-08
2.12395684541313408e-07
4.37210598524000079e-07
6.69016572516400886e-07
6.81151415356213121e-07
7.74084900393224452e-07
8.72543933015286962e-07
1.14917907974624404e-06
1.45513283297389004e-06
1.81652626238658782e-06
2.22521828174087645e-06
2.61546015577299568e-06
2.88879258735505047e-06
3.30825821860980528e-06
3.69809011055522303e-06
3.90421424380776866e-06
3.57105017731491541e-06
2.52266942005476707e-06
1.52382292471951411e-06
6.9053000764060562e-07
2.14672545931268994e-07
6.10420461968061661e-08
1.45355348818837098e-08
2.9363340251593679e-09
5.31118513793171739e-10
8.34465365984470242e-11
1.8027113025875181e-11
2.80289871545200663e-12
2.63131546539674737e-13
2.0862884046755335e-14
1.43103142293063803e-15
8.35660395545497767e-17
4.07709495442284455e-18
1.61807920042110539e-19
5.0150018605326699e-21
1.13550493539291657e-22
1.65339655576736054e-24
1.848329653826184e-26
5.86426279642847945e-08
1.59259832374739404e-07
3.00447774123566217e-07
3.76633181076064726e-07
3.38320534072773954e-07
3.09554154738752011e-07
3.13980287242949635e-07
3.11742807520902369e-07
4.10858758669910055e-07
5.67067491509955298e-07
7.50449402211446636e-07
9.23354484462346032e-07
1.05452988748853061e-06
1.17126888145928307e-06
1.37818441082434176e-06
1.536590812925217e-06
1.47600497567951892e-06
1.07558729894541053e-06
6.08679270849570414e-07
2.72692704294075285e-07
1.00187630742857058e-07
2.77888840223475392e-08
6.7119035197606672e-09
1.4061610464719487e-09
2.67036044550703461e-10
5.41240695368761283e-11
1.11781135603986284e-11
1.4377505896241838e-12
1.33329933067483962e-13
1.07270504338910735e-14
7.44242867544741643e-16
4.39444824331275145e-17
2.1692641371442668e-18
8.72194604217969191e-20
2.74451420501892848e-21
6.3308083008000489e-23
9.45480487453899433e-25
9.54266131234053173e-27
4.39134750615129555e-08
1.24297618402756129e-07
2.13476079548615664e-07
1.91060966781770331e-07
1.53740946453256849e-07
1.38327705816755498e-07
1.15802289449569192e-07
1.04586336024576855e-07
1.42837292521600981e-07
2.00056810979332851e-07
2.68353339988220932e-07
3.28919649321164408e-07
3.74274611792780143e-07
4.2237137396927986e-07
5.22032620315681766e-07
6.00589678685354531e-07
5.93769208938849878e-07
4.4122198641719113e-07
2.53359274969471772e-07
1.13782449970316336e-07
4.09555735639773391e-08
1.19137836290508566e-08
2.95179813534502298e-09
6.54227129924767674e-10
1.342205969482992e-10
3.3991041359654166e-11
6.05048506394497586e-12
6.75626297152190225e-13
6.34053392872864095e-14
5.16230727787080423e-15
3.62025748385898305e-16
2.1610253978398456e-17
1.07931718758981237e-18
4.39677285771892879e-20
1.40480708211160353e-21
3.30163158555244288e-23
5.05769421208182788e-25
4.58569979649746705e-27
2.84046193982841128e-08
1.02481444739832655e-07
1.4913267517320159e-07
1.07323469893332729e-07
7.81818507837646055e-08
6.34244521613605155e-08
4.99049627823724277e-08
4.68088794998590538e-08
6.2284653720308497e-08
8.29981039921670561e-08
1.07229770926955218e-07
1.27129665399788066e-07
1.41375690530160193e-07
1.60793119033256721e-07
2.01044835329798176e-07
2.33990304852253539e-07
2.34019303154605072e-07
1.75533621598488563e-07
1.01595670327833262e-07
4.58978124888614703e-08
1.65417912062627198e-08
4.86807944542985011e-09
1.26845248406901184e-09
2.94525434551224685e-10
8.22583173729962754e-11
1.91551510020386131e-11
2.7196816986972129e-12
2.99334807061731758e-13
2.8411524397753563e-14
2.33794254139718924e-15
1.65641449086448807e-16
9.9919855377455158e-18
5.0468852453281546e-19
2.08169678787193099e-20
6.74708190350465107e-22
1.61313893195256116e-23
2.52730400783362799e-25
2.09200188460223415e-27
3.29770758680936659e-08
9.51868279067078991e-08
1.03586168518755309e-07
6.46380929769766843e-08
4.35759013651918801e-08
2.97141066682450027e-08
2.21357962819195458e-08
2.46398151286392625e-08
2.99746498594171242e-08
3.73369925374982525e-08
4.5585703873613268e-08
5.17051731260054461e-08
5.58423985535789774e-08
6.32751905317210848e-08
7.84316697479166996e-08
9.08756104414229626e-08
9.06625211075850482e-08
6.8020866104104281e-08
3.94444427006701614e-08
1.78595255082236659e-08
6.45909907091925073e-09
1.97280599358239522e-09
5.34922982464672511e-10
1.65239815317924742e-10
4.7004858537452692e-11
8.68213778955635115e-12
1.14037588211776081e-12
1.26075024099805941e-13
1.20902352991037837e-14
1.0046877137998832e-15
7.18764541214214325e-17
4.37959148963015887e-18
2.23595336934849043e-19
9.33210140124141869e-21
3.06546654364854872e-22
7.44564184475601665e-24
1.18992968037013961e-25
9.37016200267405321e-28
3.85492556561040068e-08
9.18232739405965495e-08
7.55956637943444068e-08
3.89742607794073776e-08
2.35429978005726178e-08
1.44204940254624057e-08
1.20615104051755717e-08
1.33304676995167539e-08
1.50580721865224995e-08