/*--------------------------------*- C++ -*----------------------------------*\
| =========                 |                                                 |
| \\      /  F ield         | OpenFOAM: The Open Source CFD Toolbox           |
|  \\    /   O peration     | Version:  2206                                  |
|   \\  /    A nd           | Website:  www.openfoam.com                      |
|    \\/     M anipulation  |                                                 |
\*---------------------------------------------------------------------------*/
FoamFile
{
    version     2.0;
    format      ascii;
    arch        "LSB;label=32;scalar=64";
    class       volVectorField;
    location    "0.119999999999999996";
    object      U;
}
// * * * * * * * * * * * * * * * * * * * * * * * * * * * * * * * * * * * * * //

dimensions      [0 1 -1 0 0 0 0];

internalField   nonuniform List<vector> 
7236
(
(0.498589897754614819 -0.0215222741912991684 0.0759803095861499023)
(0.695243948727722771 -0.0200210817159876195 0.128073732224048775)
(0.872166228886752437 -0.0145483057333752122 0.211998730564671695)
(0.996996939519003367 -0.0137720574210981692 0.283894598198375037)
(1.14994430497384004 -0.0160974299033743197 0.348150028246519527)
(1.30263395326547848 -0.0201882676013657135 0.38811218518160967)
(1.41963063702400305 -0.0219812027044662857 0.414241883054105586)
(1.5013892570033418 -0.0232359229911318528 0.429995987506533339)
(1.56330873488764577 -0.0233945791737184723 0.441531873967670685)
(1.608382356382273 -0.022367900119076637 0.451405666114526927)
(1.63801469155343637 -0.0183286773616122417 0.462379383362054197)
(1.6407847416738266 -0.013767751484732622 0.475180487019318254)
(1.61044748042007058 -0.00674521664332697769 0.488661445749847934)
(1.52769306823312001 0.00859225346484263595 0.502392355770936105)
(1.38167177944095343 0.0300754291053267273 0.516145497817513066)
(1.17018782892547346 0.0523844670422247485 0.524121505528312381)
(0.894081387393280136 0.0687668834243488486 0.517564137220757559)
(0.63411916862703388 0.0632635360495369115 0.488010536958246033)
(0.445032444592427856 0.0476041144058298726 0.435953786609639349)
(0.322793933841863501 0.0333689685931366636 0.366058959737603606)
(0.253553052892579844 0.0223554190417245974 0.289559103375009841)
(0.214771015312447189 0.0147787077472034591 0.219860746417455899)
(0.188716461230133664 0.0106469181803605095 0.165011013927784028)
(0.165911784964839937 0.00831216946609542387 0.125237858274840713)
(0.145709978603001611 0.006673521409390714 0.096521292272892939)
(0.12801157047359063 0.00545257843348139273 0.075169417634372071)
(0.112451458742466329 0.00455963859550716395 0.058960254795857002)
(0.098601112147265163 0.00390520714886884775 0.0465302002465423914)
(0.0860882133348083445 0.00341543713139168693 0.0369402807520798487)
(0.0746717076532665003 0.00304386705891577982 0.029512966941762666)
(0.0641397134792284357 0.00275961283280654968 0.0237538096232928833)
(0.054320768567428443 0.00254089138126188099 0.0192963823475369098)
(0.0450741307418370471 0.00237251810101448638 0.0158682904717976359)
(0.036281422913034482 0.00224397632636821279 0.0132669375135143295)
(0.0278408536039810757 0.00214794023553659987 0.0113425592423770615)
(0.0196660914371212941 0.00207119604557227596 0.00998666964110779543)
(0.0116895971908184907 0.00200896412535385037 0.00912331405615304965)
(0.00386659440826221017 0.00198278225095143562 0.00868681605188247573)
(-0.077960508622285804 -0.0354383771154716115 -0.253439486404075376)
(-0.131387957992358057 -0.0179610342086257424 -0.243725844197411362)
(-0.0910950496345683258 -0.0356499122389669007 -0.136655425373346601)
(-0.0267850583679497024 -0.0858499177074417835 0.0114375055442475226)
(0.0861582998326911043 -0.11228360866344958 0.15086559232965116)
(0.176978169382603912 -0.119104268342255987 0.205307942427163159)
(0.233587875964257868 -0.102619781086159823 0.233502290731798012)
(0.270793871040997058 -0.0870585378683298439 0.244171281408591345)
(0.339830436682736936 -0.0682103728209275117 0.247844137773693268)
(0.43556382490168688 -0.0481474093347417989 0.263901590034909539)
(0.536959062182447822 -0.0211747604486723362 0.295035126913814505)
(0.624235859596618425 0.00814895286689066439 0.333501492748279837)
(0.713009441919879583 0.0412645334202567729 0.37423839739183512)
(0.783255444827892333 0.0778595820081525863 0.411057377542176694)
(0.828956706147474964 0.116040535137090978 0.444980461329245292)
(0.83543055541936595 0.15556921745354016 0.473553887628843151)
(0.778231784457229181 0.173849601597700354 0.48497214888417034)
(0.655435222785195948 0.165720188349884806 0.471284337830061795)
(0.508913023362755457 0.139449790751007163 0.434795618524781768)
(0.380386183166529279 0.107569691850899013 0.373467464395950854)
(0.290414825027169921 0.0767656385945217762 0.300271830833807984)
(0.232628062299517935 0.0519331109421902123 0.229220891167333352)
(0.196015496244028031 0.0359558631971577253 0.171161957781156754)
(0.169537231546119604 0.0265512905578234454 0.128663411716608445)
(0.148113207826749277 0.0206462801386603431 0.0983569217364390624)
(0.129902249681772247 0.0166489837103538513 0.0762474844971568477)
(0.11404971943566336 0.0138370798836117866 0.0596754744850215846)
(0.100019201212800016 0.011808405059737296 0.0470427621322061368)
(0.0873776421001564441 0.0103110089330710718 0.0373227292754749751)
(0.0758379348328444419 0.00918288904688575013 0.0298054473656671343)
(0.0651847974267788094 0.00832183431455375995 0.0239812899585499159)
(0.0552471774343813796 0.00765979857036067774 0.0194757208008964448)
(0.0458847982753944894 0.00715034572384920172 0.0160112259828297625)
(0.0369797123322633398 0.00676155015431170042 0.0133818760140831071)
(0.0284303111354143219 0.0064713396067351027 0.0114357484795760377)
(0.0201494108557255143 0.0062639564084250119 0.0100628690486005805)
(0.0120248371825659867 0.00612621144218849015 0.00918668087169375452)
(0.00398113138511444267 0.00603233455868392408 0.00873974502434457338)
(-0.0786882232662645814 0.0684503946088387272 -0.565728559690877875)
(-0.207707742731324085 -0.0119435699870279882 -0.27809020335750867)
(-0.185618927037126374 -0.0474641505087634724 -0.133908432892097723)
(-0.149716148786916498 -0.0857218863378454293 -0.0111837647685879699)
(-0.12322761178804767 -0.0975842953370704841 0.0624803116208410975)
(-0.110613749215515422 -0.0859960425929139904 0.0937495067598956844)
(-0.103392872134272992 -0.0693627769843139785 0.115025079861608981)
(-0.0849442255933961082 -0.0692477232597458608 0.133983568074595882)
(-0.0632615977107552352 -0.0674632982324239322 0.156298331683031533)
(-0.0244883575055435676 -0.0538212694500213723 0.187951716911390565)
(0.0381994358489032848 -0.0299773699724973641 0.223655394717182709)
(0.0980773228438253375 -0.00398207601410689727 0.263517960533454942)
(0.142654880699332964 0.0316807000641651931 0.30222674709204056)
(0.182354879036071393 0.0731622447681204574 0.338393518534785775)
(0.232636010529763876 0.12034526559807901 0.370291150681072878)
(0.293821718175036495 0.169552627497934094 0.396682448447158664)
(0.350930510580926336 0.209403246574622365 0.411276822857213786)
(0.362143302229040787 0.216222207015326323 0.404143119774647286)
(0.332832861593883977 0.199086777362892431 0.373837286108682276)
(0.286333058800994522 0.164201968352948258 0.326074132218510837)
(0.243567869925030323 0.123443718136421757 0.268321127258987102)
(0.210508553934063924 0.0870317388955529347 0.210344055905053645)
(0.184632290652357006 0.061044192025059188 0.160903626428999635)
(0.162867727045933802 0.0446258585212594427 0.123052257561839282)
(0.143883687748265376 0.0343679874362557286 0.0950864960060284481)
(0.127100154886352235 0.0276345529180023475 0.0742169848004006205)
(0.112117640852155004 0.0229754387169722185 0.0583570679407959952)
(0.0986131575656045978 0.0196273306958399847 0.0461594905930714228)
(0.0863201938371421784 0.0171567724635557778 0.0367165311200082223)
(0.0750230214100443688 0.0152955599046405884 0.029381045463311925)
(0.0645440444636936617 0.0138734086990341971 0.0236786434282092381)
(0.0547349389585956789 0.0127783525961765437 0.0192562273421026942)
(0.045469860383346182 0.0119345820795699296 0.0158494805527358146)
(0.0366404157012985496 0.0112899831307760497 0.0132606983787855164)
(0.0281518401897925576 0.0108086019236935862 0.0113431954808347855)
(0.0199206715300882797 0.0104667022304385845 0.00999036923991169536)
(0.0118730846427882383 0.010244787997473255 0.00912803732030219306)
(0.00393908480501011567 0.0101116190893018876 0.00868919917273299619)
(-0.0831220286534098546 0.0973975916090456389 -0.682200778996478907)
(-0.279761435231458799 -0.00549481170713427003 -0.26455826917655928)
(-0.270291545629073093 -0.0428609194730710241 -0.118810264410539101)
(-0.256465855276109655 -0.0620366820350524845 -0.0294797864937134321)
(-0.234976806341830213 -0.0613090094882154518 0.0342568215331260501)
(-0.224984880375754842 -0.0559786588272167956 0.0711934666024550966)
(-0.217748362466554879 -0.0476196681242594261 0.0942510203211893716)
(-0.203423843981538954 -0.0428407451702595907 0.111171269650989113)
(-0.188044136553855656 -0.0371850270195081267 0.133633191180498268)
(-0.1662577838968059 -0.0257652886906273582 0.165028205366800684)
(-0.137707082598623493 -0.00333163902299200843 0.196379894830596424)
(-0.104829024851227123 0.0253647281181373085 0.227135307546543985)
(-0.0732471291094484861 0.0588192390776635793 0.25620585477698099)
(-0.0391021819986231006 0.0963643817454894885 0.289131745541635787)
(-0.00118675624547909253 0.134684586249840477 0.315753575836345945)
(0.0507837799894014508 0.175623391528752226 0.335252007846212563)
(0.11229863271994496 0.209975622698815562 0.344539555713276602)
(0.161270154517341002 0.22578689114135081 0.337664237787379085)
(0.189285443108898693 0.217670171870274015 0.314171847004110827)
(0.198258246394971666 0.187422844191614896 0.278147167669920314)
(0.195242046047438528 0.1474140499801328 0.234629440324383154)
(0.185301993059048764 0.109057423825463101 0.189788440001595171)
(0.171037107634931296 0.079582613595059068 0.149568835925784821)
(0.154916854840092072 0.0596490273631722773 0.116899344178820294)
(0.138854301410387293 0.0466054428689517269 0.0915509463086372349)
(0.123729912274788231 0.0378178736756483308 0.0720360842947440905)
(0.109762180158091888 0.0316422718454758764 0.0569410124299215628)
(0.0969115794348760773 0.0271543095739268311 0.0452083931295619579)
(0.0850600711269896698 0.0238128744838181153 0.0360614880442721164)
(0.0740729043662540221 0.0212795369861486748 0.0289204678372196218)
(0.0638192991118097935 0.0193346525907386151 0.023348625437004826)
(0.0541792324980135478 0.0178315696770004715 0.0190153727235984615)
(0.0450448133424039138 0.0166700679498539457 0.0156702354160055991)
(0.0363195598887940119 0.0157806654819881431 0.0131241812963300546)
(0.0279169965262879294 0.0151149512667222586 0.01123605062998141)
(0.0197588131275287064 0.0146396259122036076 0.00990277050590834124)
(0.0117763450162735057 0.0143297116516995053 0.0090524755869268534)
(0.00391043673983620249 0.0141533487779876288 0.00861989892926974186)
(-0.100536663133840465 0.0914647528992820341 -0.720467675945345221)
(-0.33487381287085477 -0.0034594557392861533 -0.252099056399484989)
(-0.314876556593834289 -0.0364966673110798806 -0.111994222687402306)
(-0.300543414783089546 -0.0534786244289123108 -0.0277603226835059641)
(-0.283050105718913536 -0.0532122486082018398 0.0304988823616804405)
(-0.264648531965727241 -0.0438549536968613624 0.0718288266504437806)
(-0.246772667394570877 -0.036314231293886487 0.0960471343589979071)
(-0.228985652488463143 -0.0311186208975339287 0.114812169805396547)
(-0.212258551352268732 -0.022380155911115418 0.135965672467996845)
(-0.197087670080788702 -0.00729358091993576041 0.160738593496581095)
(-0.181229230113859219 0.0157407803897768594 0.187784596991008801)
(-0.15731213857667764 0.0449204095629708727 0.212200608390644613)
(-0.132003472199779648 0.0781089134898205473 0.233342194044847406)
(-0.10250629928806862 0.11381021744450201 0.255290743141283527)
(-0.0662006963252989578 0.147350629097019403 0.275518656938880002)
(-0.0242213248778324619 0.180046866358850893 0.29030988904237387)
(0.0250818658789842691 0.20779914133445912 0.295842307959927164)
(0.0757348526123312882 0.222044306403934216 0.288729329134712442)
(0.118475614633293702 0.21598379259830891 0.269540765592337861)
(0.147763638748292625 0.190965642629680799 0.241176661976204965)
(0.162462840746444737 0.156088229064752171 0.207172220629494586)
(0.164625721137936443 0.121099498748862056 0.171605191436347171)
(0.157881318166702644 0.0925071310823918358 0.13850335220042212)
(0.146339967321404085 0.0717554581377045225 0.110312699197541567)
(0.13307769805257319 0.0572952683632202558 0.0875090269760467471)
(0.119707477758313696 0.0471156785462309019 0.0694445979527394952)
(0.10687816649387169 0.0397638560981516398 0.0552198560035454394)
(0.0947930638028836037 0.0343266736371805326 0.0440347773532465403)
(0.0834734285673665311 0.0302284715313155782 0.0352441028780955193)
(0.0728673995696624555 0.0270939894576769161 0.0283407036821112339)
(0.0628950587793428856 0.0246721306149015537 0.022930390865370482)
(0.0534685017148523178 0.0227914258067591705 0.0187085179596377556)
(0.0445008130718758249 0.0213328411614978307 0.0154408790184180703)
(0.0359096755749709895 0.0202128460989584868 0.0129488308485424912)
(0.0276184692536605228 0.019372610654349573 0.0110979337089983018)
(0.0195554428740923464 0.0187709527895537458 0.00978946892060245447)
(0.0116558950579593694 0.0183782394791912086 0.00895437817466021059)
(0.00386980002796713865 0.018147056476333568 0.00852906807737405237)
(-0.116502289706286788 0.0724339260237382987 -0.722760211275321751)
(-0.37063701088267309 0.000436097896670789575 -0.243947648797825184)
(-0.334086971122841359 -0.0279135248488791461 -0.106869941704655247)
(-0.321491369588910836 -0.0406998666526110775 -0.0209647310172907803)
(-0.300809313326768801 -0.0390041121265493618 0.0397140144729675321)
(-0.27903765700127614 -0.0325843459150026785 0.079613960762840677)
(-0.257510295287972812 -0.0257029405321885437 0.105021723989233859)
(-0.237195348989226895 -0.0181851017861857471 0.124093541498135396)
(-0.218930062139217202 -0.006821687965688078 0.143653907428257455)
(-0.201261476819301899 0.0104924841667983354 0.165166723945229521)
(-0.18302772925667779 0.033903391158917065 0.187496263731930152)
(-0.161995749555816138 0.0617975932973842262 0.2069269759763534)
(-0.13831292511131138 0.0924009913602381605 0.222333811014659571)
(-0.111300970173405053 0.124377833019914549 0.236104824510066952)
(-0.0795250742925215776 0.154689281488449459 0.249596218745608389)
(-0.0411046771438172559 0.182592109198950858 0.259143097999894378)
(0.00216281878916224635 0.204646030402473977 0.260976824367372351)
(0.0477766740652574087 0.214709867998532616 0.253165335634660038)
(0.0896686093278775964 0.208662345880453903 0.236367431614243562)
(0.12192666752356765 0.187730666315019445 0.212815018244787907)
(0.141303756578311818 0.158352576966206859 0.185032142432151603)
(0.148242816819118883 0.127954354413034155 0.155806981850240001)
(0.145735585781289312 0.101770323987791095 0.127972981685870763)
(0.137582851883138985 0.0815052665493792294 0.103497400111024623)
(0.126800573618065904 0.066518140758788924 0.0830743193181997519)
(0.115161296660070828 0.0554898290615308959 0.066499547414010346)
(0.103531744731556297 0.0472855365783191733 0.0532214298570957908)
(0.0922889728611272775 0.0410957968353738712 0.0426522643231901435)
(0.0815726732762133838 0.0363642243749741773 0.0342711049738554374)
(0.0714087233266084143 0.0327081072612676674 0.027645082924240498)
(0.0617680912203287524 0.0298617722351752421 0.0224255107272849016)
(0.0525966124894474349 0.0276388681951552292 0.0183363223133186058)
(0.0438301999826594957 0.0259074863961936963 0.0151616240839117962)
(0.0354023327448512656 0.0245736865800074387 0.0127346741776181126)
(0.0272475776984159972 0.0235705287061489833 0.0109288370743532218)
(0.0193020666310395848 0.0228507268862876423 0.00965050557626329422)
(0.0115071539186631343 0.0223811132481289421 0.00883390981949003749)
(0.00382033557710572454 0.0220993075871409109 0.00841746298477325829)
(-0.132281781527771453 0.0432555273440528992 -0.757258274335171455)
(-0.396366304919773871 0.00174586148471681663 -0.248250682789515037)
(-0.350141063422997001 -0.0209474043876443777 -0.0996467225010098795)
(-0.337976341601802288 -0.0308221567166022982 -0.00783496657039071953)
(-0.312057437469500432 -0.0301067495504459617 0.0514458643202399257)
(-0.284685413178013935 -0.0236614647013370753 0.0900947283564334511)
(-0.258796559335975507 -0.0161202709390605263 0.115512918745396403)
(-0.236792882234022922 -0.00715118789711327585 0.134971062221072441)
(-0.217249453123864761 0.005960148995379555 0.152966891382302905)
(-0.197762196897849407 0.0247982344639305907 0.171240308454274404)
(-0.177318539377510687 0.0487094834324164061 0.188789756522275809)
(-0.155240497509877562 0.075713268769067768 0.203528258850828619)
(-0.131188460055839812 0.103755269622117896 0.214978935194665322)
(-0.104434393386382648 0.131819516942514814 0.223953030141063852)
(-0.0740368743706385501 0.158653494207296492 0.231841624727493506)
(-0.0387494179266177144 0.182506888346891355 0.236248762054675071)
(0.000132525361821969612 0.200007749966356174 0.234606766373869208)
(0.0403674186758666773 0.20685307167788039 0.225819631875401244)
(0.0776456986627211132 0.200739921530510457 0.210415068664495164)
(0.107263591917709331 0.182972048713604563 0.19004619580187887)
(0.126314054020420258 0.15828180757398666 0.166534862345980694)
(0.134729779138373168 0.132132034517938812 0.141858826711667635)
(0.134631683455934625 0.108583740997352407 0.118064059359510587)
(0.128979159379496694 0.0893531486384778195 0.0966921959796153141)
(0.120308763686475417 0.0743965464675138966 0.0784401850967368364)
(0.110284494262840968 0.0629445879269573821 0.0633237239371320509)
(0.0998468576562333843 0.0541777103731140575 0.0510189864611276245)
(0.0894788335592968109 0.0474265694420310802 0.0411046267663585096)
(0.0794095531063432614 0.0421878026546838175 0.0331691782902023141)
(0.0697311868309918731 0.038094352827284933 0.0268502566857463515)
(0.060461615637105344 0.0348807287488692302 0.0218446054118368663)
(0.0515795770404803289 0.0323549920252352713 0.0179057043770615813)
(0.0430441797457122022 0.0303782036684923998 0.014837078813808021)
(0.0348054455802868992 0.0288497409049850821 0.0124848589607954169)
(0.0268099535961669987 0.0276969803582448187 0.0107309796454727602)
(0.0190026630550776052 0.0268681799573085578 0.00948751118551604926)
(0.0113320606578249904 0.0263274393659110005 0.00869235222997517994)
(0.00376259793498880547 0.0259961257710852392 0.00828622894223537965)
(-0.144608900704399301 0.0101816089704226502 -0.747474770944765554)
(-0.411179604213781247 -0.004587816039021652 -0.246454583808252414)
(-0.362714664840686429 -0.0181038540481562628 -0.0877357856002519698)
(-0.345256032471043139 -0.0246094950015055894 0.00570747994213234577)
(-0.312926291159920544 -0.0229249088545052451 0.0631358764392924016)
(-0.282620259283122899 -0.0166146499676770691 0.100800694271276609)
(-0.254478715726670301 -0.00853882691197752064 0.126464816704700722)
(-0.230019397116031477 0.00207689842800513891 0.145770585314677098)
(-0.208294400857467671 0.0169120015273493615 0.162147460974173346)
(-0.187266229127536599 0.0365200833407123698 0.177102500491015558)
(-0.165633074176888051 0.0601193827014837728 0.190272911412807)
(-0.14283741288697277 0.0858297835805814924 0.200754307427277734)
(-0.118606187573484748 0.111872189314560735 0.208538446775790531)
(-0.0925472452386690153 0.137055965818748904 0.213899700145966404)
(-0.0636935641913109474 0.160606342738031732 0.217356829712149757)
(-0.0314495413100671292 0.180704736029042246 0.217600713496681974)
(0.00335351988099293064 0.194584874867922419 0.213187943527177931)
(0.0386362994596377643 0.199251322822732224 0.20354704616944852)
(0.071051729239717476 0.193345559530411326 0.189101091201118399)
(0.0970665610821723618 0.178175672912263355 0.171022388753585719)
(0.114499014004632027 0.157288114681195246 0.150642876402809656)
(0.123168721236890905 0.134726035797853166 0.12940855942916607)
(0.124518104322583978 0.113648077348605769 0.108819517502185992)
(0.120726642780742729 0.0956612537933786977 0.0900616996921358715)
(0.113811661838858325 0.0810802947410416974 0.0737567842741927437)
(0.105238856695028304 0.0695237623112778536 0.0600223529477431073)
(0.0959376353936916976 0.0604392663476902084 0.0486802735189759)
(0.086440782461515403 0.0533016180839874648 0.0394345989243801362)
(0.077037280390588686 0.0476777206047676871 0.0319653606054785822)
(0.0678712511860656564 0.0432319057079266766 0.0259735373078860271)
(0.0590008824457042905 0.0397103793729467885 0.0211989296668199136)
(0.0504350611541109148 0.0369235900153641536 0.0174241056966527169)
(0.0421551878656385368 0.0347309664022020168 0.0144722592578942176)
(0.0341277669058931143 0.0330287854110131729 0.012202848003950436)
(0.0263116907068043082 0.031741112277538161 0.0105068311064582306)
(0.0186612624683981584 0.0308133374694443685 0.00930233150694240694)
(0.0111325976823954311 0.0302076401504185396 0.00853118736936940916)
(0.0036969848588764339 0.0298289293952611403 0.0081366817647894954)
(-0.151377488648542197 -0.0131935509247550087 -0.717465620539654791)
(-0.416357459899938886 -0.0137539356320970502 -0.232979269792839228)
(-0.368562366537672659 -0.0180239529629144662 -0.0722346976932502632)
(-0.34726508139141915 -0.0207356531125079471 0.020315800292332889)
(-0.311921197526616012 -0.0179866459762654321 0.0759380210093027197)
(-0.279596745027338722 -0.0111996771282174105 0.112548805852732664)
(-0.249924284147947012 -0.00172895808282599178 0.137322142686016446)
(-0.223323265134795945 0.0108283000137733426 0.155523136899090697)
(-0.199360120626301235 0.0270754198229276044 0.16981232367993257)
(-0.176721006693894039 0.0470210847400637996 0.181522344688938048)
(-0.154096420758410901 0.0698450995815405873 0.190868619615175844)
(-0.1307059019685822 0.0939939566610739075 0.197638803570763494)
(-0.106349175280497171 0.118050244932507487 0.201992095375526398)
(-0.0807850116253897577 0.140797152032796025 0.204126853544670694)
(-0.0534222784667974723 0.161386353875569183 0.204105421719612851)
(-0.023917030701487707 0.178229843434009355 0.201268993039285055)
(0.00713823953331356453 0.189223480019273721 0.19487389538653066)
(0.0380271689236444735 0.192328590710416136 0.184667887422584082)
(0.0661524274586282601 0.186779004972802892 0.170999364471788817)
(0.0888758559239549578 0.173743784705114646 0.154698877647292038)
(0.104585303687480966 0.155899480150264336 0.136750443060780297)
(0.113076782958460242 0.136296208964136883 0.118230022292102305)
(0.115323247598948617 0.117421957987923958 0.100245829227823546)
(0.112920799935364802 0.10073949933968844 0.0837057175818757132)
(0.107446359875855879 0.0867402593649321957 0.0691284884905094266)
(0.100148577103601893 0.0753077669800816391 0.056676695851038128)
(0.0919009567068344441 0.066101036033576574 0.0462623906963516296)
(0.083245837422592367 0.0587270175230513725 0.0376806369269376551)
(0.0745067081387244395 0.052828591606983645 0.0306851651360356657)
(0.0658650553122960974 0.048110525546557377 0.0250318468828029488)
(0.0574115461494626167 0.0443388469391769388 0.0204997857566880069)
(0.0491813262945143964 0.0413326795989643198 0.0168991632594152653)
(0.041176247526639162 0.0389543265296067101 0.0140724098615104404)
(0.0333785228677432808 0.0371000852449148016 0.0118923201164565263)
(0.0257591872905532683 0.0356928590284923478 0.0102590469587564327)
(0.0182820514972505122 0.0346766330246663784 0.00909696683517560549)
(0.0109110309653316015 0.0340124947930512539 0.00835202909253997434)
(0.00362413284389625796 0.0335891706474088225 0.00797027445171703298)
(-0.153685584083594423 -0.0239912209469752766 -0.679633053358557504)
(-0.415868979896574953 -0.0178295552525202308 -0.211352911791618969)
(-0.371201338114416857 -0.0184548909790824556 -0.0540200685205906722)
(-0.347474898701051083 -0.018070183573382477 0.0359857996939233205)
(-0.310587947307338685 -0.0138421305499210629 0.0893256282643091898)
(-0.276874421379310343 -0.00583900007184610242 0.12392893830906157)
(-0.24480219601354844 0.00499923950602259443 0.147332273410154646)
(-0.21591887015236591 0.0190803775850610091 0.163692652699577279)
(-0.189858065749655913 0.0363583277292707022 0.175491769745046405)
(-0.16575859430034684 0.0563897128028790634 0.184148535937128488)
(-0.142392075073711544 0.0783551480410356466 0.190139912567238945)
(-0.118901096115041516 0.100984099375360806 0.193644586910058009)
(-0.0949275636231475817 0.123073125247147377 0.194932836884366995)
(-0.0702108324187375732 0.143547128897093867 0.194233347266894341)
(-0.0444095632253914963 0.161497824478196078 0.19151529532789599)
(-0.0173872117843395374 0.175602975590214039 0.186470350789886052)
(0.0103501403445397239 0.184303312721438378 0.178741404973020324)
(0.0374587794756205128 0.18625445233971441 0.168249400395666382)
(0.061965265552113416 0.181075996572413273 0.155285544285868105)
(0.0818956961892490787 0.169757635907452464 0.140448774757818223)
(0.0960368329744678839 0.154341400425016262 0.124469783467297215)
(0.104174541894558215 0.137171952688652399 0.108153704346099083)
(-0.155547648523392007 -0.026144786735719492 -0.630811558514996706)
(-0.414649977857632468 -0.018585707325657095 -0.183445982461585555)
(-0.372259847151971357 -0.0185572268602889855 -0.0323487947341957877)
(-0.346908696753987111 -0.0158051482740051256 0.0523576351777183258)
(-0.30881529468469282 -0.0101582412926067116 0.102659043767008115)
(-0.271999433431381388 -0.00102546702478575891 0.134799699808144519)
(-0.237846601003682462 0.0113717577730368877 0.156176277458841939)
(-0.207202875233915729 0.0268227767547824444 0.170218911599760048)
(-0.17985188323265755 0.0448374114145069017 0.17936225770154135)
(-0.154830881179182561 0.0648215493229308826 0.185073458883401848)
(-0.131062253652250105 0.0859447738160079577 0.188034524028875299)
(-0.107764176554508387 0.107101699615641976 0.188646520148599339)
(-0.0844728353767133372 0.127294340627008923 0.187295819572564082)
(-0.0608701054280489165 0.145619367955620971 0.184230733401730629)
(-0.0367096758622761504 0.161215052825358446 0.179460812114089957)
(-0.0119818508517722661 0.173014797331160902 0.172864494762606985)
(0.0128572811623426375 0.179890380877338163 0.164288009906846472)
(0.0367620914483648836 0.180976569742233251 0.153735392931552139)
(0.0582452532408986104 0.176130200321022029 0.141448950957014097)
(0.0758244386904970147 0.166183775588455651 0.127866434680450169)
(0.0885718301442168232 0.152720798100481114 0.113530446134229773)
(0.0962760002878817467 0.137566907654318893 0.0990445592065537506)
(-0.157724077902560017 -0.020145820402803688 -0.573216440671558303)
(-0.413893140884768751 -0.0170228598167538499 -0.149159085359073545)
(-0.372949569694168204 -0.0180314124216655325 -0.00755020725481958532)
(-0.345541162270718683 -0.0143597099067656834 0.0698032685115969331)
(-0.304534820183435417 -0.0076165156381617985 0.116101672948531326)
(-0.265692738112839499 0.00313714606663242218 0.145296625726882483)
(-0.229885746353141351 0.0173135751523579851 0.163899928519791488)
(-0.198037550616052604 0.0340776970313676278 0.175195365213012544)
(-0.169781644704851908 0.0526652403098777089 0.181554876933899934)
(-0.144228591936809675 0.0725107805508216907 0.184429328343572813)
(-0.120376143623681375 0.0927463625156659116 0.184637336608305752)
(-0.0974757140953594614 0.112453074409397336 0.182745140919220062)
(-0.0750219424354653108 0.130837881502788522 0.17919238200752205)
(-0.0526508143844801393 0.14715770442216905 0.174231318519705691)
(-0.0301471693347816969 0.160665349969080634 0.167934664742241668)
(-0.00754479003342419657 0.170525768641118486 0.160279193560877276)
(0.0147590977236290652 0.175940630736351189 0.151212016161790225)
(0.035949388002414838 0.176367911583439896 0.140769705688676944)
(0.0548991212283892888 0.171807646329313224 0.129148261499216072)
(0.0704889991666790422 0.162969274283988386 0.116667980929500648)
(0.0819998411687159201 0.151083300305967394 0.103731231923349432)
(0.0892342712629237977 0.137611204419997163 0.0907887638656459384)
(-0.159494036396957417 -0.00521079121234387099 -0.507511577208372366)
(-0.413173321564419327 -0.0126531040046783377 -0.109039408796053949)
(-0.373888985153974507 -0.0169016936563509239 0.0202977404083952706)
(-0.342618047302570228 -0.0137865367538116262 0.0889362710470499029)
(-0.299284212730571819 -0.00580605599865419153 0.130049908962783622)
(-0.258409041397894113 0.0069898451644211379 0.155198835214118508)
(-0.221259521622599709 0.02291280315187956 0.170396992270934883)
(-0.188535084871786635 0.0408244582518167698 0.178663093464454331)
(-0.159750895517654035 0.0598977037026501291 0.182182885826728286)
(-0.134001548685993288 0.0794641065043360517 0.182362998633217033)
(-0.110345114995036797 0.0987450331302058559 0.180132932670539508)
(-0.0880406935887841496 0.117051430159775829 0.176127623430241492)
(-0.0665287818316317447 0.133755514426209338 0.170782108844206915)
(-0.0454294702689955893 0.148243775490426194 0.164353385025871823)
(-0.0245427570378532328 0.15991531837627293 0.156954702387871653)
(-0.00389804495445364441 0.168146288146247158 0.14861102721678221)
(0.0161788792703956644 0.172384573323975915 0.139314037673887781)
(0.0350530724440734007 0.17230207222050406 0.129105545002898781)
(0.0518650766176806666 0.167993156142218519 0.118137348985235008)
(0.0657530156839097879 0.1600476549274297 0.106641336083052651)
(0.076162983380634236 0.149470797999953525 0.0949133399668511818)
(0.0829210377414937999 0.137414206650424697 0.0832901113982072588)
(-0.124153457830825292 0.0857012870425908069 0.179081395446562652)
(-0.100952866104755179 0.103995620610569495 0.17474683828249063)
(-0.0793853908393024471 0.120982908178373108 0.168985008848353907)