/*--------------------------------*- C++ -*----------------------------------*\
| =========                 |                                                 |
| \\      /  F ield         | OpenFOAM: The Open Source CFD Toolbox           |
|  \\    /   O peration     | Version:  2206                                  |
|   \\  /    A nd           | Website:  www.openfoam.com                      |
|    \\/     M anipulation  |                                                 |
\*---------------------------------------------------------------------------*/
FoamFile
{
    version     2.0;
    format      ascii;
    arch        "LSB;label=32;scalar=64";
    class       surfaceVectorField;
    location    "0.840000000000000524";
    object      Uf;
}
// * * * * * * * * * * * * * * * * * * * * * * * * * * * * * * * * * * * * * //

dimensions      [0 1 -1 0 0 0 0];

internalField   nonuniform List<vector> 
20390
(
(0.634082740646930265 -0.17824234473996961 0.559133023140521934)
(0.565779198693330709 -0.280114480776831487 0.453703003280126194)
(0.29922345395791744 -0.17527530197103755 0.340509367718228206)
(0.77143492786203427 -0.118926840600611594 0.414363146794120507)
(0.960210239350300143 -0.14986205803604799 0.690195211664686448)
(0.921606548503615675 -0.282659768275334622 0.693122883874345841)
(0.72742542730916171 -0.18651949882482749 0.762630280672550898)
(0.999738598074935592 -0.11781534977381436 0.523438256635191723)
(1.12587522316534616 -0.095989777420255662 0.694246465199473861)
(1.07537071319981692 -0.209455453662200586 0.739296574631220893)
(0.960835934174526396 -0.131328582206133498 0.811496356054606016)
(1.12129680078300664 -0.0786977145536606748 0.558250442217664178)
(1.25060683486041513 -0.0615566215296778629 0.688200212093515673)
(1.20468226497985476 -0.167240841496554077 0.752888909823432595)
(1.12560201346815769 -0.0839870722292547361 0.798823211074587425)
(1.23959216348851231 -0.0541284506661427398 0.589073150130114409)
(1.34708047200643399 -0.0450903642319917322 0.686468572926794085)
(1.30686211485214998 -0.128675130566276275 0.748707129770186275)
(1.25274509273839962 -0.0589767425001989504 0.775732786521850848)
(1.34175022344858652 -0.0406265472002476438 0.614856171219358871)
(1.43403387603472177 -0.0384671989159161565 0.689116846583865739)
(1.38662908238520166 -0.110999816550919658 0.736477895084494572)
(1.35495989904001268 -0.0513259277579702286 0.764125393527914976)
(1.42576620941409926 -0.0357637480114634115 0.629079166236670706)
(1.50229945517267804 -0.031272176839672941 0.694101859558867718)
(1.46635004189369234 -0.0933731666966211848 0.715953658514306923)
(1.43997580686969928 -0.0421732156700614508 0.756719903531591909)
(1.49361180961647122 -0.0299659762977726035 0.638239145765959748)
(1.5477086549836665 -0.02357559706900254 0.701991661211341711)
(1.54077144530349175 -0.0728838147721965479 0.70459835673185367)
(1.5033932796465177 -0.0317968689936674875 0.751378477147366386)
(1.54233479271189045 -0.0233908342714761047 0.651020044605316373)
(1.57854735240181276 -0.0175116097367688101 0.714415961025579582)
(1.59532208974776646 -0.0586080634747373763 0.705558010289096926)
(1.5471213262787713 -0.0236587633376782874 0.753062015366903204)
(1.57384115357275611 -0.0178764581614638991 0.666684588903801889)
(1.59777507450043954 -0.0139418993118682749 0.730633892048683231)
(1.62891558157227845 -0.0464602689035006414 0.717600777748855334)
(1.57704438654833368 -0.0172440539500445765 0.760755488784803702)
(1.59321565211883143 -0.0152645244185980449 0.687062683291903564)
(1.6118633530485027 -0.013237206332119061 0.74860587610393392)
(1.64564062041086023 -0.0391317142332883311 0.734895980704667107)
(1.5972275554283677 -0.0142752447057211754 0.772448400131940272)
(1.605862904465859 -0.0154254461491173372 0.708273257291843095)
(1.62328479750221422 -0.0145627869181667226 0.766358115774692483)
(1.65351069851569643 -0.0348060769965582856 0.754281973811309903)
(1.6123596545005463 -0.013489133572000208 0.78687536286025106)
(1.61615618748564627 -0.0176911173223804931 0.728684639345554275)
(1.63291275704332506 -0.0178163229828038339 0.781730587851185099)
(1.65605579087693866 -0.0324798827689562197 0.771510824361411385)
(1.62489526429911346 -0.0145059127274994402 0.801364988919793242)
(1.6266111470889153 -0.0204094357373640969 0.746033151780014614)
(1.64441751653150159 -0.0229575657420818466 0.792899784998627233)
(1.65690645057430319 -0.0354255096257636432 0.786843263056266728)
(1.63694183622211842 -0.0173650067160383906 0.816030563698757594)
(1.63900884613025188 -0.0234049108613779665 0.756684286815605067)
(1.66201103135004336 -0.0277099949048056834 0.798346198250038608)
(1.66418555640392163 -0.0435600874186273107 0.797706492065257788)
(1.65084796701829695 -0.020995161604958075 0.829254886876477526)
(1.6554269170246998 -0.0263655320354970121 0.759728237633586989)
(1.68635488444444426 -0.0292787494962669786 0.797027610469099201)
(1.68186522321814769 -0.0508786371144800964 0.801496492437633656)
(1.66880790256428324 -0.0243009345785798088 0.835456763067571884)
(1.67707840327053481 -0.0284136590181942074 0.75804337002305755)
(1.71178481669582983 -0.0284391591916917756 0.789646543097846321)
(1.70454523550352888 -0.0515167660970342126 0.796612549134150139)
(1.69085641040659063 -0.0265183058836122899 0.831367523190619906)
(1.70241431872037774 -0.0280726541351166356 0.753763955551915332)
(1.73933039960230951 -0.0272503762783005248 0.778454027409853921)
(1.72942298271889383 -0.0512103380421901205 0.785722120719199779)
(1.7163197397683394 -0.0280699755771918989 0.821254176126366309)
(1.72959933715764214 -0.0275207086122224373 0.746379105525759257)
(1.76820696150612688 -0.0262877357545639873 0.765823264594134523)
(1.75688813570378732 -0.0507965579706300407 0.771611816134550543)
(1.74495048425297172 -0.0283915022553750535 0.808665707129894495)
(1.75837940546716442 -0.0264792691602695543 0.735949146989686276)
(1.79892929176971283 -0.0255893177536892572 0.753831353228033407)
(1.78726702917466107 -0.051306735386170331 0.756665428424639686)
(1.77624515114013715 -0.0280823033949579859 0.795788873198013724)
(1.78836926134036012 -0.0255246381612494536 0.723897697603718471)
(1.83051321673070766 -0.0240222672651550125 0.742976994304536786)
(1.82081032113513031 -0.0517439051308312831 0.743498155273572658)
(1.80861759467733263 -0.0263486766188222865 0.784272756023931539)
(1.81919126474819048 -0.0245777464079108693 0.712368837471471394)
(1.85919514507921857 -0.021716062109008144 0.731962891598375132)
(1.85466248271234369 -0.048883198179126279 0.731297083625847666)
(1.83921486835307246 -0.0236338522093038593 0.7716503080985323)
(1.8495356473574962 -0.0229171180632226218 0.702565820809545549)
(1.88566077734579496 -0.0202463679534040236 0.720431884738782946)
(1.88493507716408137 -0.0464621663961768128 0.717840536258123052)
(1.86722059916385486 -0.0217239587980965869 0.758281835204927424)
(1.87770881179980687 -0.0209810167261332559 0.691823138043465513)
(1.91136080915529982 -0.0208534310017972208 0.710291953432047762)
(1.9122379787733248 -0.0458026021457870122 0.703989492190990607)
(1.89456789375821599 -0.0214699803628716421 0.746409269135811626)
(1.90360382802314687 -0.020104783349068879 0.680504110775566828)
(1.94186213853254896 -0.0209871109864861079 0.702526391732799405)
(1.9427548265687955 -0.0499661119279013119 0.693935438783940484)
(1.92300793785161761 -0.0213223117082742449 0.739556629592599934)
(1.92976064072408837 -0.021454472313064521 0.670125746327470795)
(1.96902916359178137 -0.0185498787775505922 0.694016560350871226)
(1.97580338612881534 -0.0462655531741640452 0.68760656144639265)
(1.9504908755054684 -0.0185320537888418665 0.730320514543006061)
(1.9578932691449078 -0.0220488815423574951 0.664956423625677973)
(1.99089695559299606 -0.0171673178135811032 0.682586677859614466)
(2.00356410747259472 -0.0407405425464957144 0.677648531870514548)
(1.97488262415409022 -0.016728123423163023 0.71644191190187767)
(1.98504462757770672 -0.0199259927762110538 0.656828620195989088)
(2.01488752240702551 -0.0176983173451222102 0.670438396230249034)
(2.02836315880365392 -0.0428761348456926233 0.66464381548525775)
(1.99830782746605773 -0.0169719070873335237 0.705107246163146906)
(2.00917984233404967 -0.0186174958861047395 0.643345578846092225)
(2.03874420171851778 -0.0182752671745495116 0.659674021259741727)
(2.05353513159766488 -0.043408114209743498 0.652496717726312236)
(2.022440280111379 -0.0173100605936417941 0.69483527791358346)
(2.03205499952661039 -0.0188374332137811636 0.631875794668460777)
(2.06235866868339235 -0.0172907179759387714 0.649455936237506526)
(2.07993537984409427 -0.0435171960303934666 0.642912843879059337)
(2.04573660846132732 -0.016317532181035016 0.685410460517643649)
(2.05499754447581306 -0.0191847462385925441 0.621990596096818615)
(2.08039937821441345 -0.0149538657044253776 0.637954908572629709)
(2.10396142360265248 -0.0383458368464871871 0.634000655737286145)
(2.06609574827566389 -0.0146342006724241667 0.672315822292059329)
(2.07685590778552598 -0.0182874203503976228 0.613664883532825556)
(2.09199983087192809 -0.0112340964950319311 0.624946680264843235)
(2.12340316236093729 -0.0351422532229365148 0.622395500224693698)
(2.08153865128275983 -0.0122911774754193084 0.659823112866869566)
(2.09403247408162629 -0.0153931057228637001 0.601139033921231469)
(2.08010163998421937 0.00293465588555942049 0.609457749187246156)
(2.13396860071185301 -0.023505750319582519 0.610361284933126802)
(2.08308758876870259 -0.00590471701810337934 0.646530944954650244)
(2.09769317093025354 -0.00993835051081709553 0.587621184084226145)
(1.99140382311115549 0.0454432218365579052 0.584476033109225801)
(2.11799795392506685 0.0170016371230931121 0.597782358967648753)
(2.0390850844653392 0.0198264389972735468 0.626654053156151525)
(2.0618080320133978 0.0118060121682594683 0.571959440519948514)
(1.70563520311364902 0.142143215842162607 0.536861242196742805)
(2.00619719333326874 0.12139324415622578 0.576840383828621572)
(1.87708274701230859 0.0859027930116408739 0.586993993634979949)
(1.91660569733455866 0.0702164871932091372 0.544011801216929158)
(1.06542405169713539 0.224724799945805048 0.443400999044507083)
(1.7028448538728882 0.309005604738445794 0.532419460459539917)
(1.4905837086453968 0.214410729978724318 0.511346779923125161)
(1.55711551075533006 0.201737556924671685 0.489146785914283955)
(0.280106790258275951 0.150228098433765334 0.288510275405532424)
(1.03705966704285313 0.397011254315668582 0.43613226883859324)
(0.699813555825621547 0.240724762889652527 0.366758193856149883)
(0.782932659872074166 0.240578917236780515 0.375463453596915575)
(0.126093791521193044 0.146669889610196752 0.295202541209647062)
(-0.113593357379465368 0.0551850921173806519 0.181785382566442166)
(-0.07365008083767971 0.0614694945442073315 0.195018281171330549)
(0.758237346618188646 -0.430098922484068835 0.587692864013949601)
(0.688070663115287862 -0.50100900215544697 0.46952303256410155)
(0.304551996319583129 -0.274307320810735 0.135537556561146799)
(0.816655675752191446 -0.326334554233449814 0.451985898208444981)
(1.03206644479892584 -0.386027371964947463 0.742224246840880175)
(0.972684309633069843 -0.491583073483421729 0.730630616350936957)
(0.838624399634938955 -0.417781707130489732 0.728199906289846322)
(1.05170124075248195 -0.326252189701019546 0.584182429337487985)
(1.17034237345927616 -0.312394794863787406 0.797939019255179516)
(1.04230802715080473 -0.399237492444702247 0.836201201647372994)
(1.02056364311385162 -0.354351750835867785 0.893324051156884846)
(1.17169890106790731 -0.265679641580268799 0.652035931417361381)
(1.27127240130329877 -0.256165035637529181 0.813395827500103308)
(1.05958620929826353 -0.333684728058172675 0.871304911048018882)
(1.13397019831793555 -0.296561922578968851 0.926899324876499953)
(1.27249424850866433 -0.229994865225262135 0.694941602481528919)
(1.34015855541476991 -0.210254202786942179 0.798716451927886872)
(1.08019461582023313 -0.251615392139780125 0.826127003550792383)
(1.21782819846932666 -0.24465589435475002 0.897544858204637253)
(1.36072307176609297 -0.199012004594827874 0.720550497384190636)
(1.42006605479023551 -0.177638525321577145 0.763314707014936089)
(1.13725168295127554 -0.216693336679734616 0.656944891243074203)
(1.29381754335160504 -0.209150554914421333 0.842882040467337945)
(1.43034988525825391 -0.173319271358183424 0.711402495337778773)
(1.5097284540773459 -0.149068916454547784 0.726450155687292654)
(1.31410613087848649 -0.189155844587725913 0.45126084217646284)
(1.39533494578935979 -0.176816524848173007 0.781289503304273936)
(1.5056084225798394 -0.146700438110402454 0.679386539517090937)
(1.58834696761605532 -0.123439554591568579 0.708164705809608774)
(1.52899177204701231 -0.15146200157141998 0.332437007982531008)
(1.50968406305765557 -0.146635137168471624 0.7419535104313284)
(1.57839004174999742 -0.121522390170230546 0.663415654954760625)
(1.64583671277725818 -0.101393115826970262 0.708742827012372678)
(1.68810306691648493 -0.12085432398749156 0.342128121460396839)
(1.6009221284963262 -0.123128730079166526 0.730796613681175322)
(1.63059437340707025 -0.0987526050134150263 0.663793862396550027)
(1.6749404606074243 -0.0822064376489506921 0.721862866404839321)
(1.76854220559273601 -0.0888626155759796588 0.409318925710437764)
(1.66055808253113035 -0.101728483833273098 0.735075614374007369)
(1.65891474863765298 -0.0791385482978251981 0.679374681035255223)
(1.68638964609169761 -0.0664614252631803432 0.740572078412042978)
(1.78191440211333929 -0.0687428096802226996 0.536094683065644895)
(1.69019552346250546 -0.0845814922160079974 0.748531840873817411)
(1.66788213414260045 -0.0645911496999860557 0.700758795141434798)
(1.68781214848966243 -0.0535636088828083737 0.759434682398028915)
(1.77191975031588922 -0.0567048247319621584 0.642990929942498068)
(1.70248654793009369 -0.0695225727350839845 0.766380692527252605)
(1.66777369845181633 -0.0565000658272019896 0.724005638878289282)
(1.67899138283047589 -0.0476044648927424971 0.776623499566492903)
(1.75692157306957597 -0.0472504261505291012 0.705809551999802887)
(1.70229749429365484 -0.0568323730334475072 0.782817054923236944)
(1.66464932177579694 -0.0528057179131230653 0.744455174723830271)
(1.67442800400647229 -0.0536676571952312692 0.791649970122897395)
(1.74202813805728463 -0.0569318984382693599 0.734569423986532577)
(1.69604038550584146 -0.0513351606203354752 0.804322712193321965)
(1.66285501348496112 -0.0549033350507229581 0.756746555127350562)
(1.68305757196253136 -0.0662566171615799754 0.800856786252852837)
(1.7380310041286815 -0.0811508804084634106 0.751048539622000577)
(1.69275126663368569 -0.0536628509213185542 0.827297087450267754)
(1.66938085237573253 -0.0620238067290197828 0.76074508833108645)
(1.70211428602391468 -0.0733401666378825784 0.801081431102684594)
(1.75059091921202326 -0.0988515823401583948 0.758500907669429791)
(1.69783827852747904 -0.0602272403327812622 0.838781837745299574)
(1.68537060554515472 -0.0707621372769869361 0.761892715679464039)
(1.72180934028364918 -0.0741266355317314052 0.792688126755503486)
(1.77103581082306305 -0.0987920913726184902 0.753293752741133971)
(1.71082552080514838 -0.0665630314039764442 0.833902241150175416)
(1.7069600759003758 -0.073270318807528878 0.759046701425305392)
(1.74715994694900134 -0.0741667092051272597 0.778879909443896512)
(1.79739844877036514 -0.100391827290537902 0.737041082176664641)
(1.73130783014295231 -0.072674207234578736 0.822776344276093918)
(1.73278869388077128 -0.0757764397794403743 0.749763979778916734)
(1.7755353417674995 -0.0750290485585492356 0.762453979965055928)
(1.83021218848388201 -0.101062765066259788 0.713184925308646744)
(1.75728305410155516 -0.0759381004608495058 0.807367388923213247)
(1.76294326211801677 -0.0769500767145861048 0.7352103093313197)
(1.80905324802670231 -0.0771947922015384508 0.746332230470178937)
(1.86891724050896602 -0.103882480408870978 0.685382249610289707)
(1.78881118453653687 -0.0784963813875064614 0.789762436681916591)
(1.79656207558873859 -0.0787331198064248755 0.718128784985470281)
(1.84697795083274729 -0.0772144645866579271 0.731818244594883538)
(1.91516867641513189 -0.107395721999155716 0.658040753505222176)
(1.82445117191578254 -0.0780168584011342453 0.774842730245592914)
(1.83294435580247228 -0.0803998392923069571 0.701463765790635074)
(1.88073348566553733 -0.074595914886981099 0.717174728285595586)
(1.9640936986779538 -0.0999229739870465955 0.635527118347594122)
(1.85936148205143348 -0.0749183245461926134 0.75738089422635424)
(1.87000037994153989 -0.0794670301607340451 0.689056880738938338)
(1.91098997287374561 -0.0728548983673085876 0.701398143710330602)
(2.00538363555043464 -0.0938125354070423606 0.615131590487217883)
(1.89070183870340802 -0.0731535842273693115 0.739403250621361474)
(1.90399703262208364 -0.0765162820355143602 0.674959036497262854)
(1.93977350363137147 -0.0758786365041551752 0.687632977542883217)
(2.0403346494627832 -0.092194580914122734 0.59287867357064028)
(1.92194803675757919 -0.074657719490284935 0.724173751905676011)
(1.93350323455198314 -0.0742780349535063777 0.660173346291876628)
(1.98079279540120767 -0.0779933700547506548 0.679015608497533729)
(2.08368226223576558 -0.107097601858054975 0.567830400262776869)
(1.95693903318717455 -0.0768925736466723325 0.71962312996646749)
(1.96368845317740215 -0.0775434495680459579 0.646379440185459231)
(2.01226819595466822 -0.073629819012185807 0.671238532966035861)
(2.13573194200770278 -0.0940616746566846212 0.558677470376868657)
(1.99058081164253253 -0.0725462786178944496 0.708778312180767367)
(1.99884291776192446 -0.0797975551389465548 0.644661499381623981)
(2.03752794469508247 -0.070760251098419949 0.65970566949615761)
(2.16967945614705382 -0.082062235221618457 0.544070681442653692)
(2.01876547723437216 -0.0694356334708783884 0.693122863013611923)
(2.03256344194629035 -0.0754668581134388117 0.635739353274773822)
(2.06793863253162424 -0.0709607928910654384 0.646702136981321063)
(2.19177301400803737 -0.0889107688387677231 0.537324903082647021)
(2.04586441897436089 -0.0697632106751442937 0.682390830809871174)
(2.06087898378174383 -0.0720574680120001088 0.620732442605690826)
(2.09305031655161944 -0.0717136970999131124 0.635735540345629735)
(2.21260423681190144 -0.0845265926874160523 0.510895618024766018)
(2.07410977740554703 -0.0705086350037344711 0.668291852650465645)
(2.08720229400167545 -0.0715250361302761928 0.611166749131395126)
(2.12554912669578444 -0.0699855011584323977 0.627457563378838956)
(2.23213747314181621 -0.0922862407874366214 0.490770110109598923)
(2.10266632554320054 -0.0693151750342585193 0.663111324609866881)
(2.11385418590088392 -0.0715293130425666418 0.598072104388999715)
(2.14593749855034321 -0.0659495707610812942 0.618441247389350135)
(2.24679062029716947 -0.074792736488863143 0.480806102919312361)
(2.12802599422750749 -0.0661133610117530107 0.648166938768334089)
(2.14061067256203419 -0.0700854716162173513 0.595661403615152074)
(2.16990117477208999 -0.0600708617119767099 0.607810104892976932)
(2.25277414220027028 -0.0759903829639291539 0.477070773558808447)
(2.15052865682459782 -0.0631072874857796368 0.639010807500557387)
(2.16470408551594096 -0.065332495711203642 0.581278007945638775)
(2.18728685338207551 -0.039404055035596873 0.598685894713529176)
(2.24801886251013938 -0.0603299569880956094 0.445124650380294251)
(2.16962161248736241 -0.0527182004108184485 0.628672370846131034)
(2.18314998746561928 -0.0564665731572140811 0.572409403784086113)
(2.16968380689978257 0.0242153138861579652 0.590146709687044968)
(2.21962132668476375 -0.00400486542993484795 0.424874496354380404)
(2.17115722377384612 -0.0167836947021862901 0.622400890834571396)
(2.19009912023808262 -0.0256919291851619644 0.562784639962589872)
(1.99551959104704202 0.196514402806323374 0.572398602091419129)
(2.09741279944039949 0.183095194168275438 0.485008864076539203)
(2.09408626069913595 0.0830385521982785202 0.608068685012310262)
(2.12209191966065358 0.0648601875262300315 0.557308229260259358)
(1.54496097774470664 0.436160401502078743 0.52515073025362613)
(1.82716530716608583 0.514525096162577689 0.526787128300822305)
(1.84875620060112489 0.344369306247976792 0.576466286510510129)
(1.8946841597736177 0.307004845422045647 0.5369466215653389)
(0.785089377270588251 0.452834454786258611 0.44282453464270588)
(1.34415106772181692 0.768059242858695979 0.491573740431994866)
(1.27552008148699159 0.559927635903411547 0.493773976343462817)
(1.36429612415524848 0.543136289388987059 0.475998238346069302)
(0.415117867911486083 0.533127443336594342 0.411605097031941536)
(0.309806669404158685 0.348189126436662055 0.391816282759975765)
(0.373135982542811939 0.35883828662694145 0.379641840609763359)
(0.863192765831044317 -0.540300687763526688 0.612460784901086353)
(0.760202538904761194 -0.520182090004616571 0.47319593463741777)
(0.287322739493807766 -0.143582911429556981 -0.361618630684438613)
(0.889559399274526541 -0.442306684408231954 0.463228015869525389)
(0.976619723653307514 -0.520898783015214417 0.824607571157429664)
(0.928928915555589096 -0.590859680465169124 0.794085820691047717)
(0.869303575200831458 -0.549715516306920726 0.745201683055623398)
(1.04991869648672131 -0.478066659562912499 0.660075462157090009)
(0.93507794465705385 -0.446778002356475135 0.909567093440212249)
(0.719917641761779414 -0.4773879277084217 0.936403711653060244)
(0.786763509973775199 -0.454156985668907498 0.975060268447697664)
(1.07041888132948459 -0.423194791443535723 0.777217643695183869)
(0.872048862868041175 -0.352963277380936469 0.884036087098708068)
(0.41144378504621526 -0.380690633371730036 0.852824451416335783)
(0.646041603691903554 -0.367145177508585274 0.9842886806137916)
(1.04373836639131889 -0.372460972804922075 0.827247807757703568)
(0.858244559251090888 -0.251427150900742025 0.684355442865979935)
(0.453899208772795992 -0.250089917746562695 0.456796260889234751)
(0.609017204399133982 -0.266299497275772346 0.79469427540301496)
(1.01210996990792723 -0.300350801563562197 0.783940931959243636)
(1.04128239760509733 -0.176008856151610021 0.344891026404603118)
(0.857052940807241481 -0.214820699121049785 0.0550091189569355543)
(0.718832413844273543 -0.196214848417352428 0.358818427746791513)
(1.06699498812487392 -0.233017562105633319 0.545601526370459666)
(1.35457160320867964 -0.116951424964313488 0.0572476944717005901)
(1.33256387006491406 -0.191476533087509976 -0.19779847990162458)
(1.12845295540332469 -0.163378233818162216 -0.0196097255478155687)
(1.29485431024252762 -0.168672518295103185 0.289038057498558265)
(1.63262287009276807 -0.0709995473582226283 -0.0335995763666807681)
(1.71936464315568438 -0.105782661120056201 -0.318385092280211557)
(1.55288643638378598 -0.119464294130705237 -0.201543633397828242)
(1.55402102250426366 -0.113531857496028912 0.167866324597793271)
(1.80449597094877912 -0.0391731456481721058 0.0427042201584618558)
(1.9673406760623553 -0.00686918627314646313 -0.316222684952176647)
(1.83141983700503119 -0.0757585231616788868 -0.196175830343097046)
(1.73295103680256779 -0.0807763170271012521 0.203667659585123895)
(1.86868809447597362 -0.0281544679418770614 0.223550742371242478)
(2.10192311942831589 0.0856120097108811484 -0.238283185804569586)
(1.97134777806607953 -0.0333550889124452701 -0.112639572388281442)
(1.81519709292113141 -0.0622134496824698346 0.30050191738087112)
(1.86383621283167766 -0.0411291026280586544 0.438513534596100318)
(2.12146351657374543 0.137715497458859026 -0.0708694582845368765)
(2.01469791690215816 -0.0151342944498859718 0.0431675637075439808)
(1.82113496144934817 -0.0660931967707557716 0.451232286117550507)
(1.8506287522906546 -0.059967452927825779 0.589365799544272484)
(2.10851502629254517 0.116952379680616017 0.0910223801239288255)
(1.98567698830908079 -0.0134438759058188358 0.242855717935811261)
(1.80492346241994039 -0.0774196082474071789 0.576962592315631628)
(1.81649196422420656 -0.0776525295677621824 0.663755476419842672)
(2.09866554618265733 0.0603061264960800605 0.194871247390385582)
(1.91284693342641399 -0.0357507112766135907 0.474188053395806719)
(1.78773624376943596 -0.0891552955813793013 0.655164343344637357)
(1.80092161873993128 -0.0968719729675597829 0.69396799348563587)
(2.10107992967842527 -0.0247716934048409256 0.218203405043188498)
(1.85833466536588854 -0.0606593688044717999 0.633642603544123051)
(1.7753306958755608 -0.100503299964027848 0.682392741438910155)
(1.80452468893176698 -0.116655275487447072 0.708692661038577643)
(2.10383218600331912 -0.0972702006174198663 0.228501475052506231)
(1.83471627143014682 -0.0814256715649830237 0.717372871638947252)
(1.7751126946981215 -0.114859416996646715 0.688737429926655431)
(1.82285324358600942 -0.127048559041289338 0.710713229307879168)
(2.11447308578995097 -0.134993952249071625 0.234728579152395256)
(1.8288312347109319 -0.101714896642272901 0.742932508022888238)
(1.7909244115505103 -0.129374020223509384 0.688976420034483228)
(1.84547938207074402 -0.130116469469408774 0.697646708162294904)
(2.13173071227242517 -0.132953091112244848 0.23414182157060931)
(1.84009269677842702 -0.115795346997157961 0.72664002826913765)
(1.81870808129106809 -0.135644614971847793 0.680944180975214475)
(1.88085406731189564 -0.132687293059215977 0.671346098041414652)
(2.1697730720657038 -0.137527389191866051 0.200164127373776091)
(1.8669977178846886 -0.127659970168662068 0.700184376946307752)
(1.85470081858644775 -0.141658693988750306 0.661287861265163701)
(1.92292886138177677 -0.134998618480135502 0.636113194953880634)
(2.22054067570998059 -0.138941719313454254 0.145155164969798578)
(1.90709055498281321 -0.133382203666392779 0.664134382851685801)
(1.89915815872187643 -0.143775217297277047 0.630451165812097925)
(1.97426082408239312 -0.13800581965207398 0.597090772645332724)
(2.278478229726701 -0.144401832391635343 0.0902574999103217257)
(1.95945527249256291 -0.137343405501937271 0.62340791623992331)
(1.94921357233453674 -0.144134262638721589 0.593701063595456047)
(2.03618595723982443 -0.136008456249772147 0.56174962725793276)
(2.34505905321904295 -0.155892666506180999 0.046750733762453478)
(2.01920778721117333 -0.134811481733720484 0.589927478635294378)
(2.00485871751665856 -0.143575031165528499 0.55485868586934306)
(2.08940891160014397 -0.128032215098966451 0.533483980549216641)
(2.405384730320419 -0.14083478492052226 0.0198554428427880625)
(2.07627011351191149 -0.126972525984037826 0.556474251942840836)
(2.06454989420481327 -0.138473341168148883 0.527873644631572159)
(2.13366694638656496 -0.120855456804196723 0.506612120347527783)
(2.44052475839933791 -0.125919263827571487 0.00996986344931083401)
(2.12392659896417602 -0.120551620136633342 0.525612795141569222)
(2.11747598843099105 -0.129394777518515275 0.505657458781253122)
(2.17568835501931934 -0.125005402685032851 0.473076096290533876)
(2.46033800297884309 -0.112495885048704267 0.0131965789422724411)
(2.17354516756955007 -0.121720425557737572 0.482508873338508892)
(2.15975991844964321 -0.122370392194389804 0.483927750203961948)
(2.25109736622308487 -0.126244376478628101 0.447492262142111852)
(2.46935606989406775 -0.149367187863693573 0.0100427763603642695)
(2.23120965691223283 -0.123893358537586554 0.461940568185944644)
(2.20398487205298776 -0.127063195733051443 0.452810476458124)
(2.2938144821637878 -0.111686014679469536 0.431509618853486709)
(2.47625461284103743 -0.107945644721518158 0.0156183699626387673)
(2.28249793597868411 -0.108823701368495215 0.434459501713650997)
(2.26063200605611136 -0.128435240345696283 0.449408781896539489)
(2.31678388592338447 -0.105196790279544414 0.421689915029142937)
(2.46912141674505436 -0.0896829000745010957 0.0169947637507193994)
(2.30761463511542342 -0.101468887370120983 0.419284032891311276)
(2.31046621028306998 -0.11508818727441307 0.427012332853439647)
(2.34082147798236884 -0.104308869452659589 0.401518384126091865)
(2.45015778157940689 -0.0988388618234659622 0.0211124664544452001)
(2.32490116768402277 -0.100927141875104043 0.40811816001961404)
(2.33668633382478763 -0.108406276207296995 0.412299767974870723)
(2.34057564508091387 -0.104890343656371468 0.365930187788734762)
(2.42293634737279984 -0.0647715914298054446 -0.00245768250599492921)
(2.34291940055484194 -0.101508658825582507 0.359806275085542915)
(2.35105428497368507 -0.106179367482703138 0.39907052100467838)
(2.3695629516987613 -0.0997408253453736932 0.34411864965007205)
(2.37626990412439776 -0.109518448432759333 -0.037931338190610342)
(2.35547347409617558 -0.096723233335454864 0.357988261256292017)
(2.36022386884528679 -0.10620263266724364 0.352510977225512445)
(2.3453860080076101 -0.0905900784278999699 0.339435629088770952)
(2.30525725777483892 -0.0490694699664441583 -0.0819376797735477114)
(2.35141311092407346 -0.0888793560222762152 0.328488666763942672)
(2.36098600060831387 -0.102218325896761011 0.355757863418155129)
(2.33669789487223811 -0.0827538031027560267 0.314385319046125045)
(2.20884303657690584 -0.0657963781509505741 -0.136926492329892791)
(2.33560712915248514 -0.0836516416954636577 0.313561500236852975)
(2.35561448590519795 -0.0919999500529287001 0.325260938089865725)
(2.30418860124215508 -0.0470609285622462237 0.271313252021145479)
(2.10176004482449796 -0.00857688451490107133 -0.294871043890183593)
(2.2960105464874152 -0.0649411471956392039 0.238965107141431099)
(2.33170360256195597 -0.0796756303646378727 0.309961371262438723)
(2.22904740329850126 0.086687166827573478 0.319736650743874251)
(1.95347102317791843 0.0524920467325199064 -0.370575878400032366)
(2.20691122197482059 0.00762371274092963919 0.235616819692767598)
(2.27694397483739008 -0.0293685599714515883 0.273468754338650255)
(1.93899265834792334 0.376945706198836661 0.439397390285941991)
(1.84132199030742161 0.314222750165668141 0.00814539558269983255)
(2.02987117340767265 0.220520799621778563 0.397559912770850954)
(2.12055918243457597 0.166376119369290948 0.369759704405867362)
(1.48403682920222812 0.728886941170480585 0.493210138479192262)
(1.56491455739908858 0.724219841662414709 0.383122522013003397)