/*--------------------------------*- C++ -*----------------------------------*\
| =========                 |                                                 |
| \\      /  F ield         | OpenFOAM: The Open Source CFD Toolbox           |
|  \\    /   O peration     | Version:  2206                                  |
|   \\  /    A nd           | Website:  www.openfoam.com                      |
|    \\/     M anipulation  |                                                 |
\*---------------------------------------------------------------------------*/
FoamFile
{
    version     2.0;
    format      ascii;
    arch        "LSB;label=32;scalar=64";
    class       volScalarField;
    location    "0.780000000000000471";
    object      p_rgh;
}
// * * * * * * * * * * * * * * * * * * * * * * * * * * * * * * * * * * * * * //

dimensions      [1 -1 -2 0 0 0 0];

internalField   nonuniform List<scalar> 
7340
(
28.5409246214253329
18.4749674870222726
13.487772703766483
12.020527310934078
11.7161779291187393
11.9775062632422173
12.7550784330863607
14.2800582758166001
16.8934615762455742
20.9427491247522681
27.213302113610915
28.9107545054101607
22.4984729934233307
7.5800843208150086
484.880585586067014
1021.70052706741353
16.4063677653912237
13.9363653384199555
12.3208716197304025
11.5315146158382422
11.373635961212365
11.711319285676792
12.3881298637141448
13.6339774319796732
15.7233529117093944
19.5347337114230228
27.0676025525106709
26.6028372674194458
38.5877119547716134
22.3449053472239498
119.359420531413193
1012.56918992398562
15.6179384412100326
13.3674156819118277
11.8956153587914528
11.2300175481771891
11.2180045441219658
11.6337155204429816
12.2172356705586598
13.1601795143650353
14.9177563641201587
18.8907907469968137
27.3704692135542551
16.2176069723154583
22.7058338263386723
18.6477145609467243
177.434021403413539
1157.80497602376772
15.7362369232609609
13.0057334847829846
11.5042150775135763
11.0739432838594638
11.214082193156802
11.5961654852939571
12.1809367442110226
13.1239565077435625
14.7473696655636228
19.0436609592987978
27.8071023028325328
18.0870363868763846
-5.17952981320874617
25.9629255203898133
308.500836108661133
1254.25292206509971
21.2823217695059306
20.2528838557297419
18.7395130095384097
16.8930846098952507
13.8156529008230056
11.9067744615735993
11.2451281983060269
11.299176151793878
11.7987873167420787
12.4853852478136371
13.4382691931175717
15.0704013452280901
19.6189046394241409
30.7110999277663232
21.4098827187714846
-23.5241608129395594
35.6449961522650938
266.07157584372743
1382.48507258266409
28.2621179794340698
36.2071107102949128
27.810091247996958
19.0441855478955482
16.0486403656693248
13.1399627702117598
11.621385551621918
11.5391509367482161
12.1081067735543879
12.884804504695758
13.8265900604374661
15.5604840156953124
20.5585212181087655
33.3152533129375783
27.1532086703747666
-16.4548103377132975
44.3122763766258316
178.543771084952596
1482.93632927974886
10.5190397469012655
13.5582359552437293
30.0668207569742876
39.5172879573096338
41.9835660733444698
29.8345929166544828
33.6052202674142464
28.9912544525684233
14.0219950577759995
11.6588648122038716
12.4312671903322531
13.2931041844217859
14.3401099202429592
16.411347081349497
22.7375277600081027
40.9323508207316564
83.5637751269150471
69.3376424662702391
51.4417898503546382
372.773766234583206
1586.49332919998665
18.2447705481209432
13.3664752116347376
11.8173028920736218
11.7068049528363254
12.0999128327093182
13.0179694224963498
14.6416510003862204
17.6922642666746661
22.8007468176100296
30.7460130335562063
35.3805484704307602
30.4639485528740757
137.339140167983999
697.669868263975445
1026.2259079793107
17.9958978885161329
13.954766357504484
12.074049943199805
11.4497558558902206
11.5451112707711463
11.974347654841516
12.7402049270756912
13.9495372865954064
16.2857847448670512
21.0240726962926452
29.8974422572457748
24.7541946260193093
49.7254954175337573
184.366456145366328
277.947086254720773
1136.22952240438258
16.4478076662772068
13.1219771426072942
11.6304441049778617
11.2767605115339933
11.4977474322286373
11.9506058476409969
12.6029040654067614
13.735726915030515
15.7686611042288085
20.4268771049741957
29.5496246159935119
21.5460700309228699
19.1192561857782515
369.028067790269461
510.673305014509708
1303.02239451242622
16.3972883130769951
12.9977043574710684
11.5310543973122268
11.2433890896328901
11.4413487378636702
11.96176428687113
12.7477026419688979
13.9129160244950629
15.8120909205880213
20.5824352592571636
29.801420085874355
13.2622709056348924
-6.92218803985234832
164.030343570514333
934.595149233224674
1389.81812332177719
32.3512360864714665
37.2572245642428328
29.9037276800402516
16.747325509496843
13.2354365916278294
11.8609162009506459
11.4937226449576109
11.6425680534972606
12.2712488004911275
13.139210820941285
14.2195964529416035
16.0985163115964092
21.184554497455391
32.0323848137146712
27.165646325586998
-5.1085838113358113
67.0386639672265119
434.448795030110944
1484.32104407548536
35.2052556513309725
38.6032632123581436
41.4178449222099019
26.2778268553951158
14.5133598580919259
12.389120879591859
11.8768154943514528
12.1232384236036133
12.7256022523193906
13.5598379481637572
14.5418321337128145
16.437088296628545
21.794677705163469
34.5543324157500393
43.2899179882109593
74.220035882005746
119.823651843962097
283.437557985887906
1586.09397478314668
10.2027401216467766
19.3985314577322185
35.698375981041373
39.939186341049755
43.5143026567362128
48.1436540102072428
18.9545960849051269
14.4730088992339923
12.6444009866642801
12.5032947054126282
13.27276048703113
14.0620410918944287
15.0342084821468127
17.3651560088461103
24.4160938976339672
43.4001380452003076
211.91405966249792
314.531417767834512
192.754743350787038
419.544164896509415
1699.12115185740049
20.3059169155107924
17.1256723348212176
12.5276818955751583
11.9056214140253402
12.4162332970464533
13.7350859409863872
15.929198081336633
19.5690251146745453
25.5854721714882238
33.9080256730791021
38.3278414418929074
35.0603325645738551
657.549302528820476
900.254107209205017
1187.87303288817429
23.6550586893639974
13.7828776053779318
11.4839555436634502
11.3154862143077519
11.6482062913553399
12.1447218148882428
13.1450593384715813
14.8818580911419609
18.0044531040633835
23.7272533463984381
33.3874404798000555
34.4731224824272005
17.5308580038829795
676.514086490960608
1019.77732127304728
1384.12274279206667
18.3071810640938004
13.2277009410885213
11.3312084202324215
11.1684512487503085
11.4736704444455437
12.0948076055462828
13.1071525343211732
14.7397943561500018
17.4422158706146462
22.7010537404800132
32.1527183514031947
24.4532553553915015
1.12422627651426565
360.673611936912152
1244.67549397836433
1449.53487339274875
19.0594617674679156
13.6746280307914834
11.4334470114923885
11.1657192334562101
11.4864519594740369
12.2655608598483283
13.4008803857042338
14.9244176310799244
17.3254536516254127
22.4461728451014331
31.42161609120609
29.2438212975267184
9.96695959671074938
603.9401372706958
1320.36922936916039
1530.51393712141112
33.0516602723670516
39.6626415978457842
37.9974794422725068
26.5066074157380527
14.1812293630099617
11.7907877688773475
11.4434185889049882
11.7419174653573055
12.6117344296239402
13.7160245097058411
15.0707720120754587
17.406853585612879
22.7433515220504461
31.4264177496870865
25.4381628979294803
50.6929413556008726
315.190454213126202
978.453002338904184
1619.96974197349346
34.8679018955086306
39.5709796191248557
43.6122348942792826
46.6111494685339522
18.1223320579257319
12.6318263582582038
11.7167920418902138
12.0692848507568442
12.9690520750219918
14.0778439573066123
15.2934171241466164
17.5137619430877223
22.9016633792109907
34.2594597304098158
45.4537497777816455
355.053709455706837
907.949203379551363
638.226244341847973
1717.88665026873377
8.1091788592207692
13.9191516065932426
35.9604679205097568
42.2077111808365828
47.3302389586668397
54.2690117240652015
46.1166191592860315
15.6506285756171479
12.639472630099819
12.6671411915753893
13.711864603783031
14.516325395144607
15.7628156753702893
18.5718510238486125
25.2740241220380497
40.8451107840390861
90.3041359571870288
1085.32174616572047
1344.3538418694061
945.235397865782375
1828.91148736282253
19.8339118228419942
20.4501451418236861
19.0139810313477149
18.0267594085445957
17.0393533463097455
13.7534022383544876
15.2723088910906863
18.1599559878050556
22.3957169995785428
29.1787198124892839
39.0093094226606283
55.5942825677910832
170.200084691359621
910.31851759773383
1305.12927074993809
1483.64992389911049
18.3240747692972583
15.408518885143339
13.4742125204275816
11.6610208079561701
11.8954335834549063
12.6573751058432364
14.1397909374164694
16.614682894827741
20.1145062568324811
27.3602772844296958
37.0178498742581894
49.5484849477096958
59.1083750795725322
445.990014144884015
1298.7569918512238
1528.72407155691167
18.1710839597348581
14.5452206764303451
11.7728858346318042
11.4874800545093851
11.7422524848123295
12.6134580220024866
14.0512646222442026
16.177280595906435
19.4721924957351895
26.1379436272337919
36.8669785174288833
45.4822049521981384
53.6216108040410546
186.868492827807501
1065.03048843897841
1575.96144733629535
20.3948259972237445
16.2954655806544828
12.3827870835310705
11.8186151095522867
11.9162866128959859
12.896177748455905
14.3177036509278164
16.4046318210773876
19.7188481886214539
25.9767266333537563
35.3309020935027078
38.1397858519124355
61.6142472707120419
840.875345587907532
1328.04156047264769
1645.36977237000042
20.5848510447390005
31.1624563718950256
33.7217353116657605
33.548106556158082
17.8836609677586971
13.2643927826811314
12.2356909318654701
12.1404850475958561
13.0859363084754303
14.6623794024270051
16.697805707359624
19.8132050654325127
25.9072916001021767
33.7643279666056344
42.046886442773264
174.661059049181716
1352.15752370990799
1591.1915747433743
1727.07966976563671
22.3175748254115547
35.5557234454118927
42.1276044981041906
52.2491434307762646
32.5004844097433079
14.4560397849995077
12.2111228665046667
12.06540883240271
13.1980210324148679
14.9694946994901539
16.96410037352749
19.9120805040876618
25.5772095095892098
34.306685581398618
49.0640825775026812
275.38456384905777
1489.69401257215168
1682.14473514080737
1823.17797796253626
5.98986793345499269
8.05256839827776716
14.6542241433636544
38.317910077170275
51.7427083631891165
60.8384614678752769
68.3084627916096423
20.0586853305760044
13.8698878687898421
12.4016035631686048
13.4914596688737287
15.393721728090469
17.3480180397958819
20.396585130019929
26.4184445365797202
39.6619548064100229
74.95581810055657
477.058723010131473
1607.03178023774535
1778.95381509411254
1944.83507523540652
18.7008097385718699
17.1865782993059995
16.0716142469732972
15.1749892949621668
15.3286149589500074
15.5445907431110566
16.1650873281985419
20.7668894943482663
32.8791087037306013
52.3086222081924035
58.1702515238843247
84.3068269709957434
164.113025706122244
728.640667668692686
1369.80868108889376
1628.64727721006761
17.387615234239771
16.3312757462985587
15.1468804503471457
14.0789951735598606
14.0032231878053377
14.4223119221599649
15.1054544040494303
17.3217404776992616
27.5439761929526021
37.4416322698570951
46.4231262679906607
67.9801331197013354
106.147981455300922
239.679462068891695
1338.68674740557321
1636.91384651312046
16.9028057972678845
16.0118829409868049
14.5878737450482596
13.8348639642697346
14.0066508529416041
14.7601860878487905
16.0614969034982664
18.199075480529757
22.8192389908467064
32.7572111961396288
42.8600077795690666
55.1646344162261641
132.359023404511021
176.157843330676741
1372.32723064985657
1658.10019353722896
15.806671747878358
16.3197469711845251
15.3028419516467142
14.5189394678998269
14.2588591543887766
14.9852498117165762
16.487515633002122
20.1750879920274038
26.6629863125567113
35.7089667399584769
40.7297308736779584
48.7943748916804267
214.908228662628119
611.158413754432218
1596.63960978576802
1709.48345764053943
9.85882330907165638
10.9079322136548758
12.9055816220438366
15.4673915550040597
19.9798019608558235
17.0720447432529348
14.6918719534977811
14.4010720848463869
14.9954361568308254
16.7472889262618345
19.4483403576615785
23.9338403454091591
31.1303088000009076
38.4457618390526292
44.3938984968652974
248.469665284614422
1240.03598707657466
1692.1307621457056
1775.87956144289797
7.85941379906769022
9.04115543486727091
14.8564655982810887
23.5451150017458026
26.1055621416815207
21.5736355051256439
16.6758404677741616
14.6441448456503203
14.6989626932908433
16.6993200607794456
19.7157889322443154
23.5588328177231183
29.7043856863287559
36.7428383343830873
47.2484521353105009
128.021764238203531
1358.98085218841697
1752.43670871901963
1857.13115333460632
5.00556166528669433
6.64689324068751208
7.12422763845067308
8.93046238983217044
33.396057627940948
40.1981049787041584
44.5596986392131171
47.1835466604254492
19.2642941071815912
14.5087440641624035
14.469283077553138
16.810136612079301
19.82467693941053
23.2734119728279367
28.4607939152057732
36.5336233120886575
50.8324924631987614
100.654065548619158
1056.17328301973339
1854.15579120305006
1965.07935048387776
18.0006863417738749
18.115337965198453
18.0029845146397847
17.518946903640618
18.577969061473258
20.5910992472473708
22.1905649148336117
39.089839132532525
61.1225556679474238
77.9193257092364462
69.7277966984016615
87.4054466125534333
153.219365505967886
597.570467634335387
1346.68663725880492
1743.46054334245423
17.1134480152681974
17.7554474071695587
17.9159917348985402
17.572667162866594
18.4034909178230635
20.0751393644139817
23.0771582079138682
26.9017517623304023
31.021807979113099
38.2716256533453247
48.7332217611344518
63.1637624528401744
91.6653681212584672
182.397314780059475
1099.68985216583906
1731.35366126338909
15.9300710405962604
18.058445948722408
18.5874534443646553
17.7659187618143015
18.0833045558156016
19.2874826210341759
21.3502515522944307
24.4887087530355245
29.4970117380495331
34.3566682746106693
39.8486927304903844
47.8705338717196582
66.3498145749664303
123.155561999434596
964.661958298378408
1707.1810006932983
16.4154055114353348
18.9389729756678022
19.3618836711770932
18.4881589113289238
18.1369391856548852
19.1113969090763653
21.1401796481114026
24.4049879849961293
29.7360150681140887
36.6693415995784591
42.0881569076467841
47.0328337370945633
56.1741022766050762
94.5648399532948361
1600.55384116635673
1724.19109758562195
8.62199830439501902
9.52109329443001506
12.7959978824309086
17.0992952122919455
20.4688475124468106
21.3532958000526847
18.7826798400515891
17.6415400909429501
18.6741940777121336
20.5151233662349846
24.0232113149727162
28.4684424101977775
37.8233320989033217
39.7539650380967373
44.8701320057491557
52.260818442774692
362.928535787928638
1645.42149657629943
1772.84354714399092
8.39864055047729785
8.81340095570672055
12.8410237946948378
17.8012688299887465
26.2000628965744617
26.8867625088118345
22.9613436900610921
23.2229904860396914
18.514770180111519
19.6994199188468393
22.7892869777396143
26.5345429373670036
30.94059351463995
36.5959045400309861
43.0149140556358347
53.2318252829805658
872.649621216494211
1704.31167973276956
1833.04810124010851
6.49734414036688435
6.48810707685332311
7.02161579099958466
8.57262870340953853
13.0786591891126314
19.4621821515074664
26.9166755144932601
39.8043422209039335
30.7342674741425199
23.0800336942694209
17.7310118636769865
18.8292583023605786
21.9533038212768226
25.2233529632762945
28.8959400951649599
33.875812555661895
41.912280906392148
52.8535900421593894
185.315659934283957
1785.74227280487889
1951.04128044455842
18.3383807201081446
20.1421713908307005
21.3503774612483319
22.0812863109407544
21.0618633610799968
25.8024333901055876
43.5312613279820795
33.4086273464835486
43.9876140201022281
41.8858514158459343
43.3161397704641402
58.9104353778480601
107.190984561927181
742.218824302637699
1486.04892030320116
1907.11710669116633
17.7142543010400537
17.1373837302794776
19.6853181765306608
20.1967492736749783
21.3257943085309378
22.5976858296442629
24.3961820089019525
26.9883646987578913
30.3417405774754734
33.920238647963366
39.9601180354049816
48.9742533002671507
65.2102305313787127
146.379683851575066
1370.42148639594711
1792.50783120259121
18.0431324628627898
19.2442701954252264
19.6554101054913808
19.6072831436812116
20.4941709155580227
21.9050019550218913
23.8722891338008942
26.0842795785374975
28.9041425092387492
32.6509834312728557
36.9642140012372593
42.9067700651416359
53.1050267175050763
98.2465803676741984
979.359153324891281
1719.23161903257619
37.6617527714497271
34.3388255618937634
21.4055031389144936
20.3747550385252545
19.7925877358528766
21.237153840900536
23.4346122751233956
25.8977398861974386
29.6679802560938448
38.5952277221248465
46.09645007707568
47.6674166746351347
55.5386062541312526
75.5730053320791058
671.430948482788267
1708.2561921116021
8.14218499615829927
8.41289737623876555
14.3365554788508316
33.3794712184727231
37.1487797560731892
38.887321990314291
39.0177614728017019
33.9975128562908182
39.1224224405156988
31.6640518394387733
30.5200536704873393
47.0706465068465079
64.1170961699678514
62.2674468233297489
48.8982072188758892
58.1356231921353128
66.8240085065440184
1516.21537324828842
1735.08228283744256
7.80122930606128584
8.81015786777427223
12.5543348376365831
19.687402759547787
32.8319711366693454
38.1320225608828949
43.3388595631472313
46.8508610675933141
48.7776324441607514
33.3489713067113129
29.3414197856537449
44.8478318431366461
60.6460105956066329
59.3582644568084135
51.1936002178573446
58.850927986579201
65.6188936591622394
1511.06557289798729
1740.76213498759239
5.85983858872876873
6.30048465751585596
7.18789713843433553
8.36801750088195284
12.8123740399320258
21.9940547277601404
31.6749177027684823
37.4229097092203702
35.690797485102145
41.782212235634951
34.8020091328868375
28.3065869354842548
24.3040730838325025
25.6003773100880849
35.5790518590842879
53.7175232783352428
52.2620048751408675
57.9155250855271007
62.8160909190421108
1310.00107356039643
1829.06202067358186
16.3473319183761845
5.55944040841666265
26.2293869033157883
28.1240498934668643
34.820726696447025
31.9518205113206228
59.4452449260695275
76.2440130650967802
33.8396029009259109
38.2554473395491499
44.1066059839238704
53.8498491348108956
116.889963786772384
886.779526866857168
1573.1557879372931
1972.90534146917912
11.5708133281198116
16.4240870479340479
19.4532330149586024
27.4073950832155866
32.2797440348078482
30.3419910000986341
29.5748399298167719
31.6496071780985915
33.184224004903534
36.7559626056629654
42.7030032318742485
51.2427810058825415
65.5546062447669158
150.538458379639138
1375.30228888320426
1840.84555264638675
14.2494129327374246
16.743136822227104
19.9545624276606084
21.4478373647467571
21.3995539282947611
22.6253723709761196
24.7047462206632957
27.3617707503279171
30.3475511363439274
34.126232867993977
39.7398540177712292
48.2140961581217908
56.7092370359780773
88.3741119908737431
1092.44046737783174
1744.97198216596939
18.890971196219347
26.5784532315608288
26.982981181009805
28.3368187342771449
24.760708815492567
25.1718224824234653
26.062125257411207
29.2040734411329552
31.9914091031413044
42.3319285010474786
49.8947102583124931
51.8665915601273895
60.5168943074089896
70.0916867514157502
770.425735454999995
1707.86670742486717
9.5262695543676017
10.4767433645577697
16.8469555461782612
29.8049572011213435
36.749677793953083
47.6676907212923524
46.6905983410827261
46.3297146928003158
44.3682914691436423
52.505633933666779
59.6290684351624094
64.3206846028047465
69.9139697198760359
75.5889853442651258
70.8982529128713992
67.9800450231407609
72.9607728318573265
1425.10135599001728
1711.09575085780034
8.18340375064986425
10.5510374810912815
15.6997903499217255
23.5211430408054625
33.0675368781390588
39.7596633515664166
42.2863593089608116
50.4396269800179411
57.1617303283153291
60.7218406071395478
64.6227594137166079
68.4769157422693127
72.8662022618772909
77.781214312241147
77.8515499460349361
66.4899355097408318
77.5020260426550607
1421.80211268016569
1712.61905604373737
4.92784347241072229
5.72526443696792775
6.70794219424321092
8.69438504167625581
13.7756736105029916
22.4332924482148002
34.2829466675976278
42.3512944833590481
38.6523304925027773
36.6717691339033394
50.5576951234440841
53.7965486409104159
68.0787992152589254
83.8333131535151921
74.9118790068887819
79.737356593482005
74.726421194113783
65.8810123764686324
72.4830875990686536
1089.41472765044159
1761.54345146347441
21.4952906561157739
23.9324205299418509
21.4867454623991456
17.0720789436860905
16.8038281787013055
16.429208069463332
15.6577367087764454
15.2233329410190095
16.4554401194934883
21.3210097569775741
26.6693742370095102
28.1188929277153186
102.217875039620239
809.459283656453067
1047.60379145933848
17.7016744639518038
26.8141895919222186
25.9155094173990435
19.9786413537994179
16.4795174791767849
16.2815119417359426
15.8567774417955434
15.083054452642271
15.223156302581371
16.9978704911514527
22.9699532840192795
30.0525983544379471
27.3766241853303924
32.225553497900556
883.150585458886098
1124.86748367570885
18.7105516731972195
23.2920128201846737
21.8404623054151514
16.6078203667042885
15.3655904648962309
15.5806732571390985
15.0412721506350007
14.3593553476958391
14.680827000347124
17.4645693964563939
22.6612703313521209
29.0267107380857254
28.6055028572647707
21.1798454503816949
412.457442031302037
1208.52021732505182
16.9353337287133314
20.388672339228556
20.0641665373929179
15.2904692322756546
14.3017344251502756
14.7201577733924047
14.2696492523763805
13.9868814604193812
14.440784753502335
17.1439760178163176
23.4532817826114979
28.3845880375862016
27.5399760149359523
19.883830056226433
208.743288202228229
1298.32768618432715
7.13900068656080666
9.9216417261345704
12.8337125322624654
15.8657899374051592
25.4121631669712897
27.0882835999574283
17.2119617013445101
13.4020130543575409
13.8638646113599453
13.6056493205004205
13.4626869018971682
14.3536356570044852
17.1669856079775762
22.9261233213245852
27.1414681033642751
24.1388703937968927
17.0369646681513309
249.437005195548892
1395.519013784354
6.78821048684060724
9.22708713690902371
12.3332514602050018
22.1966536266886258
23.1673012896483463
21.3591797562413035
11.3878977693473367
12.0603156091602077
12.7627782260675353
12.9326182087898296
13.1530446827004823
13.8883271731699942
17.2857504412349599
22.67069341131646
25.1900330463878745
21.4470889894398589
16.0412991687051125
551.683412145277089
1493.75858655496768
3.64093661548303826
4.67006744246628713
6.46571707802889328
11.5120140078304694
15.2324226521352237
19.8250060660895002
18.1822012874342249
12.7920294935169032
8.41985947542853452
10.8586241382137558
11.8191506900983612
12.3722155087212524
12.7477165056894126
13.839151042048238
16.988521388370831
22.3633883148979002
24.0942961147085093
19.5696116820368218
15.906876728074236
508.603162249900777
1593.18346111340679
17.3874789021348981
24.0612205810408675
21.9102829255993043
17.0381500021675123
15.6847119976281135
15.0353724153607526
13.9171085105781565
13.5795876515971479
13.9684660752898822
16.8229385564670864
19.828990990951251
19.635060848545109
39.3648806150620132
428.543091913038666
1019.93592643839941
15.5884023212993572
26.0962397696181156
27.4803754012922568
24.4042814402838317
17.4353582527175419
15.1454891722624403
14.4353903199502884
13.4705009226065453
13.3885628367167637
14.7354556951000433
17.7625291287652871
20.9730563753689019
22.5371872203672794
32.2890321777025591
582.763630777279445
1101.90428715430312
21.2224418098490268
29.0336628834361044
28.461777022665764
22.9040934357132926
17.9364297282712144
14.3788688534134543
13.7852398973347849
13.1171442059900887
13.3046238500407767
14.742941052200532
18.3594023483908799
24.6834214297224861
26.9329441257424556
18.9117168004085521
393.189367985479294
1189.59717915311148
24.325556553405896
30.0461061648601557
28.746934598898445
25.3967979259959868
12.110213172313232
13.8466632213861036
13.3659058084168656
13.0872720787748023
13.4962192975009181
15.0130653133940175
19.0739973305743646
21.8237912557460199
19.6528393656637839
16.9078643118175052
355.229546828340062
1280.6669237711119
6.10552992288809282
8.03171630259568303
10.666795069071167
22.7592973910430807
29.2489101282757673
28.4750367817949552
17.1825868272815931
10.8296106986452276
13.1610840582655744
13.0277480471111744
13.1324697103365189
13.8379390214034217
16.0035282506988139
20.1815674462349399
22.815400215864301
16.7484137223787783
15.2839141256020419
449.560786954491505
1368.88410334197238
5.57999048337889736
7.23032878080054253
11.2920625388039788
26.5509558347023784
25.4224761065531411
13.739895196923392
7.14640995680370938
10.2718736349518807
12.3739285655336033
12.6152562029502349
13.1600265214309164
14.1749043543502466
16.5166468458870561
21.1203148623814876
22.7937839898191221
16.1612675846077103
12.803968080069005
338.306653362980626
1198.13781357853782
3.04307868591746722
4.02270441338079188
5.16397745146016085
6.69213615295220432
16.2834396733622988
22.6537452300365239
8.43998571740746328
4.67766698634242406
6.48697562366621927
9.42519628572261325
11.6435140349572723
12.2994582666636312
13.0992918519092427
14.3361586917000956
16.9737444325763605
21.7175482743750585
22.4723686738480914
15.2728002634655766
11.0497387089469967
212.995674314995199
943.386681543128248
16.7158217740292514
17.71559910384061
20.5668837234266597
19.7418296218150999
16.8024492126533964
14.6596621907799616
14.4443429318635008
13.8745940105798855
13.7888023853087933
14.275160602643826
15.525591917587894
16.5489184006761612
17.5148329559806513
21.2796248687063532
523.454373423167681
890.601993884351941
16.9306396245688902
23.1656058778521619
28.2863032410052035
24.4779571642179583
16.0536637764598886
14.207767074445913
13.961640887606336
13.6563430024431565
13.6813938846428691
14.3963156595499182
16.1070836687144556
16.8312262360829763
14.3322445883200871
29.8815659825099935
216.733484812832387
910.914263985327239
20.1298580650812085
31.41875450421702
29.1875857665045189
25.7363035252820147
20.6073433469577942
13.7152358353146404
13.6902633052853311
13.3792107307099624
13.6536359885340772
14.5955452694890759
16.8515858777868353
17.4103312330561621
11.3852241031354033
15.383053792477563
154.151604284678172
1163.78022672794191
30.3318163289922218
31.5479862360949177
30.3954838850202549
27.0311257756373742
25.2944382872797853
13.7610727647350934
13.4912374415159579
13.4787433879238758
13.7022192109697016
14.9967087390910638
17.8406278963695506
18.3711862321969193
8.6644942116595125
15.346661488684564
269.103588040776174
1248.11834907203479
7.73860374680164131
9.86417878958724259
14.6029778393060337
30.5362602156097438
32.4252130952950921
31.6491227471541272
29.552804739803932
16.2142888352613568
12.984800879079291
13.1164204458194629
13.3538458704071594
13.8887166264511226
15.3064638294549713
18.8317268839162857
19.840617657028389
7.72160741881974744
13.4822393079644538
576.796850691048007
1326.43783266542778
6.67629073690148278
8.48548774640862113
18.7051938622567988
29.9338904089171471
26.5925632728984596
19.8886990257689007
15.4407407029058525
9.29373250097570036
11.493502835293544
12.6169004336707928
13.1788508879770632
13.9147082827921285
15.620553527433831
19.8323551311532533
20.5687222569919932
8.10893970843240908
12.6509797923478899
475.64384128197338
1303.86812866966193
3.21711105028073829
4.38812890255902133
5.78981874790560003
7.09758933364653188
22.0297199919123265
20.5899755784562046
7.7529105043030011
9.03757692535235257
7.19701586894724521
8.85238444442734718
10.8789457900315121
12.1023558880584847
12.9468344548737324
13.9059859811986879
15.9814995583958837
20.8951783001314091
20.5426278242622757
8.36559422952232623
8.68604343915114008
240.996999744670802
1348.64983655744277
18.1679478206313121
18.4740329866252324
16.8179365256262408
15.2958443275656144
15.5531620205843701
13.6312558990574217
13.8713837088272651
13.8795956375039626
13.9911656628655621
14.5549274225647736
15.8758958122859415
16.4713019750217846
18.300396145781999
19.1481831504958393
561.66039162935931
913.604771387217284
18.9852407852712979
19.9982768565080775
25.5621557194977704
21.050548729056775
13.468969373065482
13.1004577399214277
13.5794582969511737
13.6149919839265383
13.8337638224110471
14.4799644663495961
16.228097226705156
16.4535699892786837
14.2536151855953968
15.6032648048218334
223.379547068959539
915.872192693176089
20.954314703101506
34.5628845876534214
32.0509276245321573
27.5632534837461307
15.252137603967828
13.0237549775746331
13.3567936885455065
13.4368802108172201
13.7310129600213582
14.5489971619079785
16.7918127502924968
17.0331204891236823
8.55965748084439149
10.3052750247803999
178.972667223635739
1083.13854998508941
34.7959053010316239
35.8315520144876771
33.4741962648632239
30.4056954416675751
22.4455021526266059
14.4568124774733633
14.4330111207519725
13.7622031339789057
13.7052729606698289
14.7174920736527408
17.6412398896056679
17.8063452189314084
4.8220216251807182
4.69794714424028736
328.542129883562211
1190.66355966251786
9.30432722541034529
12.2262300254605449
18.1778707602650833
35.6628003547752286
36.1151227398667132
35.4744086336977702
33.05437482912874
31.3241654498728401
22.6530868381425492
14.4047008080296433
13.7494412011416891
13.6477804570805556
14.9737997209210594
18.7057239923631542
18.6175395956942893
1.35401822996706889
13.003148464777583
485.795877762033854
1265.79792927392077
8.09743997238593494
10.2385475991610697
25.4145997475644414
34.2380810996669638
36.8260111547290876
37.248798295511925
36.7497952468727931
24.9716130399497906
16.007323872004104
12.5748170781430684
12.6743605976058156
13.5133744429816982
15.1843866174147539
19.8520535143505583
19.2242018842005074
0.724921669979577188
13.7821025294242716
421.846974061273443
1344.00359947561947
3.65174152779937078
5.05530341045318465
6.74913175080405914
8.19648727234099717
25.1485596932736115
31.1426325835137057
33.3213759447441618
38.9670789206018569
31.5847793118310456
11.4673925153861198
9.83438388065916769