/*--------------------------------*- C++ -*----------------------------------*\
| =========                 |                                                 |
| \\      /  F ield         | OpenFOAM: The Open Source CFD Toolbox           |
|  \\    /   O peration     | Version:  2206                                  |
|   \\  /    A nd           | Website:  www.openfoam.com                      |
|    \\/     M anipulation  |                                                 |
\*---------------------------------------------------------------------------*/
FoamFile
{
    version     2.0;
    format      ascii;
    arch        "LSB;label=32;scalar=64";
    class       volVectorField;
    location    "0.390000000000000124";
    object      faceForces;
}
// * * * * * * * * * * * * * * * * * * * * * * * * * * * * * * * * * * * * * //

dimensions      [1 1 -2 0 0 0 0];

internalField   uniform (0 0 0);

boundaryField
{
    inlet
    {
        type            calculated;
        value           uniform (0 0 0);
    }
    outlet
    {
        type            calculated;
        value           nonuniform List<vector> 0();
    }
    top
    {
        type            calculated;
        value           uniform (0 0 0);
    }
    bottom
    {
        type            calculated;
        value           uniform (0 0 0);
    }
    left
    {
        type            calculated;
        value           uniform (0 0 0);
    }
    symmetry
    {
        type            symmetryPlane;
    }
    interface
    {
        type            calculated;
        value           nonuniform List<vector> 
181
(
(0.588416764753413535 -7.5599742486942208e-06 -1.99629533937674364e-05)
(0.555017758090005531 3.61741985584151993e-07 -2.1231519911789155e-05)
(0.521134354673281286 1.38861749957949524e-06 -2.10890173560951996e-05)
(0.488568569897699811 1.62799014579356701e-06 -2.06569134759466044e-05)
(0.457424056364948206 1.95592297689667427e-06 -1.99603419684622978e-05)
(0.42701566912310529 2.37990622049706602e-06 -1.94101704184593419e-05)
(0.396977920815862528 2.95197087498046931e-06 -1.89458145311517276e-05)
(0.36724874009820313 3.67886629752838347e-06 -1.83803542925447515e-05)
(0.33742582203123489 4.53999519968627689e-06 -1.77696575002498619e-05)
(0.306318165587057767 5.71648035119998428e-06 -1.73067315996353685e-05)
(0.272614593304304653 7.52212751704399163e-06 -1.71235260972160592e-05)
(0.235008746288385417 9.61854540994203804e-06 -1.67978800773781326e-05)
(0.19237593632474187 1.19725283620151063e-05 -1.61963999309508563e-05)
(0.145201793792813505 1.46426365110369249e-05 -1.59917356361720136e-05)
(0.0969880456172502875 1.72212560597863944e-05 -1.58383354127395917e-05)
(0.0561919519746914078 1.83331495646386134e-05 -1.5468266800703812e-05)
(0.671784330566690846 -4.43094621915434068e-06 -1.27039444404611145e-05)
(0.636549544228563802 8.69309542721014641e-07 -1.42276330990425607e-05)
(0.600478635861719567 1.73570707806887882e-06 -1.4017674679845996e-05)
(0.564560125615419683 2.27948100620340043e-06 -1.37285272171936807e-05)
(0.529384238170101495 2.83218445307555703e-06 -1.3372319138293217e-05)
(0.494889256154084467 3.44765794526322719e-06 -1.31012121902099003e-05)
(0.460572905805987975 4.14377876322654762e-06 -1.28264547789080871e-05)
(0.426103746947753603 4.94869605804898608e-06 -1.24975225077393333e-05)
(0.39116535840240152 5.89466759460095256e-06 -1.21005816140248225e-05)
(0.355295624814864985 7.09798030857949652e-06 -1.16969183638080936e-05)
(0.317982743255843359 8.66501456821681879e-06 -1.14021171412768662e-05)
(0.277513043206165155 1.1028018585659821e-05 -1.16933731235814887e-05)
(0.232376783111943486 1.31660687654171774e-05 -1.13335375296739817e-05)
(0.183088227352847105 1.56851329839665271e-05 -1.11605507896801171e-05)
(0.131299271661182937 1.83961279401761312e-05 -1.11420563469060426e-05)
(0.0826239767482688653 2.00081069892154934e-05 -1.10922449150532714e-05)
(0.710046718591323622 -4.44589032613337203e-06 -1.01064447259795308e-05)
(0.674774316101889315 9.80262545394872928e-07 -1.12468334577587367e-05)
(0.638136944048748211 2.1783210018630277e-06 -1.13399733347547198e-05)
(0.600999080478476944 2.93085268415687438e-06 -1.10906173249526519e-05)
(0.564328090309322739 3.6161857601118361e-06 -1.07213377907540095e-05)
(0.528170015689094052 4.31018918076441163e-06 -1.05017738089560154e-05)
(0.491930204705852858 5.06678328646338808e-06 -1.03230047926252074e-05)
(0.455427060446467746 5.97518522159849109e-06 -1.01641743906922145e-05)
(0.418605232093092305 7.00835399022775516e-06 -9.9389911532346955e-06)
(0.381146887686499181 8.18457459716697436e-06 -9.66561560448215456e-06)
(0.342611868259741881 9.67467398901909834e-06 -9.48366840230777099e-06)
(0.301362397558371242 1.20852576616592802e-05 -9.86276450125028269e-06)
(0.255810418241748494 1.41407288042504802e-05 -9.67590383705091623e-06)
(0.205879507217082786 1.64930562727955692e-05 -9.51533860902167722e-06)
(0.152357545791254462 1.91893038062036969e-05 -9.49559345708500618e-06)
(0.0994549398516783867 2.10098365856700167e-05 -9.54336742409424043e-06)
(0.72481361035398284 -3.23346906582717887e-06 -5.99602959150635729e-06)
(0.68937122938797446 1.20018107139719811e-06 -7.36184673456972356e-06)
(0.652390972675800707 2.36967119613808041e-06 -7.41621427137269791e-06)
(0.614784687284915754 3.18446788579393715e-06 -7.16766492198268624e-06)
(0.577651816869814705 3.99060735601614314e-06 -6.97171356527172358e-06)
(0.540961855321398732 4.78745712583701055e-06 -6.89474052975797271e-06)
(0.504104829353668626 5.63360006750121743e-06 -6.82457845548337475e-06)
(0.466862422004755084 6.61306399324669282e-06 -6.72790276519404611e-06)
(0.429197302239410383 7.69833400009836269e-06 -6.61372059197948236e-06)
(0.390919005004598696 8.87781252749515276e-06 -6.46086388965058656e-06)
(0.351519535775720815 1.02786873830430369e-05 -6.33988211936646637e-06)
(0.310299133082390488 1.21772247102809161e-05 -6.37583111302037761e-06)
(0.265485381137725684 1.47374753729141874e-05 -6.62157003585641647e-06)
(0.215919840359824172 1.68669280313715857e-05 -6.53118189403888559e-06)
(0.162516189315090459 1.93898478626088808e-05 -6.53100367748227464e-06)
(0.108229364390644039 2.13578315068877808e-05 -6.64832845491538642e-06)
(0.732597676964428679 -2.60327388189847171e-06 -4.82166080283798647e-06)
(0.69729533892236284 1.30184034678335894e-06 -5.44436912726382223e-06)
(0.660479112831596438 2.47729508097926869e-06 -5.55718414993448562e-06)
(0.62293883442837561 3.38900578886920774e-06 -5.50733463235298492e-06)
(0.585720494634531463 4.29957766781948222e-06 -5.43312008062623487e-06)
(0.54890543625151389 5.16960479649915445e-06 -5.39350710001032028e-06)
(0.511858317832465604 6.0725574391718024e-06 -5.33615670652379344e-06)
(0.474342388293849115 7.09490092223506117e-06 -5.25616892319408637e-06)
(0.436394521019817128 8.21342862957203225e-06 -5.15852115755533113e-06)
(0.397910244975122007 9.44219942385884749e-06 -5.06040334739801087e-06)
(0.358419553043449912 1.08201350703042995e-05 -4.97369452335042267e-06)
(0.317022973757990711 1.24029644536603446e-05 -4.90774302405307068e-06)
(0.272842949532901613 1.46413777018008989e-05 -4.99373395521930506e-06)
(0.224434305244420623 1.729557370593177e-05 -5.13830039428045256e-06)
(0.171341342817105974 1.96265447969268619e-05 -5.10322481979205293e-06)
(0.116125731276783467 2.15360096140841041e-05 -5.18690547439676845e-06)
(0.735792671112995511 -2.03644957613299047e-06 -2.54995365883433335e-06)
(0.700566926019602243 1.42002004823754832e-06 -3.43725697208027192e-06)
(0.663878858467452759 2.55347990005342419e-06 -3.52719613073185809e-06)
(0.626491446844937294 3.50749457276751274e-06 -3.50304976959107799e-06)
(0.589235944755180485 4.47079024348897762e-06 -3.46772936545867381e-06)
(0.552268956970136449 5.37012356290296102e-06 -3.44307052913816997e-06)
(0.515054116429168651 6.30851136837933479e-06 -3.41086472264612855e-06)
(0.477357977974989134 7.36546923172298404e-06 -3.36885801342993751e-06)
(0.439188775530031938 8.5260237133688635e-06 -3.29518483354279328e-06)
(0.400548529735461012 9.78855081750484134e-06 -3.20028905060604188e-06)
(0.361073175854808137 1.11638117657889095e-05 -3.12686843046918565e-06)
(0.31977338564420138 1.27142633427101691e-05 -3.08149731400206025e-06)
(0.2758564175441654 1.46461034162452533e-05 -3.07191464231085192e-06)
(0.227858316717642673 1.75702434133577035e-05 -3.23222517888066249e-06)
(0.175210257248710505 1.9833549207069191e-05 -3.21894646971634774e-06)
(0.11994797430418945 2.16306769989362484e-05 -3.2835928703859734e-06)
(0.737729682316917268 -1.92113608618424189e-06 -1.45665989049935445e-06)
(0.702395591267489738 1.53788729533683864e-06 -1.98459032894891797e-06)
(0.665801341693899817 2.6330757156937305e-06 -2.03539608471733083e-06)
(0.628724169327639637 3.59220042140163701e-06 -2.04232234917955911e-06)
(0.591690641985858745 4.5792640214004494e-06 -2.05897180364164101e-06)
(0.554744163717635463 5.47513570682321695e-06 -2.06841278225677969e-06)
(0.517566759575054047 6.41715229663114872e-06 -2.0795536289898519e-06)
(0.480007026846133111 7.50770726284497509e-06 -2.06883897149518013e-06)
(0.441445906868340565 9.20075446368573305e-06 -2.10876083672124628e-06)
(0.402354183696634171 1.00621290207079675e-05 -1.9153335798673385e-06)
(0.363094220280916036 1.14303566238035155e-05 -1.84417209227153128e-06)
(0.322087795467910831 1.29994229317212069e-05 -1.80294516820219489e-06)
(0.278280171767745721 1.48130614225700198e-05 -1.78471766919487906e-06)
(0.230849440577912374 1.72347014381000997e-05 -1.81538664403078272e-06)
(0.179099921872495516 1.99221393352870216e-05 -1.84953167419622233e-06)
(0.124804883287669463 2.17989102656101281e-05 -1.8519904294111586e-06)
(0.738356443970010767 -1.63870285658747755e-06 -4.70073852939069506e-07)
(0.702965295110195565 1.59612250987496372e-06 -6.26652032710410161e-07)
(0.666384815868502844 2.69719981486834699e-06 -6.45136622969629049e-07)
(0.629470275318192218 3.66163345040149597e-06 -6.53911067290831002e-07)
(0.592663067117112252 4.6110248867754369e-06 -6.69030833979641574e-07)
(0.555857261476661257 5.47004959497353758e-06 -6.81594344384728597e-07)
(0.518965436640841382 6.4033997062081168e-06 -7.02265289721583568e-07)
(0.481096577102849809 8.07355745738380273e-06 -7.52482557742115354e-07)
(0.44185631105669182 9.23256165145232177e-06 -6.91201030993989643e-07)
(0.402726602005663459 1.01182756801051075e-05 -6.15449697669295188e-07)
(0.363600072984134437 1.15066372399112679e-05 -5.87303539030975569e-07)
(0.322655010231422623 1.30790097815588599e-05 -5.68733309109568235e-07)
(0.278968771876286048 1.49525735237692579e-05 -5.62570514104482996e-07)
(0.231259011648606766 1.77059384384091559e-05 -5.73468511616983786e-07)
(0.179031069228441919 2.0101289687867779e-05 -5.51994110015339755e-07)
(0.123590487372755145 2.18664890031213957e-05 -5.24093552846852421e-07)
(3.14267291469634837e-05 1.45806747995119151e-05 -0.0149066350176378717)
(3.07852192269851549e-05 -9.85766667853198763e-07 -0.0449854640928409599)
(2.97436446898783553e-05 -2.94582361854662482e-06 -0.0583020487738411183)
(2.72142524504693161e-05 -4.24891942946858641e-06 -0.0585093272278764537)
(2.29228917006256629e-05 -4.82904151465422991e-06 -0.0521029188964115056)
(2.05667606383878902e-05 -4.50721144836871243e-06 -0.0465231263429447608)
(1.93854019532287765e-05 -4.12488026567850132e-06 -0.0403210812294839682)
(1.74593010559014675e-05 -3.36568349506918711e-06 -0.0313555905291834219)
(1.75148883054465973e-05 -2.5572359998399366e-06 -0.0235747892619865042)
(1.20251370161054817e-05 -1.315879488225904e-06 -0.00121907523590408253)
(1.2298843130610872e-05 9.86401259862120516e-07 -0.000734642350705708592)
(1.08035211827732724e-05 2.25890749247831416e-06 -0.000610767666541649039)
(9.41287097692675132e-06 3.30284592930610036e-06 -0.000599787139459556813)
(6.79369512257932284e-06 3.51485470002793304e-06 -0.000359830402803082016)
(3.76242287469391431e-06 3.31056368677566057e-06 -0.000532791221944800336)
(2.35449001918685163e-05 1.0613425825322938e-05 0.0551692359896152826)
(2.17193046548817459e-05 -5.49963014834355437e-06 0.0283870957588000933)
(1.7535962387083583e-05 -1.01781322748622448e-05 0.00615456481215752044)
(9.69445425547715893e-06 -1.0647423327040685e-05 -0.00775870531408374454)
(1.11509641798870635e-06 -4.121792863047539e-06 -0.00280075557250344465)
(3.43832572892366351e-07 -1.50599743436811996e-06 -0.0028033612618230991)
(-8.08771590588300493e-08 -1.1676158428116163e-06 -0.00541183127520745901)
(-7.11678660973276816e-08 -7.26124113979759394e-08 -0.00432977604745480357)
(-1.1824902388005039e-07 -3.57523982595447943e-07 0.000381677522157714553)
(-2.69805936151948261e-08 -2.72716241537997429e-08 -0.000203800434849883878)
(-2.60394606194815199e-08 -1.87887756321718846e-08 -0.000247990522140786515)
(-2.49292535234684151e-08 -2.04908514442846331e-08 -0.00026857607252060001)
(-2.24284140736505441e-08 -1.81546353952990919e-08 -0.000283504727156324481)
(-2.68013919828926597e-08 -1.69254475417349145e-08 -0.000294714845478345061)
(1.96107501889603571e-05 4.80389057518548505e-06 0.114036132990377223)
(1.43756685623519205e-05 -7.13708840104181504e-06 0.0683822105061008545)
(3.4830318166179649e-06 -5.60374011741846643e-06 0.0230888046453987493)
(-3.68028015736869953e-07 -3.13406278122426952e-06 0.00294941112557157775)
(-1.58348660830260472e-07 -1.13537038532401644e-07 -0.000949622292541414388)
(-1.93397871400045407e-07 -1.07295622696357924e-07 -0.00167933332963105366)
(-1.30642226020281978e-07 -1.38010653057847946e-07 -0.00236370018822499878)
(-6.01387324987692504e-08 -6.4253884864900277e-08 -0.00197778296494468923)
(-1.79271600494140596e-08 -2.31690678844108887e-08 -0.000969959175463982483)
(-1.84123331735923715e-08 -1.92956544703247171e-08 -0.000554045282176723907)
(-2.68868997489154552e-08 -1.65536689356351882e-08 -0.000446303296339581183)
(-2.18893394140543518e-08 -1.22872397099920256e-08 -0.000427349970329394624)
(1.94940420445467891e-05 8.23858798389012376e-07 0.0756768054026522585)
(1.1585877043774267e-05 -7.74313650848843595e-06 0.0347549496174315714)
(5.10184599496700308e-06 -3.16273834263433469e-06 0.00889660858256880252)
(6.3043970163933671e-07 -3.14941893841347104e-07 0.00113855965923184092)
(8.78347347256090497e-07 -6.51775625330352844e-07 -0.00128740333162078325)
(3.14989531450384951e-08 -1.42855067324200162e-07 -0.00165498675111096618)
(-4.29543992062169557e-09 -5.69581418628158592e-08 -0.00128284126324186825)
(-2.04273118544210215e-08 -1.44525661437160614e-08 -0.000630621318743631578)
(-3.56955329494085849e-09 -2.60157007855848236e-09 -0.000422505639041738628)
(-9.1860816769113194e-09 -4.88217885411738025e-09 -0.000456236083681491316)
(-2.60657589910519597e-08 -1.87993946431645518e-09 -0.000460964560604599214)
(-2.37169771919674733e-08 -4.34334018188199801e-09 -0.00044722566762814606)
)
;
    }
    procBoundary0to1
    {
        type            processor;
        value           uniform (0 0 0);
    }
    procBoundary0to3
    {
        type            processor;
        value           uniform (0 0 0);
    }
}


// ************************************************************************* //
