/*--------------------------------*- C++ -*----------------------------------*\
| =========                 |                                                 |
| \\      /  F ield         | OpenFOAM: The Open Source CFD Toolbox           |
|  \\    /   O peration     | Version:  2206                                  |
|   \\  /    A nd           | Website:  www.openfoam.com                      |
|    \\/     M anipulation  |                                                 |
\*---------------------------------------------------------------------------*/
FoamFile
{
    version     2.0;
    format      ascii;
    arch        "LSB;label=32;scalar=64";
    class       surfaceScalarField;
    location    "0.390000000000000124";
    object      phi;
}
// * * * * * * * * * * * * * * * * * * * * * * * * * * * * * * * * * * * * * //

dimensions      [0 3 -1 0 0 0 0];

oriented        oriented;

internalField   nonuniform List<scalar> 
20789
(
1.47917556891532377e-05
-1.48498169163302934e-05
-8.13871342638382864e-06
8.19677464543421646e-06
3.56979782904845647e-05
-2.10189869175737781e-05
-9.10268552880812462e-06
9.21540972574659212e-06
5.73266534806323586e-05
-2.17549337648456598e-05
-9.95335944364859495e-06
1.00795954779897102e-05
7.83539278928963755e-05
-2.11708961080425896e-05
-1.14351548047690671e-05
1.15787812809760867e-05
9.74879150831462176e-05
-1.93037792628745125e-05
-1.36366370142429255e-05
1.3806443195779863e-05
0.000115261423823208184
-1.80145608749568851e-05
-1.68117555430190302e-05
1.70527997773392502e-05
0.00013214227203124548
-1.71576267921746798e-05
-2.1166297877432417e-05
2.14430514755639012e-05
0.00014797931283881601
-1.64255458141752182e-05
-2.73068617987553297e-05
2.7895365983391057e-05
0.000162592995766177445
-1.51729845838437472e-05
-3.51756082166979815e-05
3.5734944400228017e-05
0.000174726207888098467
-1.3772725893176786e-05
-4.64748805321189213e-05
4.81144327136435562e-05
0.000184538531295617026
-1.11746503332235456e-05
-6.02196787276501605e-05
6.15820309464580503e-05
0.000189347972677637031
-9.5338952281665406e-06
-8.14465396096612678e-05
8.61710174257978098e-05
0.000191614207927756663
-6.04842650063197845e-06
-0.000105842037435245747
0.000109624265483310716
0.000177584664348827659
-6.45954006515368281e-06
-0.000146304336838733623
0.000166793464900218949
0.000154785275439926756
-6.01673432726204831e-06
-0.000191384579210615325
0.000220200736845067559
8.15413971039053793e-06
-0.000293013773068265498
0.000439644922395938107
1.59521113178664702e-05
-3.08766007020023212e-05
-8.14409993088962012e-06
8.21869446669463882e-06
3.63272952577308551e-05
-4.15156588251725496e-05
-8.88602177132990283e-06
9.00744788206868441e-06
5.61474072786176945e-05
-4.170696300837693e-05
-9.73238153505422771e-06
9.86429565816584976e-06
7.48774058411542432e-05
-4.0038588333658401e-05
-1.11464728246767383e-05
1.12841856337936345e-05
9.32222859261021676e-05
-3.78045514638401274e-05
-1.33232128645677449e-05
1.34790847249845042e-05
0.000110946683835590873
-3.59370280800150435e-05
-1.6454287284243451e-05
1.6652306543243845e-05
0.000127937679253520541
-3.44413295295599412e-05
-2.07970383445624979e-05
2.10897501558384997e-05
0.000143996282506791962
-3.29352088203286391e-05
-2.67020205143552083e-05
2.71531694645446537e-05
0.000158862297441871085
-3.07847725093876579e-05
-3.46236299056203368e-05
3.53695149789440028e-05
0.00017177077282376141
-2.79014189320680818e-05
-4.52923993471594121e-05
4.65127076390310426e-05
0.000182394709510324952
-2.38417047288606195e-05
-5.95458259247917272e-05
6.15890333602612996e-05
0.000188789043784535701
-1.95809716924665496e-05
-7.91628605673019609e-05
8.28157168898122694e-05
0.000191057297477951598
-1.45369131430675276e-05
-0.000105222660278970784
0.000111443024349566454
0.000179389498174087743
-1.15009727093619233e-05
-0.000144028454956234182
0.000160737787654809556
0.000157050311682884901
-1.94942345714830263e-05
-0.000186936237053525234
0.000222752965033170939
2.25972819524375605e-05
-0.000307618960909449024
0.00045022613850746805
1.71207004330462247e-05
-4.81050097225238396e-05
-8.0857290222124587e-06
8.19338402889142622e-06
3.67439000190444438e-05
-6.12975010590107762e-05
-8.87625597845775293e-06
9.03486515648694136e-06
5.62626935897396694e-05
-6.13835883899373636e-05
-9.7154328352604355e-06
9.8732748307372426e-06
7.50603279115954087e-05
-5.89813227379106455e-05
-1.10970791212302591e-05
1.12421936237640847e-05
9.34093010281092183e-05
-5.62963617387854487e-05
-1.32398745645489016e-05
1.33826851266533151e-05
0.000111243818202757641
-5.39422228604173419e-05
-1.63348611605877856e-05
1.65054987604906637e-05
0.000128402421081785795
-5.18521363263867207e-05
-2.06265921825441566e-05
2.08788088164309912e-05
0.000144674232766462237
-4.96202186938443407e-05
-2.64602111630559951e-05
2.68734785410691622e-05
0.000159731871992559193
-4.65358595824193164e-05
-3.42848160163394667e-05
3.49783413325246257e-05
0.000172884512135739626
-4.22356931239661928e-05
-4.48246124240208281e-05
4.60063136779899205e-05
0.000183554535665646251
-3.6467355307201082e-05
-5.89315570526634391e-05
6.08872573009574584e-05
0.000189989335822173184
-2.96126226392154755e-05
-7.83539431012635068e-05
8.19508810422617565e-05
0.000191583649301103849
-2.22101917382082768e-05
-0.000104251171967174145
0.00011033021874482539
0.00017946582643011441
-1.55534222729309556e-05
-0.00014265291554682431
0.000158823236311283279
0.000152074526922940266
-2.66298375316142576e-05
-0.00018609204991462615
0.000220618963533490144
3.31103010236071909e-05
-0.000301403187275117723
0.000442964712424986093
1.79158951960362943e-05
-6.61903236353484752e-05
-8.06504251157971402e-06
8.23442558308212963e-06
3.71038612679940846e-05
-8.07002402154329636e-05
-8.85334865351472138e-06
9.06810381188980134e-06
5.63425815124830745e-05
-8.08140073649696392e-05
-9.65968181103952701e-06
9.85139406857212703e-06
7.51039041599404155e-05
-7.78926457420308841e-05
-1.09893002883696106e-05
1.1139306367620932e-05
9.34699021349731245e-05
-7.4779376788060425e-05
-1.30823024747708918e-05
1.3199288359674936e-05
0.000111401073355371432
-7.19932822145221508e-05
-1.61287261774820844e-05
1.62485843061626763e-05
0.000128728694456420827
-6.93641756741123779e-05
-2.03599719690613338e-05
2.05444102945524786e-05
0.000145235379464686169
-6.64643585144590252e-05
-2.61046412750490261e-05
2.64421551463958477e-05
0.000160551095683309083
-6.24682683464232739e-05
-3.38055806072401618e-05
3.44223358781919011e-05
0.000174017616906177588
-5.68165196043639227e-05
-4.41700911072632663e-05
4.52844520703334538e-05
0.000184875419835932412
-4.92159503308045105e-05
-5.80615279810295211e-05
5.99523761074397459e-05
0.000191347474153116939
-3.96092169615537234e-05
-7.72101350716265328e-05
8.07347316033071139e-05
0.00019221645714711147
-2.90942684124307464e-05
-0.000102868450512018863
0.000108883581253406037
0.000179447313292887433
-1.86357746295874103e-05
-0.000140746182807872407
0.000156597692180767583
0.000148564446326656985
-2.94780611809642776e-05
-0.000184090477121590806
0.000217821587374988126
4.38066176915455162e-05
-0.000296276605958416034
0.000434144769240864335
1.84058515413837835e-05
-8.48561624845041115e-05
-8.0672199090516069e-06
8.32718212397223302e-06
3.74049475038831496e-05
-9.99733364094774503e-05
-8.84617548046553449e-06
9.12016218283276868e-06
5.64594343947540773e-05
-0.00010009039348205816
-9.59110923440768267e-06
9.81301636833301861e-06
7.52225088520201235e-05
-9.6801394448646147e-05
-1.08399314974474617e-05
1.0985599559381447e-05
9.36603751372687909e-05
-9.32867803829011909e-05
-1.28649877459045359e-05
1.29344939119841659e-05
0.000111716574616351285
-9.00813805314417185e-05
-1.58530914794169426e-05
1.5884975147428913e-05
0.00012924202301667611
-8.69559330408347763e-05
-2.00152153484535036e-05
2.008155226007841e-05
0.000146027380129846941
-8.34549460904559956e-05
-2.56580367083767056e-05
2.58633166214993601e-05
0.000161685096047357901
-7.86222182077695418e-05
-3.32049132152374146e-05
3.37011948459341748e-05
0.000175571431375532805
-7.17299239277220397e-05
-4.33408854773819849e-05
4.43679973132569865e-05
0.00018676082729707913
-6.22461332904999346e-05
-5.69267182978547119e-05
5.87675507120860902e-05
0.000193326447418458414
-4.9651397657232944e-05
-7.57068075468209952e-05
7.91834105586015512e-05
0.000193506124781221434
-3.52800025344330323e-05
-0.00010097522941683865
0.000106981300132586194
0.000179664289349685359
-2.03546832985372775e-05
-0.0001382399447397276
0.00015380068238840606
0.000145305343491252157
-2.83406183530747949e-05
-0.000181094086157464814
0.000214315612577846572
5.67088411790561112e-05
-0.000291630255163118036
0.000424033393656924695
1.86800515844686818e-05
-0.000103903242739367816
-8.06452428153103367e-06
8.43152903984236968e-06
3.76135657860870559e-05
-0.000119213039132622827
-8.85869914617511947e-06
9.16486881627104173e-06
5.65827101835618824e-05
-0.000119291750825587989
-9.50297774192038086e-06
9.73518566287906208e-06
7.53988993486205716e-05
-0.000115733007924880341
-1.06381400631080797e-05
1.07535459013602829e-05
9.39522769199994614e-05
-0.000111811651989838546
-1.25869503856404448e-05
1.25584206192895212e-05
0.000112159908864675585
-0.000108156606999187986
-1.55210798045464848e-05
1.53886787029008252e-05
0.000129902266217418218
-0.000104556861724829913
-1.96185656118116062e-05
1.94771696959605611e-05
0.000147000447528506544
-0.000100546798504570309
-2.5154535902840628e-05
2.51482431512619021e-05
0.000163091970680205107
-9.50523698864517465e-05
-3.25150495361224264e-05
3.28537109098320725e-05
0.000177551152087815047
-8.71420442107134459e-05
-4.23487580447416104e-05
4.33017347592467631e-05
0.00018928133677906318
-7.58166659287874895e-05
-5.55173540333956078e-05
5.73577502072586943e-05
0.000196083205553809189
-5.9933325262094077e-05
-7.37965576207958205e-05
7.72766530080682291e-05
0.000195655554782523858
-4.08786137998635874e-05
-9.85361078480982564e-05
0.00010456236844039456
0.000180355061597886287
-2.03089248916953415e-05
-0.000135092662551701721
0.000150347381333238968
0.000142509723968168293
-2.32338860211203122e-05
-0.000177285390794295261
0.00021002399825512558
7.19912414780249631e-05
-0.000286065545684797756
0.000413292847602630389
1.87914784722861652e-05
-0.000123142348034648458
-8.03094665795293557e-06
8.47854416201846036e-06
3.77322089717724938e-05
-0.000138443577177047288
-8.85370421666024744e-06
9.1434837694371737e-06
5.67232903122772143e-05
-0.000138484979075746906
-9.36543830874471961e-06
9.5675648592492693e-06
7.56632108324933064e-05
-0.000134692723070196468
-1.03741461614157995e-05
1.03939139610247552e-05
9.43693830011285511e-05
-0.000130284664525624159
-1.2262947798038235e-05
1.20297784080889503e-05
0.000112740766323493047
-0.000126104585839934653
-1.51639333878754745e-05
1.47405513076513942e-05
0.000130703454789219412
-0.000122057477427601997
-1.92088728056570633e-05
1.87468313795662816e-05
0.000148155496551890419
-0.000117722572700865798
-2.46262606906304707e-05
2.43500184869640371e-05
0.000164821222607556547
-0.000111923591479218921
-3.17379702222623174e-05
3.19434934956510776e-05
0.00018008479796010021
-0.00010336466832749344
-4.11464033798520653e-05
4.2105494192290725e-05
0.000192632053272036069
-9.02833564822660181e-05
-5.37444277485043067e-05
5.56639174699719285e-05
0.000199900929107331633
-7.07165479362905432e-05
-7.13737765812254689e-05
7.48881512985616023e-05
0.000199039186365253934
-4.59995839170076055e-05
-9.54527718788398773e-05
0.000101435469498601394
0.000181929258144098626
-1.80374961141207663e-05
-0.000131188160867204098
0.000146026644728654498
0.000140231811866709405
-1.37316353147693168e-05
-0.000172717525868199212
0.000204912700178295137
9.07389053385917305e-05
-0.000279322085646553685
0.000400806199507386168
1.88227778316159981e-05
-0.00014239180154131833
-7.9442442709741048e-06
8.37088547452654301e-06
3.78306088048346452e-05
-0.000157659226434507039
-8.7611405380906437e-06
8.96892507444868173e-06
5.69443847869353424e-05
-0.000157693025891443106
-9.14279384588837616e-06
9.23703255383906963e-06
7.60734798762298191e-05
-0.000153616378689207543
-1.00548714880274566e-05
9.84940401967413272e-06
9.49460239185510949e-05
-0.000148555579937187279
-1.19278345383984215e-05
1.13262114936013554e-05
0.000113466116857674607
-0.000143772997096725598
-1.48235118733107652e-05
1.39718616916194242e-05
0.000131641957335909028
-0.000139387713168912663
-1.88183755946577095e-05
1.79727988701736871e-05
0.000149528494068304209
-0.000135112843465527759
-2.40658838454116241e-05
2.35696456401746861e-05
0.000166975323107623942
-0.000129594909046942233
-3.07943285045779544e-05
3.10188484314333787e-05
0.000183311540271707113
-0.00012082765863437897
-3.95853566088214193e-05
4.07121637098880386e-05
0.000196982241261800311
-0.000106034809861508118
-5.14377340181977814e-05
5.35185249328030681e-05
0.000205123150544281774
-8.23572876664690665e-05
-6.82897369557148735e-05
7.17895867598849151e-05
0.000204127417329060624
-5.07427746770030435e-05
-9.15806048364924688e-05
9.73195310080542672e-05
0.000185101339506378159
-1.32074857373375668e-05
-0.000126429790242686506
0.000140625868366369198
0.00013898331167768699
7.08520516036734085e-07
-0.000167091867268567444
0.000198769734245751175
0.000114767567687832283
-0.000271330889371127219
0.000386285542553803092
1.89166984764511802e-05
-0.000161554369487981069
-7.76613467390279562e-06
8.01197127950907295e-06
3.80461526438843773e-05
-0.000176825918098597637
-8.51184801078047634e-06
8.54905342925755854e-06
5.73476329220167088e-05
-0.000176849018579664419
-8.82148990788408563e-06
8.67596610859122975e-06
7.66900799325103847e-05
-0.00017234395560171298
-9.71090267522368713e-06
9.09601085979915645e-06
9.56971644856931752e-05
-0.000166430561840718146
-1.16285727908788616e-05
1.04964852621842317e-05
0.000114320452662860079
-0.000161066479425152429
-1.45357423399020401e-05
1.32059649510275886e-05
0.000132713001726494911
-0.000156645568989229175
-1.84424914730070235e-05
1.73078290001687932e-05
0.000151169869734732248
-0.000153103073910468729
-2.33812338702897269e-05
2.29146394787322229e-05
0.000169600847108744346
-0.000148589189513317145
-2.94938183224814702e-05
3.0057148135268094e-05
0.000187201077445499651
-0.000139957008889674087
-3.74433217881246232e-05
3.89724435226919538e-05
0.000202379030957481405
-0.000123522633380303542
-4.84327738742554691e-05
5.07426593025951265e-05
0.000212095197224931165
-9.54279729371257824e-05
-6.44524835659585418e-05
6.78070414679946297e-05
0.000211431668844989338
-5.52136780499436674e-05
-8.69359543509159684e-05
9.20704466166076199e-05
0.000190372783613984261
-5.29516007775636109e-06
-0.000121012633199821948
0.000134159236699913644
0.000139389636929193567
2.08315738121102109e-05
-0.000160680556415184719
0.000191540666776177212
0.00014581718545362532
-0.000262396199155618022
0.000370736261252383207
1.9254876857226696e-05
-0.000180657413239164786
-7.42398122832149101e-06
7.27212541734336809e-06
3.85292054224732719e-05
-0.000195862411477287562
-8.05414426678029433e-06
7.81628461782885352e-06
5.80071393314757482e-05
-0.000195774611430476575
-8.41945730110821231e-06
7.86708395968657565e-06
7.7514324161626961e-05
-0.000190657861605278634
-9.38222070996773195e-06
8.18893006695105883e-06
9.65704397037879932e-05
-0.000183772819863327796
-1.14017998984142865e-05
9.68795668451331407e-06
0.0001152344678924377
-0.000178072032180221065
-1.43013734193062094e-05
1.26429168177255269e-05
0.000133870545584548477
-0.000174194352089808717
-1.80008009199264094e-05
1.6913548801693572e-05
0.000153034117499262841
-0.000172319613618354304
-2.23732687050335663e-05
2.24262904591217831e-05
0.000172505430673046178
-0.000169418161657559934
-2.75939591095261288e-05
2.89516191353209039e-05
0.000191490993537908681
-0.000161113716595490412
-3.45819749882159626e-05
3.67530947186210134e-05
0.000208904078419978022
-0.000143462536177552921
-4.47734090634515822e-05
4.73002506103439914e-05
0.000221457932318410968
-0.000110920043826538537
-6.00367832186908095e-05
6.29750705457180295e-05
0.000221786580321771181
-5.95041561527352987e-05
-8.18651806164723023e-05
8.58270963247935497e-05
0.000198277613959929946
6.55093132689295543e-06
-0.000115203883064489114
0.000126866808512321927
0.000141523965341284103
4.83596318516055039e-05
-0.00015432191623179035
0.000183547515406760995
0.000184917477156570432
-0.000253816982571729733
0.000356240692322058099
1.99652745360732836e-05
-0.000199806940517215965
-6.85659286519856441e-06
6.04083694331652997e-06
3.93419847764487566e-05
-0.000214619604861653805
-7.36604726074284386e-06
6.74651426067770023e-06
5.88782417596462796e-05
-0.000214205077019769441
-7.98339195557445713e-06
6.87757737772207315e-06
7.84221655689062167e-05
-0.000208383616154997277
-9.09608344085408714e-06
7.27791062136049437e-06
9.73999235309656983e-05
-0.000200611677497730451
-1.1247434916927707e-05
9.10853996539506563e-06
0.000116038942545464274
-0.000195135670000585537
-1.40504583370502074e-05
1.2475090242591247e-05
0.000134932966314908206
-0.000192639233801982586
-1.73163047128074035e-05
1.68672171033347499e-05
0.000154826092412906671
-0.000193445983135744868
-2.07951786462515834e-05
2.20284653607117844e-05
0.000175229172296045106
-0.000192391033918643618
-2.49832789653430687e-05
2.75530467313764101e-05
0.000196013578798543418
-0.000184740389008900691
-3.1172204599695739e-05
3.40144567991797098e-05
0.000217166596421463487
-0.00016701267710538388
-4.08698310726909354e-05
4.32670013392822729e-05
0.000234365057112916091
-0.000129944370925341685
-5.55688404147638502e-05
5.73947657524106518e-05
0.000236124021877743477
-6.32101213903019305e-05
-7.69319260974760897e-05
7.88789755314199667e-05
0.00020895680532575817
2.40956623790631408e-05
-0.000109789592609671339
0.00011941209606511104
0.00014501427545905905
8.51980892140943028e-05
-0.000148642648960013241
0.00017574671023743151
0.000233733269453382858
-0.000246114623818805174
0.00034231311605196574
2.1007727087516182e-05
-0.000219066017534763022
-5.98980067625779208e-06
4.24115167295395071e-06
4.0354164137561602e-05
-0.000232890245687598549
-6.51984796780522156e-06
5.44404080962280809e-06
5.97163887250219409e-05
-0.000231858902920497798
-7.58405386183114364e-06
5.87564350693517199e-06
7.91116624860074266e-05
-0.000225493738425740209
-8.85142391821607579e-06
6.56627276836711554e-06
9.78669582084058787e-05
-0.00021719153833279955
-1.11054228759423111e-05
8.92998230404999127e-06
0.000116401800604368431
-0.000212822981287067977
-1.36246555360676507e-05
1.27771383555832291e-05
0.000135475316527667331
-0.000212644622030161109
-1.61595226286150429e-05
1.70914497102000612e-05
0.000155951033167278099
-0.000216926422368713615
-1.85124507242152088e-05
2.15171928961915371e-05
0.000177252516087994419
-0.000217505302215975822
-2.18851198055781894e-05
2.56978840668073957e-05
0.000200867375256152649
-0.000211325942332692455
-2.77452747474762851e-05
3.0715983368823843e-05
0.000227784028254526051
-0.000195169496377938049
-3.73292386722333657e-05
3.85694354115508384e-05
0.000250989527300201677
-0.000152561349330927146
-5.15176196602442133e-05
5.09291071701226838e-05
0.000253635986635865015
-6.44426593407707059e-05
-7.28455062497591931e-05
7.14315930921547077e-05
0.000222183010093626791
4.83111361676355968e-05
-0.000105394785937282541
0.000112632299203520672
0.000150264942084204779
0.000132208681549424569
-0.000144154922745104707
0.000169062411264483882
0.000293652620779922353
-0.000238848037776039459
0.000329193640423278025
2.21268986236924643e-05
-0.00023859827255095302
-4.86359354339492603e-06
2.26895190567830496e-06
4.11953288650082248e-05
-0.000250451146999758453
-5.70515948304643489e-06
4.19762242796483446e-06
6.00447035873516322e-05
-0.00024850118532596143
-7.27216356556448593e-06
5.06507110947843822e-06
7.90931537480451077e-05
-0.000242079675028442401
-8.57800540491352121e-06
6.1154918650112619e-06
9.74892476624156012e-05
-0.000233968710236646114
-1.08168109110337863e-05
9.1978756927614089e-06
0.000115780141335301704
-0.000231725825150965034
-1.28021794741617883e-05
1.34141447835323877e-05
0.000134796909196881968
-0.000234608149544005625
-1.43689797227729751e-05
1.7315778736324773e-05
0.000155628170862635802
-0.000242667402940251273
-1.56602713100729618e-05
2.05699933562062166e-05
0.000177940080142029183
-0.000244152542424662183
-1.88558265170883399e-05
2.31911564912605514e-05
0.000205030595438219544
-0.000240244590024255554
-2.49300385761052654e-05
2.6758182128785398e-05
0.000238095854665507951
-0.000226868454977275009
-3.42933857190476021e-05
3.29270667806947623e-05
0.000266714680917047879
-0.000177078976462425458
-4.71193328253075911e-05
4.30181397426542231e-05
0.000268174082623448269
-5.85900638475560058e-05
-6.90581900030169839e-05
6.17461952921342179e-05
0.000231963722785680226
8.13428379997428209e-05
-0.000103076826674803509
0.000106255522614691897
0.000155066356274793151
0.000185541275761522644
-0.00014159097323004292
0.000165155817660985794
0.000362430455915355285
-0.000232841218460830361
0.000319129764829550089
2.29177477595161117e-05
-0.000258299604006247282
-4.04142698883898362e-06
8.2500762001190065e-07
4.12642555163309025e-05
-0.00026704714187586031
-5.18747192731618915e-06
3.43695502604761892e-06
5.91835029921215111e-05
-0.000264038722016068375
-6.9736745709955802e-06
4.59197446703524256e-06
7.76847753661204948e-05
-0.000258518914177215163
-8.0747251615759452e-06
6.01268923106498823e-06
9.5636296795248809e-05
-0.000251620616244610225
-1.00826469722864873e-05
9.78301473775448503e-06
0.00011341453527209738
-0.000252123207691946688
-1.13676313401644057e-05
1.39867914041872546e-05
0.000131938186456708129
-0.000258244973584879412
-1.19713578671428691e-05
1.70845556488825549e-05
0.000152817207160384899
-0.000269767790470262076
-1.26565408152795889e-05
1.88779083319174527e-05
0.000175677888290166255
-0.000270197651855104849
-1.65183764863108396e-05
1.97028029633655594e-05
0.000204186029267049965
-0.000267747765336325276
-2.28266392429656844e-05
2.18216446335050841e-05
0.000238751014813017178
-0.000257321010707703413
-3.0524410022457699e-05
2.64119782766917999e-05
0.000270944261482838596
-0.000203348473713717455
-3.95086596999850371e-05
3.35849809915887113e-05
0.000269885735589837721
-4.34547747391474636e-05
-6.05786668186146499e-05
4.6501946824827994e-05
0.000225680585139055909
0.000132058113167062095
-0.00010255518544098216
9.6045105090737632e-05
0.000152700174055427757
0.000237866278912677502
-0.000143047892880930312
0.000163703389481446024
0.000431806913797023529
-0.000229126056792286817
0.000312449851825618414
2.28309995355314642e-05
-0.000277488052831597655
-3.90000909490519202e-06
2.57451357564813552e-07
3.97184537842684639e-05
-0.000282263565307429006
-5.19760947503043958e-06
3.52658362277155376e-06
5.61826656233143181e-05
-0.000278446227713325528
-6.41007770402763303e-06
4.35338977310427205e-06
7.39326922230274707e-05
-0.000275479907853327097
-6.99760644635288538e-06
6.20856777254659855e-06
9.13494669707886118e-05
-0.00027081318320530467
-8.59095986669979945e-06
1.03667415521285272e-05
0.000108202201291905133
-0.000273663583095949345
-9.20901078362386951e-06
1.38966692716350438e-05
0.000125625191824824855
-0.000282548495048942573
-9.0987248300091237e-06
1.59792629073536471e-05
0.000145686434315846919
-0.000294764791841135832
-9.9387535366519558e-06
1.48745014901243399e-05
0.000167447426957673763
-0.000292017731042524143
-1.47145392847555103e-05
1.47735909638270792e-05
0.000192285362926286781
-0.000288124411866213072
-2.02833604809677473e-05
1.58220501016229223e-05
0.000221910070461834089
-0.000282459726191354541
-2.44315085425938256e-05
1.99456223257888287e-05
0.000246740259140068195
-0.000224186248354236398
-2.6028718733074862e-05
2.20364776136897176e-05
0.000231332055580890666
-1.3091921870501174e-05
-4.0669395221093604e-05
2.57149544476781235e-05
0.000178838641499678747
0.000195586788996183472
-9.35009201061484403e-05
8.24656822499280923e-05
0.000136603931362269161
0.000258676255591615311
-0.000145283911339118331
0.000166708722151257769
0.000487260922330742211
-0.000227293078868947689
0.000308443042338507633
2.07721635030322264e-05
-5.65991515917400455e-06
1.5587496280137406e-06
-0.000294159054088401835
3.51881351801834084e-05
-5.75539744094123658e-06
4.79409511865296145e-06
-0.000295718215113973228
4.94717255385120901e-05
-5.15811130245759804e-06
4.1297928005872657e-06
-0.000291701483423544906
6.62765342850425596e-05
-4.96248324684163219e-06
6.30866149507598058e-06
-0.000293630904648598348
8.28310664904473916e-05
-6.27028433620199095e-06
1.00926392342998289e-05
-0.000291190069877146586
9.8051557733837562e-05
-6.40812575562363483e-06
1.23021532811999294e-05
-0.000294778085574825752
0.000114160579388320813
-5.60589309835785038e-06
1.20876242678608338e-05
-0.000305139261196153417
0.000132059634255928069
-7.19118868800188159e-06
8.31939643871524597e-06
-0.000313792095683872738
0.000150597383067328056
-1.15324860076332984e-05
7.22639714306717509e-06
-0.000306249421030271602
0.00016569875798978903
-1.53867455176281048e-05
7.96286129877723958e-06
-0.000295801820548345575
0.000185795771970563095
-1.50862474922776188e-05
1.44378530661565843e-05
-0.000301908215744163403
0.000172457249737371021
-9.14409240006157146e-06
4.60292952408773351e-06
-0.000206306465557462983
0.000151735833450681093
-1.5354334631071241e-05
7.40450653504333981e-06
1.55800651834595515e-05
0.000117482069930440261
-7.14060667137947672e-05
5.48349742548161757e-05
0.000246411781821729409
0.00010629339080039177
-0.000143398963069936826
0.000151268939778916012
-0.000225408686052125937
0.000301903635507978177
1.44819124211304925e-05
-1.48856960402380642e-05
-7.73498013201246153e-06
3.50287150580537272e-05
-2.10019002391808468e-05
-8.64763555781002791e-06
5.61651606820905258e-05
-2.16266695661589863e-05
-9.46313369464917506e-06
7.65085003290051619e-05
-2.09129484785952067e-05
-1.0865516739306594e-05
9.47873844025890773e-05
-1.89836792063071615e-05
-1.29318383029909742e-05
0.000111515755228077523
-1.76555640480358609e-05
-1.58845920620241554e-05
0.0001270461902651319
-1.67431917267230924e-05
-1.9953544577045195e-05
0.000141141586109964364
-1.58519150876759069e-05
-2.55502895770427792e-05
0.000153285940783465013
-1.44573252811385595e-05
-3.28625689540921437e-05
0.000162305065123191249
-1.26597412655848315e-05
-4.28342094859255175e-05
0.000167587808502147332
-1.00322998420158553e-05
-5.54700663797173856e-05
0.000167006224841723398
-7.74418035199927768e-06
-7.312070061753578e-05
0.00016007511529552809
-4.31580116091949853e-06
-9.45950411865448954e-05
0.000141993536083428768
-3.80269644945035912e-06
-0.000124419984345686737
0.00011755051885263494
-4.78809124672306857e-06
-0.000162153428230423104
1.7315807553408004e-05
-0.000192779054688788619
1.56363697112203182e-05
-3.09471073037607326e-05
-7.71910062048425853e-06
3.56355988383055155e-05
-4.1456905179814449e-05
-8.43024782678698068e-06
5.49738909242767395e-05
-4.14463823284414104e-05
-9.2509177015679995e-06
7.31036182405820007e-05
-3.95906148905300864e-05
-1.05984987109670923e-05
9.06850955020668971e-05
-3.72445589890565921e-05
-1.26438205268734418e-05
0.00010743781043910883
-3.52976634838266608e-05
-1.55649191095089622e-05
0.000123171747224599731
-3.36829914674682997e-05
-1.95911392689249168e-05
0.000137598291888777613
-3.19572143980662214e-05
-2.50231884636934571e-05
0.000150259169826492576
-2.94934728538483995e-05
-3.2248275478079496e-05
0.000160242651160284874
-2.60908496986478301e-05
-4.18446801715552017e-05
0.000166685991451258976
-2.15327439020663268e-05
-5.44886156375047243e-05
0.000167484531654083467
-1.64688639965094338e-05
-7.1236602921015448e-05
0.000161422545410165613
-1.05052876020448256e-05
-9.29710814924910472e-05
0.000142130557562483809
-6.95321613790523784e-06
-0.000121585878445229124
0.000116030331620276716
-1.14048719656778099e-05
-0.000154219214876502396
3.63271177395315504e-05
-0.000210599932437914675
1.67980112776106312e-05
-4.82091800830774229e-05
-7.62168888821267276e-06
3.60595792183077585e-05
-6.12073249620581562e-05
-8.38739916605507587e-06
5.51066670733815019e-05
-6.09885907570148665e-05
-9.22028144527113099e-06
7.3301521739073733e-05
-5.83293131511073638e-05
-1.05532171040862062e-05
9.08896411460860412e-05
-5.54964154931801974e-05
-1.25761485995383593e-05
0.000107760775196680568
-5.30346807711666194e-05
-1.54689834060281136e-05
0.00012367688550087659
-5.07756229254177377e-05
-1.94500384448337814e-05
0.000138329401981602352
-4.82581750223821712e-05
-2.48117071548520434e-05
0.000151206579069739617
-4.47114963005512399e-05
-3.1943894720550438e-05
0.000161425214625852742
-3.97081056722200045e-05
-4.14259076069132336e-05
0.000167968343283775594
-3.30637816834317063e-05
-5.39435708158742585e-05
0.000168775489103121335
-2.50687254507765124e-05
-7.05611662993541473e-05
0.000162225541511520303
-1.60708742696291857e-05
-9.21355927146156402e-05
0.000142114425088058031
-8.76975357511938265e-06
-0.000120725241701975485
0.000111774359936510763
-1.36203452453662176e-05
-0.000153536494745915313
5.36676734607955937e-05
-0.000206969346210916967
1.75981610771314134e-05
-6.6344892077598952e-05
-7.52750596315270147e-06
3.64424296150537178e-05
-8.05981824956609203e-05
-8.30675873571294483e-06
5.52165294651316106e-05
-8.02797112817595738e-05
-9.14264289852791149e-06
7.33722426929655927e-05
-7.70194671538262585e-05
-1.04548525824659204e-05
9.09810738718740873e-05
-7.37393106856527078e-05
-1.24482472407061374e-05
0.000107961573449725617
-7.08368185500963133e-05
-1.53070808479273054e-05
0.000124068378861749717
-6.8008011315360314e-05
-1.92343511866581969e-05
0.000138983563626777026
-6.4773146445435312e-05
-2.45047956633177445e-05
0.000152160473194278933
-6.01859058613041204e-05
-3.15080079729569747e-05
0.000162723779429639327
-5.36188614540997324e-05
-4.08225719996461989e-05
0.000169514038970697875
-4.47671385810779893e-05
-5.31483830774965904e-05
0.000170363613536821454
-3.35714375247847204e-05
-6.95569688005221826e-05
0.00016325996717470403
-2.08868636482491786e-05
-9.0948799605499852e-05
0.000142412477297365928
-9.4215455451321065e-06
-0.000119246886809113884
0.0001093735556779425
-1.26019302303388591e-05