/*--------------------------------*- C++ -*----------------------------------*\
| =========                 |                                                 |
| \\      /  F ield         | OpenFOAM: The Open Source CFD Toolbox           |
|  \\    /   O peration     | Version:  2206                                  |
|   \\  /    A nd           | Website:  www.openfoam.com                      |
|    \\/     M anipulation  |                                                 |
\*---------------------------------------------------------------------------*/
FoamFile
{
    version     2.0;
    format      ascii;
    arch        "LSB;label=32;scalar=64";
    class       surfaceVectorField;
    location    "0.390000000000000124";
    object      Uf;
}
// * * * * * * * * * * * * * * * * * * * * * * * * * * * * * * * * * * * * * //

dimensions      [0 1 -1 0 0 0 0];

internalField   nonuniform List<vector> 
20789
(
(0.0473336182052904383 -0.0122393538428635061 -0.0247763984074028179)
(0.0246116065050177822 -0.0211197396143364483 -0.02338590540575574)
(0.0235080290202220599 -0.00959438853962309504 -0.0231501181906029058)
(0.0240321448700611083 -0.00953913544823445196 -0.0233152701025684354)
(0.114233530529550403 -0.0154146232864117612 -0.0274587896777453294)
(0.0816069101261219509 -0.0298936702827715707 -0.0259411263326716213)
(0.0794307362493771041 -0.0148976148580395214 -0.0258920832819430416)
(0.0810807371233645269 -0.0148450160456606688 -0.0262127209976793507)
(0.183445291138023825 -0.0159363739183161005 -0.030838068210008545)
(0.145853116060197463 -0.0309403502433360303 -0.0284053090056751167)
(0.142962908377698289 -0.0158905419399104908 -0.028311777973045061)
(0.145797410682437872 -0.0159226557354397447 -0.0286708493596148743)
(0.250732569257268112 -0.0152836736538204988 -0.0361509089737358721)
(0.214643866841417258 -0.0301097189092161092 -0.0325712146121079696)
(0.217120366330219056 -0.0158436173358414527 -0.0325266625557875805)
(0.221878219384814945 -0.0160106324837942897 -0.0329352000881102044)
(0.311961328266067928 -0.0139841553967223597 -0.0439245887536900692)
(0.275801954835222574 -0.0274542638405326327 -0.0388726738178358164)
(0.278781593667700001 -0.0144958864941123981 -0.0387886563960687519)
(0.286090545046842948 -0.0147569782736957471 -0.0392716606457735665)
(0.368836556234266311 -0.012897186626309733 -0.0548070907176410813)
(0.333604525411383912 -0.0256207087999387288 -0.0479919339126423511)
(0.335394300471015983 -0.0131965056111251079 -0.0478201046556985462)
(0.345713070607601425 -0.0135094558499098023 -0.0485057415888761265)
(0.422855270499984726 -0.012145387845459028 -0.0701085201599716684)
(0.389189557219874083 -0.0244019581044261774 -0.060575737621495894)
(0.389005332382647562 -0.0122909194430872865 -0.0602063584069185212)
(0.403205737885218796 -0.0126558565518602954 -0.0609935686416044134)
(0.473533801084212114 -0.011364097821758283 -0.0904625325261002727)
(0.442062139054958392 -0.023360776269049234 -0.0781944316811875872)
(0.439207072043675262 -0.0116169411576687968 -0.0776728513386825414)
(0.458386663446939902 -0.0120941611061990504 -0.0793468187972003747)
(0.52029758645176738 -0.0103781619407946595 -0.118731230452692099)
(0.491566378366154078 -0.0215793558525777356 -0.10112625123868324)
(0.485086663014945907 -0.0106163474893226882 -0.100055063371940825)
(0.511123427644160633 -0.011216765738813389 -0.101646064071760703)
(0.559123865241915152 -0.00886345500471804118 -0.155378645770096135)
(0.535925275922709443 -0.0195878768258514468 -0.133751350901536281)
(0.524272029316791843 -0.00943209903213692094 -0.132195215735804728)
(0.559409891865190079 -0.0103259317612747637 -0.136858830829918843)
(0.590523300145974539 -0.00719650221420900602 -0.207984666138594815)
(0.573264419013987614 -0.015892836029473504 -0.174572849609548775)
(0.554265552520202487 -0.00741032120107764335 -0.171291530603093684)
(0.603066164633984325 -0.00851508774133450178 -0.175166665803258376)
(0.605913512568437174 -0.00512350910985384482 -0.275319397702090185)
(0.600267870876482923 -0.0135593176578368661 -0.236884772406210836)
(0.571373295872464548 -0.0058455969481046241 -0.231670157111924735)
(0.637315710190901163 -0.00736276760162287922 -0.245108671788936444)
(0.613165465368822549 -0.0039187006486648265 -0.379650629346829971)
(0.615847004876883708 -0.00860220657867663031 -0.310766303573946467)
(0.573591487799030242 -0.00307985352831850008 -0.301061795371366181)
(0.671720801217030039 -0.00450495784166227327 -0.31182013293030425)
(0.568270925916247394 -0.00361339296195187535 -0.521021346368163552)
(0.606397042653688212 -0.00918690142599627724 -0.444049693458281269)
(0.550963770464113267 -0.00320488121388340461 -0.416154558119064266)
(0.672218224776166995 -0.00609171496576938962 -0.474434744605069292)
(0.495312881407765693 0.00184104164970900781 -0.856256297692905566)
(0.588611451961469356 -0.00855713326543935948 -0.594019155431261048)
(0.506935251333104131 -0.00341090289616258679 -0.544382803087973377)
(0.784690980326579912 -0.00821826471057822416 -0.626348762581525165)
(0.308008067585881451 0.0115969986992221705 -1.13365220899033758)
(0.301562645362504989 0.0101575200560742561 -0.833461398949733367)
(0.639690226596162481 0.0010895070646436758 -1.25054555703733539)
(0.0510467562171727021 -0.0384198005683831154 -0.0245506333310245399)
(0.0263867408526330498 -0.0439133876650699348 -0.0234225619665252467)
(0.0252068437898519959 -0.0315706525516892614 -0.0231654398034193618)
(0.0257441810674336469 -0.0313889917922713993 -0.0233776198163757158)
(0.116247344824738488 -0.0455573198049674388 -0.0268876456606014051)
(0.084380396100041194 -0.0590444925513564783 -0.025711453911891835)
(0.0821771001963481074 -0.0452848806979392754 -0.0252757952606715436)
(0.0838069694421804123 -0.0451594475449383498 -0.0256211850867731211)
(0.179671703291576862 -0.0448898944505669931 -0.0301384554077745483)
(0.147838845214629006 -0.0593165696119138733 -0.0281316351502875622)
(0.145862672236063085 -0.0456606548937051049 -0.0276832185885987486)
(0.148831204942065309 -0.0457771565062642452 -0.0280584409832270003)
(0.239607698691693627 -0.0424279327009177837 -0.0352929794562079138)
(0.209981533416289085 -0.0569437700745365136 -0.0321144920512326446)
(0.20745966669553792 -0.0437232685295872101 -0.0317055227013025923)
(0.21213996454275455 -0.0441421954669534711 -0.0320972391361244377)
(0.298311314963526919 -0.0396308821345731088 -0.0429400189767881052)
(0.269447511185253452 -0.0537664731930170559 -0.0383004117649424144)
(0.265766404556418423 -0.0405578303072597207 -0.0378971388147704494)
(0.272628226209767066 -0.0411969807899438475 -0.0383405076621781277)
(0.355029388273890634 -0.0375046242236911354 -0.0537605808164971777)
(0.327112450698888668 -0.0511104399360212819 -0.0472751726853914631)
(0.321910112395773718 -0.0380236995685423532 -0.0468033060529591191)
(0.331563436660285649 -0.0388146029578143245 -0.0473665608341156258)
(0.409400573611264473 -0.0358389992947087746 -0.0686616491427118336)
(0.382969500063680079 -0.048983224219818558 -0.0597983102423326821)
(0.375802098730752043 -0.0362031074484872387 -0.0591560201800881078)
(0.389071980031181319 -0.0371671639338222518 -0.0599886226654964341)
(0.460788104021735312 -0.0338407948663163732 -0.0888581503937705269)
(0.436394717332711846 -0.0468411858778007978 -0.0769002920411872432)
(0.426652171315309026 -0.0344921469151648757 -0.0759524139075006405)
(0.444612608146966959 -0.0357313136497262665 -0.0772356820324818227)
(0.508359351813987503 -0.0310881606452512588 -0.11614637168752745)
(0.486551964639761692 -0.0437827875689069043 -0.0999518542355670447)
(0.473452516757871533 -0.0319026674779494535 -0.0984849917315416684)
(0.497711885054394565 -0.0334940939335956617 -0.100606620384552356)
(0.549666473036037218 -0.0271244668616784992 -0.152945554740988948)
(0.531964370170024847 -0.0396820180367190856 -0.131160658210010606)
(0.514496131622360076 -0.0284858835148166199 -0.128831713698586814)
(0.547123128764229083 -0.0307039032715499087 -0.132302812839909967)
(0.583663070433039888 -0.0225707728763405308 -0.203472955877164796)
(0.570806096198521518 -0.0339082022810462125 -0.173133101533481853)
(0.547465045919702464 -0.0234539539689177651 -0.169374793741629698)
(0.592338897209589099 -0.026255815164621412 -0.175186583780299221)
(0.604124940110512876 -0.017381907248795344 -0.272331678278067146)
(0.600072008692924874 -0.0278484930737301142 -0.231714118100017935)
(0.569085979417097487 -0.0186822708192979497 -0.225174358946991504)
(0.629573234955183136 -0.0223532319750278062 -0.235564705819910902)
(0.611383351929446373 -0.0135401449080974901 -0.375165367685397599)
(0.616639702380000321 -0.02067472091458512 -0.310326575787487569)
(0.574220459135350247 -0.0122823228934286974 -0.299300011460183923)
(0.665671616706579705 -0.0166162459348261314 -0.316993491483209489)
(0.574046394157080253 -0.0152996041060862956 -0.517047502521378877)
(0.607693722324107788 -0.0163569389644257282 -0.436191062227260007)
(0.55541625058841082 -0.0101940045085929104 -0.409680938542176576)
(0.674375876299747046 -0.0167780101748865595 -0.457209707107014807)
(0.502560997385232411 0.00162610548889543724 -0.87141506672869129)
(0.586763203036253178 -0.0277251336127759297 -0.593381914086488216)
(0.500847861761981816 -0.0148187619236196701 -0.531729740952250785)
(0.756702470593170973 -0.027227066272844741 -0.63360843387213106)
(0.312313628012813482 0.0321383565545780014 -1.13687218417511171)
(0.322360351822963853 0.0289535145262298232 -0.875005044364656426)
(0.620912849486069285 0.00257082440221876414 -1.28064323842124494)
(0.0547862413857479122 -0.0647358000242637399 -0.0245833825473925419)
(0.0279458252050868439 -0.0684160138275895363 -0.02349385028375503)
(0.0270504870237702096 -0.0559648793192989227 -0.0229994069965154466)
(0.027601128284943037 -0.0556302417814024952 -0.0233056256821802983)
(0.117580480060942003 -0.0735550583722300311 -0.0269554434015779922)
(0.0867761323318342465 -0.0871786681728153184 -0.025823320327278125)
(0.0849897042476248088 -0.0735135642186167115 -0.025248017005391022)
(0.086617764078910281 -0.0732324436709692467 -0.0256991720006742898)
(0.180040619487166875 -0.0719814085624361083 -0.030107671793745662)
(0.148778721949910819 -0.0873011034879108 -0.0281335566772818908)
(0.146885285743178301 -0.0733068639224213198 -0.0276350089536301045)
(0.149778310085163013 -0.0734353177931424822 -0.0280839817407636978)
(0.240193049317105362 -0.0686481295164555749 -0.0351219243599671382)
(0.210225445681195555 -0.0838845478939172912 -0.0319303348984920563)
(0.207863253443017315 -0.0700342994494945609 -0.0315650250559438433)
(0.212432988505604353 -0.0706278256529938447 -0.031977795196484006)
(0.298909763289949559 -0.0653927207657469395 -0.0426355654735457723)
(0.269748112934414197 -0.0800659366951615159 -0.0379411941108537404)
(0.266319502313354661 -0.066392756531560751 -0.0376600876502724349)
(0.273074136084349883 -0.0673507488891095102 -0.0380663043602583462)
(0.355980218248824754 -0.0626465283899990955 -0.0533129021112269813)
(0.327697349539812499 -0.0767178280681492242 -0.0467628897002927979)
(0.322768096421797102 -0.0633606924049544828 -0.0464636050790052033)
(0.332312074842077421 -0.0645956835583361422 -0.0469489742520625974)
(0.410887747461713693 -0.0600411137196883368 -0.0680369531408080847)
(0.383962512755294083 -0.0737452605530833361 -0.05911181472307412)
(0.377078823668265783 -0.0607238550036087732 -0.0586711955414582487)
(0.390218509234854349 -0.0622507601733443064 -0.0593886117445150963)
(0.462957544852679037 -0.0568257964058986459 -0.0879939958829837332)
(0.437996981998953372 -0.0705709776979117492 -0.0759910267711987053)
(0.428548009374060901 -0.0578618419014821639 -0.0752646006415826074)
(0.446338938284117748 -0.0597679168962941959 -0.0764401167390411224)
(0.511141990376190347 -0.0523736039639334169 -0.114966140758050242)
(0.488871050689112352 -0.0661843336283299971 -0.0987320945684586476)
(0.476035098835424109 -0.0538333831613680772 -0.0975212544464765241)
(0.500070351724631768 -0.0562881185354385527 -0.0994939486791806271)
(0.553230438834367511 -0.0463045725260666785 -0.151348205002503455)
(0.535079802364941459 -0.0600685413318629569 -0.129530416717340724)
(0.517793231481111116 -0.0482496279887141069 -0.127501119783881428)
(0.550145774546664468 -0.0515148209723928358 -0.13086240335072688)
(0.587374514130068248 -0.0388980045284821746 -0.201374263756334992)
(0.574564103731922238 -0.0518646831035748726 -0.170952332841499161)
(0.551237921025144351 -0.0407802104413969579 -0.167627540060909269)
(0.59578420960117473 -0.0450385872010713589 -0.173190420767168313)
(0.607965874630953862 -0.0306562760181996567 -0.269709015609438607)
(0.604219664007595969 -0.0421157299757732029 -0.228871084910619638)
(0.573229908037159008 -0.0322704240187558777 -0.222873438154704534)
(0.633341974682869346 -0.0377713090158058387 -0.233104728297989283)
(0.613067677763531438 -0.0229236617957649588 -0.371352270329350032)
(0.61975777041873692 -0.0315878282498961785 -0.306878367978819011)
(0.577183872070800463 -0.0227056813283934046 -0.296536666928850778)
(0.667876763617295643 -0.0301847149951762136 -0.313828177763058658)
(0.574290644576367137 -0.0271583523719721096 -0.512525473792369901)
(0.60895051600844019 -0.0221204227881686387 -0.430867570757123397)
(0.557547198027710467 -0.0155304050266893007 -0.405768293110967682)
(0.674983116536293171 -0.0243986536272203479 -0.451763872174316405)
(0.486638486153409155 0.00246799420660616387 -0.858839031532908526)
(0.582846005058002992 -0.0378735467116290553 -0.587608406131665761)
(0.496659860823213783 -0.0269547056279235697 -0.529328497534936826)
(0.750177269128587176 -0.0438469772585704659 -0.627538385161927947)
(0.296219146996792471 0.0470902059002412943 -1.1157727282871599)
(0.302337240725343681 0.0518235794720820556 -0.857324621582557289)
(0.599423129920454989 0.00762965132271013671 -1.25998851534218104)
(0.0573308646273161457 -0.0911227847328583973 -0.0247337880636406167)
(0.0289857089344578642 -0.0941373491702733045 -0.0237610074491786463)
(0.0283261632369474492 -0.0812556855608609907 -0.0229405653662711727)
(0.0288805343572101705 -0.080647945865127621 -0.0234223661029887981)
(0.118732356057581173 -0.101176762710892459 -0.0270014336029820202)
(0.0884406572466546193 -0.11477367497306025 -0.0259991961371955765)
(0.0869967846857624821 -0.101002829268653699 -0.0251828583922193427)
(0.0885675034644772957 -0.100416026951739762 -0.0257937175093751123)
(0.180296260839945627 -0.099357719256450483 -0.0299562197820282886)
(0.149598627434243209 -0.114935477141290113 -0.0280838843141229984)
(0.147816018329016585 -0.100945801249899561 -0.0274764282625123632)
(0.150558475088752614 -0.10099796860782681 -0.0280217431283834306)
(0.240332493311809337 -0.0953622902084837881 -0.0347496046493786584)
(0.210452607277316989 -0.110780651721999468 -0.0315915387858303753)
(0.208032281106432126 -0.0969001155125769342 -0.0312584541535846985)
(0.212415837589423895 -0.0976603764034271599 -0.0316851381123439829)
(0.299103686831913962 -0.0914524619125747229 -0.0420685183376007521)
(0.270008173624479264 -0.106352891431908195 -0.0373540512510705247)
(0.266447925006823017 -0.0926320211842893981 -0.037211882594903857)
(0.273021649860701043 -0.093937086288907623 -0.0375446424452976005)
(0.356483434737188354 -0.087923793982913806 -0.0525618023121399575)
(0.328274001427548312 -0.102390445816209111 -0.0459755966100319699)
(0.323178871281094571 -0.0888809393639809486 -0.0458772655715045663)
(0.332542521722929307 -0.0905843593832507815 -0.0462181953597511769)
(0.411931822260546754 -0.0843816753544571752 -0.0670658883534647476)
(0.385001479082679787 -0.0986512720698490275 -0.0581194917033702602)
(0.37793389238973274 -0.0853539368234925155 -0.0579128091564403702)
(0.390864485888322954 -0.0874442151165628206 -0.0584374337267264815)
(0.464753214286995842 -0.0799979570280162922 -0.0867291254566736336)
(0.439712616716734783 -0.0945270876650083636 -0.0747330912978282774)
(0.43006678548317917 -0.0814344640833999794 -0.0742532018490285883)
(0.447586073000308227 -0.0840037988286434917 -0.0752132413053045457)
(0.513763506186589614 -0.0738947355619894164 -0.11329637052774913)
(0.491459887851008581 -0.088843759426024238 -0.097113297932047038)
(0.47838965123343058 -0.0759804875663383367 -0.0961580959494832965)
(0.502058647418452741 -0.0792716698914093382 -0.0979124220535227824)
(0.556856374099768181 -0.0655629094645864552 -0.149134544556336374)
(0.538704714493896009 -0.0808057167706509594 -0.127387299435921197)
(0.521104588158872506 -0.0682737114867620204 -0.125639370260659494)
(0.552971001714623989 -0.0726281042521678272 -0.128809108111170967)
(0.591601343474983943 -0.0549516587119189825 -0.198449153995783806)
(0.579260834181108852 -0.0699960182482552151 -0.168088079151207104)
(0.555466828160339432 -0.0579912574407165649 -0.165152790701594943)
(0.599376354125361166 -0.0637503746115716252 -0.17053120315005027)
(0.612311917289974361 -0.0428063936788354721 -0.266040437280000042)
(0.609496039212575558 -0.0563331085675429916 -0.225057188386601825)
(0.577984607640634085 -0.04534263541600244 -0.219619939759292865)
(0.637355419425421066 -0.0529294885139232965 -0.229645458782739564)
(0.615092662870756146 -0.0305127441462059827 -0.366393668406592543)
(0.624402052446446421 -0.041378515075457499 -0.302159732333798114)
(0.581232431150810802 -0.0313974924000118838 -0.292603592567519999)
(0.670666145828711979 -0.0417199136852207039 -0.309713297787467368)
(0.574231402537240698 -0.03268771947760446 -0.505950503096419535)
(0.610546068591450775 -0.0265042128065240308 -0.424087327032940165)
(0.559074699437486 -0.0188448869013520467 -0.400344697764616175)
(0.675363066944776991 -0.0310160630637943933 -0.445433435536404965)
(0.475406228245302265 0.00703704812268220875 -0.844542102885917689)
(0.579724910201482202 -0.0419243536795935942 -0.579116072940385918)
(0.495023408594829684 -0.0301468964307594588 -0.523635134923635559)
(0.740476662042045986 -0.0518777590735088126 -0.619581404088855425)
(0.285329745768263643 0.0623027451613091671 -1.09306945417358214)
(0.289810627273941801 0.0715634380696707206 -0.842742345837272144)
(0.583313573801608198 0.012880890534276216 -1.23490067695178918)
(0.058898724932428155 -0.117960964561352993 -0.0250264155227336096)
(0.0296177772942098211 -0.120684319977961432 -0.024174611270913058)
(0.029148229646698165 -0.107498715742014445 -0.0229467588524134777)
(0.0296861336611579547 -0.106384760340685391 -0.0236862069304101357)
(0.119695832012426132 -0.128657256260682279 -0.0270816468483365512)
(0.0895134828985266195 -0.142184300671256814 -0.0262368534237612909)
(0.0883993098341953887 -0.128481850894609062 -0.0251624546999908612)
(0.0898298924298883833 -0.127374224357169025 -0.0259417946533910086)
(0.180670190063213054 -0.126526188370234577 -0.0297192033179250886)
(0.150260055410270321 -0.142350781841149326 -0.0279633073444857903)
(0.148649162867882462 -0.128327697632790755 -0.0272813773778707164)
(0.151129687667095364 -0.128192507434832348 -0.0279125798921472414)
(0.240712028326464766 -0.12192183023712673 -0.0341959853875222555)
(0.210851088918021762 -0.137673094326963591 -0.0310664354229100506)
(0.208432868043026465 -0.123590456795968542 -0.0308335829260727688)
(0.212537988928886645 -0.124500541677981483 -0.0312479276355739181)
(0.299713200439260086 -0.117420473132805375 -0.0412611295235017494)
(0.270590960237743094 -0.132674532100126114 -0.0365221830603122619)
(0.266939815774040246 -0.118725784395386849 -0.0365937429216837834)
(0.2732736322086185 -0.120397340540135567 -0.0367914493496438871)
(0.357493038772324301 -0.113239792679976706 -0.0515332860012622934)
(0.329262611495142632 -0.128115741200272387 -0.0449225857593116631)
(0.324045079174840711 -0.114382898174382686 -0.0450932379858972748)
(0.33319072501599134 -0.116569275836029773 -0.0451839293082421448)
(0.413574473653364194 -0.108897028666777765 -0.0657866946477337622)
(0.386530786583009212 -0.123670660324743026 -0.0568527575691153975)
(0.379338376210257289 -0.11013112555715561 -0.0569321681022684004)
(0.392029372861139924 -0.112774825562482306 -0.0571208597620008057)
(0.467287616415510754 -0.103435378949208553 -0.0851172637732016818)
(0.442006942821147497 -0.118691478884204268 -0.0732003807095226722)
(0.432256255337282402 -0.105294705975486361 -0.0729828599704938213)
(0.449465138259210528 -0.108480199501962207 -0.0735667672789321742)
(0.517392307351546399 -0.0957581751966773698 -0.111204226840219092)
(0.494800753823108785 -0.111818265895494665 -0.0951963446855796369)
(0.481627122628023208 -0.0984917072757895973 -0.0944495309233422398)
(0.504857922151851768 -0.102529292119860976 -0.0958611764506572817)
(0.561828580401704247 -0.0851407698125370704 -0.146340834030791955)
(0.543421629795568073 -0.102015891808315592 -0.124828938405816964)
(0.525633633183390514 -0.0887447774558324937 -0.123280740913441308)
(0.556883919330020238 -0.0940835535155114533 -0.126202303468820248)
(0.597634647350653081 -0.0711394835515092305 -0.19469611354202504)
(0.585571487867806884 -0.0885278340131552405 -0.16455078779651347)
(0.561392776779525371 -0.0754969843252617789 -0.161924887602787504)
(0.604455283925002473 -0.0826655242154296088 -0.167161033136600495)
(0.618644631739068473 -0.0544851300839770333 -0.261176483440399898)
(0.616841610509697991 -0.0706153211125089275 -0.220210482143842534)
(0.584748549730477518 -0.058401103087167186 -0.215343808133179743)
(0.64315259840990624 -0.0680350946526643574 -0.225232812255576093)
(0.619219599299908441 -0.0368553533684169224 -0.359853390960145902)
(0.631420733312943017 -0.0501760036045271265 -0.295935832313267977)
(0.587598191170587758 -0.0391380617915226964 -0.287218430341230124)
(0.67537741051194955 -0.0523071892965578933 -0.304302364821579796)
(0.574925725918993602 -0.0350856801205843838 -0.49725289687690627)
(0.614279834282782655 -0.0289488829134752941 -0.415472838775305497)
(0.562441711342088313 -0.0205144901230420104 -0.393215842815225702)
(0.677443405779350805 -0.0361438544875789594 -0.437477496571466951)
(0.464977099172005859 0.0144536374057758973 -0.827643424228051261)
(0.577178239351222144 -0.0403066572132618761 -0.568211804573587886)
(0.494079130551908829 -0.0289776375697107062 -0.515112067292343156)
(0.728957884421274738 -0.0561460852119655338 -0.609608853554764019)
(0.277302805814969133 0.0806525741213241359 -1.0677407493066724)
(0.279995250389566186 0.0921155634709395488 -0.829526059130647031)
(0.573305716102415319 0.0235853032455442049 -1.20613943084636355)
(0.0597761650702998831 -0.145089525040901363 -0.0253850491719407427)
(0.0299242878175299855 -0.14777350078487872 -0.0246035632668995842)
(0.0296253646721453961 -0.134457232023456053 -0.0229390912896882682)
(0.0301083750668733538 -0.132489196936114606 -0.0239830159355515493)
(0.120363410515478303 -0.156001305746021529 -0.0271185139199105266)
(0.0900712261557115867 -0.169547433433063388 -0.0264009050592958518)
(0.0892801578171820293 -0.155902236948538164 -0.0251980775713428126)
(0.0904496164496600835 -0.15399969957838397 -0.0260689601885044503)
(0.181064672587398362 -0.153628365586815557 -0.0293105394494707523)
(0.150747679842123755 -0.169659378951947187 -0.0276415793151702713)
(0.149321998465098471 -0.155539796559075127 -0.027030692243685088)
(0.151406677599773443 -0.155111741076109172 -0.0276911947744112284)
(0.241276477915585957 -0.148542834671769847 -0.0333926330957000639)
(0.211407268298306139 -0.164598055715385605 -0.0302609590857185681)
(0.208969103570281312 -0.150287901875384849 -0.0302595984017299015)
(0.212699470137893892 -0.151380579795737102 -0.0305878638972030027)
(0.300647286143998105 -0.143474663489232768 -0.0401836392961221825)
(0.271504840566662797 -0.159021016163325757 -0.0354093755824228251)
(0.267715062293087391 -0.14489849447182071 -0.0358028810969328246)
(0.273758380665116874 -0.147011311360720598 -0.0357217297615346763)
(0.358911708366962401 -0.138654661339010082 -0.0502420573271647741)
(0.330654863289601531 -0.153822729954401077 -0.0436196368055015299)
(0.325280460000095084 -0.139990427414094315 -0.0441488492218204479)
(0.334186088043919471 -0.142709913827399892 -0.0437722416438067197)
(0.415687251895737298 -0.133566777526549801 -0.0642664436309043074)
(0.388500249718097213 -0.14870309223086875 -0.0553793133491293429)
(0.381182999715515392 -0.135076725131920816 -0.0558039199624863341)
(0.39362702349602785 -0.138267501361415662 -0.0554017271351767426)
(0.470401432091221428 -0.127140330143235308 -0.083279461621900655)
(0.444787817821349962 -0.142999891206500029 -0.0715136979951006835)
(0.4349764714502109 -0.129450492635187209 -0.0715506799014143519)
(0.45186010485977457 -0.133166960979271387 -0.071532780519144204)
(0.521894306176655887 -0.118066188186300852 -0.108821056251177439)
(0.498830169948987712 -0.135185592727398274 -0.0931035002442072712)
(0.485600308092796529 -0.121467615376425933 -0.0924872520138594473)
(0.508326059695746846 -0.126082105057246235 -0.0934505554768566421)
(0.568163686681007252 -0.10526388561720261 -0.143038892171538534)
(0.549338590816861316 -0.123935351766347859 -0.121862743704357956)
(0.531336583276225349 -0.109866591054858645 -0.120458689549486367)
(0.561815658093063885 -0.115984232470049339 -0.123169378870745971)
(0.605700277693001832 -0.087677958579776491 -0.190065156398330881)
(0.593804049493695474 -0.107828147098720087 -0.160178565281680646)
(0.569120752160011678 -0.0935765430473742554 -0.157916029250547679)
(0.611101065810123134 -0.10199228744929062 -0.16315093392286939)
(0.627466257772188896 -0.0657481911196253627 -0.254969831016710835)
(0.626827595777491808 -0.0852385070394227479 -0.214026130497707801)
(0.593917133987571066 -0.0715592235223396766 -0.209910208343596333)
(0.651070033013109173 -0.0831919850596443827 -0.219809146334060485)
(0.62609777530407662 -0.0415658379860504232 -0.351555280128427683)
(0.641530210210472851 -0.0581384729598057939 -0.287878491578354212)
(0.596764178388104138 -0.0458006163560126522 -0.280280484545702036)
(0.682541832240257662 -0.0618765343889259717 -0.297421848008232126)
(0.577136197113234939 -0.0335133432574377249 -0.486431746471986948)
(0.62142356093370299 -0.0288838042904114196 -0.404691026615841831)
(0.568486826686497526 -0.0197150472957342143 -0.384263573480395582)
(0.681709210277640421 -0.0390657383396586233 -0.427654773570103452)
(0.456031116698138284 0.0263230856047310252 -0.808309129652209468)
(0.576092429208529433 -0.0330437490078152943 -0.55505731852739193)
(0.494371335724198113 -0.0225117142439068239 -0.50427844492599605)
(0.72010690088430751 -0.0549799729331414411 -0.597401595036801236)
(0.271981481495078781 0.102387543435413481 -1.03945511088209819)
(0.272527193722175598 0.114892840091057241 -0.81369755217009121)
(0.557487234676296128 0.040467150412703573 -1.17558854429192627)
(0.0601327311113157154 -0.17242025279063336 -0.0256194191542546967)
(0.0300156551891476026 -0.175135783871499889 -0.0248249464303089244)
(0.0297989000834079781 -0.1618671964496117 -0.0228435816048439023)
(0.0301622713649651875 -0.15859750012140636 -0.0241167478386299129)
(0.120743068709671705 -0.183329808163780167 -0.026923970454555593)
(0.0902704561308836917 -0.196897531985133739 -0.0262403612923034733)
(0.0897142038370807304 -0.18338128976442189 -0.0251838697718330742)
(0.0904815922567423492 -0.180405898003465015 -0.0260081316108432131)
(0.181514528999287467 -0.180748485856815855 -0.0285919989514180871)
(0.151194799498949095 -0.196956414685506814 -0.0269360092898524202)
(0.149887686345294091 -0.182701444413452263 -0.0266394689670958404)
(0.151444823777050902 -0.181944095350880797 -0.027214406710753189)
(0.242122274663978454 -0.175198058842287063 -0.0322777015724413363)
(0.212257606702013657 -0.191562983922057506 -0.0290982959414483044)
(0.209722650499900382 -0.176998077600393933 -0.0295086824146938397)
(0.212996879471635592 -0.178392224318238424 -0.0295649108224710147)
(0.301982025603611814 -0.169493774911727485 -0.0388453730918021933)
(0.272873274647560615 -0.185293745103110086 -0.0340300010108433304)
(0.268879025147541972 -0.171077564809909044 -0.0348812737366420642)
(0.274604056988363043 -0.173756999012387892 -0.0342180363607864427)
(0.360770452235177674 -0.164004388304922311 -0.0487568928274661195)
(0.332518959252079138 -0.179348744305684954 -0.0421417706604781533)
(0.326963823770905604 -0.165582741494330304 -0.0431329660810680221)
(0.335638344399968425 -0.168890903435079259 -0.0419286792750972886)
(0.418251055325500887 -0.158264123922429722 -0.0626265677133257259)
(0.390906174026008024 -0.173592856785922262 -0.0538225178132588633)
(0.38349534349505382 -0.16008874535950926 -0.0546385715360903426)
(0.395720486343843991 -0.163780624940484648 -0.0533243203685440301)
(0.47409758896605031 -0.151130020587666308 -0.0813377366174072858)
(0.448037935382588404 -0.167427658952343017 -0.0697926517335245022)
(0.438221350814426869 -0.153903283830667592 -0.0700480304089046851)
(0.45478624474066276 -0.157965061419602787 -0.0692622748073635636)
(0.527427912344180849 -0.141046912613778663 -0.106145187697387705)
(0.50368356585701568 -0.159180218992667072 -0.0907948743548620263)
(0.490389460845402636 -0.145101418471301202 -0.0902768930766571637)
(0.512520249525879712 -0.149967186553326526 -0.0908614926098527398)
(0.576271353472321612 -0.126335655652263401 -0.139002416814500152)
(0.556821699234660517 -0.147007528287990824 -0.118145013687309591)
(0.538516418777811312 -0.132000365909866496 -0.117038658502690365)
(0.568013061881684989 -0.138540072245094154 -0.119766739035848835)
(0.616422570470516407 -0.104970082725239916 -0.18413953938105776)
(0.604456477226704592 -0.128402995885889659 -0.154386619884183784)
(0.57916113784740253 -0.112667070937042854 -0.152873038929079053)
(0.619771770029797553 -0.12207510066518025 -0.158332920803475996)
(0.63968297314346001 -0.076862751455446493 -0.246934791059351594)
(0.640125002314764546 -0.100574645953835071 -0.205866737259567195)
(0.606194842888457375 -0.0850963417910839404 -0.203018742275485581)
(0.661740840386782381 -0.0986792011519613405 -0.2130151859159094)
(0.63692539636881329 -0.0444060937756583923 -0.34101423806576836)