/*--------------------------------*- C++ -*----------------------------------*\
| =========                 |                                                 |
| \\      /  F ield         | OpenFOAM: The Open Source CFD Toolbox           |
|  \\    /   O peration     | Version:  2206                                  |
|   \\  /    A nd           | Website:  www.openfoam.com                      |
|    \\/     M anipulation  |                                                 |
\*---------------------------------------------------------------------------*/
FoamFile
{
    version     2.0;
    format      ascii;
    arch        "LSB;label=32;scalar=64";
    class       surfaceScalarField;
    location    "0.480000000000000204";
    object      alphaPhi0.water;
}
// * * * * * * * * * * * * * * * * * * * * * * * * * * * * * * * * * * * * * //

dimensions      [0 3 -1 0 0 0 0];

oriented        oriented;

internalField   nonuniform List<scalar> 
20536
(
7.93833192308818095e-05
-1.62122957937152457e-05
-0.000105206568448483782
6.44658119198943135e-05
-4.18296403443572327e-06
-0.000477995076186353823
0.000554555771430981573
0.000207799708222958463
-5.14163831857942508e-06
-1.02700226519715358e-05
6.08920157506432068e-07
9.66729534700948754e-07
-8.95174139230691773e-05
-0.000251567102322074762
0.000235290755779402066
0.000181945766850981838
5.77901029912328712e-08
-1.66247471077379088e-07
-2.41079302023074774e-08
1.48750515099026728e-08
-1.19705672546469951e-08
-3.15108481990779298e-08
-2.322743577929495e-07
2.93984655314226977e-07
3.58120451194366508e-07
2.63042342332898854e-07
-1.65696362447787222e-06
6.27070911723172417e-07
-1.65579811819192458e-06
-6.60172441002961679e-07
-6.68420518281369611e-06
1.89601723939710778e-06
-2.44720389745990393e-05
-3.38683551135475239e-05
3.94242403483469723e-05
6.48690073513781649e-05
2.08265895841002585e-08
-2.26071549209351836e-08
5.04683010657253419e-08
-1.08325568098024775e-07
1.12027832299385762e-08
-2.48957494483083532e-08
1.67898041869170812e-09
-1.44413699389965123e-08
1.871741933951096e-07
-7.98766321448814218e-08
1.06758924813792409e-07
2.42722925321911445e-07
-5.01529604631203246e-07
-3.2114907640656758e-08
6.67045540795275239e-08
1.02533419976712626e-07
-1.13620896398860253e-08
-1.59496928617127013e-05
1.39259717261209159e-05
-2.26032078254739189e-05
4.69958642190052016e-08
-3.98755231253665202e-09
2.78844258742617841e-08
-4.57934139325750109e-08
6.03227509671395688e-08
-1.1631931588905479e-08
2.54364876468142406e-08
-9.65917148245066259e-08
2.75325764502444027e-08
-2.03487786787076991e-08
1.54215260741275178e-08
-4.52462338715658985e-08
1.31564208253201398e-08
-1.05286266123303823e-08
8.62758529905662914e-11
-6.77037383886082486e-09
-3.36955342201950206e-09
-4.71379388847617023e-09
2.93271545607265628e-09
9.08514240420473675e-09
1.03726522152025288e-08
-1.46196509092898144e-09
4.70823134614532015e-09
-1.53902295762233993e-08
1.91564186276491546e-08
-2.58416583718255734e-09
7.13724399907959085e-09
-2.52501129364786442e-08
1.03024923113156686e-08
-2.01516770501253116e-09
2.86359467328267076e-09
-1.08091601047844565e-08
3.04697644292991097e-09
-1.1653173989853764e-09
2.997328306788921e-11
-9.59916229649160119e-10
-1.27158069916490894e-09
-1.21769400991912411e-09
1.09491377802194954e-09
5.5419585515570576e-09
2.2577233506213981e-09
-7.43930482559782812e-11
9.62548015105074167e-10
-4.05131826115519136e-09
2.20999826834984868e-09
-6.50632423084045236e-11
7.90588048023620522e-10
-3.14616212348115958e-09
9.8865663150574133e-10
-5.45677075667331547e-11
3.24726239607769333e-10
-9.73166776537636183e-10
1.12077807953934938e-09
-4.23063153906013861e-10
1.26448112670540324e-10
-2.86251383206479891e-10
-8.37885911243458705e-10
-6.00011864667963978e-12
-1.62484298151968462e-10
2.35329486264426314e-09
2.71253560775776463e-11
-9.59852763829376032e-12
1.33184482365039536e-11
-8.22888531304765856e-11
2.68636865807205851e-11
-8.65420182184976368e-12
8.37861895550455123e-12
-4.2049481090785803e-11
5.40673390465755764e-11
-1.45456940327697777e-11
1.28485888479167901e-11
-2.64399991580419104e-11
6.69593847241022144e-10
-3.67859049560575723e-10
1.38748080723232873e-10
-5.91328888369617197e-11
-1.25211514050203026e-09
1.41792742626473071e-10
-7.72862350639709465e-11
2.40472177426515765e-09
2.95131291387944033e-12
-1.7115773643897811e-12
1.49403008409358592e-12
-1.41543393534651435e-13
1.02912192784226692e-11
-2.09450806154348015e-12
1.51816735652004263e-12
-7.76074938924052682e-13
6.39932405549042003e-11
-3.69799370581708436e-11
4.06746625234533057e-12
-1.34924342013244419e-11
9.59724830745182695e-10
-1.6051911618706789e-10
7.21094815834973541e-11
-8.2439606347899054e-11
-2.83426411866536005e-10
1.04253835636732047e-10
-4.82276383896840284e-11
1.75027626922165449e-09
1.44121745128335874e-12
-3.56392364297415821e-13
3.82294361281014894e-13
-9.31175277162380504e-14
6.03334643005030467e-12
-1.81521278449700852e-12
5.24806772219950185e-13
-2.00378512274117159e-12
6.66138645833586945e-11
-7.53086881179013436e-12
7.17673017957406398e-12
-1.10492802396473076e-11
1.2037416859456677e-10
-8.76651672478884177e-12
1.22116294263261953e-11
-2.99440847604809047e-11
-1.7846136846950509e-10
1.54609208056721188e-11
-9.48395353656723816e-11
2.59518479203010705e-10
1.62870148700978736e-13
-5.37790101649424602e-14
1.58135335136032395e-14
-8.83046843555887993e-14
1.02600724098066819e-12
-2.95824413930472573e-13
2.22454183430027731e-13
-3.01228634398528643e-13
1.53494703945284271e-12
-2.23019561906209167e-13
3.62105806857183751e-13
-5.23308034849283871e-13
7.8066963664262909e-12
-7.83253387870142984e-13
7.04041224925898367e-13
-5.38858439708835874e-12
-5.23113962517793262e-10
2.06895534002372578e-11
-1.12604420659583884e-11
5.37125722185603442e-10
2.44332002953576398e-14
-2.70563617230099822e-15
5.32637255714615382e-15
-4.06564723342575688e-15
5.83959821809411015e-14
-1.22033781412914866e-15
1.62990703307500481e-14
-1.25396086891640351e-15
1.13463128273082891e-13
-1.02501601169459011e-13
2.18524122850517146e-14
-3.81826230550978596e-14
4.4147511917443314e-12
-2.43620569927570939e-12
1.83582820874393277e-13
-5.96618308990072501e-13
-9.24222456037699005e-13
9.75593466662756635e-11
-1.82235764723318903e-11
4.00847286622466298e-10
-2.16529086775738486e-21
2.71662250767682485e-22
-3.51441959144015567e-21
1.31482153835408368e-16
-8.26903518465161233e-20
-1.15683760395957085e-17
5.39802690694723199e-16
-2.41051735265850871e-17
1.80089817690310467e-16
-9.85473818483390869e-17
4.43711226562950925e-16
-2.54780685315951508e-16
3.54757141807873697e-17
-5.61435312261685972e-16
1.07021482845485965e-13
-1.25211609439932979e-15
1.55788067382922505e-14
-2.43137494090132624e-15
9.63473300278376588e-13
-2.77613328356678223e-16
3.51205056458459661e-13
-1.34282209123985391e-13
-1.44616268241902779e-17
3.72394005519040546e-14
-1.08059601580987409e-13
1.10106927729591654e-13
-5.1158483676363825e-23
5.53800785051138724e-23
1.27182465905049192e-23
1.192689253581081e-20
3.93910461176324753e-24
-4.91930203491953134e-23
5.01696676959540582e-18
2.20336606487152038e-25
8.44709216478686006e-19
-7.56536667818710894e-19
5.22189994166498306e-17
1.05975937558635177e-26
1.05188597665263197e-17
-5.55407125938530097e-18
1.90704547653720189e-16
-5.11918588224500831e-24
6.45786950746821837e-17
-1.03604722183023129e-17
2.40291820961534002e-17
2.21232818362694317e-22
8.49573309876807032e-18
-1.19433917149534698e-16
1.41837511083016236e-18
1.48560360176499353e-18
-2.38842604240124372e-17
3.05478369833774702e-17
-6.05547558671126046e-24
1.55015459654361051e-23
4.30422789156105684e-25
-4.7934319164920628e-25
4.3562810561273594e-25
2.4668782464717309e-26
-2.95177644155736191e-26
8.92161054066330125e-27
-9.55151279835699355e-27
1.28555670743011257e-27
-1.55178414922285735e-27
1.70821796680684132e-28
-5.18439911588453538e-28
-2.22495277537044341e-28
2.39998192393269044e-25
3.34421177864550623e-30
8.39154533841918101e-26
-5.44465767322580588e-24
-3.89792293608326927e-23
4.3224861080946554e-26
-1.44438634828337462e-23
1.40773475164994274e-22
7.74159958971223907e-23
-1.10625067172794636e-19
3.52011949098045394e-19
-2.81146966872574003e-19
-5.59786178230923968e-25
9.02778160917165714e-32
-1.74865092573953785e-26
1.84299437582874466e-30
-3.93606098900133332e-28
-1.26982738733151011e-28
1.81743577326582927e-31
-8.22643716661610226e-30
-2.76555311402424076e-30
2.13290591752231574e-30
-1.75604444276780048e-31
-6.25048182710227517e-32
1.36926061916612369e-31
-2.4886304245903327e-27
-9.52287970435664989e-28
1.51671643015232065e-26
-2.06983336064856273e-24
3.80224859215921058e-23
-4.97580734166498767e-24
0.000113053376126167623
-1.87745799714341765e-05
-0.000129818406442397502
5.28869101561523983e-05
-0.000394288266106925195
0.000227102089885112721
5.05449740450053968e-06
-2.16844868231448569e-05
2.01411971888983291e-07
-7.63009111750999553e-05
-0.000222504697637237743
0.000188529317320623686
2.02474870488659207e-07
-2.13364011502250797e-07
-1.26831783747404675e-09
1.59782864894704575e-07
-1.86488969950069254e-07
-1.85129590865762751e-08
-2.42071120481649143e-06
1.53532804122048507e-07
-8.71785967498119623e-07
6.32268086151711994e-07
-7.24826557409657337e-07
-8.20281159172031582e-06
-4.27809587378832256e-05
-4.35761027945695729e-05
0.000116895273775821429
-7.09306288084684509e-11
-1.5624054928243967e-08
4.56371364052587122e-09
-1.4734715616095141e-08
-2.06621744046908446e-08
-5.0963823329869595e-09
5.4402813552365069e-07
-4.19278854582352322e-08
1.78642295730996637e-08
1.35078466974959655e-07
-8.3407125630280469e-09
-2.96031077848771144e-10
-1.04030744379421306e-08
-1.63968147929383191e-07
-5.7755999528217157e-05
1.0054630279558535e-08
-2.25238977422357792e-09
6.57110838195480965e-09
1.4463693646510683e-08
-5.00070736351025717e-09
5.18639745654098385e-09
1.28335165672095968e-08
-4.93083693119506927e-09
6.56510947392630729e-09
5.39711557104720692e-09
-1.76329964618452499e-09
-1.86722433842306519e-10
-1.72870256685664802e-09
-1.89466195326480614e-08
1.25538604247072178e-08
2.17997778319321142e-09
-5.26761288894776797e-10
1.0372341312516214e-09
3.81768947830897941e-09
-7.19182248564692627e-10
1.30080118080848817e-09
1.88111667977637907e-09
-4.59451359901491071e-10
7.80517048977237805e-10
1.1366544614627463e-09
-5.00737232773879394e-10
7.93203830118422459e-12
-1.20985935749892123e-09
-1.63781389503768824e-09
4.43956160641355689e-09
4.13834427529634295e-10
-2.01696974451729921e-11
1.19050758516816866e-10
4.65641424994817089e-10
-2.85005119877565153e-11
1.15424761252677274e-10
3.58591237532004012e-10
-2.66014023768756416e-11
7.38239624386807197e-11
1.62512815716163997e-09
-7.53792931520188976e-10
7.76387271219700155e-11
-1.55691203569710007e-09
-8.15003708122687013e-11
3.05356907808550771e-09
9.22686740544668662e-12
-8.22504150308304504e-12
4.1079182189109445e-12
1.88895391830805742e-11
-7.34131344679688315e-12
4.46280904280214199e-12
7.02191771589415664e-11
-3.87621625620631949e-11
7.22556823263594219e-12
1.49934287942289048e-09
-6.79087358433771773e-10
2.35016329772197323e-10
-5.75847641984334391e-10
7.40958907852806838e-11
1.50667720734908672e-09
4.25236432909788864e-12
-2.20257399243473442e-12
1.62226193248447063e-12
1.08397443412643113e-11
-1.80273699511877422e-12
1.65020057687332993e-12
9.75575816634743862e-11
-4.18525474250650588e-11
7.78120387440676834e-12
3.83491641816975681e-10
-1.02353555430958402e-10
5.57206005422959647e-11
-1.23501674817699556e-10
2.52385057214793101e-11
4.50121833299720685e-10
1.8778336034020686e-12
-3.46523750644814718e-13
4.24840250103002089e-13
4.4993346683991757e-12
-1.59338078994475641e-12
3.72571910637497323e-13
4.17541913751944373e-11
-4.60264841602742193e-12
7.42169503576415354e-12
3.71793945663795936e-11
-2.98992050141254222e-11
5.48355963409736459e-12
-1.16883268753922797e-10
8.83665493465773667e-12
1.61602656246101197e-10
1.07823497530042657e-13
-8.25718215622499091e-14
1.18123440712930217e-14
1.12099278578301584e-12
-1.5182349212208518e-13
1.65249839898868695e-13
1.57608431892134185e-12
-2.16420487312123503e-13
1.67456277402117147e-13
3.76891463335245602e-11
-2.59189416217188055e-11
2.54607656636025888e-12
-5.92290138381949245e-10
1.7423189384033607e-11
3.14939231695414129e-10
2.853943936099217e-14
-5.30720362532506835e-15
6.10950782358107406e-15
9.61334792006927158e-14
-4.89754797597990216e-15
5.79170338870705934e-15
5.4804375955899478e-13
-4.5844026842251793e-13
2.01400796044671092e-14
3.34592867906550775e-11
-5.13238442008971302e-12
4.00234139620463937e-12
-9.35697500585483034e-13
8.09307031918208937e-11
4.11580528129905597e-10
1.0826584210770748e-15
-2.28686447269992083e-17
3.1581822448831459e-16
7.81103349826033648e-15
-2.42638335417854581e-16
3.42130053082800566e-16
2.98020997725478738e-13
-9.48189136212859703e-17
4.64768168936658602e-14
1.0410910278611054e-12
-1.44808961979035415e-17
2.35548108681401393e-13
-7.50749849483278184e-19
3.38063083466770911e-14
1.08829974642353399e-13
4.25407660439064486e-18
9.66452304797360006e-26
8.78945428284506745e-19
4.01488541590548241e-17
5.21925476284628678e-27
9.45645063599059515e-18
7.69899146380405175e-18
-7.809856920501168e-26
2.20993326137698513e-18
1.31869565921336217e-18
3.54375625411190059e-23
3.95097267892671944e-19
1.77963353672268868e-19
7.53437791484446969e-20
1.80024227867402891e-18
-1.34006096199660751e-26
4.10945658848264947e-28
-3.71455987395430895e-27
-7.95506965852690408e-28
9.35813185994350611e-30
-2.25283716009309352e-28
3.88305672439567776e-27
2.15414482649268985e-31
1.1381050693008914e-27
-6.65803391739419278e-24
1.57428422653471297e-27
-2.04178983333400704e-24
2.87445687637377043e-24
-1.23860739611810207e-20
-3.85030657321723626e-20
-1.88049277339615915e-29
-5.17283262017016154e-30
-4.70455753898501741e-31
-1.33167362604262117e-31
-1.19178662967347667e-32
-3.526854204049737e-33
-9.68683768332383194e-29
-3.04454291514030351e-29
-6.82055602025575199e-26
-2.01609178088788011e-25
0.000122815785670289429
-1.21320591680418718e-05
-0.0001320468621807046
9.38620997061461479e-05
-0.000317928653619206701
0.000237878526606936621
8.91886798767423005e-06
-2.03139075218509895e-05
2.09980220167102208e-06
-4.98626601633347965e-05
-0.000174394377925921648
0.000181886394323266015
1.42741658501458909e-07
-1.15247148971328581e-07
2.65445681630326451e-08
1.97752301486235733e-07
-3.72097997995868326e-08
5.05952521245949185e-08
-1.72787042650052456e-06
-3.15375049461750551e-09
-1.52185967543526692e-08
-3.70925938351288051e-08
-7.59820240296923357e-08
-2.53250070683828873e-06
-7.07354534454068132e-07
-5.13548360842161323e-05
0.00014477208444474345
9.59520176485926889e-09
-5.84184973758874507e-09
-1.01212712672868437e-08
1.90242476868624859e-08
-4.61975113726381021e-09
-8.11545967102051422e-09
5.29986580513692069e-08
-2.74681550440027789e-09
-2.24016464270767093e-08
2.95747062404851151e-08
-1.87130256295940549e-09
-4.92807440020028499e-08
-8.48068064533195337e-09
-4.42743508444486547e-07
1.44505441510678699e-07
2.33487851218810767e-09
-7.76198094278061019e-10
2.1371587312838306e-10
4.10437105471864921e-09
-1.06002236242628885e-09
-3.82880496802582874e-11
5.43461149953783493e-09
-1.13959197133969787e-09
3.82639852230497183e-09
4.05330723512459214e-09
-4.23157636354668908e-10
2.83678865287195875e-10
-6.45766415330114123e-10
-6.82038293407427678e-08
4.50254057181688102e-08
4.00886124666132693e-10
-1.40119501839839106e-10
9.78910168822341117e-11
6.88358261554236381e-10
-1.40849671599485198e-10
1.96322351265578582e-10
3.50897681067956865e-10
-1.01777463711089793e-10
2.26409542829576002e-10
5.09386816167301268e-10
-2.42841698440579914e-10
-8.66903660700420398e-12
-1.16234350139035497e-09
-3.00092322080587894e-09
6.74516270066868447e-09
7.30281217831622995e-11
-3.8116296509356367e-11
1.43626490567826325e-11
9.17211385532681589e-11
-1.65984318601057567e-11
1.47583976093581932e-11
1.41898387272463576e-10
-4.89004906826400083e-11
1.27229435794562202e-11
1.69199166115185481e-09
-8.76321883012976253e-10
3.68550283124448662e-11
-2.15268247623358274e-09
-3.27990764439328572e-10
5.56513265710044291e-09
2.56344650371145361e-11
-8.74926161432547002e-12
5.61693941922010916e-12
2.15192027459922395e-11
-4.7730425426536469e-12
2.36355585510251501e-12
2.19224891855223877e-10
-6.81589464087823701e-11
1.18666671976427828e-11
1.49976732554618163e-09
-3.96241242680241592e-10
1.7153239507735291e-10
-3.30150896866343678e-10
3.75543465637390619e-11
9.76579718012098403e-10
6.41644329150027811e-12
-3.02786046521379486e-12
1.33749481947076446e-12
1.04977299025458106e-11
-4.85978579085945535e-12
8.06818919093831244e-13
1.29988118258543515e-10
-3.17681553122320903e-11
1.28508586913459485e-11
1.67943470557031635e-10
-3.92688797261745537e-11
5.48918637566444144e-11
-1.27039161642699906e-10
1.61234796501938661e-11
2.49467231195737949e-10
1.01577171802396222e-12
-2.92816916247356673e-13
3.47225347975471732e-13
4.93243489068482127e-12
-2.34485634513463802e-12
9.55847774108853385e-13
1.5181243398153358e-11
-3.73859115374885684e-12
2.33551235382991223e-12
2.38783489409673211e-11
-1.6397863465509099e-11
2.88644616568245088e-12
-7.9166852049923363e-11
1.51540453223513569e-11
1.65541822218938872e-10
9.31272184027104619e-14
-6.72752296379856773e-14
8.39242902619453574e-15
1.05092695151423459e-12
-1.09546411144489171e-13
1.7876378979129762e-13
2.02219247859919745e-12
-8.16792726274159606e-13
2.64363295396655914e-13
2.22120248642395177e-11
-1.71344260575388642e-12
1.61479393414654626e-12
-4.68661129760451887e-10
2.0498734796755898e-11
3.50288618509071923e-10
2.25926042490354925e-14
-8.19590041604405074e-15
5.47897073314078721e-15
1.93631701218215013e-14
-1.5422179847615743e-14
4.54284436513872225e-15
1.28621280387739259e-12
-4.77741341683049032e-13
7.21521377642611306e-14
8.75229774624995942e-12
-3.2845598927632814e-12
2.75277902179388839e-13
-1.15206241501894532e-12
6.52900616101208891e-11
3.57273121861507144e-10
2.0501684165367557e-15
-9.63213895339059906e-19
3.35230721326277864e-16
1.71155496981021555e-14
-3.80986997188943717e-16
1.06058269906125481e-15
3.77613879430657402e-13
-5.93000940777283854e-17
3.57896095950106747e-14
1.30733570812761609e-12
-4.83050339001119903e-18
4.08226653707682003e-13
-4.84773019350710821e-19
3.71623319784262124e-14
1.519179118525005e-13
3.35539922957350073e-20
1.03179121921866079e-21
7.19448848003532892e-21
6.32906150525328994e-17
6.63288359424276595e-23
1.49612346483491569e-17
5.01054216106769133e-18
2.93093974177695262e-24
1.18991170620562742e-18
4.61126975151487487e-19
1.72038684868537885e-24
1.14007322383830535e-19
1.38590392516429299e-20
4.24006816556335318e-20
1.60731532181156438e-19
-1.47146424929330148e-22
2.11194813438100476e-26
-3.39179841852119359e-23
-1.04596481627978342e-23
4.71713320730511491e-28
-2.44215874467988029e-24
-5.1409558179360376e-25
1.06290953390532462e-29
-1.23247459789031461e-25
-3.41971383961657795e-25
3.72876832060170756e-29
-8.52244829676842564e-26
7.61723222197796472e-26
-8.40597990356146008e-22
-3.23088493286012204e-21
-9.95822415983643381e-28
-2.26667720270059958e-28
-2.45828624917428735e-29
-5.70227461422861274e-30
-6.15242112893920256e-31
-1.47848511400838353e-31
-2.43465777270616234e-30
-6.17133150977448825e-31
-1.57827829733167615e-27
-5.79205969502143948e-27
0.000143005550542564151
-1.91368144222056379e-06
-0.000122364324738822065
0.000114293250270608367
-0.000249347913895302232
0.000259241309683195002
2.55130939453859439e-06
-2.12268371590613756e-06
1.96792725765855617e-06
-3.40333334387827604e-05
-0.000131738336116212314
0.000185354871286818343
5.60992626955128902e-07
-7.92482747550367623e-08
-2.3643002575315643e-08
5.02334228591397567e-07
-1.5405041292609432e-08
-9.54233611117388819e-09
2.95242921812326669e-07
1.47621409850300744e-08
4.08831038071888873e-08
-1.14598465974517454e-06
4.7059627553218124e-06
3.18542699771063949e-06
-3.58131776642608996e-06
-2.97568663818398946e-05
0.00015051382790903442
2.76899521353058931e-08
-2.33267001503974245e-09
-1.16346759164761215e-08
2.9289643347528362e-08
-7.95380562818742852e-10
-1.0458934636821247e-08
3.28965760423504177e-07
7.69889228503427388e-08
-4.58274915577557067e-07
3.70747666027399198e-06
2.45055450627434637e-07
2.04901521129522529e-06
-3.31002312987222057e-08
1.70796634024501447e-07
1.63997490470431763e-06
1.14597854269377644e-09
-2.03989063878888855e-10
-1.08674214786078383e-10
1.8018012995460999e-08
-2.50176728148426065e-10
-9.90744263861308244e-10
1.23852199961364445e-07
-3.95110632530573235e-10
-2.42166148036470202e-08
3.56426467270062285e-07
-2.354942970260193e-10
1.17742295655995854e-08
1.9190132964142605e-08
-4.75624556817733968e-09
1.83981290884363917e-07
1.252495167073289e-10
-1.2890712032578572e-10
7.34669022967295512e-13
1.51189078760726132e-10
-7.12487542814261967e-11
1.52999474428887979e-11
7.03637058596376446e-11
-4.84443490187385743e-11
5.24472364268629535e-11
6.4072053371287767e-11
-1.80107869207440396e-10
-4.9126654151341065e-11
2.28829482012195826e-11
-2.84408447639138494e-09
2.12248638654101865e-08
7.5505069091968858e-11
-5.90397243815418715e-11
7.7692568030173369e-12
4.55077737531647177e-11
-1.61845002784474207e-11
4.45585568307828977e-12
5.93006916754826768e-11
-1.53239081370413118e-11
4.39371843923681301e-12
7.93219422948646985e-10
-9.82264798405483387e-10
2.19473919590356115e-11
-1.31541642605543892e-09
1.51680907323690249e-10
1.40501958486570182e-08
2.99611771540902096e-11
-7.77186440281604722e-12
4.55391782547351122e-12
2.08990613241984365e-11
-4.06114383296038352e-12
1.56818195627197482e-12
4.54271775244783755e-11
-1.49219009606421719e-11
2.12319412607793783e-12
1.82604702018578712e-09
-1.01247561524807292e-09
1.16062139442647247e-10
-6.60798920166653402e-10
4.27994955557257101e-11
1.40170021292510807e-09
1.62289847807580952e-12
-1.26581846176830551e-12
2.60504440877527921e-13
5.77336609616399135e-12
-6.29783937164934357e-12
4.19657747518282129e-13
5.37536083874387881e-11
-4.98242092901476834e-11
2.10608384154336591e-12
8.82424142492137789e-10
-4.74042114070389003e-11
1.25729671155349804e-10
-4.88358456661448664e-11
2.6528119295163308e-11
5.20246267090643314e-10
1.38518337105150413e-12
-3.26864791194464245e-13
9.50435426785266012e-14
4.87478015941284285e-12
-3.04499090888629474e-12
8.73479062823485876e-13
4.33352808769213011e-11
-2.08504281524445257e-12
1.11425677175244955e-11
1.63884917416232885e-11
-1.02912769132715002e-11
2.25096058032675826e-12
-1.67442931815702769e-10
7.34344521435730668e-12
1.72017350953688245e-10
2.24295475008965652e-13
-1.05004801764498906e-13
2.17201736359859205e-14
1.35180291965034028e-12
-5.56651685724467262e-14
2.31187837426370233e-13
1.93227408092350149e-12
-2.1786701150494267e-13
2.33286555546497318e-13
1.65630363558873889e-11
-2.04880572833845635e-11
8.84228141008670639e-13
-6.25369678212959319e-10
1.90953903972920422e-11
4.86283871500622856e-10
3.48498664954878796e-14
-5.69877892256329551e-15
5.81451597350388388e-15
1.14916890217267587e-14
-5.15562170289807029e-15
1.49471556302278874e-15
4.3509184479237063e-13
-5.23102904311499532e-13
1.22647624736194158e-14
3.63985399506153292e-11
-6.76671965980099355e-12
2.08286424163154572e-12
-1.36243915625826324e-12
5.33570740369728421e-11
4.56416326639729154e-10
1.26281420421555981e-15
-2.14087031992987816e-16
1.31926613914516399e-16
8.9765301711785092e-15
-1.4789537337573238e-15
2.20514286932099626e-16
3.88949989412195771e-13
-2.20163630723473333e-16
3.34043052545093446e-14
1.55302029572016039e-12
-1.71981488950661262e-17
3.5443940485979203e-13
-5.1516457391504574e-19
3.50219284113005762e-14
1.92767409738404025e-13
4.7534785992076855e-17
1.00052689361546399e-22
7.86662343057866058e-18
2.40165292738006756e-16
7.61892523220786499e-24
5.70014068171930321e-17
1.91310711611470961e-17
4.86618511880083588e-25
2.0605020729728074e-18
1.7150734219709942e-18
7.64337126763232881e-26
3.31856090025616308e-19
7.72653453525745909e-22
3.58423905156057947e-20
1.2056944810913229e-18
-1.4606135549837819e-23
9.18384872855381419e-28
-2.68121830697704096e-24
-1.2366940606669892e-24
2.40674115363972976e-29
-2.284761944289337e-25
-8.86379688292036342e-26
6.38971183567215731e-31
-1.67084620040025993e-26
-1.59724132172625172e-26
6.44010106500672538e-31
-3.12135301823588513e-27
1.55450559438458202e-27
-3.91444188074799065e-23
-1.92160432163751967e-22
-4.43740322567899906e-29
-8.01928263716259293e-30
-1.29244332475733064e-30
-2.36191398131732606e-31
-3.84658462618936274e-32
-7.21549282404452919e-33
-4.4397746922749613e-32
-8.7187061799557729e-33
-2.68857165629045605e-29
-2.09027503172875549e-28
0.000170583249353071939
-8.33533814861125492e-06
-8.34957139625531401e-05
0.000140126741901308555
-0.000181014814657313815
0.000270733737422632829
6.78878939205418446e-06
-1.85576648371650084e-05
6.78538228945534786e-06
-1.64046922660674081e-05
-9.32964712973968161e-05
0.000205092331423808896
6.01794675368743044e-07
-8.42924405720032743e-09
-1.25312863583179098e-07
5.87597428780522102e-07
-5.63743762454122619e-09
-6.0387464399807372e-08
4.09932687015045977e-07
2.68678677409240977e-08
1.21031721346233044e-07
-5.08579080906062283e-05
1.08578256315173516e-05
2.57874106114423005e-05
-3.93100628021853455e-06
-2.32374511261523997e-05
0.000145996005431056635
2.59662386721989732e-08
-2.24986587810439838e-10
-7.22605014299251951e-09
4.75353718734279275e-08
-6.39768394715166808e-10
-8.2464737622687258e-09
-1.05380139315711894e-06
4.52842795599666502e-07
-2.02033973719439427e-07
2.7558317893695833e-06
-1.84598336681170924e-07
5.88302946435870192e-06
-8.93151997069812739e-08
2.78534308258082313e-07
1.61173413322675708e-06
6.31602968760915047e-10
-9.5256396941537314e-11
-1.85184725477469207e-10
1.8699647101195905e-08
-3.33484568975645802e-10
-1.04949602161292009e-09
4.62834150188259255e-07
-9.40150688964393239e-09
-4.55210929019861724e-08
3.02494795368909617e-07
-4.47561315537099268e-09
-5.21272479879806919e-10
1.47086003804423083e-08
7.2743731206833544e-08
1.21760080417916261e-07
1.74129728925825127e-10
-3.17425701818307475e-11
-5.83456691502483885e-12
7.65381721914254971e-10
-2.01647867142381629e-10
-5.98809225634956333e-10
3.68372868236375418e-09
-3.34069826347922666e-10
-1.07394820198965997e-08
2.97067458105817304e-09
-5.2403780545556127e-10
-2.70282888090901549e-09
-3.92606443427796704e-11
3.27368632969337912e-09
1.34674734635784993e-08
4.10748939260245023e-11
-1.4380512262284934e-11
1.27072615956652915e-12
1.24419776054409661e-10
-1.20939891681586527e-11
-6.91964784519229469e-13
9.78010252146555707e-11
-1.18031441395562402e-11
-2.21372188417765672e-11
7.87981208830398063e-10
-8.70294155286537951e-10
-8.00029487383475707e-11
-9.1561181683428265e-10
-2.33195601353629192e-12
5.58263221620946485e-09
9.30840558406869386e-12
-1.02523325863907787e-12
3.19809948544198875e-13
6.89237240290449227e-12
-2.67963992387441644e-12
2.36271255898260559e-13
5.41411229000132271e-11
-4.50843161676516591e-11
7.71697344764699302e-13
1.96057418704764126e-09
-1.09438681895981943e-09
5.88864875102165671e-11
-9.75155505925723575e-10
3.66010819179210902e-11
1.55078175514525287e-09
6.53155007051712659e-13
-2.47500303938847504e-13
5.20928628716030151e-14
7.68061363498746515e-12
-7.35937900996731748e-12
2.39905121254356345e-13
1.93429545607581285e-10
-4.59654153231715621e-11
2.78059535500976953e-12
1.44296145553838613e-09
-3.26475665107298242e-11
5.31415664043135042e-11
-5.67020146657943418e-11
3.69261488758506352e-11
1.23685572555627823e-09
6.33583561017041512e-13
-4.89748513332420727e-13
2.11471913903784159e-14
1.6917337648183522e-11
-3.78645369359383553e-12
7.88283684824238596e-13
3.23804283052831903e-11
-2.44203308752176762e-12
9.41556328910631508e-12
1.04779910347114462e-11
-2.50551503744937272e-12
6.80675434370107369e-13
-1.97357492137036328e-10
6.50732071285956446e-12
2.70202063498209555e-10
5.56088436539022129e-13
-1.22637465572016589e-13
5.33150783004011638e-14
1.46946693088871074e-12
-5.87315360620776424e-14
2.75999495295280463e-13
6.17945389987160921e-13
-3.31674296966789225e-13
6.61047422294352673e-14
5.05686342921642906e-12
-3.09723130844549756e-12
1.97253010615566762e-13
-5.9209527041782834e-10
1.92279300372820594e-11
3.24785733778338915e-10
3.41887853375863996e-14
-3.39532668844836355e-15
3.63557201410069744e-15
8.34995840546807613e-15
-7.2340019967809127e-15
1.21988058936050508e-15
4.54393129151286615e-13
-3.25103639402856528e-13
1.4655904482760243e-14
9.2319653845282495e-12
-9.06029273326906843e-12
1.26749133300283893e-13
-3.28566466089954993e-12
4.31811625677485886e-11
4.18810349288639234e-10
7.98615929661286094e-16
-5.19705607944897356e-16
6.69505460864378102e-17
1.30837456541178228e-14
-3.3941560184410549e-15
2.01490161066538999e-16
4.16806315262857472e-13
-2.66785878770098968e-14
1.25074346314296177e-14
3.69280698845927038e-12
-4.49375220851753916e-15
6.39103968080005658e-13
-3.51318166835838324e-16
3.14140823116604582e-14
4.27192731385302526e-13
1.32321265799957262e-16
4.14451971690203477e-23
1.32825660425142488e-17
9.67133772991624141e-16
5.31502178360342071e-24
1.13949145769708633e-16
5.02223257841005784e-15
4.80132635189921254e-25
7.88925838866613011e-16
4.63663316204151324e-16
4.17788095749288701e-26
6.53524950710480167e-17
3.03786195037536175e-23
7.04773705054522896e-18
1.05333224255584308e-16
-6.1661047936540199e-24
2.59037304373667318e-23
-8.44134620956953355e-25
-8.83765013754198054e-25
1.38362127287600601e-24
-1.20947171424703642e-25
-9.03431495960345966e-26
5.30082870676357344e-26
-1.25248626940666732e-26
-9.14376543724569802e-27
1.91927625870817286e-27
-1.29916377950674425e-27
9.95792828247378475e-29
-1.17980189512886555e-24
-8.04822227626758227e-24
-1.27582598473745229e-24
-1.71613102626072329e-25
-7.61301541954250396e-26
-1.02781610583288869e-26
-3.29801411013470858e-27
-4.52915071047274551e-28
-1.38759363603587126e-28
-1.96626277920616386e-29
-1.30894371673969311e-30
-8.77222461870955287e-30
0.000181639687353665508
-7.25149676663758655e-06
-6.25763967426774261e-05
0.000145519064336332689
-0.00011267507091039076
0.000279067595028166743
7.7708880117792426e-06
-1.74458176908137339e-05
4.41198631078345207e-06
-2.37364424251442543e-05
-5.94585609093114284e-05