/*--------------------------------*- C++ -*----------------------------------*\
| =========                 |                                                 |
| \\      /  F ield         | OpenFOAM: The Open Source CFD Toolbox           |
|  \\    /   O peration     | Version:  2206                                  |
|   \\  /    A nd           | Website:  www.openfoam.com                      |
|    \\/     M anipulation  |                                                 |
\*---------------------------------------------------------------------------*/
FoamFile
{
    version     2.0;
    format      ascii;
    arch        "LSB;label=32;scalar=64";
    class       volVectorField;
    location    "0.480000000000000204";
    object      faceForces;
}
// * * * * * * * * * * * * * * * * * * * * * * * * * * * * * * * * * * * * * //

dimensions      [1 1 -2 0 0 0 0];

internalField   uniform (0 0 0);

boundaryField
{
    inlet
    {
        type            calculated;
        value           nonuniform List<vector> 0();
    }
    outlet
    {
        type            calculated;
        value           nonuniform List<vector> 0();
    }
    top
    {
        type            calculated;
        value           uniform (0 0 0);
    }
    bottom
    {
        type            calculated;
        value           nonuniform List<vector> 0();
    }
    left
    {
        type            calculated;
        value           uniform (0 0 0);
    }
    symmetry
    {
        type            symmetryPlane;
    }
    interface
    {
        type            calculated;
        value           nonuniform List<vector> 
67
(
(7.60781859103885343e-07 -3.61260900703676965e-08 -0.00843299273191825544)
(-7.85791599036572184e-08 -1.17979602614985307e-08 -0.000438863070203556512)
(-8.58924696927925685e-08 -6.14972862945394449e-08 -0.00163156593346218165)
(-1.61802017520683988e-08 -5.30136907436253448e-09 0.000118985451022904476)
(-1.44094775661524727e-08 -1.79378891574154373e-09 5.76371880874237933e-05)
(-1.52622118823341263e-08 -1.20876639996388869e-08 -0.000133554613653599129)
(-1.63121950472295116e-08 -2.63838838888772771e-08 -0.000326193845621302811)
(-1.65238647211422148e-08 -1.21480147466520472e-08 0.000190469900651123284)
(-1.64148364150591498e-08 -1.26030195888191023e-08 0.00017315013756723425)
(-1.41257864056654113e-08 -1.39350523127878654e-08 0.000133501030440829932)
(-6.09925699116614095e-09 -1.42516260453038822e-08 0.000107581845759798485)
(-0.000191157945863101668 -6.35623126884636817e-09 -8.84918064280306797e-09)
(-0.000166716457520629341 -5.43453711786766623e-09 -7.10767149902802079e-09)
(-0.000151579953544237378 -5.27408760564649409e-09 -6.33362827579067056e-09)
(-0.00017754469699112426 -4.30954824686741174e-09 -5.96533937162345722e-09)
(-0.000151101273863246454 -3.06111560415675971e-09 -5.44394071517170005e-09)
(-0.000134184210113648541 -4.50144765608260199e-09 -5.67536442422598425e-09)
(-0.000171873303988449795 -2.34847288808661183e-09 -5.63925149056776205e-09)
(-0.00014260400290860999 -1.55581519176407783e-09 -5.39674085635282773e-09)
(-0.000120702402663116525 -4.77548242683300585e-09 -5.33692564146839335e-09)
(-0.000171998646211298992 -1.60489771962802214e-09 -4.64167256837810296e-09)
(-0.00013999490774196165 -9.91765101107015264e-10 -4.76913580419486268e-09)
(-0.000113009496967040696 -5.39470805086667939e-09 -4.09083619083336389e-09)
(-0.000177410220146081266 -2.28759188872619056e-09 -4.60145434585992899e-09)
(-0.000147121772629910981 -8.07351661876973892e-10 -4.79676332950703927e-09)
(-0.000120420520655560728 -3.93811160846567933e-09 -4.55855271012181642e-09)
(-0.000187682543890220049 -3.84793729598925248e-09 -4.01698988954319191e-09)
(-0.000164154107369291667 -3.56270437894010679e-09 -4.12109138001348866e-09)
(-0.000148912711634737913 -2.4325294782845964e-09 -1.03779527769214473e-09)
(-0.00020726139618994685 -6.84597514615634902e-09 -3.74973786025804757e-09)
(-0.000187824624470989414 -3.96813354780650801e-09 -3.46683947029427272e-09)
(-0.000167135554933827086 -1.26479617027645691e-09 -2.37732948208853453e-09)
(-0.000236944964384531732 -9.88591686017280526e-09 -1.62947763395711256e-09)
(-0.000229691712813514018 -1.28501655921741343e-08 -2.53770928604893774e-10)
(-0.000194351892347007589 -8.80094461551657428e-09 8.55542449222740958e-11)
(2.39988385053042194e-06 -0.0394446242993588062 -5.90673962411834774e-06)
(4.3868863543428363e-06 -0.047047999208146514 -5.51849393328044042e-06)
(3.61239526518405857e-06 -0.0500111802004328046 -4.51716757509193138e-06)
(4.54786943918192648e-06 -0.057619753628344865 -3.34930525872071331e-06)
(4.36699650407101174e-06 -0.064523441474239801 -3.85017045541248988e-06)
(2.7931456327528318e-06 -0.0655799521778030331 -2.08051862344678545e-06)
(6.03414376666854713e-06 -0.0621170007398429078 -8.40257872276239458e-07)
(2.93046264741794667e-06 -0.0741808003063440941 -1.20671428729970469e-06)
(-4.39391502738134145e-08 -0.00138241539945861756 -1.44202538942592586e-07)
(-4.32673591597521061e-08 -0.0019479635264625188 -7.97266266408171147e-08)
(-3.19794662970613377e-08 -0.0024413423961763066 -6.48111126494175201e-08)
(-6.65508503239465959e-08 -0.00319878149212902627 -8.47851711731433806e-08)
(-1.63120088646798907e-07 -0.00424602012832751841 -1.47336446724742823e-07)
(-4.87904490301693115e-08 -0.00377905073380432888 -1.32419157434846522e-07)
(-6.57228526689383456e-08 -0.00446813084715372288 -2.74060205697129116e-08)
(-3.64325723630784513e-07 -0.00900358417207124118 2.31195909487978767e-07)
(1.94293861263911979e-08 -0.00135242344261157755 -4.10218465078782409e-08)
(3.19639478012843476e-08 -0.001634713124273487 -3.44593845052158928e-08)
(3.49403838911393493e-08 -0.001654114757914454 -3.72710431624229158e-08)
(3.93528173878935696e-08 -0.00165455924455504733 -3.50272743013381264e-08)
(1.28803033378110091e-08 -0.00174517663736532 -4.25705057588071028e-08)
(-4.58356766699209738e-09 -0.00180668240995411275 -2.54640026813149245e-08)
(-5.24428588178407206e-08 -0.00272440520010591193 -4.20926810936014678e-08)
(4.45536578868830843e-08 -0.00370597377850256666 -2.50457248140561541e-08)
(1.71558293790848508e-08 -0.000966572421408717561 -1.55122926022253152e-08)
(2.50964051128404573e-08 -0.00100413902884986675 -1.49967036595963945e-08)
(3.63473141533837258e-08 -0.000979449036396649007 -1.45902124702639755e-08)
(4.10008119887414802e-08 -0.000973590699932880624 -1.1796195995707662e-08)
(3.88671443085606555e-08 -0.000950605928882627808 -1.34112375952691702e-08)
(1.89228020598414714e-08 -0.00093107814127568766 -1.46199437103363925e-08)
(-4.00580028740214496e-08 -0.0012828946854643549 -3.47889281491701567e-08)
(3.82676000426387854e-08 -0.00184026692552133483 -1.56923645578335083e-08)
)
;
    }
    procBoundary1to0
    {
        type            processor;
        value           uniform (0 0 0);
    }
    procBoundary1to2
    {
        type            processor;
        value           uniform (0 0 0);
    }
    procBoundary1to3
    {
        type            processor;
        value           uniform (0 0 0);
    }
}


// ************************************************************************* //
