/*--------------------------------*- C++ -*----------------------------------*\
| =========                 |                                                 |
| \\      /  F ield         | OpenFOAM: The Open Source CFD Toolbox           |
|  \\    /   O peration     | Version:  2206                                  |
|   \\  /    A nd           | Website:  www.openfoam.com                      |
|    \\/     M anipulation  |                                                 |
\*---------------------------------------------------------------------------*/
FoamFile
{
    version     2.0;
    format      ascii;
    arch        "LSB;label=32;scalar=64";
    class       volVectorField;
    location    "0.0599999999999999978";
    object      U;
}
// * * * * * * * * * * * * * * * * * * * * * * * * * * * * * * * * * * * * * //

dimensions      [0 1 -1 0 0 0 0];

internalField   nonuniform List<vector> 
29184
(
(0.0210256038316352645 -0.00928823654195065629 -0.000709963543757487691)
(0.0642905144518712418 -0.0099007205064840214 -0.00076336468806570087)
(0.109677220070917986 -0.0101828657291528017 -0.000822891319211800729)
(0.15738730568212439 -0.010804754653313299 -0.000894456337449688705)
(0.207839002823131946 -0.0116834343220241828 -0.000959361281634597959)
(0.263407330825438435 -0.0129505553611267473 -0.000987679440705679619)
(0.325314606401491346 -0.0147491722879476237 -0.000935255422383711953)
(0.398973305904558595 -0.0170888524363607477 -0.000703943959969797616)
(0.476385055580914041 -0.0206941588133956744 -0.000266573286911395233)
(0.603870400296453558 -0.0262393449129430002 0.000324278151073180334)
(0.647143679050117049 -0.0287361916837966212 0.00100875334894599648)
(0.859359983225732704 -0.0657208298032531946 0.00759275162077701488)
(1.21590285438433598 -0.0868685133671865811 0.00704345612593727279)
(1.5887140962296058 -0.0439591071332097738 -0.0469643128668153428)
(1.59900463178613217 0.00821389834630364968 -0.175785273934621011)
(1.17635309883600714 0.132957640423137236 -0.74719560725223122)
(0.0210213742067477949 -0.0280684384281977804 -0.000734564829375514063)
(0.0641054905173146644 -0.0297320460375168488 -0.000782907184166321737)
(0.108801788463924326 -0.0304515635980414298 -0.000838468383353040267)
(0.1553892002148477 -0.0323016685936270212 -0.00090415254920376035)
(0.205353859679642259 -0.034989405714304242 -0.000960723712227665107)
(0.260174291674759361 -0.0387786630282369038 -0.000976295085108960315)
(0.321238556167974809 -0.0440330728265973387 -0.000907894848685130763)
(0.392531273083498722 -0.0511650504391596012 -0.000662736185205248414)
(0.470507347080638572 -0.0614127257277467115 -0.000138973396757933933)
(0.587073919456919779 -0.0782906543272414435 0.000669751213086950108)
(0.644611709513726594 -0.0909445035731506757 0.00144947385980819096)
(0.840076441046645139 -0.173566800999850807 0.00970352282394311774)
(1.16494526938001752 -0.214836428875704782 -0.00154407048585043782)
(1.46573763476622942 -0.0904574558022624431 -0.0862595811287123343)
(1.58522399931260405 0.0730787980158893735 -0.276266069725724539)
(1.41199872212190591 0.508290077668247853 -1.03135688730149622)
(0.0209489744034284248 -0.0469737565818095434 -0.000756202075757274675)
(0.0636357062570810789 -0.0492532691268293549 -0.000802052608850446118)
(0.107828173797277715 -0.0505330437103879981 -0.000854698689898517961)
(0.154016942161667919 -0.0536055326974150537 -0.000917260957458659485)
(0.203454824216969699 -0.0581016945947403496 -0.000969515101119345106)
(0.257548231423703311 -0.064339027720596853 -0.000977060450309969516)
(0.317614132956465511 -0.0728651340349774634 -0.000892452837875220228)
(0.387438536992064986 -0.084670050390637297 -0.00062209115860576889)
(0.463009146819192252 -0.100820018552440979 -3.86514630446846332e-05)
(0.575153760822762039 -0.128043243313605476 0.000830868143688182244)
(0.623009896607766067 -0.152616593910996079 0.00234700807474454154)
(0.811132574011892538 -0.266778563812712144 0.00888406962292534116)
(1.11996557126386054 -0.319868403020544645 -0.00828002224998598824)
(1.35412454761970991 -0.179164564066492393 -0.0968768937894667753)
(1.43311076731838161 0.0618213520710419323 -0.322969563910951329)
(1.26087654019931428 0.879382427396287802 -1.15181142227388156)
(0.0207616674829297944 -0.0657031353068743412 -0.000775822432149637811)
(0.0628941511468491532 -0.0684254527075789654 -0.000819429187999167548)
(0.106424841115318941 -0.0704191524462799562 -0.000869981980656447788)
(0.151971952448478609 -0.0746704843385613964 -0.000930615513841291653)
(0.200612169977574362 -0.0808818057575665522 -0.000980592652712127585)
(0.253646205288644233 -0.0894462314998151625 -0.000983717554843109446)
(0.312238093680015538 -0.101089511825338763 -0.000888262392998460828)
(0.380053363006426614 -0.117141284475549695 -0.000602775483727744548)
(0.451838371767056435 -0.138765018098573639 2.5856166899569568e-05)
(0.560173782989486391 -0.174220999419193695 0.000931643418609949016)
(0.597022185718939946 -0.207062634818186903 0.0028883844994940875)
(0.773487676017943104 -0.356859236006005665 0.00738606252912177297)
(1.06924650543440625 -0.414632074612918178 -0.00959559623088834107)
(1.24992937152671768 -0.255683580550183365 -0.0999952523745811922)
(1.32651510367409364 0.0670183435879593281 -0.36812982942900585)
(1.12812990250410583 1.19924929907566002 -1.25695076101434111)
(0.0204641400789129929 -0.084200060887375125 -0.000793909090056832195)
(0.0618937047508920785 -0.0873136856092815439 -0.000835478031510904521)
(0.104619530947816813 -0.090009210494760461 -0.000884759131328231863)
(0.149306623011571493 -0.0953763859936063857 -0.000944794460378834767)
(0.196899224641804094 -0.103195951612248274 -0.00099473746507865602)
(0.248572324131546701 -0.113928638349458267 -0.000996952633500842881)
(0.305302126039014687 -0.128451275453241281 -0.000896538062162042767)
(0.370594902286979555 -0.148252860841173173 -0.000602392704479855082)
(0.437746215418695128 -0.175278558151191144 2.97175888555542295e-05)
(0.546543123359171767 -0.216450627946580654 0.000998004734282552548)
(0.563435955412849632 -0.256887600947585781 0.0025586645290405375)
(0.732114466433900435 -0.44036586810849776 0.00538756856782923732)
(1.00738738836189157 -0.492938293119446758 -0.00588814433011324717)
(1.13581919320654978 -0.321376066541476768 -0.0948523558714414877)
(1.20628075101888688 0.0788938122079869408 -0.406173783045083892)
(1.03082559775621596 1.45527736232125271 -1.35687061041506607)
(0.0200764328094171947 -0.102386742701122191 -0.00081081745668810034)
(0.0606542996009161242 -0.1058168087870478 -0.000850533162729841643)
(0.102425972120933712 -0.109206676457925783 -0.000899362284582609444)
(0.146058681068528096 -0.115624495922260651 -0.000960254028007646778)
(0.19238047874006442 -0.124929458596177489 -0.00101263274436667384)
(0.24242578341297677 -0.137640678821407736 -0.001017360733884454)
(0.29697773416821821 -0.154744924869875206 -0.000917821455885523647)
(0.359087610079930841 -0.177831731681099475 -0.000623026693132008543)
(0.422300368161821593 -0.209317630972603752 -7.04302205251183637e-05)
(0.518957704604382508 -0.254699130687980557 0.000966912146275965192)
(0.530625424157716741 -0.301931927303593806 0.0017092591426891169)
(0.689555793369757142 -0.515348741108004438 0.00390999056245746636)
(0.937434573736541044 -0.554053656850314713 0.00127172852366415345)
(1.01906990018603905 -0.37370619675738137 -0.082862882019095585)
(1.08009244160071405 0.0909863941218839456 -0.431986129119819151)
(0.950473139206248985 1.65645049336617456 -1.42783979457903576)
(0.0196101393092275277 -0.120186336457950252 -0.000826810913667609757)
(0.0591941560603640865 -0.123882483311302694 -0.000864782863518657758)
(0.0998673492614437636 -0.127934461639629071 -0.000914061470309382017)
(0.142273059055296691 -0.13532509955570321 -0.000977345381097400722)
(0.187129007452721513 -0.145980708344626148 -0.00103492190118119874)
(0.235323165302614046 -0.160464733942360854 -0.00104716042912102831)
(0.287428949393707278 -0.179824131133499182 -0.000954217725721936689)
(0.346179210090506229 -0.205693231648331226 -0.000676217209105375167)
(0.404611903317109167 -0.240387300737352982 -0.000142137768056461826)
(0.495521579277165003 -0.289199507842005377 0.000923258896572113578)
(0.495556552217507551 -0.341335423161369056 0.000602465151309488321)
(0.64260689784587699 -0.582452293801486665 0.00398001452179275877)
(0.859378996775400861 -0.598562445961208556 0.00990690047120718759)
(0.906909814093229905 -0.411943138045534285 -0.0631159285129562347)
(0.954653581929562289 0.0977914941364682044 -0.440135406594673095)
(0.863853841913039378 1.84104130763114537 -1.47811311318564642)
(0.0190742485970966796 -0.137532512856705313 -0.000842179384047852522)
(0.0575320855804493936 -0.141453390244363042 -0.000878180330139038501)
(0.0969719661157247559 -0.14612232154436483 -0.000928990789145886639)
(0.137998863110655567 -0.154399615156129766 -0.000996232999769694873)
(0.18122246458575425 -0.166263612461675231 -0.00106215111140582543)
(0.227384570899966332 -0.182304091636854487 -0.00108625747205050326)
(0.276860214508495517 -0.203587316155759479 -0.00100662071935070851)
(0.332044657332464577 -0.231704368783075293 -0.000755722699023356355)
(0.385706879795199353 -0.269032268588643597 -0.00025534700283896968)
(0.469696013757005593 -0.320113615386358352 0.000823033407335372821)
(0.460437571161274095 -0.375925811778829499 -0.000252643486597781478)
(0.594920253905154239 -0.63764320178632683 0.00594028467984446598)
(0.780696772984079357 -0.628832482500470302 0.0184680990974347287)
(0.805164126279497072 -0.443361156766690745 -0.0427922687087691767)
(0.838853232703822838 0.106470529613222814 -0.432066030129842293)
(0.776063212158483395 1.99190706617987012 -1.48401097740154331)
(0.0184767854000399273 -0.154366509436481031 -0.000857091266825320015)
(0.0556876820489494301 -0.158474514894248686 -0.000890146178126518823)
(0.0937713381552226222 -0.163708249978432807 -0.000944105606294990112)
(0.133287972616639105 -0.17278048827452952 -0.00101676013269429676)
(0.174741845974687476 -0.185707285348368306 -0.00109490735448029538)
(0.218733038653010886 -0.203083630453987307 -0.00113598321375548263)
(0.265456144002603256 -0.225959204166782168 -0.00107533697508295934)
(0.316965357008008208 -0.255839976321342366 -0.000861402884666794509)
(0.365875289736320497 -0.295123020841024042 -0.000402347451102658864)
(0.442805490533051904 -0.347517760818565224 0.000653980987334215006)
(0.425689251867976015 -0.40576416781420499 -0.00037674037567855161)
(0.546940391608254695 -0.682824392216005327 0.00954924978023431216)
(0.702210610675249147 -0.652364948682951806 0.0296190655146538404)
(0.712707053236205645 -0.47097864215391666 -0.0265837914343567544)
(0.73868893550798298 0.121872681457413146 -0.415293864486706688)
(0.687196785183509462 2.1081238037111607 -1.46504936083604642)
(0.01782597754617515 -0.170637311162196215 -0.000870943741722836362)
(0.05368144508720811 -0.174897265847411165 -0.000899282074159189369)
(0.0902985920555750277 -0.180640947740543123 -0.000959255355277070136)
(0.12819330547774993 -0.190413874852490339 -0.00103826322514384605)
(0.167768008754615783 -0.204259237353214551 -0.0011341655663563736)
(0.209490189990247849 -0.222755995418448649 -0.00119844546372801261)
(0.253397863590682615 -0.246904204496587676 -0.0011636025663205945)
(0.301187018964253594 -0.278088341803392647 -0.000994039856712667334)
(0.3454587809043832 -0.318706804365285701 -0.000543470597042999023)
(0.41533226277262264 -0.371513891341045677 0.000406989255011147143)
(0.39057141719664823 -0.431553465754336341 0.000174790990573484972)
(0.501078288781827808 -0.714742958792407124 0.0114715487332402687)
(0.625712968441446749 -0.671651553357774489 0.0333319386663906356)
(0.619055896905329583 -0.484357132753081898 -0.0099628504311651267)
(0.655416087829183591 0.133302713843113735 -0.408504736490666598)
(0.606062408531630403 2.2234098577287047 -1.41183186415092754)
(0.0171310117968221029 -0.186309478427351488 -0.000881029654548358843)
(0.0515347989367268 -0.190683819986670555 -0.000903198334026147909)
(0.0865869256587071257 -0.196881063628488145 -0.000974714403831736286)
(0.122766922975668255 -0.207259777699857678 -0.00105932913765073577)
(0.160378630302262182 -0.221884892122618665 -0.00118140445362332688)
(0.199770034342742819 -0.241296647365124323 -0.00127668136363446151)
(0.240856122318077875 -0.26642029649343868 -0.00127263785833170201)
(0.284945243370529233 -0.298474684809064417 -0.00115880077598904166)
(0.32478809089497801 -0.339831083140561929 -0.00072018986558133229)
(0.387545589750401875 -0.392227967078761619 -3.38518028829993406e-05)
(0.355643752536733526 -0.4532080632592142 0.00121955702747923505)
(0.457924760730723968 -0.728086245043085167 0.0110235187832856425)
(0.540427547492908333 -0.682898013514585789 0.0360757385627228158)
(0.534129035184247258 -0.491096409962120561 -0.0109486860943051878)
(0.577148392578758385 0.179180790052069161 -0.424428401439105096)
(0.53515732749482936 2.29303615375818826 -1.38090618161234824)
(0.0164035768826010613 -0.201368306078320292 -0.00088100177462815607)
(0.0492718219295486051 -0.205793538012356142 -0.000899797721294438814)
(0.0826683965420205585 -0.21238260864410613 -0.000992685105527831577)
(0.117058257601807825 -0.223270553158086027 -0.0010778509965063284)
(0.152646722400205381 -0.238546507498691773 -0.00124014457630839368)
(0.189675557100520586 -0.25867544089910588 -0.00137673456702822245)
(0.227990244361016781 -0.284502542596625996 -0.00140585667001717372)
(0.268464150066364093 -0.317022597096744241 -0.00135656915584054724)
(0.304165852669405434 -0.358588169108196853 -0.000977442321940031732)
(0.360034328597014008 -0.410024024425528544 -0.000792181798545483411)
(0.322931428563564438 -0.469842012347280846 0.00182000250379821672)
(0.418941158209189368 -0.733598289511406043 0.00695510356373985408)
(0.43595661029272964 -0.691026512670930515 0.0237144376948645874)
(0.455797386114378866 -0.497094906902078915 -0.00687097480484454015)
(0.526849367193948592 0.207054511686133896 -0.434152839783384037)
(0.470402174853359611 2.36197539664913059 -1.33675188941582701)
(0.0156520539448554846 -0.21575016856752155 -0.000871072017359521451)
(0.0469170390413946939 -0.220160836935939824 -0.000884367318323353948)
(0.0785729435598631065 -0.227088762379917264 -0.00101299697159256069)
(0.111114931531991895 -0.238389369539536544 -0.00108876658172733657)
(0.144642186048481058 -0.25419851024003931 -0.00131099918525070082)
(0.179298497618615826 -0.274884475026777708 -0.00150828699163607703)
(0.214946925910421471 -0.301184166964638733 -0.00155920655045194666)
(0.251939096115590011 -0.333773608059497628 -0.00157326601655783998)
(0.283799019489246629 -0.375209521087428 -0.00132574447475421143)
(0.33370676719473491 -0.425220761210791054 -0.00165887913546975611)
(0.292515346612129745 -0.482131849555214653 0.00166599861692752916)
(0.383651429330975513 -0.737724832312697254 -0.00256776361649416543)
(0.347211766587559201 -0.700790918319490586 -0.00601329734951803682)
(0.402651773190985329 -0.524740882456378066 -0.0125909318634771089)
(0.520844022339599366 0.185647251711099359 -0.453849196936816857)
(0.431070160651236878 2.4090925963626062 -1.30960810435030317)
(0.0148382078956136448 -0.229268421178718873 -0.000853928015001499501)
(0.0444372609127030999 -0.233762913773125164 -0.000876152652837877558)
(0.0743044241776851244 -0.241031733290799299 -0.00106525089424100309)
(0.104976803241717334 -0.252628030939654413 -0.00110749829362879722)
(0.13641602148021581 -0.268909653534504023 -0.00142635215714950075)
(0.168690718216718716 -0.289982076595993843 -0.00173229973139240939)
(0.201868364268948802 -0.316566027569976316 -0.00174825462499089051)
(0.235511169423658739 -0.348834755307765476 -0.00181634188902681198)
(0.263937343074383823 -0.390053684409078283 -0.00173739826836612123)
(0.308983909938268353 -0.437909452184093217 -0.00258106204472715803)
(0.264567217923202758 -0.491669199105818633 -0.00115374295765231175)
(0.349143601073998888 -0.722210499244357984 -0.0136933844095655857)
(0.306757120539673689 -0.724743031749784161 -0.0324020147224739138)
(0.382516185631869177 -0.536337748070183307 -0.0411726723805436665)
(0.252188990086280984 0.197221012158245335 -0.451948841629063014)
(0.41249208949438082 2.46112558933842474 -1.29139154795785904)
(0.0138061447877394806 -0.24212564761276345 -0.000784716221060579862)
(0.0416985728673869571 -0.246874565192612916 -0.000848448501136326032)
(0.0698903592155599995 -0.254455320309041499 -0.00113224826784420144)
(0.0987418256604892797 -0.266338935542609456 -0.00114325988564730049)
(0.128066513796142367 -0.282916528950413693 -0.00158311926614301758)
(0.15795791064983522 -0.304333705148200684 -0.00210756189293931015)
(0.188912558269965614 -0.33113245160882393 -0.0019511011488779898)
(0.219394658589935759 -0.363049743297088834 -0.00202814985573772496)
(0.245027887034199754 -0.403942894685635601 -0.00214218511354561476)
(0.28616133228280638 -0.448610059758473678 -0.00373098104086985998)
(0.238891488549101638 -0.499920419290480866 -0.00500138124477499807)
(0.321446806007957275 -0.696102051264190336 -0.0145882000796566692)
(0.318319449838608604 -0.777956364878789275 -0.0425061219165524945)
(0.406161627175145701 -0.532912669876867584 -0.0557409435479290366)
(0.0264621329619082399 0.202096419432520602 -0.428978499001262725)
(0.30044021157166656 2.48105757100018431 -1.19356862407273412)
(0.0124964626764761527 -0.255874569893941639 -0.000916943579723957349)
(0.0384604585524589565 -0.259207491665570833 -0.0010051022518210741)
(0.0651576276833574358 -0.267011559748523308 -0.00133605062337205979)
(0.0922712315838942615 -0.27881982155721835 -0.00121130323484169291)
(0.119454134048959743 -0.295708786399276335 -0.00189265233090018213)
(0.146887828385928176 -0.317229378394690065 -0.0027959531832056489)
(0.176315742197265202 -0.344065360877001514 -0.00222176985428476897)
(0.203537628263186665 -0.374721533139718621 -0.00228486766737812401)
(0.227299076377769388 -0.416155836901203779 -0.00226307845978981296)
(0.264886161597472358 -0.45696819367963315 -0.00498004816110282373)
(0.213452554467183697 -0.508809193363638723 -0.00863670708117689721)
(0.303298995139099692 -0.696041387264569211 -0.0271554982062387831)
(0.405363296210572155 -0.8079081430976226 -0.0896030271413995466)
(0.423139163366222038 -0.499695745585534423 -0.0967342528142334235)
(-0.0251834700101832981 0.288133545457062379 -0.404745665239464425)
(0.161148675869373509 2.4969835566587415 -1.10964617395572129)
(0.0210177652691973423 -0.00928919639100412448 -0.000652368379025065198)
(0.0642663213194694521 -0.00990154030206678859 -0.000702879275140388666)
(0.109641373270103329 -0.0101841663988106873 -0.000759312855204893715)
(0.157349592584306863 -0.0108063861794385208 -0.000828126794662791292)
(0.207816315555570591 -0.0116853986494422045 -0.000893761718406398359)
(0.263429362014296897 -0.0129529314647214878 -0.000936919094929647618)
(0.325417099044089775 -0.0147524266483884253 -0.00091891580060476344)
(0.39916299076449735 -0.017098398852178065 -0.000797596128557324533)
(0.47651978587430599 -0.0207151202163725796 -0.000591191714019210753)
(0.603430402724782322 -0.0263070066510259562 -0.000392194697713147029)
(0.645065149339250077 -0.0283538513482293787 -0.000367631966563870382)
(0.848748355375299801 -0.0665731021602777862 0.00174516115011352259)
(1.19229115584119838 -0.0939034096509706179 -0.0108105472902475033)
(1.52622426058161942 -0.0513014359764492264 -0.0608155651899060096)
(1.46953963854901071 0.00756345536473444074 -0.157014299288797982)
(1.18267655788925574 0.151635690560939063 -0.376275178897109874)
(0.0210138468554439684 -0.0280694550848267291 -0.000674689892463957897)
(0.0640824077459650754 -0.0297321061436480009 -0.000720283739256698989)
(0.10876895365801334 -0.0304526749126186047 -0.000772884256690463747)
(0.155358629366384837 -0.0323034270571057741 -0.000835829358076828018)
(0.205343481170427222 -0.0349920883967686919 -0.000893418583984191615)
(0.260216163722571392 -0.038782188161950476 -0.000924049785626294517)
(0.321370529192848531 -0.0440392642415154759 -0.000887781339501326821)
(0.392765506519917262 -0.0511858847007307938 -0.000738428832069502341)
(0.470694605349861017 -0.0614551839179573248 -0.000455462372871932777)
(0.586805278616371773 -0.0783987669918296826 -0.000121377543452622083)
(0.64221576486989207 -0.0903397706331142969 -0.000371962082333617342)
(0.831983628601707603 -0.176795348008302267 0.00142027676767770682)
(1.14213286769390221 -0.226815151987684455 -0.0144671046008404015)
(1.41383518916781359 -0.0886852662308796613 -0.0778743050775815987)
(1.43538013325312686 0.115698210641415888 -0.217402439647373602)
(1.27189615623807484 0.566531457877982092 -0.572758854899981906)
(0.0209415213556189 -0.0469752912879620177 -0.000693844146821593613)
(0.0636131797638912616 -0.0492534573145223947 -0.00073726263873411294)
(0.107796801990635543 -0.0505349120704314675 -0.000786901525498017286)
(0.153989358598549425 -0.0536086669665926385 -0.000846622213462970823)
(0.203450743249721899 -0.058106776443491881 -0.000899820789935196642)
(0.257602106601461822 -0.0643456907523891897 -0.000922559914884238668)
(0.317765134889442802 -0.0728781180945904106 -0.000873159653424185832)
(0.387704366389768018 -0.0847029118411868065 -0.000699009254665204074)
(0.463229159021302794 -0.100878077769768634 -0.000373795857004268666)
(0.574999905575449222 -0.128122840762179779 2.42754752170643018e-05)
(0.62017427086583532 -0.152229885842831814 -0.000202117287280637568)
(0.804730099883393724 -0.272485844681889411 0.000643823624248350025)
(1.09963383125476954 -0.331051103102841027 -0.0176877608457805188)
(1.29678122839972421 -0.161227227257427164 -0.0904353859524985593)
(1.29769327881973817 0.139719439193385225 -0.249291939817082642)
(1.17124302164061223 0.957717497435508047 -0.657979122056656429)
(0.0207541594341172919 -0.0657052757750560823 -0.000710853005966401098)
(0.0628716702306772734 -0.0684263175019987624 -0.000752397566901584621)
(0.106393943732004226 -0.0704225777907783457 -0.000800089639622998477)
(0.151945775571683955 -0.0746764898135066635 -0.000857868960915893425)
(0.200612098282685225 -0.0808916670791406667 -0.000908637592746689847)
(0.253708029028608062 -0.0894581074832242473 -0.000926160279635225223)
(0.312401732213258232 -0.101114092651557186 -0.000868754427422150852)
(0.380339545819827707 -0.117188401673519321 -0.000675612003931169432)
(0.452072926010192722 -0.138862473182644386 -0.000321228653518135883)
(0.560057303028123288 -0.174246804009953377 0.000179691745353287823)
(0.593663736674032716 -0.20705711265062593 -0.000211879961795693756)
(0.767023561849137003 -0.364723597514566233 0.000993972343069946668)
(1.04802704101148714 -0.426340022144096276 -0.0191587737900251222)
(1.19891237997373112 -0.226622441806757252 -0.0990666626727316202)
(1.19048046246758954 0.169294068040905132 -0.291772474054589948)
(1.08979474958227573 1.30730789826560323 -0.736311335267162415)
(0.0204564937297827751 -0.0842028233500914935 -0.000726040002733565389)
(0.0618708353601732791 -0.0873151337075514788 -0.000765941013761598649)
(0.104588109555851405 -0.0900143048612652846 -0.000812628590027336803)
(0.149280145948862297 -0.0953858978260706536 -0.000869815335994040661)
(0.196901184685359498 -0.103212288070904934 -0.000920367612342431378)
(0.24863799591640251 -0.113949959708131307 -0.000935851810616195176)
(0.305473283305672361 -0.128491916070836459 -0.000874507219384522872)
(0.37088554533586332 -0.148321227048528986 -0.000668810225563764107)
(0.438075338583517992 -0.17541928876137905 -0.000299265782572389651)
(0.546023926011383165 -0.216441446465465287 0.000336337831177095387)
(0.560636389844682892 -0.257133969975585241 -0.000358608896645415311)
(0.722924054673416139 -0.449582079597161399 0.00293481966874956958)
(0.980656953982412594 -0.511359849771590547 -0.0169626421040717651)
(1.09496233570438029 -0.293472573336186981 -0.10448060729379878)
(1.08811980649100959 0.199361528124375909 -0.335575583901584928)
(1.0197400785360029 1.59099417453515901 -0.815684463473216659)
(0.0200685803617886918 -0.102390040454210934 -0.000739597972663882746)
(0.0606306129515302022 -0.105818504717885162 -0.000778047589212602347)
(0.102392924980779301 -0.109213397921286176 -0.000824645603122311035)
(0.146029884164441931 -0.115638075004558916 -0.000882672857889917452)
(0.19238104119979299 -0.124954311254777628 -0.000935624167184937253)
(0.242490810525441081 -0.137680555825085815 -0.000953941587594954498)
(0.297150129915723038 -0.154808082850415474 -0.000892036828753588781)
(0.359381569824359426 -0.177933301639608521 -0.000682118482842622984)
(0.422715045546977308 -0.209471659879818833 -0.00029152581623895571)
(0.5182621940374188 -0.254715839885883699 0.00046683008386728779)
(0.528030061304487819 -0.302115552503090634 -0.000286254043442540906)
(0.677509787148873555 -0.523820178362987665 0.00699520365505997867)
(0.904186210920856048 -0.582621196755610082 -0.0136477871084920172)
(0.990298515942090951 -0.359261018293743795 -0.107403876198309475)
(0.983164313259288547 0.220539901918686443 -0.37164849036414449)
(0.952144264873126422 1.83322425947759182 -0.897350523578985482)
(0.0196020487822550216 -0.120189978446898021 -0.000751668810570378003)
(0.0591692209082014114 -0.123883690860467022 -0.000788632632238236205)
(0.099831419845487393 -0.127942535626700993 -0.000836199237407293187)
(0.142239511881086078 -0.135343100212799355 -0.000896559251429107249)
(0.187122850231162402 -0.146015940556691398 -0.000954983232704676235)
(0.235382306811172282 -0.16052515059557701 -0.000981026312778456424)
(0.287595949553890895 -0.179913319434127916 -0.000923367891539326655)
(0.346477745112582114 -0.205835436134155558 -0.000717936101351839429)
(0.405074444935797584 -0.240554324961349264 -0.000297611782000211256)
(0.495026772629030831 -0.289234351104916021 0.000566511656792339276)
(0.492749936515899822 -0.340820105733023015 0.00018034989485791195)
(0.628951397527904521 -0.586395642161895214 0.0109688713426104433)
(0.8209888783587449 -0.644127264950258849 -0.0100549155489285131)
(0.884186397030527038 -0.414526903123686619 -0.109170291166085023)
(0.882105110079032473 0.230667474419065294 -0.390337198845513433)
(0.879549876444753242 2.03147004814384591 -0.951325752963294136)
(0.01906588877245248 -0.137536029227269208 -0.000762740291928902959)
(0.0575054111884089475 -0.141452778616065006 -0.000797297187869865477)
(0.0969316538779574632 -0.146131172369206724 -0.000847286789735721959)
(0.137957748109779899 -0.154422268895237413 -0.000911478237099385986)
(0.181205662724811783 -0.166310966018174355 -0.000979018332844656686)
(0.227433349225532572 -0.182383960312238025 -0.00101687849496626993)
(0.277012653839298961 -0.203701086011019605 -0.00096946707366449671)
(0.332337474963403934 -0.23189176226741029 -0.000776560892759699966)
(0.386208884220979987 -0.269207391111350947 -0.000334687444163840218)
(0.469061077736122878 -0.320231743803659208 0.000605062875941127318)
(0.458655462116957569 -0.374503423134793623 0.000862757712439884018)
(0.583752476835942891 -0.634316645403572021 0.0134573482608498132)
(0.737542826714786326 -0.685920762534245831 -0.00912485928556117619)
(0.780228950144311373 -0.46556913003182121 -0.113115992063489018)
(0.780884888891141937 0.230109920156786912 -0.39104877573159097)
(0.800996404549533358 2.19720016696776099 -0.980846752762636775)
(0.0184679697089390332 -0.15436863515285984 -0.000773585388276754526)
(0.0556585684063945207 -0.158469618954065583 -0.000802923130676646895)
(0.0937247239970337986 -0.163716554712123818 -0.000857969473346902999)
(0.133235846712489059 -0.172808053800260736 -0.000927191605362211483)
(0.174710044903928718 -0.185769135752187869 -0.0010085404802837746)
(0.218768894839559358 -0.203186801460338656 -0.0010621972423008985)
(0.265583958560916877 -0.226102807493199054 -0.00103171959964651599)
(0.317259096979274624 -0.256078376240053085 -0.000860423411357192258)
(0.366354500810253059 -0.295302850501831082 -0.00040427314487590535)
(0.442723860680910519 -0.347756301779625909 0.000540997605019333553)
(0.423476055480052072 -0.403608985835545053 0.00160078292061824464)
(0.544870199909734176 -0.67549001102869477 0.0142644889846112715)
(0.652951778323406007 -0.71687835070346595 -0.00827295390010243138)
(0.681196779267458918 -0.494733924736625807 -0.122923952745431525)
(0.690854145922127127 0.220797986577540434 -0.384112890778547988)
(0.725484997258570408 2.32171798559914633 -0.98414869111507941)
(0.0178159472864095614 -0.170634880004601724 -0.000784622601725735438)
(0.0536486852597792135 -0.174883378645434961 -0.000803229691426523597)
(0.0902429637101340998 -0.180645749952209 -0.000868634313191800908)
(0.128125518063644139 -0.190446699938023573 -0.000943073426775551207)
(0.167716184421573489 -0.204338925513092795 -0.00104510472514818611)
(0.209510055956361962 -0.222887577140841842 -0.00111765920660415611)
(0.253488522041187214 -0.24708266505418594 -0.00111153445481035687)
(0.301477407030723121 -0.27838934255629727 -0.00097347783821696138)
(0.345910810409813863 -0.318918229640558604 -0.000509560198507037678)
(0.415851221961349493 -0.371866809964455536 0.000403006192431375546)
(0.388177251898966569 -0.42903797377979791 0.00222031423006871812)
(0.507899597368712485 -0.70853310858316898 0.0139744176379578786)
(0.568906244315344423 -0.736308191550256286 -0.00849509560159907549)
(0.595396820466629118 -0.505427762106233636 -0.129660611748266597)
(0.612107282467545422 0.227654305131566592 -0.382022002254811865)
(0.650366110339912207 2.4223256562252593 -0.972739116741333398)
(0.0171174524518169502 -0.186295771811411437 -0.000792177553215197205)
(0.0514958750420408881 -0.190652336083159762 -0.000793608514156988153)
(0.0865182188840526861 -0.196875974248554242 -0.000880487177859441694)
(0.122676967297004114 -0.207298593900428957 -0.000957559142164274898)
(0.160301083551665724 -0.2219875520549765 -0.00109152037530907279)
(0.199776127574635975 -0.24146521997602774 -0.00118302981082829659)
(0.240891013366997059 -0.266629509942461762 -0.00120858361540418361)