/*--------------------------------*- C++ -*----------------------------------*\
| =========                 |                                                 |
| \\      /  F ield         | OpenFOAM: The Open Source CFD Toolbox           |
|  \\    /   O peration     | Version:  2206                                  |
|   \\  /    A nd           | Website:  www.openfoam.com                      |
|    \\/     M anipulation  |                                                 |
\*---------------------------------------------------------------------------*/
FoamFile
{
    version     2.0;
    format      ascii;
    arch        "LSB;label=32;scalar=64";
    class       volVectorField;
    location    "0.420000000000000151";
    object      faceForces;
}
// * * * * * * * * * * * * * * * * * * * * * * * * * * * * * * * * * * * * * //

dimensions      [1 1 -2 0 0 0 0];

internalField   uniform (0 0 0);

boundaryField
{
    inlet
    {
        type            calculated;
        value           uniform (0 0 0);
    }
    outlet
    {
        type            calculated;
        value           nonuniform List<vector> 0();
    }
    top
    {
        type            calculated;
        value           uniform (0 0 0);
    }
    bottom
    {
        type            calculated;
        value           uniform (0 0 0);
    }
    left
    {
        type            calculated;
        value           uniform (0 0 0);
    }
    symmetry
    {
        type            symmetryPlane;
    }
    interface
    {
        type            calculated;
        value           nonuniform List<vector> 
181
(
(0.556278769522959404 -7.04671665230519493e-06 -1.92866366782584522e-05)
(0.522309267603146554 3.39181955868390031e-07 -2.0441025164551442e-05)
(0.488069892089271928 1.220575276460879e-06 -2.02442118968280442e-05)
(0.455010856796005725 1.41905303405541288e-06 -1.98553988854512659e-05)
(0.423312281954678959 1.67606302808105223e-06 -1.91632519597325368e-05)
(0.392484600815154516 2.01235790420444683e-06 -1.86512861625479812e-05)
(0.362304480459044176 2.46549468063301876e-06 -1.81628539734441578e-05)
(0.332680752297256466 3.02851382133557576e-06 -1.76255596414297675e-05)
(0.303173099051632422 3.74798064344854516e-06 -1.70871757371432155e-05)
(0.27269964909103922 4.71546665139402558e-06 -1.65694319006991311e-05)
(0.240531419722840367 6.08526820101772856e-06 -1.61717140767225686e-05)
(0.205868328896924219 7.89212669572956235e-06 -1.60027064165792279e-05)
(0.167812567628829706 9.88709302964975112e-06 -1.53861215217451861e-05)
(0.126877439919770046 1.22171544723007667e-05 -1.51299468955987415e-05)
(0.0855466100869000379 1.44184634485251923e-05 -1.50548369484061388e-05)
(0.050601113914398442 1.52346153232566506e-05 -1.4742876031761513e-05)
(0.632083701206462512 -4.33399178887286385e-06 -1.2367838429412256e-05)
(0.596406308185467138 8.01437938137124092e-07 -1.37549270344207897e-05)
(0.560113569505814701 1.56664602283333117e-06 -1.35157357338929683e-05)
(0.523982678444230188 2.03260819913419418e-06 -1.32643781677670515e-05)
(0.488552703609323846 2.50886429465225824e-06 -1.29294076376367967e-05)
(0.453900400037359708 3.0352737640305657e-06 -1.26494092487981346e-05)
(0.419683329635785973 3.61362059191292137e-06 -1.23828310717030763e-05)
(0.385573080802450785 4.25738862005123608e-06 -1.20779127454453902e-05)
(0.351180591233402617 5.01605564183448971e-06 -1.17301372977411147e-05)
(0.316168911726579072 5.98131320983503533e-06 -1.13007690093410324e-05)
(0.280334117229896318 7.22809759234283154e-06 -1.09460989403532365e-05)
(0.242871653251375358 9.0993468054009004e-06 -1.10745961956563418e-05)
(0.202501714689162199 1.10213268291331761e-05 -1.08878404052709321e-05)
(0.159193513744722487 1.31735676967315604e-05 -1.07011668653109988e-05)
(0.114575510393129992 1.55033692849708722e-05 -1.06841889909213417e-05)
(0.073068613138441485 1.67736643711367014e-05 -1.06241534861080432e-05)
(0.667117214351629295 -4.33499486178706375e-06 -9.85402496946457328e-06)
(0.631370605102333671 9.01685426815733863e-07 -1.09502076574419707e-05)
(0.594478043407749235 1.98886515984946399e-06 -1.10012227973597427e-05)
(0.557174911457200772 2.64175687627050178e-06 -1.07748654526751916e-05)
(0.520353412009202709 3.23106893646473844e-06 -1.04021905538035353e-05)
(0.484144612617666836 3.81147035530780033e-06 -1.01722433445219606e-05)
(0.448087913736581245 4.41178361160717079e-06 -1.00261632408607196e-05)
(0.411947487931453304 5.13674872888609814e-06 -9.86568419325446054e-06)
(0.375603792000720083 6.01221422782745532e-06 -9.67287838591059431e-06)
(0.338995550464251671 6.98600442250747508e-06 -9.38338059092183858e-06)
(0.301854617531024494 8.17668540554107225e-06 -9.15389566493443836e-06)
(0.263535974917510407 9.85380506770163663e-06 -9.19090016810990606e-06)
(0.222704320002168193 1.18834184862622972e-05 -9.31201016046004685e-06)
(0.178785922137032566 1.3831145500347136e-05 -9.14356771708613108e-06)
(0.132779141198202999 1.61128954916531244e-05 -9.11603300022559781e-06)
(0.0876699044645644077 1.76477478655183019e-05 -9.17463830842835796e-06)
(0.680814629418907913 -3.1566132127140988e-06 -5.88042511019215142e-06)
(0.644923621635463129 1.09457363760994466e-06 -7.160981806040035e-06)
(0.607754097715515473 2.15099555576564653e-06 -7.20880952890244262e-06)
(0.570069897695803296 2.86151942593187822e-06 -6.98381526892657936e-06)
(0.532872667329063798 3.55920963132717034e-06 -6.79340980781306411e-06)
(0.496137823543822354 4.23914261810697688e-06 -6.71602745635014755e-06)
(0.459413592642740953 4.94622460439409993e-06 -6.6409561128585336e-06)
(0.422575040460127338 5.74123506986477091e-06 -6.55096699015577989e-06)
(0.38555101525565233 6.64504178478760497e-06 -6.45492034248636475e-06)
(0.348243066889702857 7.63614160645442977e-06 -6.31822219136738662e-06)
(0.310432470997763166 8.78411483192255653e-06 -6.18671572356935179e-06)
(0.271777214474112683 1.01448479038304604e-05 -6.08843303023846919e-06)
(0.231237904681494744 1.21913650010183716e-05 -6.26951774439384052e-06)
(0.187828719224238078 1.41866542852998091e-05 -6.29832051691438625e-06)
(0.141826704340200976 1.6289616272339847e-05 -6.2780762534561478e-06)
(0.0957164256723257029 1.78899043703928649e-05 -6.39075317309952991e-06)
(0.68805371234002799 -2.56247253390677399e-06 -4.72742310036845191e-06)
(0.652289487152266201 1.19168379677928264e-06 -5.32990868290396747e-06)
(0.615283496042707378 2.25047858240392239e-06 -5.42903712829128196e-06)
(0.577719182012353061 3.05349674236922919e-06 -5.40032041945582173e-06)
(0.540433453269255293 3.85491505206932467e-06 -5.34154585361131957e-06)
(0.503533163904113179 4.59986940312153808e-06 -5.30231366805276175e-06)
(0.466617227764811238 5.35362634141308148e-06 -5.24465206407612086e-06)
(0.42955105411140021 6.18824411099095784e-06 -5.17232269346334869e-06)
(0.392301878215778388 7.11345288591084739e-06 -5.09476923049347154e-06)
(0.354808716001976721 8.13279240514236481e-06 -4.99986343888626065e-06)
(0.316882299811218293 9.26966156289930638e-06 -4.90747026918624863e-06)
(0.278105381052479061 1.0581471390304992e-05 -4.83889911631625428e-06)
(0.237887806413706826 1.21262722899440174e-05 -4.79197024609290838e-06)
(0.195117860640824758 1.44644994788051711e-05 -4.97693765776458304e-06)
(0.149407687865826616 1.65191573292048963e-05 -4.96778520278984933e-06)
(0.102699916655789245 1.80359317447921532e-05 -5.03356537639863927e-06)
(0.691106056238526723 -2.04020508081356516e-06 -2.50418276897753685e-06)
(0.65540141359323334 1.30647318804807467e-06 -3.36270783912455044e-06)
(0.618469963946330359 2.32821134231777189e-06 -3.43692654849998939e-06)
(0.58105008890917853 3.17715638111419392e-06 -3.41133399721904551e-06)
(0.54376322489635287 4.01935656687329626e-06 -3.38667460415696823e-06)
(0.506736102416853407 4.78342857419199221e-06 -3.36405579415453275e-06)
(0.469703817235900489 5.56424942299022211e-06 -3.3341248439593008e-06)
(0.432528004236297337 6.42917040817019562e-06 -3.3007163272255933e-06)
(0.395123582856311717 7.39470422523761146e-06 -3.25508625941736934e-06)
(0.357477750615863676 8.43591629540487531e-06 -3.16879068448645074e-06)
(0.319522991485827246 9.57157751736972188e-06 -3.09122291302927658e-06)
(0.280846835850858401 1.08588059402450475e-05 -3.04237819778655636e-06)
(0.240706793689123566 1.23422413846738896e-05 -3.01417107290484757e-06)
(0.198288026353836744 1.44410650213855666e-05 -3.08859268353789238e-06)
(0.153046743446860395 1.6688657458687261e-05 -3.14332876477257768e-06)
(0.106178233646292933 1.81252958297735333e-05 -3.18729398815932453e-06)
(0.692996992708582171 -1.9210878952923127e-06 -1.43893859030972237e-06)
(0.657193974550902893 1.41490405711073071e-06 -1.95210526572429433e-06)
(0.620310475550138518 2.40679019313440833e-06 -1.99551345818868136e-06)
(0.583129212514535644 3.26419648898474863e-06 -1.99799830727793149e-06)
(0.546049970160979004 4.12415426484274055e-06 -2.01471390416408722e-06)
(0.509082079810021626 4.89400671639713423e-06 -2.02436574293006258e-06)
(0.472113706818085344 5.67963756245505437e-06 -2.03110491195994884e-06)
(0.4350901223302715 6.53585773268106527e-06 -2.03598029119460608e-06)
(0.397528102412850803 7.80570183654199178e-06 -2.0664503929719814e-06)
(0.359455096664262286 8.77439509305935594e-06 -1.95154004479704685e-06)
(0.321475068253455176 9.76722314244942355e-06 -1.84624808842797521e-06)
(0.283043225945812549 1.10734058932380322e-05 -1.80501854499477647e-06)
(0.243154964965735854 1.25474746061970979e-05 -1.7837361986515462e-06)
(0.201173865135241797 1.43235571848915531e-05 -1.78186533033198361e-06)
(0.156325020594319519 1.6735244637043714e-05 -1.82519654987831725e-06)
(0.110013437875282546 1.82354781050455651e-05 -1.81311980972895086e-06)
(0.693618479593747783 -1.63383720687982816e-06 -4.64278204197110518e-07)
(0.657770968824310076 1.47501906602919276e-06 -6.15332083821960008e-07)
(0.6208939888578211 2.47858014031632809e-06 -6.31945855115006365e-07)
(0.583813649017733916 3.34116135514178017e-06 -6.38221847977956325e-07)
(0.546896530829113048 4.17114764680221983e-06 -6.51905622798239846e-07)
(0.510056051467587146 4.92089373891904993e-06 -6.62931643577691239e-07)
(0.473210688518356515 5.66190078400980212e-06 -6.76843835459136015e-07)
(0.436271206597455052 6.68285134652832866e-06 -7.03900341638155909e-07)
(0.398327324752018541 8.08139301089923653e-06 -7.0943377834354996e-07)
(0.359786607944257597 8.73628194689120577e-06 -6.25562374984402402e-07)
(0.322054574849355957 9.8160676428927694e-06 -5.9096197953836109e-07)
(0.283718453514752333 1.11224227124746661e-05 -5.74495415840642355e-07)
(0.243806753197660958 1.26233819178088077e-05 -5.65155941063456168e-07)
(0.201577066319061193 1.46213400147660182e-05 -5.65154823898983517e-07)
(0.156512018306901812 1.68820865714020232e-05 -5.52574352884782071e-07)
(0.109480691643088032 1.82886882832837999e-05 -5.24104550544053261e-07)
(2.94050843308887218e-05 1.40683386064428213e-05 0.00775063276181393954)
(2.86682665855110419e-05 -1.03402589456480843e-06 -0.023502301106145037)
(2.7642657586291291e-05 -2.9465034525112584e-06 -0.040396823595803967)
(2.51232643296375576e-05 -4.26460836159164484e-06 -0.0466011890674178919)
(2.0816364324127675e-05 -4.98579119706881456e-06 -0.0467941507634200213)
(1.9049010276735785e-05 -4.92382589802437073e-06 -0.0424177886897805362)
(1.75436538873097985e-05 -4.74944632498983223e-06 -0.0373297361255203949)
(1.64659266844850975e-05 -4.64323111415419374e-06 -0.0289092282073173494)
(1.3859276535925556e-05 -3.52907031801763726e-06 -0.00652321033028610379)
(1.15626884984777366e-05 -1.63135529927524707e-06 -0.000774437661118400908)
(1.13027613031592002e-05 -1.64044875490134431e-07 -0.000599621807873578958)
(1.00174705852863121e-05 7.95968608168189118e-07 -0.000421591458367644644)
(8.37602907222992322e-06 1.69371386554927628e-06 -0.000454278038248138723)
(5.72100664948273829e-06 2.07014976118600576e-06 -0.000164414225188787879)
(2.91694562251633909e-06 1.83277439701376368e-06 -0.000430132462105363151)
(2.20411782134648979e-05 9.97131904276664695e-06 0.0690777582624394343)
(2.01775978921201789e-05 -5.45600060326276117e-06 0.0401958975917219366)
(1.58885971078457433e-05 -9.8141039115797323e-06 0.0146351616308067964)
(8.41914016897833281e-06 -1.05175260227385029e-05 -0.00804792416668412107)
(1.48887029510845767e-06 -4.03254907276884594e-06 -0.0143950682965972663)
(2.48731480556035096e-07 -1.87223009621113859e-06 -0.00357687378171771871)
(-1.44876113377629595e-08 -1.19869775563757574e-06 -0.00210807506759472588)
(-1.85588292640958733e-07 -6.857770005143748e-07 -0.00106722897009243101)
(-1.48069465134448838e-08 -1.57833974378202501e-08 -0.000184115404707554221)
(-2.4788529270774622e-08 -2.47854647357741892e-08 -0.000124225068729340142)
(-2.36067612367552916e-08 -1.8764396189051089e-08 -0.000163492872397370381)
(-2.14011629788996051e-08 -1.92259062107794499e-08 -0.000185249338118875903)
(-2.18993098750273421e-08 -1.89396757352615651e-08 -0.000208258813399416707)
(-2.56264157696519882e-08 -1.63979310898580098e-08 -0.000210082057255440324)
(1.81527941091911802e-05 4.17714626277976889e-06 0.118822814833862561)
(1.31903952703984985e-05 -7.17207777877753472e-06 0.0733423965293328872)
(3.44391228863182461e-06 -6.25763898640378038e-06 0.027563651836857387)
(7.5348442851660152e-08 -2.51321313959775776e-06 0.00527107244318868445)
(-9.25938354045568013e-09 -3.12750701309057646e-07 0.000150130365132856378)
(-1.3429392543099153e-07 -1.31888754442009775e-07 -0.000517554285264130607)
(-1.03034420393149545e-07 -9.68686392848850986e-08 -0.000661103110277854247)
(-2.53411021806949921e-08 -4.57312111780402693e-08 -0.000742271242309460334)
(-8.94110664054125972e-09 -1.64778025166221666e-08 -0.000451379196402436269)
(-1.79110158413697699e-08 -1.83902369116585406e-08 -0.000335041239595333976)
(-2.02985412758164249e-08 -1.36345676395365173e-08 -0.000312449783482116603)
(-1.59178555840272525e-08 -1.12772164835893324e-08 -0.000316817289263722946)
(1.84004837148955513e-05 -7.99869626170544308e-08 0.0804730275003708861)
(1.12233153203264027e-05 -7.59341826821871555e-06 0.0403315251951322645)
(6.55506732669441581e-06 -3.93501871369949085e-06 0.0132166225338712553)
(1.0733721157753633e-06 -4.89029126912290997e-07 0.00427771913039300296)
(7.67056031271868979e-07 -5.25307596804393836e-07 0.00155107469675222031)
(8.70477802273793597e-08 -1.26973712665844973e-07 -0.000153850297828765528)
(-2.49839508158660535e-08 -2.98590815713385251e-08 -0.000210917274482823569)
(5.43724068859514075e-10 -5.17942003814294526e-09 -0.000216743016923624701)
(-1.31889583463258873e-09 -6.30009103767086659e-09 -0.000300033348205431237)
(-1.59557707719768749e-08 -2.76995085252443632e-09 -0.000316206811925928157)
(-2.18968314502783074e-08 -9.54492944843448487e-10 -0.000326201104339178766)
(-1.97724261110122176e-08 -5.16794034781483486e-09 -0.00032898338847171777)
)
;
    }
    procBoundary0to1
    {
        type            processor;
        value           uniform (0 0 0);
    }
    procBoundary0to3
    {
        type            processor;
        value           uniform (0 0 0);
    }
}


// ************************************************************************* //
