/*--------------------------------*- C++ -*----------------------------------*\
| =========                 |                                                 |
| \\      /  F ield         | OpenFOAM: The Open Source CFD Toolbox           |
|  \\    /   O peration     | Version:  2206                                  |
|   \\  /    A nd           | Website:  www.openfoam.com                      |
|    \\/     M anipulation  |                                                 |
\*---------------------------------------------------------------------------*/
FoamFile
{
    version     2.0;
    format      ascii;
    arch        "LSB;label=32;scalar=64";
    class       surfaceScalarField;
    location    "0.0599999999999999978";
    object      alphaPhi0.water;
}
// * * * * * * * * * * * * * * * * * * * * * * * * * * * * * * * * * * * * * //

dimensions      [0 3 -1 0 0 0 0];

oriented        oriented;

internalField   nonuniform List<scalar> 
20856
(
3.26094606647571824e-20
8.61417372269620541e-20
-2.51368330420581345e-20
3.47611390013754339e-21
1.01973096790644782e-20
6.59580845965795375e-22
-2.570556480264172e-21
3.37663321286386012e-22
1.11006910996156223e-21
6.11826650557025998e-23
-2.41327670090025418e-22
2.97512328489250816e-23
1.11059754873425677e-22
5.20622878762356263e-24
-2.07471406205526977e-23
2.36321511488873678e-24
1.01708762572404453e-23
4.04367591827055861e-25
-1.62608806440855418e-24
1.67971560212861936e-25
8.48080761963713523e-25
2.85063565370577089e-26
-1.15625602527568437e-25
1.05807960527082817e-26
6.39792948826707785e-26
1.81762259592875401e-27
-7.43479492430655186e-27
5.832341386431895e-28
4.32982341486090673e-27
1.04156427736641421e-28
-4.29788039345853904e-28
2.76682214425955952e-29
2.59976763562930033e-28
5.29876803036662493e-30
-2.20633122024806937e-29
1.1043224806472988e-30
1.36580198618277071e-29
2.35810327660362136e-31
-9.89705722230615431e-31
3.58992910698204766e-32
6.16311610617163099e-31
9.0393877066264964e-33
-3.8159022596783478e-32
9.0496378209730674e-34
2.32683312296979749e-32
2.92636079968549407e-34
-1.24080501624145683e-33
1.63256288060860744e-35
7.06635748609902203e-34
7.75313923155763459e-36
-3.30336677415711499e-35
1.81160001555036156e-37
1.62033526757708472e-35
1.59042716406381771e-37
-6.81879106562828281e-37
7.51284442118080665e-39
2.49402962710298024e-37
2.26245667014941099e-39
-9.75987141430733435e-39
2.58145684036626383e-39
2.35369992366836551e-41
-1.06896871857521627e-40
1.48589163572101088e-20
4.2719099372152243e-20
2.93272699858077171e-21
-1.12383303815540118e-20
1.59175824279592527e-21
5.07855744784880012e-21
2.97738775697495783e-22
-1.1551473738016735e-21
1.55332034833658828e-22
5.55340872606186634e-22
2.77672072704670532e-23
-1.09088880381132621e-22
1.37468478116450563e-23
5.58100856694590558e-23
2.37385433789817582e-24
-9.42667924552049224e-24
1.09670818642564224e-24
5.1326370823587714e-24
1.85244312631820662e-25
-7.42508514091389105e-25
7.82863715351345812e-26
4.29716365224956062e-25
1.31260826986017638e-26
-5.30864165475897392e-26
4.95243497374558126e-27
3.25472543460303419e-26
8.41509392682980945e-28
-3.43390481042603528e-27
2.74160447703994753e-28
2.21127566058894414e-27
4.8458369367788155e-29
-1.99602849387224258e-28
1.30616675057625714e-29
1.33287667655140749e-28
2.47589212654459559e-30
-1.02937007643896391e-29
5.23504013879591226e-31
7.02960910006661408e-30
1.10653991120734308e-31
-4.63675301888543684e-31
1.70861301351206832e-32
3.18442755164155708e-31
4.2601769451740929e-33
-1.79553537149686169e-32
4.32368741351359274e-34
1.20685890098605416e-32
1.38475493125453534e-34
-5.8650009359364365e-34
7.82897083119817698e-36
3.67870763384780032e-34
3.6809900567790317e-36
-1.5680712538467646e-35
8.71931777057620715e-38
8.46551190954827103e-36
7.57034623480475613e-38
-3.24843512559378159e-37
3.47875823392422793e-39
1.30761573621582545e-37
1.07940313765553706e-39
-4.66382523320117636e-39
1.34590723520409164e-39
1.10700086904850282e-41
-5.04977248838840961e-41
6.64887870679027157e-21
2.06915519035023397e-20
1.29461337495049404e-21
-4.93650862368960716e-21
7.15323558406613257e-22
2.46811509337954569e-21
1.32123375077480747e-22
-5.10215661756541908e-22
7.00914493693187272e-23
2.70968008640427058e-22
1.23687689259704761e-23
-4.83717382983622244e-23
6.22730452272753532e-24
2.73357317227036127e-23
1.06175664822811583e-24
-4.19779279693699189e-24
4.98723771772811417e-25
2.52299125164238988e-24
8.32106473522715504e-26
-3.32234328322026363e-25
3.57370376910875538e-26
2.11977662816031385e-25
5.92420905987052234e-27
-2.38793871029547426e-26
2.26939304147197564e-27
1.61113833924438061e-26
3.81405865109859062e-28
-1.5522005522315351e-27
1.26115089400493334e-28
1.09839271927076378e-27
2.20417507277191045e-29
-9.05813601678477163e-29
6.031552086924243e-30
6.64383970229844401e-29
1.13061077633120559e-30
-4.68857065322095488e-30
2.42646466495558724e-31
3.51640508745109611e-30
5.07795234984527763e-32
-2.12129584077962788e-31
7.94800823861113395e-33
1.59857981358893041e-31
1.96569761254732479e-33
-8.25867332687421198e-33
2.0182875142701125e-34
6.07942297957831244e-33
6.42070176845834084e-35
-2.71262912752644806e-34
3.66706242573539882e-36
1.85935716924371411e-34
1.71262516928653303e-36
-7.28605487161294255e-36
4.09766337254350074e-38
4.29284173228864894e-36
3.52864923103378137e-38
-1.51407561443865787e-37
1.57177276791944822e-39
6.65230144532833178e-38
5.03677218082545861e-40
-2.17800290028050819e-39
6.80237066786375804e-40
5.08883075082678344e-42
-2.32986542479676708e-41
2.92869858324954027e-21
9.82091144927025308e-21
5.63349350432977661e-22
-2.13707236897837604e-21
3.16220400501336135e-22
1.17473981430750247e-21
5.76491209454801403e-23
-2.21577468456434709e-22
3.10884589517749867e-23
1.29402704214557155e-22
5.41838970995268752e-24
-2.10784196666341846e-23
2.77089403309217721e-24
1.30928172044401738e-23
4.66701808998296203e-25
-1.83591155602789209e-24
2.22627319139747858e-25
1.21186376827373412e-24
3.66986441804375094e-26
-1.45872797006978622e-25
1.60055095608265351e-26
1.02111805747696398e-25
2.62243416773265855e-27
-1.05308427783343814e-26
1.01989006392248394e-27
7.78339162218077912e-27
1.69480661466893513e-28
-6.87592177246607348e-28
5.68819206925606225e-29
5.32215524649494097e-28
9.83419308856389884e-30
-4.02917650590161125e-29
2.73033006091236616e-30
3.22944259520302625e-29
5.06765486389736896e-31
-2.09385642597181749e-30
1.1022290548953883e-31
1.71491538760619242e-30
2.28758894106119468e-32
-9.51367856695229305e-32
3.62215242338266173e-33
7.82171827700501617e-32
8.89843973376182768e-34
-3.72052378045387699e-33
9.22636200197855424e-35
2.98400325683679793e-33
2.91790488574552753e-35
-1.22715955197131218e-34
1.68143204415857993e-36
9.15410600576388538e-35
7.80271413298443513e-37
-3.30677292373875306e-36
1.88455037112030384e-38
2.11973870577018768e-36
1.60977638601847061e-38
-6.88570511129110775e-38
6.9417633144446603e-40
3.29451915265915186e-38
2.30006870683783026e-40
-9.91687618682153385e-40
3.33951241035067077e-40
2.2892560487163646e-42
-1.04692330259224956e-41
5.87562201154286641e-19
1.64763123764491458e-18
1.35868966774852451e-19
-4.9045235531109526e-19
8.29676810799207687e-20
2.50852869177663831e-19
1.78954793150668078e-20
-6.56156937229362285e-20
1.07359971945031803e-20
3.5279898425108201e-20
2.1681446686785376e-21
-8.06922180059345479e-21
1.2722833264644886e-21
4.58352010387896571e-21
2.41854331334564295e-22
-9.12611185755134878e-22
1.37736618148461688e-22
5.49316431423391977e-22
2.48168011129716117e-23
-9.48383116571927767e-23
1.35754286283875539e-23
6.06415998996539073e-23
2.33911850266203127e-24
-9.04676810728642865e-24
1.21303716482652577e-24
6.14806895646558077e-24
2.01993650719269942e-25
-7.90159880249124209e-25
9.77185346011767697e-26
5.70264611911882883e-25
1.5926401822334742e-26
-6.29825282117753424e-26
7.04482812473094448e-27
4.81569773938848966e-26
1.14158698021663157e-27
-4.56347214960538217e-27
4.50220918854876302e-28
3.67914510928387822e-27
7.40217835130647404e-29
-2.99060067889677962e-28
2.51874608887755351e-29
2.52189037557086959e-28
4.31035699066177708e-30
-1.75856916099007594e-29
1.21282124558423466e-30
1.53433638645792091e-29
2.23012078876647463e-31
-9.17294003523381584e-31
4.91146998076914576e-32
8.17073442095103195e-31
1.01125896018840536e-32
-4.18615890119812805e-32
1.61891727832266913e-33
3.73739174347942175e-32
3.95141078114871906e-34
-1.6449693354632143e-33
4.13593370641722785e-35
1.42990651716204083e-33
1.30049252175334794e-35
-5.44926696459846304e-35
7.55945217199524652e-37
4.3990512730211775e-35
3.48558758447466865e-37
-1.47277256392548748e-36
8.49729953375303592e-39
1.0215383901095879e-36
7.19811899215111123e-39
-3.0711769466290219e-38
2.99333267447917807e-40
1.59219534173724499e-38
1.02908791576766831e-40
-4.42551913752636584e-40
1.58483478314104618e-40
1.00792303695448176e-42
-4.60094454683368347e-42
2.51431587663643208e-19
7.55379889599506305e-19
5.75946411355219614e-20
-2.06675805156446348e-19
3.55338540808539937e-20
1.14923144753553482e-19
7.58688899652537216e-21
-2.76452268598625465e-20
4.60240421931555833e-21
1.6164626706681681e-20
9.20025380390093255e-22
-3.4024101953114614e-21
5.46085271326324178e-22
2.10056429983287949e-21
1.02725127981939794e-22
-3.85168017270828703e-22
5.92039138068405537e-23
2.51969615295592442e-22
1.05575141492892043e-23
-4.00925119426398007e-23
5.84525489381591754e-24
2.78472419459749136e-23
9.9664358421003761e-25
-3.8308661364600591e-24
5.23277984859512384e-25
2.82689799644922984e-24
8.62082514485229766e-26
-3.35234767504464363e-25
4.22387108240084838e-26
2.62588077535604721e-25
6.81076882630831126e-27
-2.67855425029498573e-26
3.05183719811564839e-27
2.22101637790498042e-26
4.89384512871359396e-28
-1.94630399642927798e-27
1.95502569226077811e-28
1.6998055270705235e-27
3.18189310105577885e-29
-1.2792025628992692e-28
1.09649571277713456e-29
1.16740103903964775e-28
1.85837336263842665e-30
-7.54427329000907414e-30
5.29366832129252362e-31
7.11778981627167343e-30
9.64853908974454488e-32
-3.94883039086395255e-31
2.14950943332272618e-32
3.79913107311609661e-31
4.39304262992412603e-33
-1.80993858185578238e-32
7.1047745693541109e-34
1.74193927324836572e-32
1.72378114229474614e-34
-7.14671091383504896e-34
1.82024290734868999e-35
6.68117031631570882e-34
5.69313775061828626e-36
-2.37754929094674889e-35
3.33653059833142189e-37
2.06078614499822765e-35
1.52900794463925449e-37
-6.44285931661220854e-37
3.76112898044513025e-39
4.79838723738749122e-37
3.1594463179161413e-39
-1.34481951069834067e-38
1.23244804232481064e-40
7.50011429373242065e-39
4.51745873594847053e-41
-1.93828828979585702e-40
6.89247824218650145e-41
4.33832624176871377e-43
-1.96389406505373454e-42
4.07415771461273178e-18
1.07405854399783642e-18
-3.71640150397747035e-18
1.33708456596363286e-17
6.861314947657877e-19
1.67251213652864117e-19
-5.87831788931318999e-19
2.37925597122320046e-18
1.05557092960574983e-19
2.39430039617425513e-20
-8.54430900221253273e-20
3.91281223274729941e-19
1.49089592247598316e-20
3.1520765150858669e-21
-1.14172394032798877e-20
5.94878442131359224e-20
1.93182446484114812e-21
3.8245834502864659e-22
-1.40533986532724165e-21
8.3653500971852522e-21
2.29346155277784992e-22
4.27384434807144356e-23
-1.59191579505967087e-22
1.08683797533532753e-21
2.48861379184153915e-23
4.39565785791503403e-24
-1.65827394233602585e-23
1.30392276922371255e-22
2.4597215111984784e-24
4.15307704439540013e-25
-1.58607700811924417e-24
1.44139261643740393e-23
2.2048373866089782e-25
3.59647950666961345e-26
-1.38986406002147918e-25
1.46359081653341698e-24
1.78236903028610595e-26
2.84573430239217872e-27
-1.11250636389592749e-26
1.35989183053065997e-25
1.28996196340673316e-27
2.04882563538828097e-28
-8.10113674851664701e-28
1.15059088387187329e-26
8.27871704352429802e-29
1.33506876830066033e-29
-5.33669437527054321e-29
8.80909035201407142e-28
4.65212617389882005e-30
7.8163533739500229e-31
-3.15528559850850784e-30
6.0526424206886767e-29
2.25042935610647823e-31
4.06993321978162603e-32
-1.65671561108810957e-31
3.69225958717688566e-30
9.15711234025950585e-33
1.85956190060977677e-33
-7.62372124098965644e-33
1.97182309785849797e-31
3.03356642255001389e-34
7.3240915478201951e-35
-3.02338846556982299e-34
9.04611596143696815e-33
7.7911728272726136e-36
2.42667350042145347e-36
-1.00954219792439957e-35
3.47178402364188323e-34
1.43185261972754534e-37
6.52987335185933671e-38
-2.74181351152200254e-37
1.07164993467824402e-35
1.61845659967986952e-39
1.35007420691765507e-39
-5.72738348938500431e-39
2.49738231930478623e-37
3.19032917394271206e-41
1.93077953551750563e-41
-8.26089800028125968e-41
3.90820160259684004e-39
1.77643876946574139e-43
-7.32791177810658464e-43
3.25581217151278152e-41
8.47960747325488845e-22
2.53811177294734624e-21
1.33119124639735877e-22
8.16868231036096729e-23
2.73837212176356651e-22
1.2196937076087785e-23
7.14203808259230489e-24
2.71584718382352516e-23
1.02628238599563135e-24
5.63204956348391905e-25
2.4671027416744134e-24
7.88962760687074315e-26
3.97567317519885607e-26
2.04141853813237156e-25
5.50813639006270518e-27
2.48806354952184105e-27
1.52877234031229874e-26
3.48129570197129894e-28
1.36303628365950677e-28
1.02728847505556047e-27
1.97963370376233814e-29
6.42817814397404548e-30
6.12654430657269482e-29
1.00033709107915807e-30
2.55100244534400926e-31
3.19813715136230501e-30
4.42378589392007444e-32
8.24587852937186326e-33
1.43445602464363915e-31
1.68512683095847714e-33
2.06698216891860053e-34
5.38425639796207758e-33
5.42074455705829706e-35
3.70804821424695302e-36
1.62583148796662329e-34
1.42720312718420801e-36
4.09210084975167932e-38
3.7069559349903805e-36
2.91006546736155195e-38
1.28599774849903813e-39
5.67491380973010346e-38
4.11682414039756135e-40
5.46203961418047553e-40
4.04293717512800037e-42
3.66868172698582945e-21
1.07842317760170747e-20
6.009913270402762e-22
3.89585472068199485e-22
1.26948156884807054e-21
6.02711343634529158e-23
3.77071970075232871e-23
1.37538188807479632e-22
5.55401146767034708e-24
3.31080956846484112e-24
1.37017193520883114e-23
4.69845738681882247e-25
2.62170796662199985e-25
1.24965349036708358e-24
3.62844853480601041e-26
1.85836644421504095e-26
1.03805923992591248e-25
2.54577045923941018e-27
1.1678493604652348e-27
7.80348647014312358e-27
1.61758089061686562e-28
6.42445886995112057e-29
5.26329969558650402e-28
9.24335450264270776e-30
3.042256101127833e-30
3.15057561201975923e-29
4.69109045510818793e-31
1.21211622040198854e-31
1.6507834364161509e-30
2.08343929498282283e-32
3.93312323300910545e-33
7.43190358907097674e-32
7.97144199817816323e-34
9.89600117051620729e-35
2.79983577993715115e-33
2.57506112037620323e-35
1.78179672502726171e-36
8.48458620738677052e-35
6.80391416806643134e-37
1.97349639460358433e-38
1.9412066100537682e-36
1.39130243150783586e-38
5.91316856396079836e-40
2.98197997544103154e-38
1.97345600051235072e-40
2.85006770413807983e-40
1.9056661089766326e-42
1.64922497678176319e-21
5.2526438823475836e-21
2.66499629811908762e-22
1.75852250586756889e-22
6.20265142478325206e-22
2.68534049962004804e-23
1.70845471130239568e-23
6.74399082479347829e-23
2.48631848665071708e-24
1.50569601424343919e-24
6.74198181839443782e-24
2.11155215717856421e-25
1.19672907900003907e-25
6.16965322935992031e-25
1.63762271660361227e-26
8.51424252794784378e-27
5.14216702714859084e-26
1.15446393367088731e-27
5.37020600938646375e-28
3.87829681581113619e-27
7.36656349624458998e-29
2.96501630388873009e-29
2.62437699812457921e-28
4.22383737026013931e-30
1.40916370644991763e-30
1.57614037894404115e-29
2.15103107930211903e-31
5.63446771389528741e-32
8.28624623570174783e-31
9.59384431187882475e-33
1.83464185174576521e-33
3.74308490028080282e-32
3.68844823182644284e-34
4.63182106229932621e-35
1.41480389617294644e-33
1.19689243168787776e-35
8.36764119552665932e-37
4.30122274089668474e-35
3.17302592787870829e-37
9.29769232317103631e-39
9.87175516934975228e-37
6.50086180574639988e-39
2.6518037853781263e-40
1.52109770840760375e-38
9.23185265106805043e-41
1.44237536487475222e-40
8.7538637440966391e-43
7.30330915680393432e-22
2.50910842637543379e-21
1.16663469371775662e-22
7.81257288558241167e-23
2.96941429847633726e-22
1.17939381401813567e-23
7.61367783379312766e-24
3.23828105234259251e-23
1.09549418387194767e-24
6.73027823614465458e-25
3.24587376939950401e-24
9.33170536014426567e-26
5.3656639060412877e-26
2.97807832685868915e-25
7.26099216094089976e-27
3.82956136574550185e-27
2.48869009938535993e-26
5.13776695414514291e-28
2.42341065065183847e-28
1.88206329402862305e-27
3.29091500848864097e-29
1.34260607175550155e-29
1.27718357927580976e-28
1.89410948516046729e-30
6.40273985756360136e-31
7.6939036900863012e-30
9.6845039608898013e-32
2.56846578503915229e-32
4.05770767811752918e-31
4.33785597373654382e-33
8.38889856715964389e-34
1.83864845128730093e-32
1.674716450311577e-34
2.12415250402221348e-35
6.97026677659476572e-34
5.45340922286834108e-36
3.84856032939213994e-37
2.12508287004229569e-35
1.44909207374828951e-37
4.28858264616171285e-39
4.89077666105408976e-37
2.97237408189213092e-39
1.16219198965457264e-40
7.55667301045490484e-39
4.22398251325900768e-41
7.10187929245261313e-41
3.93181705660052234e-43
1.52253770249326233e-19
4.39699002845610185e-19
2.95331028369119406e-20
2.12548986013892347e-20
6.60767417639846417e-20
3.83335606186988409e-21
2.72091308869324568e-21
9.17895264832961509e-21
4.58121402635871256e-22
3.19170037673362374e-22
1.17878679561753327e-21
5.04362137189444041e-23
3.42218139535947485e-23
1.39725456559244345e-22
5.11044269211210686e-24
3.34259839445584089e-24
1.52664280909877333e-23
4.75880822988230225e-25
2.9616153858971239e-25
1.53288768792324579e-24
4.06326164732306041e-26
2.36692477531257202e-26
1.40903156382906731e-25
3.16990626391113903e-27
1.69371132226579353e-27
1.17980511260568239e-26
2.24973808391457085e-28
1.0747719493394732e-28
8.94092195753987018e-28
1.44549544821199389e-29
5.97172500277706858e-30
6.08135314135944657e-29
8.34568762097895504e-31
2.85633546122478675e-31
3.67279698086350991e-30
4.28225585494057729e-32
1.14919950379558879e-32
1.94222771239392388e-31
1.92603285731202681e-33
3.76413649170397919e-34
8.82464279574199064e-33
7.4674158844746544e-35
9.55756908957202402e-36
3.35433192568761721e-34
2.44004517060360246e-36
1.73633250432798263e-37
1.02534141097546459e-35
6.49649852114308294e-38
1.93996866423748271e-39
2.3658453019198301e-37
1.33319569840343725e-39
4.97886709802308875e-41
3.66471150470141736e-39
1.89434752174761486e-41
3.40404967679004085e-41
1.72945457716310905e-43
6.56407733917651976e-20
2.03222950921627323e-19
1.26020296132880792e-20
9.16783636716116539e-21
3.05057722108635541e-20
1.63632689904353959e-21
1.1742442824129135e-21
4.23647521839514248e-21
1.95688284568720355e-22
1.37869132235496885e-22
5.43983852390906565e-22
2.15659060488320356e-23
1.4799849212199167e-23
6.45190798129727997e-23
2.18855816757898528e-24
1.44771335320728764e-24
7.0553216900877355e-24
2.0411119333041442e-25
1.28482526275637169e-25
7.09147567099708979e-25
1.74562286587404845e-26
1.02870848269358886e-26
6.52632063782987638e-26
1.36449160579439275e-27
7.37602514491428926e-28
5.47207533540208606e-27
9.70643258056802548e-29
4.69087759813823977e-29
4.15336936899715463e-28
6.25138532909833198e-30
2.61251316754097754e-30
2.83006467881624283e-29
3.61821360891555183e-31
1.25267494404093543e-31
1.7126584970844758e-30
1.86220561979411476e-32
5.05273729573062838e-33
9.0765192558597585e-32
8.40811085992725548e-34
1.65926562244054497e-34
4.13328311943478552e-33
3.27348932732524104e-35
4.2239945169753213e-36
1.57472217308517726e-34
1.07322680066490036e-36
7.69344670689756801e-38
4.82489265814415646e-36
2.8619148583180173e-38
8.6168093758117859e-40
1.11592301452578451e-37
5.87145440229945501e-40
2.0729126466710262e-41
1.73265826215659297e-39
8.33373540573870989e-42
1.57347676970918344e-41
7.45450365847866282e-44
1.10033581326337601e-18
2.44711194801396204e-19
3.72077045888349344e-18
1.82924873887060932e-19
3.74424813350582329e-20
6.52692816419224917e-19
2.77755854268816706e-20
5.27729755589823428e-21
1.05808975785495995e-19
3.87526288557406034e-21
6.8483838835180123e-22
1.58674337224135182e-20
4.96391424393953098e-22
8.19364869310776028e-23
2.20254221192106036e-21
5.82986232496636264e-23
9.03652432607539725e-24
2.82694554564058718e-22
6.26210427389048221e-24
9.17708838808450978e-25
3.35283148319154489e-23
6.13094813396128198e-25
8.56679763250916475e-26
3.66656820414248504e-24
5.44708243865582132e-26
7.33525495049345983e-27
3.68567889127322613e-25
4.36686866644033545e-27
5.74224717404169189e-28
3.39236108987914212e-26
3.13574738844329447e-28
4.09193477507458671e-29
2.84487347389226147e-27
1.99747878673238598e-29
2.64004111787467083e-30
2.15984540728103592e-28
1.11441518006906179e-30
1.53088663779813465e-31
1.47221927510142525e-29
5.35342978173157726e-32
7.8988799505182214e-33
8.91326376154244177e-31
2.16358613184421328e-33
3.57869861536323201e-34
4.72597140377539616e-32
7.11983691483971325e-35
1.39864176030760316e-35
2.15317267385846444e-33
1.81647585234981678e-36
4.59978119647528208e-37
8.20760700015707809e-35
3.31583335765924489e-38
1.22820740331138118e-38
2.51630092326326194e-36
3.72181381064229746e-40
2.51808074311008807e-40
5.82376205238624611e-38
7.58902790610681044e-42
3.5681343570325089e-42
9.04940055800351294e-40
3.20203408525202725e-44
7.53245028691707613e-42
1.70077304094474472e-22
5.19775351623380985e-22
2.09792574639139304e-23
1.62555452764681644e-23
5.5582546275848309e-23
1.90063301958314657e-24
1.41047327522911875e-24
5.46633414654593248e-24
1.58192286920931115e-25
1.10430125072135296e-25
4.9257534192566495e-25
1.20452567522204313e-26
7.74197472856165715e-27
4.04482652199597729e-26
8.33663312071372287e-28
4.81327109414549202e-28
3.00673420099461832e-27
5.22797249793731161e-29
2.62037390184505322e-29
2.00597226927493074e-28
2.95150237147591634e-30
1.22846050936103014e-30
1.18822863490288065e-29
1.48108849445159324e-31
4.84726020001117977e-32
6.16362344812469252e-31
6.50598332749648171e-33
1.55801162453611087e-33
2.74808579695117015e-32
2.46290104380941166e-34
3.88344750923882867e-35
1.02550736403033558e-33
7.87810049691227877e-36
6.92721454003370792e-37
3.07868868235224475e-35
2.0632462528985542e-37
7.60182476918384808e-39
6.97865884715219283e-37
4.18485210442404497e-39
1.7924291031352773e-40
1.06236137858388881e-38
5.88912673557442223e-41
9.56559176341393589e-41
5.40351932433618714e-43
7.4552893059888139e-22
2.24204802068357199e-21
9.63082997802230116e-23
7.85000982854001671e-23
2.61314114683214553e-22
9.55710441858724305e-24
7.53585813427161368e-24
2.80561672338563452e-23
8.6974591540497696e-25
6.56571458416349703e-25
2.77074597009869654e-24
7.27942830733543593e-26
5.1611763494196984e-26
2.50621181691866284e-25
5.56743931605121835e-27
3.63294703347094071e-27
2.06562051896005903e-26
3.87207681142770467e-28
2.26778802654149222e-28
1.54109331368987449e-27
2.44081469300877955e-29
1.23957694277027761e-29
1.03187073930095426e-28
1.38429248995179425e-30
5.83424337153525643e-31
6.13433289435746313e-30
6.97376045954870615e-32
2.31088452102890335e-32
3.19356959779538558e-31
3.07530234127677613e-33
7.45521598883936096e-34
1.42900193299786984e-32
1.16896177987695756e-34
1.86500518741545761e-35
5.35143448850278192e-34
3.75386590518557185e-36
3.33865153322043973e-37
1.61206486989670977e-35
9.86363714856003358e-38
3.67683763232081528e-39
3.66634638176737e-37
2.00586444958227045e-39
8.16215130468504275e-41
5.59987211812615398e-39
2.82954647277009768e-41
4.99989574823080463e-41
2.54285626711695774e-43
3.36968804910261105e-22
1.09839594561408676e-21
4.29814892014608461e-23
3.5612713604941598e-23
1.28398384734060104e-22
4.27663854378309915e-24
3.43110599033738945e-24
1.38316848012239384e-23
3.91450833015292519e-25
3.00007028100891826e-25
1.37043187493704919e-24
3.28999134324763556e-26
2.36663657369300062e-26
1.2435074170189454e-25
2.5269021594709477e-27
1.67177109654692605e-27
1.02812741854404425e-26
1.76545344174201436e-28
1.04725609622448464e-28
7.69452357841962496e-28
1.11717701091653701e-29
5.74453168562349449e-30
5.16822736378730513e-29
6.35526304624348659e-31
2.71318110023855831e-31
3.08229009090057078e-30
3.2121823610892628e-32
1.07832606130283285e-32
1.60986553695312602e-31
1.42259028711085664e-33
3.4903870507824071e-34
7.22672687043736988e-33
5.43383159249470034e-35
8.76011086885475359e-36
2.71482466102421416e-34
1.75258946410154509e-36
1.57321986812620824e-37
8.20313718388773551e-36
4.61882490462284476e-38
1.73787570942358454e-39
1.87120302301308784e-37
9.4068757522510089e-40
3.62076572581855641e-41
2.86629786446670939e-39
1.32802451282268205e-41
2.53555549975413038e-41
1.16735769954805747e-43
1.50100670508480028e-22
5.28068668472416028e-22
1.89194152764706966e-23
1.59101547055697431e-23
6.18539122719127475e-23
1.88956913158046583e-24
1.53725169500868757e-24
6.68065596330772974e-24
1.73547281233068751e-25
1.34791228953843712e-25
6.63485509913794428e-25
1.46297936313028854e-26
1.06640034181979404e-26
6.03467639141859655e-26
1.12724376982969851e-27
7.55590941037889077e-28
5.00164583815808517e-27
7.90346979345809824e-29
4.7484626482485838e-29
3.75282230446319347e-28
5.01887775431119608e-30
2.61328022340054693e-30
2.52763833383726806e-29
2.86489457089276598e-31
1.23827572510946834e-31
1.51191165125933501e-30
1.45337642733218061e-32
4.93648806708903104e-33
7.92036882071454214e-32
6.46280712778457498e-34
1.60247201357723113e-34
3.56582099189699055e-33
2.47849530030523096e-35
4.03302656610467783e-36
1.34325030890115644e-34
8.0199655810891305e-37
7.26273809642110463e-38
4.06951132110803038e-36
2.11777374723895412e-38
8.04448954108828998e-40
9.30681045668672557e-38
4.31639868466600788e-40
1.56796595810055147e-41
1.42924372111954811e-39
6.09539747779393973e-42
1.2519356511080595e-41
5.2393469957189897e-44
3.25002690665272235e-20
9.65826073307677954e-20
5.01712309978846965e-21
4.48676113155376551e-21
1.43309733416743871e-20
6.42341788009533673e-22
5.68388879481376742e-22
1.96719885200017541e-21
7.57629491129373247e-23
6.60101847407848278e-23
2.49789112125316911e-22
8.23565081478365057e-24
7.0112203900518914e-24
2.92963739440844972e-23
8.24293417125327873e-25
6.78795469796264139e-25
3.16908545040794059e-24
7.58930680181856006e-26
5.96448224478441304e-26
3.15205153549717452e-25
6.41213552704913859e-27
4.72955435511952711e-27
2.87159960018849923e-26
4.95295058335262944e-28
3.35934044349146714e-28
2.38424572098099051e-27
3.48237101277339111e-29
2.11674084930787212e-29
1.79243229992124158e-28
2.21755681313938944e-30
1.16817803733734829e-30
1.20991253685166295e-29
1.26939658067402203e-31
5.55094821439701298e-32
7.25472848826385437e-31
6.46082937905931932e-33
2.2190547046898534e-33
3.81020113648325043e-32
2.88419029320128416e-34
7.22257509097091295e-35
1.71975720935952077e-33
1.1105003974400463e-35
1.82238531354231969e-36
6.49440607188579278e-35
3.60455565208221277e-37
3.28989225982721056e-38
1.97227402358435033e-36
9.53270620763697355e-39
3.65274394839572891e-40
4.5210205032026554e-38
1.94288738765150408e-40
6.63019979474352191e-42
6.9586599922356096e-40
2.74199165600137156e-42
6.03214710863774598e-42
2.30342149463604997e-44
1.41150301890639497e-20
4.49793895154087205e-20
2.15515682737637549e-21
1.94903445855732817e-21
6.66508264045322702e-21
2.76108172814478255e-22
2.46965477845495104e-22
9.1445354337367996e-22
3.25854781715811562e-23
2.87011669171895773e-23
1.16080118017065705e-22
3.54555811150645009e-24
3.05139053790310085e-24
1.36192342955320385e-23
3.55481146184258805e-25
2.95793444786903649e-25
1.47409863466804468e-24
3.27805561927880766e-26
2.60286513889692867e-26
1.46735425115263503e-25
2.77390297532394123e-27
2.06735749250658293e-27
1.33813016956642571e-26
2.14650520621466071e-28
1.47115012162672277e-28
1.11234548897146893e-27
1.51226443890882002e-29
9.28891532829805441e-30
8.37418342130374667e-29
9.64962569915949382e-31
5.13773558640052248e-31
5.66209995834879976e-30
5.53565010940419687e-32
2.44705665498708341e-32
3.40150406863211289e-31
2.82540688277633083e-33
9.80576435431548132e-34
1.790148007330813e-32
1.26593520605862669e-34
3.19919846566927286e-35
8.09703680207131331e-34
4.89327122355632573e-36
8.09107532889509252e-37
3.06423526160982713e-35
1.59298015153538355e-37
1.46395028402613071e-38
9.3254336016510946e-37
4.21717677560474311e-39
1.62883500204878262e-40
2.14207611205733425e-38
8.58741611118704231e-41
2.7450657224755351e-42
3.30352045940852563e-40
1.20993904701325744e-42
2.85030153461714497e-42
9.93790673920339445e-45
2.44520242188494843e-19
4.347524017597984e-20
8.51029134888978377e-19
4.01306283389387393e-20
6.53714108981121948e-21
1.47159595296295698e-19
6.01817677071257104e-21
9.08253612903484682e-22
2.3530145702670759e-20
8.29896064770409388e-22
1.16319264802400472e-22
3.48278291614964475e-21
1.05139425850834347e-22
1.37359588787039794e-23
4.77541773398193349e-22
1.22199475982026534e-23
1.49614931627515242e-24
6.05860054298344371e-23
1.29973472349399653e-24
1.50151933696883456e-25
7.10702758002052313e-24
1.26078865908261169e-25
1.38602500733765676e-26
7.69149943766574217e-25
1.11045347498551434e-26
1.17416224969370776e-27
7.6559514580318675e-26
8.82972960893449428e-28
9.09752243231776797e-29
6.98174960555412495e-27
6.29154227235817871e-29
6.41844631711124631e-30
5.804094693042916e-28
3.97838775684109766e-30
4.10124298632148322e-31
4.3702357727907983e-29
2.20402636549428306e-31
2.35646986062467588e-32
2.95566577776429716e-30
1.05158499536405737e-32
1.20556110187886079e-33
1.77625073457474441e-31
4.2216351860678363e-34
5.41937486078910173e-35
9.35186734888426937e-33
1.37996621157620505e-35
2.10233078246304726e-36
4.23174727468568855e-34
3.49677490561966157e-37
6.86238247585330282e-38
1.60217380711615748e-35
6.33859744862242607e-39
1.81800121799011467e-39
4.87826975532558275e-37
7.06437637402989046e-41
3.69702814557759872e-41
1.12111714190548193e-38
1.19607759454640157e-42
5.19725072943685261e-43
1.72980603194422627e-40
4.31970013989993921e-45
1.41580638606383857e-42
2.68905570567538058e-22
7.58502522535703952e-22
2.57161890019508928e-23
2.79725034933534393e-23
8.72471226088591877e-23
2.51576779688329683e-24
2.65365684357671533e-24
9.25020709978569529e-24