/*--------------------------------*- C++ -*----------------------------------*\
| =========                 |                                                 |
| \\      /  F ield         | OpenFOAM: The Open Source CFD Toolbox           |
|  \\    /   O peration     | Version:  2206                                  |
|   \\  /    A nd           | Website:  www.openfoam.com                      |
|    \\/     M anipulation  |                                                 |
\*---------------------------------------------------------------------------*/
FoamFile
{
    version     2.0;
    format      ascii;
    arch        "LSB;label=32;scalar=64";
    class       volScalarField;
    location    "0.0599999999999999978";
    object      p_rgh;
}
// * * * * * * * * * * * * * * * * * * * * * * * * * * * * * * * * * * * * * //

dimensions      [1 -1 -2 0 0 0 0];

internalField   nonuniform List<scalar> 
7340
(
0.77003701588848017
0.745029395837287112
0.721995715904749424
0.700896323546116418
0.681681471488794322
0.664306767782499863
0.648703785735578298
0.634811785641051007
0.622587186518730906
0.611987274328409936
0.602970970781890658
0.595502377740109168
0.589551468016294433
0.585098115490819692
0.582133939811387946
0.580657678554517109
0.762419256425717284
0.738004065464838988
0.715480928056585697
0.694819286814802095
0.675981299486398735
0.658925297727016024
0.643593857848226536
0.6299353507920743
0.617908884327342922
0.607474336680575044
0.598593344621411338
0.591233086103994498
0.585367485231011453
0.580978932930511616
0.57805881326242714
0.576604596977304928
0.754164755460176806
0.730373063089850172
0.708390921885216351
0.68819831717670632
0.669765094505506586
0.653053416923765617
0.638016133210059566
0.624609555435293617
0.612795870303536772
0.602538248320397041
0.593802306196784868
0.586559119548047736
0.580786079276008449
0.576467411227503779
0.573594313601052841
0.572163657351184907
0.745307476449393658
0.722167480207953627
0.700755923917124712
0.68105950492733569
0.663054058607237429
0.646708301753651349
0.631984632825756787
0.618846242048738393
0.60725901190289544
0.597189989847283997
0.58860908606187623
0.581491322625436791
0.575817234292947622
0.571572713523016085
0.568749039747067031
0.567342867813562579
0.81253008721943365
0.785518943352475518
0.75992653659795284
0.735869245199631705
0.713416522838816514
0.692602835197166922
0.673424753489561656
0.655866876587593572
0.639905848510821884
0.625512715150835064
0.612657194170964203
0.60130946257889184
0.591440546066704487
0.583024424177812528
0.576039881400509324
0.570470466978709068
0.566303845194881972
0.563531729929474534
0.562150612203239031
0.79977020638727514
0.773790229670603624
0.749127233014700411
0.725886797296136588
0.704150154012190721
0.683955324516694274
0.665314343593200963
0.648221490147064316
0.632661772071067219
0.618614203051376266
0.606054686396287456
0.594957963243455512
0.585299219423740968
0.577056505953354781
0.570212244800490486
0.564752837856539069
0.560667744093312659
0.557949377659810453
0.55659380337235731
0.838932704752103686
0.812365863250949949
0.786451220261396688
0.761526990587070518
0.73780971720308608
0.715405710339141798
0.694398658665652979
0.674838962838151146
0.656750401487702695
0.640137033090252605
0.624992459139797063
0.611302991553080544
0.599050401172655622
0.58821424087522467
0.578774158827657037
0.57071233912643049
0.564014672631393599
0.558670199160656189
0.554670101989402586
0.552007341373483618
0.550674169523617807
0.740320112167856093
0.718139582421378653
0.697740327833752727
0.679103050382806495
0.662199556477287565
0.646978850852959364
0.633397184624088561
0.621422332713017278
0.611020698650356908
0.602159552509515028
0.594810299858501978
0.588949641957349002
0.584562423933744579
0.581642231125137465
0.580187954479392975
0.756870527847265717
0.733449665954573615
0.711740117581316722
0.691753264270191903
0.673471748066186704
0.656870726344486067
0.641910059119807253
0.628553177262614837
0.616769568970180315
0.606527713626122122
0.597797402634621444
0.590553263219762536
0.584775683619849995
0.58045149385790884
0.577573932158036207
0.576140803056163775
0.748825424184405231
0.725975559913999646
0.704774692746742315
0.685229199693626723
0.667330038697613093
0.651056525618116777
0.636377418463280664
0.623262450003660984
0.611683676587664649
0.601612678576202264
0.593022978343440088
0.585892790364567206
0.580205438407883523
0.575949165764266691
0.573117077656725149
0.571706627679921531
0.740179053335163872
0.717936199894079752
0.69727051469289103
0.678191979624793273
0.660697749073147489
0.64477271144460413
0.630393766242352993
0.617536217532556275
0.606175444627583437
0.596286711387910118
0.587847484074822457
0.580839449750042647
0.57524852927654202
0.571064311950249315
0.568280070488587641
0.566893291053576442
0.804012967150348867
0.778406047631733489
0.754007852070385343
0.730961745380983352
0.709358391728617588
0.689252441323550569
0.670662751893249642
0.653592713006213466
0.638034325413456282
0.62397184780550552
0.611386028222320799
0.60025606699711076
0.590560894052095664
0.582281653279850819
0.575403325300017032
0.56991438218528867
0.565805932289464075
0.563071726017159602
0.561709260736772742
0.791720087376788006
0.767046680925858593
0.743498340809985891
0.721205984776441045
0.700268829504858581
0.680743716303570001
0.662661140363338674
0.646032407471518133
0.630856763909772855
0.617125254543857693
0.60482390880943826
0.5939360066401701
0.584444271618076217
0.576333484200075241
0.569591784499198006
0.564210080425576632
0.560181048522236047
0.557499135751191588
0.556161519753837985
0.828337586136104753
0.803374509655809144
0.778863319288224609
0.755149887053020219
0.732470936505736692
0.710953369740522256
0.690697297490046491
0.671769045620695726
0.654208698314673209
0.638035540775228283
0.623256081854466126
0.609867609996976423
0.597861277205319452
0.587224724480990501
0.577944744108274566
0.570009783455573293
0.563410965697999533
0.558141434360194255
0.554195354655886208
0.551567665578735489
0.55025179724538209
0.73586613418483271
0.71449480856667591
0.694759995496682548
0.676669713928922612
0.66021082842076062
0.645351029860333991
0.632063511201100492
0.620325627820599523
0.610111340839144201
0.601395329886061369
0.59415663856889156
0.588379813380174865
0.584055079674175359
0.581177259583653627
0.579744268048572597
0.751622813900900577
0.729138807187450722
0.708205082265945918
0.688857461908946367
0.671102875548407751
0.654931990815839193
0.640321907244636224
0.627250645142643282
0.615696916677317407
0.605636837632455904
0.597047796915119111
0.589911902844796887
0.584216376438194462
0.579952625409113631
0.577115430505450777
0.575702377101999119
0.743771958154005319
0.721817007599289795
0.701357060688314382
0.682424746144562278
0.665031449237571848
0.649172448478347208
0.634832174203793009
0.621993165392108915
0.610636554863596137
0.600741627757708896
0.592289294179900838
0.5852647312015129
0.579657296734294336
0.575459353539053642
0.572665814760823788
0.571274447774699934
0.735328405053541911
0.713935717656629443
0.693976459435661552
0.675483777550935249
0.658473679489565145
0.642946718534944339
0.62889381083847351
0.616301875149726119
0.605155218473209078
0.595436688286925753
0.587130742267506833
0.580225444097912879
0.574712108520756604
0.570584127302358302
0.567836771150580621
0.566468228845074417
0.795966804082484547
0.771679723122548955
0.748410813867034785
0.726320991509223468
0.70552174399310208
0.686086654824589637
0.668054581573135242
0.651446507786690554
0.636269033977746923
0.622519132092006156
0.610188222207524888
0.599264082185608005
0.589732972204066952
0.581582641256937816
0.574803927660110126
0.569390161349400348
0.565335962025010463
0.562637156220543555
0.561292196721959402
0.784109567149470221
0.760668764300507227
0.738175257727283207
0.716780180062516536
0.696600246006936707
0.677709718404676531
0.660156251676933259
0.643966955336372937
0.629154508367313903
0.615721562907422193
0.603664004526930809
0.592973301022472588
0.583639229804936099
0.575652793023091691
0.569007485882861763
0.563698572221817629
0.559721936212667415
0.557074091796204374
0.555753327250973261
0.818350953564989214
0.794879052568781441
0.771686981340857447
0.749118866293662533
0.727422754235124591
0.706744388274472168
0.687199497134511672
0.668869611806687803
0.651809722416203829
0.636053223775605692
0.621618818847830878
0.608514420679903134
0.596740358691575823
0.586292103136953235
0.577163207758915942
0.569347938863763559
0.56284226771831658
0.557643198482960512
0.553747778730906748
0.551152941132074581
0.549853326938567699
0.753957579895255803
0.73184741625839056
0.711205527590820452
0.692072711912732563
0.674476750480355047
0.658419343411518088
0.643886115911018075
0.630864506013322113
0.619339917338590951
0.609293411069877999
0.600706914141569515
0.593566936538809542
0.58786525542235335
0.583596648758846093
0.580756815184331976
0.579342830823061039
0.74688682388740868
0.725244163323826574
0.70501462306278817
0.686246398951096848
0.668967978776893402
0.653185534875542539
0.638892315659755128
0.626079008714228724
0.61473239847874328
0.604835608561643978
0.596373090318172761
0.589333966273493215
0.583711791535434066
0.579502100708692791
0.576701029624620887
0.575305997616893383
0.739207655763670868
0.718060790451015118
0.698273066465969539
0.679896015863682535
0.662959813299350387
0.647475108576633374
0.633440896676081611
0.620851065070926689
0.609694796931319449
0.599958318769356902
0.59162925075460715
0.584699197999796416
0.57916313820012888
0.575017259259639868
0.572258158893157898
0.570883939308012844
0.7309487528232117
0.710324311161249833
0.691004607726659503
0.673041999645632938
0.656469232766994981
0.641301630098987885
0.627543092851432838
0.615190966003905326
0.60423749874044852
0.594672295641377802
0.58648609877872504
0.579672819864069711
0.574228800137848383
0.570150995792601978
0.567436571359612008
0.566084424042648693
0.788713537145362076
0.765611592677840069
0.743361000096682378
0.722132159172897525
0.702059514849407096
0.683231270482087649
0.66570331102523117
0.649512378828254966
0.634678638848741428
0.621210811824754683
0.609109966449628559
0.598371537252366914
0.588988300241423013
0.580953913432099345
0.574264549853742756
0.568918040370110178
0.564912292881016964
0.562245114465610651
0.560915914714792185
0.777241603550236304
0.754910871361642477
0.733370829205746144
0.712786194557035402
0.693290757356349818
0.674973905710207434
0.657898471926430806
0.642105794042638456
0.627620936337651369
0.614457257615687924
0.602619602859210124
0.592106788447692822
0.582914870810717911
0.575040396437996204
0.568481694398503601
0.563238027902839611
0.559308273682988633
0.556690921391845062
0.555385359571849646
0.809366908408634678
0.787218185794784753
0.765207123046149129
0.743673751685610118
0.722866716004832877
0.702946914774326581
0.684044855764757709
0.666255680753385482
0.649647714018734668
0.634267107228508764
0.620143774393343561
0.607295422213528724
0.595730762690853344
0.585452330857280545
0.576459706131616123
0.568752314716826635
0.562330464747048175
0.557194679565990114
0.553344692368043511
0.55077933726924766
0.549494420101951819
0.749789876535327138
0.728429910859669016
0.708408355325815364
0.689786111696147008
0.672609696882422337
0.656894207873598424
0.642640077421744671
0.62984531401702204
0.618502009494706351
0.608597824242514629
0.600121068805955171
0.593064668298945774
0.587426591012147226
0.583205488967366792
0.580397820623103522
0.578999933386759702
0.742857147920587324
0.721933415114927257
0.702300025703128106
0.684023911694097819
0.66715025603373046
0.651698773403620701
0.637676131979015626
0.62508289741640688
0.613912547961662503
0.604154423514306038
0.595799162191455456
0.588841978839324653
0.583281890131673197
0.579117942821564813
0.576347424178825674
0.574967633758564522
0.73532506644909279
0.714864648703619765
0.695647800844999109
0.677743019893281895
0.661195766507254312
0.646030084984996478
0.632257113228341772
0.619879873965409556
0.608894229156480171
0.599292427500694336
0.591067950086866634
0.584217997218757557
0.578742385476849197
0.574640555017691845
0.571910552769573699
0.570550827786071912
0.727220330428199446
0.707249375231161381
0.688474073948644016
0.670962672996947673
0.654762334598264384
0.63990105150879184
0.626393676555818568
0.614246109440860777
0.603457216935635699
0.594022424682347006
0.585937949205892039
0.579202767200578283
0.573817516117604121
0.569782178444842025
0.567095572047247698
0.56575728915320167
0.782536417823457731
0.76044037127049624
0.739058322681033664
0.718564575880782708
0.699110943604372537
0.68079952225046636
0.663700997537352233
0.64786542255613877
0.633324647885478043
0.620097367274080824
0.608192672353962904
0.597612437226946458
0.588355047426837308
0.580419275905151966
0.573805866789646513
0.568516462095718045
0.564551762338891594
0.561911322831567306
0.560595466313392077
0.771389061764719663
0.750003112573004005
0.72927731894123371
0.709384151429452436
0.690471934278286237
0.672643978877878856
0.655975886557833898
0.640521092798641778
0.626315352512661017
0.613381149864510755
0.601730874207337618
0.591369581097045183
0.582298721402925379
0.574519593329256062
0.568034619781181416
0.562846429550420413
0.558956449918426412
0.556364922594298372
0.55507225633010393
0.801732089880453413
0.7806946249747303
0.759683871366307217
0.739032945550503917
0.718985077766969516
0.699712106017766122
0.681357959257495316
0.664029689063224127
0.647806818000061013
0.63274639530867316
0.618887997380479282
0.606257722591754478
0.594871421488488927
0.584737658852559572
0.575861159794239352
0.568245723779672862
0.561895303126523693
0.556813384649972209
0.553002005343054659
0.550461679007693272
0.549189252341990453
0.746515442955718034
0.725746834885567238
0.70621069836971373
0.687987753768234844
0.671140185831588854
0.655693790490404216
0.641660046468041534
0.629044176848290393
0.617843481710183662
0.60805107807585157
0.599660349970055573
0.592669365869130993
0.58708105601881122
0.58289711746734274
0.580114580044864603
0.578729219179800913
0.739691144044888005
0.71933300136863898
0.700166361967786588
0.682275846669095132
0.665719946763723813
0.650528996459895925
0.636719756476072374
0.62429989312666323
0.613268103709551538
0.603618843610244427
0.595347741549938969
0.588454854061756905
0.582943464602498351
0.578815320625222562
0.576068624282128572
0.574700683955597924
0.732273998824765959
0.712353069300064257
0.693583736194450129
0.676049458306559048
0.659807822308964953
0.64489328299768145
0.631326177921182619
0.619116307679719924
0.608264768289553892
0.598768738594740224
0.590626436922247922
0.583839464752198389
0.578411351302571264
0.574344019689623231
0.571636700315848789
0.57028826318595971
0.724289360738906374
0.704832144057702115
0.686484018091751746
0.669326959887363793
0.653419430690135306
0.638799251853942818
0.625489661603378488
0.61350305014792883
0.602843508516208937
0.593511209612499924
0.585506771814898297
0.578833104325131242
0.573494097841465433
0.569492051057418736
0.566827152381105592
0.565499697067373797
0.777676604528097393
0.756370800419353562
0.735673171736117126
0.715759421895311387
0.696792336040035876
0.678886826163477397
0.662125849556908119
0.646569759721375092
0.632259518988082192
0.619221531911975043
0.607471088229327494
0.597015194697409823
0.587856791859163619
0.579998720757189279
0.573445225871445086
0.568200813286192985
0.564268335926486397
0.561648804876149099
0.56034339715535153
0.766783330955308706
0.746140760689510851
0.726057019670563353
0.706708565262711752
0.688254811922918486
0.670811232210320352
0.654463504814145836
0.639274476787790591
0.6252882927750677
0.612534560410308404
0.601031587265392631
0.590789425752281772
0.581813866656472278
0.57410993850040315
0.567683172007308889
0.562538728280413736
0.558680018278187251
0.556108734984235187
0.554826188610230253
0.795734620718597685
0.775563527532915686
0.75533654641643011
0.735380725695561344
0.71593127434407311
0.697167484179434305
0.679244321546483842
0.662278654337460693
0.646358728415573736
0.631550134768603
0.617900064820596229
0.605441235122196941
0.594195151705332214
0.584175195225169808
0.575390177786124335
0.5678472966812389
0.561553271960667288
0.556513843132004471
0.552732853932094592
0.550212191170099896
0.54894957983385162
0.744258442754786032
0.723896152749530342
0.704693354385142912
0.68674642641171979
0.670126258282304543
0.654865716459667624
0.640984127772534773
0.628491489270820214
0.617388849431101505
0.607673302608448096
0.59934182742776887
0.59239605691272601
0.586842132259795646
0.58268362081409919
0.579918005566909533
0.578540973305947448
0.737508062141433718
0.71753889035627294
0.698693761495043919
0.681069659915188086
0.664733316061725699
0.649722276048094849
0.636060254405428571
0.62375967463494808
0.612823015617284805
0.603248551943659117
0.595035483971635637
0.588187135559212981
0.582709482492163255
0.578605939200794617
0.575875403755308657
0.574515465058647368
0.730169664209007863
0.710620314450737922
0.692159555470597487
0.674881175883389361
0.658850613598909396
0.644109420924037779
0.630684198666518148
0.618589366939506058
0.607829834787060874
0.598406476428016032
0.590320904334523777
0.583577635024799868
0.578182499044108011
0.574138965529606748
0.571447144528541839
0.570106422042208183
0.722267681749825363
0.703164530427667578
0.685111120746440316
0.668198794981676669
0.652493450163920019
0.638039593209701383
0.624866188288308311
0.61299012240203421
0.602419303040066301
0.593157443208770174
0.585208304448772476
0.578577366130687665
0.573270519419137425
0.569291522828114349
0.566641558687976943
0.565321571009635981
0.774325758062091585
0.753564329686344792
0.733338010256037287
0.713824265595308538
0.695192696348467143
0.677567402724526202
0.66103960833932951
0.645676475425164709
0.631525179761250555
0.618617433270175932
0.60697287900943897
0.596602281130230394
0.587511942767215745
0.579707586835829458
0.573195729869486081
0.56798264122044495
0.564072544132535603
0.561467478297233979
0.560169312063813041
0.763606511009265243
0.743476173986379774
0.723835304609378505
0.704862532673199205
0.686725111843049851
0.669547028086432516
0.65342063493169944
0.638415050640747328
0.62458017729098847
0.611950569288396529
0.600548725823835894
0.590388338639084798
0.581478353783190349
0.573826418934331506
0.567440091211968145
0.562326111277318352
0.558489162863177291
0.555931935577392622
0.554656406893766163
0.791600220493149376
0.77202582052584412
0.752337156386996275
0.732860767132547219
0.71382417359930006
0.695411617111963531
0.677785980061633597
0.661070837006395351
0.645360188456119421
0.6307253760529824
0.617218854236843306
0.604877967946568229
0.59372822893071997
0.58378647827477681
0.575064448698268005
0.56757170971499038
0.561316815183196538
0.556306943972286305
0.552547107838442519
0.550040111339837434
0.548784289249505286
0.743105218153051306
0.722948515547265691
0.703916028727215259
0.686111835763233313
0.669608654909794265
0.654443121803982342
0.640639020619978683
0.628208774657110558
0.617155597307375792
0.607478828524679826
0.599177553408370311
0.59225525589448369
0.58671927256793599
0.58257370493648486
0.579816320374905159
0.578443165850806129
0.736391774735716154
0.716620176602334791
0.697940117528827009
0.680453597421729506
0.664230094804380333
0.649311045535273412
0.635723830460119155
0.62348336708941865
0.612594452926043309
0.60305763034083204
0.594874200792535723
0.58804909007888162
0.582589152824709799
0.578498260424830879
0.57577572735303062
0.574419645955915104
0.729093221712429296
0.709733320212759256
0.691431338229239079
0.674284979437694165
0.658362846330023954
0.643710223523437319
0.630356921561270545
0.618319844909345773
0.607606313163640221
0.598219470678605147
0.590162868065291835
0.583442393352922695
0.578064615350972866
0.574033464098631319
0.571349513270927645
0.570012649691999385
0.721233363092237623
0.702311226427894675
0.684409661063109742
0.667623537024195857
0.652022015690211454
0.637653033976711581
0.624548493923606673
0.612727763698045602
0.602201180893202848
0.592974670736283405
0.585053719139105421
0.578444991272931475
0.573155065683575327
0.569188189267654465
0.566545992651468322
0.565229849397480777
0.772617131537270851
0.752132134776496541
0.732144292245735517
0.712833957516246786
0.694374452089804195
0.676893666573081587
0.660486065792086574
0.645221944409365089
0.631151648276558674
0.618309661692064028
0.606718065560713504
0.596389979848382268
0.587333799914427024
0.579556775886635012
0.573066473361520612
0.567869834207267221
0.563971585756437688
0.561374165286802507
0.560079776581218991
0.761986642482254894
0.74211542071275427
0.722699091877099908
0.703917784929861234
0.685942911444995751
0.66890172254674396
0.652889324164981688
0.637977775175541106
0.624219941526190758
0.611653006018946899
0.600301811540473351
0.590182260334139563
0.581305222174612446
0.573679711674595638
0.567314238953842143
0.562216208925352401
0.558390804750747427
0.555841053539749996
0.554569179470082108
0.789490596113573639
0.770222790844598659
0.750807792904091609
0.731573904942687259
0.712746645939381418
0.694513264917175799
0.677040465593509833
0.660454364203432842
0.644851369106489436
0.630305558879981631
0.616872125362332491
0.604590883855956163
0.593489553644045431
0.5835869977181396
0.574896678929297633
0.567429409302802279
0.561194630306620312
0.556200167239646048
0.552451508583913786
0.549951750710006793
0.548699426116050271
0.771530373605681108
0.743716325247759769
0.718679363546736671
0.696241670472196872
0.676222494879039515
0.658463476096254108
0.642822039811538626
0.629184204081458032
0.617457218449368073
0.607555103608774072
0.59940005826858711
0.592931492830163664
0.588111570840078923
0.58491556574215664
0.583325274255801274
0.793600458853694457
0.763672344843761786
0.73654549858084295
0.712093195248982958
0.690147429974390492
0.67053909474734108
0.653121144327218794
0.637765078140130837
0.624366253569274443
0.61283639932592715
0.603094081602059129
0.595066853133706553
0.588698553888038711
0.583952830794683186
0.580804515461899484
0.579236736065401492
0.78419491458732471
0.755125510020862256
0.728742296937587963
0.704921760523062879
0.683504303457330709
0.664337809301486004
0.647288971432568028
0.632242283538422822
0.619101506045313221
0.607783614610302947
0.598212906349512519
0.59032291819863425
0.584061907622434262
0.579395352897167037
0.576298450550982944
0.574755622516746389
0.774120503767604995
0.745958454598999232
0.720364280700089732
0.697207746543927143
0.676345897565194143
0.65764558031999043
0.640987986451338032
0.626269581751976334
0.613402340308587757
0.602309480556051824
0.592921544793180599
0.585177888565658
0.579030990745608265
0.574448514682720623
0.571406526698308381
0.569890419499355483
0.860252518304664648
0.82538652658385514
0.793125244570750842
0.763425726040299235
0.736224393288040346
0.711448946470458865
0.688979967711506602
0.668695884704239907
0.650482080336203583
0.634234032807477366
0.619859787006307172
0.607279955809520766
0.596424504850981863
0.587230052087005183
0.579641401026423253
0.573615216866300903
0.569121692839700932
0.566138093510984985
0.564650331078308421
0.844888331541750137
0.811605200698232054
0.780703526974073192
0.752163132617995056
0.725958915656083392
0.702022571111484694
0.680260650680044265
0.660573438224284826
0.642863944241023111
0.627041754188184308
0.613026161195645347
0.600746407224359458
0.590139303976583873
0.581147567358401118
0.573721502601090672
0.567822087756367777
0.563422196755877569
0.560500430384329285
0.559042320977168217
0.898227575180776117
0.862695214659193632
0.828975755906745881
0.797275554972028733
0.767744357016981627
0.740387342700779993
0.715190355482627993
0.692105212488996702
0.671065105179564525
0.651990622637528605
0.634801131542441777
0.61941961006292845
0.605775934345742395
0.593807635605490658
0.583458442875497973
0.574677447028315247
0.567420695446186896
0.561653563169323689
0.557351604372202103
0.554494660229889802
0.553067919920770312
0.770629245220463943
0.742975119204071111
0.718072519122344932
0.695743725686937764
0.675813452379763646
0.658127146193915102
0.642544410834966495
0.628954779868964087
0.617267356898217878
0.607396766896680429
0.599266069966831738
0.592815027924436855
0.588005431725176164
0.584815716280039699
0.583231186530085877
0.792537250655232173
0.762796786548341377
0.735827255312037409
0.711504541057001894
0.689663644399360121
0.670141047518556299
0.652792986411884657
0.637493655128344772
0.624141765704525286
0.612650666540347721
0.602939292542227334
0.594935742783773591
0.588584259061339155
0.583848362220317774
0.580706107983437025
0.579143987639715419
0.783168276704328092
0.754279398714541971
0.728048076154729329
0.704351851660685035
0.683035293026888257
0.66395128341232823
0.646969705058858535
0.631978017510977597
0.618882843608086763
0.607602529199126273
0.598061776062737693
0.590194599784994001
0.583949710846739078
0.579292596546194138
0.57620166342340351
0.574664647260481387
0.773135106644956216
0.745145555251259695
0.719695553314726677
0.696657499943277525
0.675892286897315953
0.657271062855828148
0.640678207747146011
0.626013040897863027
0.613189929811506662
0.602133320880967715
0.592774204789023984
0.585052401121068599
0.578920944947249771
0.574347605954764084
0.571311550394406953
0.569801507041846844
0.858633143262638843
0.824026884374488788
0.791992394186560311
0.762486619884742867
0.735447708375818965
0.710807301418323045
0.688450331815416261
0.668258466092769621
0.650120327564126632
0.633934393625570247
0.619611427079496457
0.607074192016529568
0.59625372492006401
0.587087022385023971
0.579519349403188722
0.573508034874282924
0.569023395203663851
0.566045584167832683
0.56456378240991012
0.843364379942661335
0.810323890545852632
0.779633204812952729
0.751272904078903347
0.725219560044563782
0.701408867972574179
0.679752128507115083
0.660152610628791381
0.642515493023266604
0.6267529280606845
0.612786735675507455
0.600548059554689817
0.58997461676165075
0.581009516079135091
0.573603622297045534
0.567718627856261371
0.563327386385914397
0.560411035950776126
0.558958507486421841
0.896246507911482859
0.861021044032164951
0.82755868327594484
0.79608228490546884
0.766745161547932597
0.739553901305172845
0.714496261280688438
0.691528231387714798
0.670586649439375515
0.65159476044098974
0.634473797690217611
0.619148919406845466
0.605552255696903408
0.593622972758127143
0.583305616035187269
0.57454978293611414
0.567312199276748363
0.561558897835198523
0.557265106708235702
0.554412612930400672
0.552986751858698167
0.799025251827105376
0.768831626639627341
0.741498180085716108
0.716865452546499804
0.694754055456239805
0.675001791135699025
0.657461569627583842
0.641997951555130397
0.628505311588942961
0.6168952118532951
0.607084953882628953
0.599000988133359002
0.592585123107185918
0.587799901616088083
0.584625254169472308
0.583048076071083221
0.790421848361151924
0.761043075657658163
0.734393308140691592
0.710332225335971956
0.688700967166111067
0.669350453449809368
0.652143676081880397
0.636959690295322845
0.623701680714638496
0.612285785086247425
0.602633442583902723
0.59467539943348724
0.588357793077291968
0.58364531774814854
0.580517747706668863
0.578963000159916086
0.781119846296145948
0.752589259406857281
0.726664827833600646
0.703217093127682991
0.682101934363559925
0.663183551133624039
0.646337969870495299
0.631457561366156606
0.618453113526071019
0.607245750193100786
0.597762420922697713
0.589939342989131865
0.583727077475534983
0.579092546662494434
0.576015951751242983
0.574486269900986168
0.771173053887341364
0.743527889358269745
0.718364909935809148
0.695562084532477365
0.674989732645555729
0.656527284983090986
0.640065010043734728
0.625507005189714693
0.612771465553620942
0.601785430245078468
0.592481893147166816
0.584802656171402813
0.578702622259339439
0.574151111666600156
0.571129035845759137
0.569626199447722525
0.855400535375908877
0.821319985425623678
0.789738624555055946
0.760616810785195496
0.733900930700251752
0.70952966877037893
0.687395670047161844
0.66738782188116641
0.64940151191521811
0.633340734548832773
0.619120780844212626
0.606667907045259858
0.595915491985661405
0.586802359298939424
0.579275672706013323
0.573294627055102479
0.568831071694460566
0.565866784355767871
0.56439190385742366
0.840305245007397783
0.807756910005523521
0.777492986543195652
0.749493581829810407
0.723742740674072182
0.700185198250377949
0.678739489974144461
0.659315013621413981
0.641822723397474149
0.626179848692895558
0.612312432404376827
0.600154768257782356
0.589646691559068237
0.58073304948716209
0.5733665600123794
0.567510708262557451
0.563139770679405793
0.560236362095801632
0.558790277140405633
0.892236460136635712
0.857616408585980539
0.824675233505753447
0.793658952653969574
0.764719163509698596
0.737863938925111484
0.713089217936157427
0.690359323481505749
0.669617235472345529
0.650791450770359159
0.633808302038050608
0.618597594927047689
0.605095336816464102
0.593243543268388906
0.58298874146979951
0.574282229326433358
0.567082498832206072
0.561357224380185982
0.557082908107975672
0.554242668291821894
0.552822466010191693
0.795832118141555411
0.766203642091357384
0.739346388783257091
0.715103962535446613
0.693309324610644429
0.673818377418430203
0.656491985950801826
0.641202437671142933
0.627851250940297145
0.616353628071693804
0.606631011812830967
0.598614959957813109
0.592250537955387846
0.587501578488090148
0.584349323823665556
0.582782532058211622
0.78733269815321516
0.758497078348593146
0.732305927536839762
0.708620605974404794
0.687295593699208562
0.668197338204479796
0.651197342015634173
0.636182061871079951
0.62306105567227188
0.611754503914081149
0.602187762282552774
0.594295809129311015
0.588027892999571145
0.583350504524274283
0.580244961346164989
0.578700723347835955
0.778144721996481326
0.750135502422598743
0.724648401040575152
0.70155993581751197
0.680739227294802851
0.662063352190331633
0.645416866973545389
0.630699302171038756
0.617827262385440945
0.606725878844086686
0.597325708400642141