/*--------------------------------*- C++ -*----------------------------------*\
| =========                 |                                                 |
| \\      /  F ield         | OpenFOAM: The Open Source CFD Toolbox           |
|  \\    /   O peration     | Version:  2206                                  |
|   \\  /    A nd           | Website:  www.openfoam.com                      |
|    \\/     M anipulation  |                                                 |
\*---------------------------------------------------------------------------*/
FoamFile
{
    version     2.0;
    format      ascii;
    arch        "LSB;label=32;scalar=64";
    class       surfaceScalarField;
    location    "0.0599999999999999978";
    object      phi;
}
// * * * * * * * * * * * * * * * * * * * * * * * * * * * * * * * * * * * * * //

dimensions      [0 3 -1 0 0 0 0];

oriented        oriented;

internalField   nonuniform List<scalar> 
20856
(
3.17457021777155037e-05
3.11200727233993513e-05
-3.91703847418184649e-06
2.90943480309071971e-05
2.91764204749376098e-05
3.12484685384307111e-06
-3.19004149107649449e-06
2.65756207313731579e-05
2.74673575986350498e-05
2.54537637546856992e-06
-2.59993330021385969e-06
2.41587973698885697e-05
2.59887641329929234e-05
2.07812540147782545e-06
-2.1212238423017936e-06
2.18334273675997467e-05
2.47129766872549063e-05
1.69802970890135197e-06
-1.73159009181219133e-06
1.95959560315635576e-05
2.36118751629638044e-05
1.38845505398445201e-06
-1.41467816076609488e-06
1.74353820229308657e-05
2.26638747621006899e-05
1.13954766937611489e-06
-1.16002355036187873e-06
1.53410817112812833e-05
2.18451662440876607e-05
9.40313963953006149e-07
-9.56934934039170176e-07
1.33059299107855547e-05
2.1137443297815083e-05
7.79050023783206853e-07
-7.93351830416360913e-07
1.13223595769176383e-05
2.05340775527290026e-05
6.478420876831135e-07
-6.60156156687169702e-07
9.38061104814031765e-06
2.00337012629342874e-05
5.42751994797830967e-07
-5.5281679503948324e-07
7.47047306017287009e-06
1.96324877358230947e-05
4.61097502338532663e-07
-4.69082477185401908e-07
5.58349839096899158e-06
1.93236732626344192e-05
3.9997874754938056e-07
-4.0665017148892493e-07
3.71318934477478672e-06
1.91007430447969257e-05
3.56657636898280101e-07
-3.62835700508797079e-07
1.85324120815305957e-06
1.89590678337286846e-05
3.29312216140221137e-07
-3.35256286243927727e-07
1.88638007662787646e-05
3.17200505211074774e-07
-3.22965500465618691e-07
3.12956763180757933e-05
3.39041711895387538e-05
3.73290613774648421e-06
-3.80652847246420608e-06
2.8713022768752603e-05
3.18183682662908881e-05
3.04160869734096075e-06
-3.10291452388523946e-06
2.62463458752869538e-05
2.9984589478701457e-05
2.48142375472204483e-06
-2.53269607702240442e-06
2.38751887071948095e-05
2.84006698733935841e-05
2.02812333576438133e-06
-2.06908465765516807e-06
2.15917435693005335e-05
2.70290965829133944e-05
1.65886666253545219e-06
-1.69107207799293229e-06
1.9389935087731991e-05
2.58406473608213105e-05
1.35838924874680391e-06
-1.38377497532616396e-06
1.72603893260277026e-05
2.4815810090780571e-05
1.11664884861832239e-06
-1.13698989940282533e-06
1.51942677296877176e-05
2.39298597497870772e-05
9.22369405376117177e-07
-9.39538633761423882e-07
1.31841546429326124e-05
2.31630466363081897e-05
7.64573125098565813e-07
-7.7963361584802989e-07
1.122205262905639e-05
2.25091530974790276e-05
6.36108417798284055e-07
-6.4897810770125333e-07
9.29883170954816961e-06
2.19677455724358462e-05
5.33190442609568095e-07
-5.4357769823221108e-07
7.40555686082652509e-06
2.1534753411372834e-05
4.53038291706148796e-07
-4.61322271137101213e-07
5.53483040307408933e-06
2.12020117675897522e-05
3.92815052464968404e-07
-3.99951458332589683e-07
3.68066623252844361e-06
2.09616706345196119e-05
3.49998273934956681e-07
-3.56864674860730153e-07
1.83652857884732583e-06
2.08093022386702418e-05
3.22930373600994728e-07
-3.29738359803977326e-07
2.070619108120634e-05
3.10848947293144179e-07
-3.17557441856310632e-07
3.08088881771807625e-05
3.66024633680921054e-05
3.62067606853708657e-06
-3.69114774161432629e-06
2.82976171199904685e-05
3.43856001589699017e-05
2.95624099598279488e-06
-3.01399693087469191e-06
2.58870507569797566e-05
3.24423744882818411e-05
2.41477341111358156e-06
-2.46247345051389507e-06
2.35651974701187469e-05
3.07612065656277881e-05
1.97543484949409196e-06
-2.01377438183920999e-06
2.13261433257186797e-05
2.92998182712689653e-05
1.61780339991949634e-06
-1.64837357509088932e-06
1.9162723113165765e-05
2.80304492473253832e-05
1.32684049917988671e-06
-1.35143381788477044e-06
1.70670738077952309e-05
2.69336078682008816e-05
1.0917784368272255e-06
-1.11215222132507211e-06
1.50315956543123857e-05
2.59838877739812563e-05
9.02104428304630297e-07
-9.19708001090434289e-07
1.30486147689704695e-05
2.51613989915551526e-05
7.48213500929871861e-07
-7.63549929278037121e-07
1.11100339521480426e-05
2.44603070268513402e-05
6.23395298995305456e-07
-6.36228934350180227e-07
9.20759312454931758e-06
2.38804480518781767e-05
5.23487641535520597e-07
-5.33765329603920295e-07
7.33356004756830573e-06
2.34173811131567155e-05
4.45346753936015322e-07
-4.5372294940340899e-07
5.48127209935665682e-06
2.30619623786623418e-05
3.86162633523703935e-07
-3.93692751326068298e-07
3.64489510169637665e-06
2.28053697982955308e-05
3.43704405424229072e-07
-3.51218150032605266e-07
1.81829778384025851e-06
2.26429069427877886e-05
3.16660191761717919e-07
-3.24232276816198814e-07
2.25313806423824835e-05
3.04566650320116996e-07
-3.1207667994860707e-07
3.02941156704567927e-05
3.92077751627580644e-05
3.50714352352339168e-06
-3.57439817488369632e-06
2.78545685484134553e-05
3.68783305767078482e-05
2.86688503982785958e-06
-2.92139724410804906e-06
2.55008378588930952e-05
3.48400756397144204e-05
2.34490093638854608e-06
-2.38901345059720714e-06
2.32304947237811602e-05
3.30678761690285857e-05
1.92019193841427453e-06
-1.95581876480011396e-06
2.10376978668953975e-05
3.15227957924556147e-05
1.57414691180565996e-06
-1.60301985879161029e-06
1.89154297895106835e-05
3.0178229184087447e-05
1.29256168918658607e-06
-1.31646919385201093e-06
1.68574627513720635e-05
2.90133315971422836e-05
1.06476267625951404e-06
-1.08523234485805011e-06
1.48562655733468607e-05
2.80033859995651251e-05
8.80801197380225573e-07
-8.98631039873695008e-07
1.29030687898160268e-05
2.71294984133682731e-05
7.31655627234523512e-07
-7.46824054952584583e-07
1.09896894284000937e-05
2.6385435366718641e-05
6.10714073067342559e-07
-6.22967274604793896e-07
9.10925995472909078e-06
2.57701045690797023e-05
5.13651089068657503e-07
-5.23236972469195577e-07
7.25572060054266015e-06
2.52785610923973309e-05
4.37297082230166626e-07
-4.45127362701792131e-07
5.4233091646087753e-06
2.49013847490590702e-05
3.79048290580516188e-07
-3.86240964597962961e-07
3.60639688420668454e-06
2.46292897208896749e-05
3.36978227254629133e-07
-3.44295266608962174e-07
1.79918814838635932e-06
2.44569759951398613e-05
3.10052686362563192e-07
-3.17401575620019878e-07
2.43371786836044363e-05
2.98064578853369012e-07
-3.05160550228595343e-07
3.73989210996409743e-05
5.11995104987986383e-05
6.17174300543182562e-06
-6.29930560048835766e-06
3.47583614956921332e-05
4.76289664464709999e-05
5.05988781300231259e-06
-5.15962830435396986e-06
3.22050314160685118e-05
4.44811893845470561e-05
4.14179822116775836e-06
-4.22213635754299921e-06
2.9750860611306257e-05
4.1724944899656805e-05
3.39016519677751454e-06
-3.45472481669412228e-06
2.73813682068684046e-05
3.92982644035369766e-05
2.77514211385925531e-06
-2.82636355147633933e-06
2.50886576580110415e-05
3.71738203083838467e-05
2.27297494470845184e-06
-2.31391467509495151e-06
2.287304946020081e-05
3.53173551566243594e-05
1.8632148472409332e-06
-1.89636512837085971e-06
2.07290992384443165e-05
3.36951133704201566e-05
1.52905000015789901e-06
-1.55632367208375222e-06
1.86507451167642886e-05
3.22808552336583497e-05
1.25705388049750331e-06
-1.28019171696232732e-06
1.66324234163129562e-05
3.10525834451145144e-05
1.03674965407174589e-06
-1.05693458090492814e-06
1.46666929895671415e-05
2.99868351241302268e-05
8.58648492755057304e-07
-8.76246833191489931e-07
1.27447615293820653e-05
2.90658790770433741e-05
7.14286670020824956e-07
-7.29092820348228306e-07
1.08588965163654515e-05
2.8282667582367114e-05
5.97259004108381812e-07
-6.09129796038284516e-07
9.0031931918733723e-06
2.76347195055457736e-05
5.03148498162923882e-07
-5.12513747065509702e-07
7.17257724549605054e-06
2.71165920723887963e-05
4.28720593028585427e-07
-4.36545245681113577e-07
5.36188288017799213e-06
2.67189579442688214e-05
3.71500509840591849e-07
-3.78817218385754759e-07
3.5658291875677644e-06
2.64322860256489668e-05
3.29836467209857749e-07
-3.37287421426480493e-07
1.77921595242410823e-06
2.62503695771595365e-05
3.02999364129382611e-07
-3.10361907813810744e-07
2.61228289512788438e-05
2.91063414078746757e-07
-2.9801985447564941e-07
3.6528614752467085e-05
5.39199154626171675e-05
5.92472249547720753e-06
-6.04893108804080065e-06
3.4001884549866454e-05
5.02524209098739166e-05
4.8656520990592896e-06
-4.96197630076087878e-06
3.15485370352364952e-05
4.70107596511542083e-05
3.99051183007510735e-06
-4.0673720033308193e-06
2.91784847972452906e-05
4.41551143757941953e-05
3.27142903146627141e-06
-3.33226872763463309e-06
2.68808490056860874e-05
4.16434235907628967e-05
2.68224906507626592e-06
-2.73005605989374118e-06
2.46533266026413849e-05
3.94396358770978295e-05
2.19951241894933739e-06
-2.23765172449481927e-06
2.24950910119587359e-05
3.75070333608486619e-05
1.80484077053800181e-06
-1.83584429063470233e-06
2.04023157881948307e-05
3.58143102911298532e-05
1.48275972114325351e-06
-1.50862241030171719e-06
1.83701144680313691e-05
3.43358530022484006e-05
1.22051347752051877e-06
-1.24283140192530035e-06
1.63930917840952205e-05
3.30494709471101887e-05
1.00785262907325217e-06
-1.02750635241220442e-06
1.4464031078526975e-05
3.193293890847105e-05
8.357304815509254e-07
-8.5285406935644063e-07
1.25747912743174533e-05
3.09692689919204749e-05
6.96242639622075697e-07
-7.10621429107071041e-07
1.0718482183395169e-05
3.01503515488613048e-05
5.83232492233241324e-07
-5.94860297830210224e-07
8.88993206753556513e-06
2.94723622752785982e-05
4.92207775079873262e-07
-5.01602779572338482e-07
7.08452469917198963e-06
2.89296162792183518e-05
4.19826406649158382e-07
-4.27895818694436187e-07
5.2973110343303819e-06
2.85131654181727707e-05
3.63685397296035766e-07
-3.71322338646576754e-07
3.52326261886759968e-06
2.82132993061144176e-05
3.22396580515199171e-07
-3.30138375509288881e-07
1.75743733563037623e-06
2.80229554456612923e-05
2.95578493607851479e-07
-3.03153334851850376e-07
2.78867252004323833e-05
2.83600884081919047e-07
-2.90744905591160308e-07
4.05936550869610992e-05
8.31563817934655607e-06
-8.51921665642879769e-06
6.55382243502875423e-05
3.80995701249713646e-05
6.87817877122131258e-06
-7.03601534309634356e-06
6.07367920490872016e-05
3.56351529595748227e-05
5.67646474979326977e-06
-5.79673896627697556e-06
5.65054710082536418e-05
3.32214639005418743e-05
4.67074016321407415e-06
-4.76325465145958115e-06
5.27591524189921759e-05
3.08665237525957833e-05
3.83917910074213174e-06
-3.91172976639314181e-06
4.9438269220184906e-05
2.85800414158164931e-05
3.15321287705511025e-06
-3.20996367087165313e-06
4.64983550773363362e-05
2.6355973809581283e-05
2.58879464185406166e-06
-2.63334907980399616e-06
4.391213215185626e-05
2.41940490361560484e-05
2.12524177596275461e-06
-2.16087381407976257e-06
4.16372692120445717e-05
2.20940568040878368e-05
1.74576264319164035e-06
-1.77490738019524409e-06
3.96361539476556535e-05
2.00536496818064735e-05
1.4358928394654165e-06
-1.46043025940870779e-06
3.78791160807843427e-05
1.80686914480548765e-05
1.18345958964596302e-06
-1.20480486276994781e-06
3.63419076668940278e-05
1.61338294701157987e-05
9.78478331457374807e-07
-9.97358326931170207e-07
3.50029331044526744e-05
1.42422894395909371e-05
8.12358883421420571e-07
-8.28857278751969855e-07
3.38408154405690602e-05
1.23870402465402078e-05
6.77758383455140885e-07
-6.91706754714890747e-07
3.28385204763071402e-05
1.05623271380866663e-05
5.68801517350903471e-07
-5.80247333272289367e-07
3.19866861279629054e-05
8.76358645651376046e-06
4.80948068613526301e-07
-4.90382197061091196e-07
3.12805767825995382e-05
6.98626345035700883e-06
4.10734491216095216e-07
-4.18956914396150867e-07
3.07148333760407882e-05
5.22527315390171072e-06
3.55793736479102149e-07
-3.63587601012866346e-07
3.02812100008200547e-05
3.47575723076257942e-06
3.14980679122734075e-07
-3.2283976741239636e-07
2.99696760929314809e-05
1.73484170344518747e-06
2.88260130099613414e-07
-2.9595155195598771e-07
2.97705152725873286e-05
2.76326141865903112e-07
-2.83601807183535961e-07
2.96279833692877829e-05
2.84943239115509239e-05
2.88495331384301397e-05
2.94481824803685978e-06
2.60853244716975218e-05
2.72170307236529889e-05
2.39829755099467649e-06
2.37593801320123517e-05
2.57942690551051174e-05
1.95709812535847255e-06
2.15099155609501814e-05
2.45644964280475382e-05
1.59883114650375205e-06
1.93348993448527889e-05
2.3499499413418931e-05
1.30732577004050623e-06
1.72256274960283355e-05
2.25772946191274521e-05
1.07323317081520081e-06
1.51737402402323635e-05
2.17755599121768281e-05
8.86071938074211662e-07
1.31732763634006911e-05
2.10799377364452023e-05
7.34592306551299615e-07
1.12178339199475168e-05
2.048730046820935e-05
6.11197804336363819e-07
9.29917212093292413e-06
1.99972266926869323e-05
5.12182083780220957e-07
7.40848728667775185e-06
1.96051303347047219e-05
4.35073678977647643e-07
5.53847182330926736e-06
1.93034588347692866e-05
3.77209778171321906e-07
3.68356605277008622e-06
1.90855102612079181e-05
3.36118642707975885e-07
1.83842791581419241e-06
1.89467697616298761e-05
3.10185374589475534e-07
1.88524783060239839e-05
2.98641664671565129e-07
3.05820237364887398e-05
3.34634185263922552e-05
3.51414056535621211e-06
2.8131186450692429e-05
3.1475454074322853e-05
2.86495283298945994e-06
2.57719062112377819e-05
2.97198707038369905e-05
2.33713122933414404e-06
2.34878049577437516e-05
2.81962968205729683e-05
1.9102347106445339e-06
2.12773260901223386e-05
2.68727097875628409e-05
1.56218791496364762e-06
1.91359942247542003e-05
2.57221675869495823e-05
1.27897573558414285e-06
1.70563266999307978e-05
2.47240432991820049e-05
1.05142791170653086e-06
1.5031156382029446e-05
2.38551096833089961e-05
8.68913847770227383e-07
1.30543132568777475e-05
2.31006080090444371e-05
7.20784329924319151e-07
1.11193227842456108e-05
2.2458196252781232e-05
6.00056774529688545e-07
9.21868356520781014e-06
2.19279980302250039e-05
5.03147413818524824e-07
7.34472352019242888e-06
2.15047426352251751e-05
4.27534427173613785e-07
5.49092056089917233e-06
2.11793366869063601e-05
3.70644940956057379e-07
3.65200507519560725e-06
2.09438384310779485e-05
3.30188466013879549e-07
1.82229688214745491e-06
2.07941285904324216e-05
3.04661942780805592e-07
2.06918380850382366e-05
2.93289198357211267e-07
3.01217604056709335e-05
3.61474814884046663e-05
3.40835844930648002e-06
2.77359454593323534e-05
3.40325171152753664e-05
2.78358502947092292e-06
2.54276439666138853e-05
3.21679500447751281e-05
2.27460578882526211e-06
2.31902216990489436e-05
3.05486818674942774e-05
1.86097451909297505e-06
2.10215428027688182e-05
2.91367008982526451e-05
1.5238590390035047e-06
1.89164223418739367e-05
2.79064048060352332e-05
1.24956316028058607e-06
1.68687722214831172e-05
2.68367025266425068e-05
1.02823956061797691e-06
1.48724463941834814e-05
2.59041277870319509e-05
8.49909068171338644e-07
1.29213393215778959e-05
2.50944316280945846e-05
7.0518630458942928e-07
1.10091095611250556e-05
2.44056983412406571e-05
5.87609676811438765e-07
9.12896231230932441e-06
2.3837909884305174e-05
4.93367659978051271e-07
7.2741102524789826e-06
2.33850471260901876e-05
4.19640160466541581e-07
5.43853534076555725e-06
2.30369255053253531e-05
3.63839024699367537e-07
3.61703092779020245e-06
2.27847532920840861e-05
3.23875506653407637e-07
1.8043990592365815e-06
2.26243961231589857e-05
2.98491951980585537e-07
2.25132544352125799e-05
2.87108700008145417e-07
2.96311374850735897e-05
3.87455912352583384e-05
3.30306483181616599e-06
2.73115948022123528e-05
3.65165918352381124e-05
2.70139074095651106e-06
2.50567051813506456e-05
3.45578543408054927e-05
2.20977485137813916e-06
2.2868122787837737e-05
3.28486019595980477e-05
1.80948820367522532e-06
2.07432320418753056e-05
3.13537702408491793e-05
1.48320468355681065e-06
1.86774092793148637e-05
3.00484777263677159e-05
1.21771758171380095e-06
1.66657127176474125e-05
2.89109251971947552e-05
1.00317154776069086e-06
1.47018155066017861e-05
2.79189523630522432e-05
8.29988631989270789e-07
1.27788732361735736e-05
2.70591527552320911e-05
6.89379332683541303e-07
1.08907978380249154e-05
2.63286892363197536e-05
5.7513936026013849e-07
9.03214887166715304e-06
2.57262232243751829e-05
4.83418571376010659e-07
7.19754043050353698e-06
2.52450959717865173e-05
4.11371117609821197e-07
5.38159664724028935e-06
2.48749101900768754e-05
3.56528331991445141e-07
3.57918217429590662e-06
2.46066164966059705e-05
3.17011421620940343e-07
1.78551887115198338e-06
2.44357605387957278e-05
2.91764774273442531e-07
2.43159226875806608e-05
2.80404466965867432e-07
3.62488235560180685e-05
5.02201397400482989e-05
5.79805994317081825e-06
3.38144446705666564e-05
4.68646002423094466e-05
4.76010024487816395e-06
3.14303184475809292e-05
4.38836689823957041e-05
3.90088757268809274e-06
2.91138099732147477e-05
4.12561224974980929e-05
3.19521092114981688e-06
2.68585619479208399e-05
3.89300245745693437e-05
2.61647601021704401e-06
2.46607982058460559e-05
3.68855660275273223e-05
2.14301718621392912e-06
2.25238379842564595e-05
3.5092589741824042e-05
1.75660682409189802e-06
2.04452180411948456e-05
3.35207764780725312e-05
1.44140470052110799e-06
1.84211273344038026e-05
3.21455385583689873e-05
1.18483402259963816e-06
1.64471353863201597e-05
3.09449178658718839e-05
9.77123356169716764e-07
1.45170379451817563e-05
2.98983935019912157e-05
8.09168670065289172e-07
1.26240684509694272e-05
2.89931156048236723e-05
6.72838539788972203e-07
1.07625749381762655e-05
2.82247381886365192e-05
5.62183707855738404e-07
8.9279598968742135e-06
2.75902540847282313e-05
4.73228681570568106e-07
7.11570648420067706e-06
2.70825271977642437e-05
4.02998778759345142e-07
5.32098148065514538e-06
2.66913945421320235e-05
3.49105278995481775e-07
3.53898581551175509e-06
2.64077999020979853e-05
3.09920776296355991e-07
1.76559055224141849e-06
2.62266895500886212e-05
2.84675364708930257e-07
2.60986471229194356e-05
2.73248137296905278e-07
3.543679998783561e-05
5.29445470246773186e-05
5.56585134123534549e-06
3.31014581906149391e-05
4.94872901662498694e-05
4.57896061058321327e-06
3.08068969290548072e-05
4.64092826105489111e-05
3.75950989006826138e-06
2.85676900611067731e-05
4.36821567691786182e-05
3.08448495501464056e-06
2.63789365118976677e-05
4.12709126530268924e-05
2.5300295717871233e-06
2.42421928051928785e-05
3.91468376864131969e-05
2.07491322013707145e-06
2.21593872839923471e-05
3.7277567953583607e-05
1.70264113956127564e-06
2.01292545880484542e-05
3.56350025037180108e-05
1.39869565441429478e-06
1.81489355243254535e-05
3.41952602700975006e-05
1.15110103022756854e-06
1.62142492421994545e-05
3.29370414283411585e-05
9.50265174651942534e-07
1.43193362342694456e-05
3.184116696182335e-05
7.87623194497236663e-07
1.2457988796997624e-05
3.08947780134964003e-05
6.55717796949206929e-07
1.06251595315290333e-05
3.00918100108904918e-05
5.48843288983956616e-07
8.81681609929230945e-06
2.94277348308240934e-05
4.62845106650212428e-07
7.02890836257130276e-06
2.88952471270890836e-05
3.94538051088895005e-07
5.25694739512674122e-06
2.84846963850648549e-05
3.41563396613036634e-07
3.49649388625617871e-06
2.81870801850502734e-05
3.02571113196247584e-07
1.74369525925543569e-06
2.79968324569829116e-05
2.77164730527777158e-07
2.78595023321289729e-05
2.65550155569768225e-07
3.90951384343707554e-05
7.78833514548070596e-06
6.39659945093581136e-05
3.68498834993542619e-05
6.44991757734975725e-06
5.95159674380146492e-05
3.45979196223482438e-05
5.33362883004079208e-06
5.55405097211577451e-05
3.23626230822590528e-05
4.39684737654184602e-06
5.19973313036586443e-05
3.0157223273340757e-05
3.61813807251488779e-06
4.88363483485080367e-05
2.79949242890298246e-05
2.97428903275867351e-06
4.6023854180381608e-05
2.58747769562365202e-05
2.44319634815953659e-06
4.3536835776421796e-05
2.37997006060805698e-05
2.00624777434498364e-06
4.13406996734558041e-05
2.17719213872860774e-05
1.64822625961229112e-06
3.94023564694931445e-05
1.97913677461021255e-05
1.35559447704216103e-06
3.7695149070794104e-05
1.78558286125902424e-05
1.11693413650867188e-06
3.61965890332368291e-05
1.59613586277532047e-05
9.22949597900176122e-07
3.48864541440587961e-05
1.41026521425606273e-05
7.65659172427695684e-07
3.3746327936753726e-05
1.2274388550823626e-05
6.38254122174705533e-07
3.27626968398291959e-05
1.04722926815728261e-05
5.35260072115960703e-07
3.19277983938611359e-05
8.69275534073132677e-06
4.5233537909697469e-07
3.1236073803344699e-05
6.93188791080464493e-06
3.86053354998971001e-07
3.06805246957267381e-05
5.18531729072687536e-06
3.34051396409422784e-07
3.02522220958115812e-05
3.44895206629407534e-06
2.95253072032671146e-07
2.99420522095991307e-05
1.72098078159770559e-06
2.69665434284084169e-07
2.97421951103214345e-05
2.57939360871751539e-07
2.95979225567742415e-05
2.79316713697246396e-05
2.85498312174693942e-05
2.65100097122265271e-06
2.56256541599530531e-05
2.69851780444808919e-05
2.15841344496720873e-06
2.33849827857204721e-05
2.56179915949128144e-05
1.75996936969811422e-06
2.12068384150989878e-05
2.44301445946457236e-05
1.43777435851608571e-06
1.90893793088981264e-05
2.33968194852678433e-05
1.17597957848181381e-06
1.70268956258799674e-05
2.24957335001822989e-05
9.65880437810777622e-07
1.50140958885054596e-05
2.17077520972686908e-05
7.9787672158989562e-07
1.30464328301857738e-05
2.10237346045461606e-05
6.61723988528686982e-07
1.11180837941586042e-05
2.04428075372706803e-05
5.50715286475465054e-07
9.22152071087560897e-06
1.99635268669183542e-05
4.61672446138877414e-07
7.34911450629328132e-06
1.95798232750884793e-05
3.92351742968409495e-07
5.49498657164202345e-06
1.92838430569542083e-05
3.40255941072211674e-07
3.65484687298585394e-06
1.90694708884433739e-05
3.03147191558498836e-07
1.82420426046296284e-06
1.89328478651859387e-05
2.79643561492209663e-07
1.88394441879009592e-05
2.69283911982281331e-07
2.99102114368334448e-05
3.3059466619620733e-05
3.16211660806584143e-06
2.75853028782088322e-05
3.11573264701946892e-05
2.58093944306329599e-06
2.53252336293701722e-05
2.94782079962847037e-05
2.10330338464568076e-06
2.31243694297086134e-05
2.80109001879538664e-05
1.71813420308756351e-06
2.09824232734097743e-05
2.67301140293909473e-05
1.4051134377165338e-06
1.88967574520802245e-05
2.56123733316988561e-05
1.15067964316699615e-06
1.68626068423727006e-05
2.46362704468639284e-05
9.46367906749380846e-07
1.4875273648392265e-05
2.378208132852891e-05
7.82342763795891553e-07
1.29300415237077848e-05
2.30405284595515903e-05
6.48982760990299026e-07
1.10212501781780854e-05
2.24111691111021015e-05
5.40213697768120561e-07
9.14221374753363277e-06
2.18926363120841763e-05
4.52983191623003908e-07
7.28635606145001588e-06
2.14780589257630863e-05
3.85000006210030225e-07
5.44838027799458411e-06
2.11582404436201598e-05
3.33834870046218356e-07
3.62408299312797841e-06
2.09260824719613001e-05
2.97378358042165994e-07
1.8085551290099303e-06
2.07782688435305233e-05
2.74307514226670895e-07
2.06768876443139306e-05
2.6411801152853135e-07
2.94754532216712708e-05
3.57226256749901719e-05
3.06897239671201801e-06
2.72074763810354345e-05
3.37014383471643066e-05
2.50613215471903186e-06
2.49957030475022109e-05
3.19170893891152296e-05
2.0468587522551201e-06
2.28382666258206452e-05
3.03550168381586579e-05
1.67446161766951349e-06
2.07351894180406674e-05
2.89868375045024181e-05
1.37121548784033446e-06
1.86837575184199166e-05
2.77901705902102282e-05
1.12457633237237549e-06
1.66803110043530449e-05
2.6743355064245798e-05
9.25555885751291688e-07
1.47206763002137508e-05
2.58266472910671781e-05
7.65066700430080345e-07
1.2800102354514683e-05
2.50310795656230497e-05
6.34717479058337828e-07
1.0913189588204189e-05
2.43563354229649416e-05
5.28833002046254129e-07
9.05403586335012299e-06
2.3800765904095763e-05
4.44042547541389551e-07
7.21689780923932184e-06
2.33567727989802733e-05
3.77747753164478664e-07
5.39686544817439728e-06
2.30141738265013532e-05
3.2753572549883791e-07
3.58970659920917396e-06
2.27651484817874153e-05
2.91510877068614115e-07
1.79095216351343653e-06
2.26064675709142952e-05
2.6856970698652463e-07
2.24961722356888623e-05
2.58399990820123876e-07
2.90092116701366215e-05
3.83088749379358631e-05
2.97317516901930451e-06
2.68010006036317344e-05
3.61785858364179017e-05
2.43149490318730839e-06
2.46393075968611553e-05
3.42989974206728179e-05
1.98909022734812499e-06
2.25274913381692842e-05
3.26475535653595204e-05
1.62890148202826936e-06
2.04657564137439998e-05
3.11971831731377088e-05
1.33530821180678658e-06
1.84521216858627671e-05
2.99260141796826401e-05
1.09639003881744552e-06
1.64833899285683747e-05
2.88125179770584971e-05
9.03196030158119968e-07
1.4554745091801083e-05
2.78379744407611723e-05
7.47096726731302936e-07
1.26608728296498299e-05
2.69934335899909383e-05
6.20309269585332664e-07
1.07969834264476619e-05
2.62774280307997037e-05
5.17381532748053167e-07
8.95864693537622724e-06
2.56872797952621442e-05
4.34853038278252403e-07
7.14138799277086986e-06
2.52150052620454533e-05
3.70061690347955426e-07
5.34074129583586899e-06
2.48502503454347182e-05
3.20696197340013453e-07
3.55242144424558401e-06
2.45849176804938613e-05
2.85059200807267129e-07
1.7723298710922332e-06
2.44154957751871823e-05
2.62229238770225722e-07
2.42962831847138673e-05
2.52092854976950867e-07
3.51699660503630517e-05
4.92927669743811834e-05
5.20302629130817744e-06
3.29278201861229691e-05
4.61404789039705727e-05
4.27866238294874331e-06
3.07033549054262152e-05
4.33206788809635285e-05
3.51032058005176365e-06
2.85155926803415897e-05
4.08147449778525928e-05
2.87647730804889092e-06
2.63667798264026964e-05
3.85874739668734884e-05
2.35584521217395437e-06
2.42583181327003053e-05
3.66201676030232214e-05
1.92988919639116291e-06
2.21949265303644497e-05
3.48852581425044924e-05
1.58215629477278832e-06
2.01770726069239489e-05
3.33582386756934752e-05
1.29837689830563806e-06
1.8203402354769797e-05
3.20174983007818646e-05
1.06724728390438621e-06
1.62709287755042169e-05
3.08420997041455682e-05
8.79957219927257208e-07
1.43747433790838873e-05
2.98145532869375428e-05
7.28372963725200762e-07
1.2509592904675309e-05
2.89255969833007164e-05
6.05326846003366878e-07
1.06712200259792951e-05
2.81720532873124464e-05
5.05569507188257419e-07
8.85610189155292869e-06
2.75499051904559196e-05
4.25488428158116536e-07
7.06061364575905253e-06
2.70509360192613469e-05
3.62287029255625722e-07
5.28077548566478218e-06
2.66650219070457097e-05
3.13730724493651884e-07
3.51258502266743161e-06
2.63840257416390959e-05
2.78359299401484734e-07
1.75252853549237942e-06
2.62039270520905532e-05
2.55508672894793366e-07
2.60760369372831093e-05
2.45328221751288888e-07
3.44132695351451431e-05
5.20154932255631843e-05
4.99472204155585396e-06
3.22573443637198785e-05
4.87592241736467666e-05
4.11721759430738087e-06
3.01118125586463957e-05
4.58422996995448977e-05
3.38390132701179553e-06
2.79942427220713542e-05
4.32392628004733221e-05
2.77763307392813921e-06
2.59069221916386237e-05
4.09255031111277289e-05
2.27911587228632413e-06
2.3855006479049364e-05
3.88768202763151594e-05
1.86971122369703487e-06
2.18425264716629961e-05
3.70652626846520371e-05
1.53457523324402547e-06
1.98707240333731642e-05
3.54675633497096186e-05
1.26069106977975837e-06
1.79388778220479782e-05
3.40626323877867086e-05
1.03734935836989686e-06
1.60441598608722382e-05
3.28305806001283817e-05
8.55987866781728367e-07
1.41819112789821857e-05
3.17549260325838473e-05
7.09022852629747822e-07
1.23472969141739898e-05
3.08257789260507725e-05
5.89886115098669266e-07
1.0536571199449292e-05
3.00381067683590255e-05
4.93492024256297867e-07
8.74677661516656504e-06
2.9386553512893092e-05
4.16020068543257469e-07
6.97482293903588032e-06
2.88627787117018096e-05
3.54476221341780903e-07
5.21716159539229687e-06
2.84570593971602e-05
3.06672846106805276e-07
3.47019511564420583e-06
2.81613204219071608e-05
2.71420492691461863e-07
1.73061664754829325e-06
2.79712902222582676e-05
2.48397517445347338e-07
2.78333131663039676e-05
2.38071635303402135e-07
3.76906035553449236e-05
6.96545823214004308e-06
6.2462085636323295e-05
3.56813776182684546e-05
5.77370282164485661e-06
5.83426741543740943e-05
3.36281696381422621e-05
4.78536876607217266e-06
5.46184933674841259e-05
3.15596319773876112e-05
3.95330173180857717e-06
5.12725068684640774e-05
2.94936591384212295e-05
3.2568986677648657e-06
4.82704102885845167e-05
2.74462287609988298e-05
2.67937927574219019e-06
4.55821441144533946e-05
2.54222971964277136e-05
2.20226134796322738e-06
4.31903923823527566e-05
2.34278538163704981e-05
1.80919300228211978e-06
4.10678079080618533e-05
2.14672261073280338e-05
1.48666962661625123e-06
3.91865764446378597e-05
1.95424920679112353e-05
1.22264535701771236e-06
3.75242254246983733e-05
1.76533759472832685e-05
1.00700421682104079e-06
3.60606728986227174e-05
1.57973052694835278e-05
8.31557575595032765e-07
3.47772325543270011e-05
1.39701207103467323e-05
6.89293052345293623e-07
3.36580587656584859e-05
1.21676499534281451e-05
5.7418164330524987e-07
3.26923725528729692e-05
1.0386699205302464e-05
4.81264208512808067e-07
3.18734018079496492e-05
8.62468375699175163e-06
4.06503077177088634e-07
3.11947018619134771e-05
6.87880348819677936e-06
3.46692980251225896e-07
3.06479635555502694e-05
5.14581971432821349e-06
2.99677445478688326e-07
3.02239054169237256e-05
3.42260065183740217e-06
2.64541523016143843e-07
2.99144076392567871e-05
1.70781386088163643e-06
2.4133731432853e-07
2.97134444307788116e-05
2.30963737200103542e-07
2.95673946427525116e-05
2.96826000830913768e-05
2.99750436511131435e-05
2.76042011260803156e-06
2.74255390527736223e-05
2.82778899032946974e-05
2.25099611941805579e-06
2.52140429935679846e-05
2.67763108903341664e-05