/*--------------------------------*- C++ -*----------------------------------*\
| =========                 |                                                 |
| \\      /  F ield         | OpenFOAM: The Open Source CFD Toolbox           |
|  \\    /   O peration     | Version:  2206                                  |
|   \\  /    A nd           | Website:  www.openfoam.com                      |
|    \\/     M anipulation  |                                                 |
\*---------------------------------------------------------------------------*/
FoamFile
{
    version     2.0;
    format      ascii;
    arch        "LSB;label=32;scalar=64";
    class       volScalarField;
    location    "0.239999999999999991";
    object      alpha.water;
}
// * * * * * * * * * * * * * * * * * * * * * * * * * * * * * * * * * * * * * //

dimensions      [0 0 0 0 0 0 0];

internalField   nonuniform List<scalar> 
7248
(
0.0351542136167589531
0.64796912935911033
0.00784456367366059837
0.510763240350338821
0.00220126904124958583
0.00091069229192378468
0.0015629580072325385
0.00207038657339370146
0.129147090008868343
0.00142364975228731049
0.000809926423662169458
0.00113140184549118507
0.00157350853837163931
0.00357048688593125879
0.00171195644976727046
9.60142333157937609e-05
0.000516452276885375448
0.00359562639745980225
0.00381125183652427941
2.24355149283484834e-05
2.66645332823370256e-05
0.00017509695642594695
0.000731854363515670138
0.00079408021928468206
4.19217065588430433e-06
1.44389954397939852e-05
6.54738917518379827e-05
0.000134784916636666949
0.000251350923695833157
2.31791494832640487e-06
7.61304205365496714e-06
2.4678535506324705e-05
4.81933590270163187e-05
0.00192794535530209799
1.14238555541874183e-06
3.31401541745238957e-06
1.61982685042552302e-05
8.33166712173476535e-05
0.000632405495014110052
2.69016074536487596e-07
1.35988118590596032e-06
8.07963924986903386e-06
6.14484295761650028e-05
0.000181421238672111612
5.05453188670623738e-08
5.21703407353084404e-07
3.82601429983604923e-06
1.56057369925798015e-05
5.75834048222158027e-05
1.7556594841660468e-08
1.6013036739507856e-07
1.15274473147925626e-06
6.96723629196265168e-06
5.38406319469940419e-05
2.99394765671918977e-12
8.59396378991801383e-11
1.21899421213402618e-09
1.3985678366952995e-08
1.47193104618936841e-07
1.28366136798074623e-06
9.07370305801348553e-06
-2.96046125415491974e-14
1.40617601192733267e-13
1.05199734153675331e-11
2.51596915547412877e-10
4.44581889054203995e-09
6.25740959324339214e-08
6.81699975434390032e-07
-4.50905016921672832e-16
-7.63195173947929202e-15
2.1226627565939091e-16
1.53285094543672897e-14
7.89380681182927996e-13
4.33369760298205282e-11
1.39947345027837977e-09
-5.02896217201579869e-19
-4.82626833651032465e-23
-1.63327223590145519e-20
-7.08126441549441782e-18
-4.12029629466980952e-17
-3.75444443854144525e-14
-3.20960799803068668e-12
0.0428387143814978125
0.705182352765265419
0.0103321943250733617
0.432198169610759741
0.00242975204995766764
0.000788210152501943708
0.00138833333935632674
0.00226159724133002255
0.0826936275781954
0.00132577647463077812
0.000472806461876265952
0.000721244799284456338
0.00124537034184920973
0.00456634984109740606
0.00171195644976727046
8.47696103483382504e-05
0.000193923307162977216
0.00281339052569938358
0.00606929603255044071
3.50136042050078693e-05
4.2061031929962942e-05
0.00012435490728780887
0.000436024813081131528
0.000444187635823791913
2.94594940118103972e-06
1.37764116823480337e-05
4.61477991329706569e-05
0.000154503414876579144
0.000149540597946734994
9.92521882845258831e-07
6.55826133405750262e-06
2.30581408429058484e-05
0.000111356870478749909
0.000139007111126036886
4.23986584320770341e-07
2.64364480920952525e-06
1.53510434103242372e-05
8.29500775380199605e-05
0.000224402228845597105
1.46208690849242323e-07
9.9125283730052142e-07
7.41847266182522273e-06
4.48253902261719784e-05
0.00016061235111459527
5.41439678193173586e-08
4.83235748226950156e-07
3.06702564026526771e-06
1.35765278343843534e-05
6.21346019641214514e-05
1.46392017162239675e-08
1.41505129408878699e-07
1.02201787628679176e-06
6.52269888974516022e-06
4.04975620575527101e-05
1.73208066220845035e-09
2.12041079331839472e-08
1.94756305670834869e-07
1.4532666767813546e-06
9.31725785662185532e-06
1.35552182734399627e-11
3.15910745084897328e-10
5.92438608069470925e-09
8.7023329230639713e-08
9.75935383540914999e-07
1.2576756455713508e-16
1.42455816460185602e-14
8.30597464749471898e-13
3.93101664653905761e-11
1.52108971005220452e-09
-2.49358079408711811e-21
-6.71642191981369317e-19
-2.70993318273578486e-16
-6.5405675338773931e-16
-4.81641629244723948e-13
0.0496465483819819517
0.731916940757159518
0.0115639743706393312
0.444248958240920533
0.00303467958836853638
0.000541206812016689263
0.00120541891003844454
0.00185688441279492113
0.125796665589206658
0.0006701207291607581
0.000324240263707777185
0.000658423439234457177
0.000762967928732594331
0.00449582177312650346
0.000849444915658270649
9.8497893835481666e-05
0.00013687847378410315
0.00104812155588959429
0.00538453185181219946
3.43582152401153347e-05
2.24820474205822646e-05
4.81181240870642754e-05
0.000188862738825140806
0.000157027783695808375
4.43525033644274154e-06
1.10096069423604477e-05
2.8344223987370872e-05
4.63522999383758662e-05
6.97327438170443912e-05
1.06141940016553097e-06
4.96115338426082635e-06
2.00328405057262576e-05
7.94145982801322997e-05
7.59872419772776142e-05
5.26760239724210583e-07
1.98042400467600298e-06
1.13543468876037958e-05
6.51057965600193957e-05
9.975291202388693e-05
1.49984493635766138e-07
9.11448852739250166e-07
5.86563947156219264e-06
3.07842924165925019e-05
0.000146453658123893112
4.87308401114464377e-08
4.26294707128817528e-07
2.72778066425156594e-06
1.18231088408576626e-05
6.11228709136162507e-05
1.28577112858616989e-08
1.29065895389439453e-07
8.94975940884972903e-07
5.79336396417431051e-06
3.57181847570605681e-05
2.13100817186226354e-09
2.27796254666655486e-08
2.11809933806894025e-07
1.63152452103558457e-06
9.50508587811683768e-06
1.33060121968801129e-11
3.32131784336987866e-10
6.5935084973227388e-09
1.01882573448824415e-07
1.18646485011346024e-06
1.03480451084219204e-16
7.86396967077057425e-15
4.96628260523006814e-13
2.53533599929124606e-11
1.03214350190622324e-09
-7.11359355281913752e-22
-2.65679867412669995e-20
-4.43688949117745242e-18
-2.30260322161661009e-15
-1.91985305221353667e-14
0.0606199754510197211
0.766123511958927139
0.0136344077017584858
0.491198833184400607
0.00453941510631056255
0.0024909672567510208
0.00110449841839327118
0.00255193587888961513
0.189474955162446501
0.0011110974125323398
0.00105830633185581427
0.00099282411649516812
0.000988465712995630855
0.00533414210213194184
3.02818500807929455e-05
0.000390264888507203334
0.000603693073984121328
0.000669960705879299608
0.0048067994259161995
4.05435797845131559e-06
6.64331032156089426e-06
5.51962524094358053e-05
0.00103422595985906826
0.000332865895703631333
2.30204591672076178e-06
5.05364075375139796e-06
1.214075052759466e-05
1.47491079276747003e-05
4.45617754970164116e-05
1.28340135928098838e-06
2.81378821134690295e-06
1.17389861126559467e-05
1.51139661996559672e-05
3.57367244481806486e-05
4.5250061901614469e-07
1.66018664083224802e-06
1.26400044426952361e-05
6.7187751959955043e-05
0.000320837505123106894
1.1386626714981592e-07
9.13440176978392572e-07
6.0534122294237703e-06
3.71261522523649547e-05
0.000116346097752606655
5.2693446600029819e-08
4.52154180113264033e-07
2.58210795108853777e-06
1.10233031619152182e-05
5.88689200398693693e-05
1.88090094296733372e-08
1.53732732594948476e-07
1.04713593831768164e-06
6.29633922390718653e-06
4.16680171437638881e-05
2.28826721879821578e-09
2.53345801108707266e-08
2.3815842738091439e-07
1.86406089264994308e-06
1.14500021664182006e-05
6.57915316952613297e-11
8.33527152142004914e-10
1.07784934359493297e-08
1.1796446343642582e-07
1.43572484891606042e-06
3.15106198672651798e-18
3.50861306412527146e-16
5.186904222011399e-14
5.65205515529582927e-12
3.77888615694028479e-10
-2.04535141083606729e-23
-2.27769513045035565e-22
-5.88274224510060009e-21
-6.71184023564481767e-18
-2.86491468006298797e-15
0.0722380549128296273
0.815249468598612026
0.0183196766527114821
0.551535147294147654
0.00164396645268908908
0.000496771404396142459
0.00123424951332811502
0.00398383346227090644
0.221873324688444895
0.000767382920199288559
0.000540117218323335761
0.000548510573634004872
0.00121347740389478819
0.0071253367813003737
4.62275571339816998e-05
0.000648549560300301382
0.000827949117015528476
0.000727588147866423682
0.00577108846759175325
5.70579763384643903e-06
3.5396760942320749e-05
0.000517732942218075828
0.00143170642353552006
0.000979164322850066375
3.49314347001710074e-06
2.48427590352488084e-05
1.802854263119767e-05
3.07470606070766309e-05
0.000139642630936355125
1.95434301075575798e-06
3.92852979653049148e-06
1.5877686970673395e-05
2.15470650045962041e-05
5.27870065970095068e-05
2.76064596074589239e-07
1.63914705431635676e-06
1.47237446218346503e-05
0.000103180476401293751
0.000421025815742923516
1.50670131660021874e-07
1.33570156699124385e-06
8.54024107349345282e-06
4.81502351560540715e-05
0.000124303083612686008
6.76341354819775845e-08
5.43000508292372872e-07
3.06414714538933895e-06
1.16288175196082646e-05
4.33897594197669133e-05
2.45706175560949299e-08
1.90390945776049958e-07
1.25101102318793272e-06
6.60671035643877034e-06
5.38744909409590754e-05
2.84341309791830276e-09
3.1050307392916666e-08
2.96899742698318826e-07
2.35410248679074502e-06
1.55588624006644332e-05
1.14604100298745945e-10
1.70768723695013673e-09
2.26990555310647445e-08
2.31163494377827446e-07
1.86651235592596569e-06
-3.98909648597055304e-21
2.60116730635781315e-17
2.88924968188226927e-15
7.68540528865967104e-13
1.31238390006714165e-10
-8.70263603594635995e-19
-1.74567061382925977e-26
-1.21561313687496432e-22
-5.2361137758783854e-19
-6.3486721473226821e-16
0.082072836330318949
0.808782932983661218
0.0201728826762666881
0.572625597352897642
0.00263794174538229103
0.000183029832866424047
0.000973667091440170865
0.00420151044115912517
0.271773599681084388
0.000622186366793718712
0.000110370883647126298
0.000180504296884467184
0.00089093258709321832
0.00776002418442879854
1.92470911839868686e-05
0.000141837024701896091
0.000213508076197112967
0.000389023197572393076
0.00631787993878795036
2.05759584540390477e-06
0.000341700140914035877
0.00126514279313313569
0.000517654566177010102
0.000573367692369063423
1.5794356115680586e-06
0.000110292352915001686
0.000563433809533150703
0.000205392853103303374
0.000307255131548342516
3.59630501041603966e-06
1.58711765761611801e-06
4.32558096695694682e-06
0.000161578355606792362
0.00015410347587503561
1.24325269778323639e-07
5.50632670398956858e-07
3.97285653967517558e-06
8.41819352527006554e-05
0.000144807772468389897
1.04582150276385783e-07
1.61962920278853724e-06
1.22089903320743377e-05
4.57877744219673769e-05
0.000130080283844546908
8.81877841411584701e-08
6.42932967393638515e-07
3.63512463357576009e-06
1.45396319455239922e-05
7.24945038497405492e-05
2.81360054824001258e-08
2.14535522632760633e-07
1.32971907302831504e-06
6.68716439806125904e-06
6.55715705255109621e-05
4.66367007467429754e-09
4.21066849070467995e-08
3.48337094559778347e-07
2.85927266897073136e-06
1.8739294958938975e-05
1.77598176067880244e-10
2.82659179680823676e-09
3.86757894696023424e-08
4.0868007033090514e-07
3.05310555127749134e-06
1.04440971962595179e-17
9.14280991635536793e-16
6.2905300546087492e-14
3.73834259130294417e-12
2.23234717667674021e-10
-7.65879333312985574e-26
-3.47543311488100024e-26
-2.98301341670285262e-22
-8.37028311370778645e-19
-5.65674666063090874e-16
0.0789134496459197171
0.746654138848539928
0.0224107658536580739
0.696814706560852981
0.000354153787008996339
0.000109764196139002407
0.000561548807398463989
0.00466225652901867266
0.312007100582759933
0.000292908766687279562
8.20699106920842877e-05
6.93178993775095197e-05
0.000987477002595784975
0.00822366248704817747
2.66494700259502579e-05
7.34101066856995171e-05
7.09672444840435922e-05
0.00030457210279759224
0.00831134091395536838
3.58116462620183262e-06
0.000172132396147873861
0.000531750280149980142
0.000143694271838793836
0.00196281657446887225
5.0876104789039471e-06
0.000123852195314572003
0.000365659184965484284
9.06593766225886124e-05
0.00014789676766071834
4.37048605685268366e-06
1.91978368279056477e-06
5.20901704209260548e-06
8.34577331158913418e-05
0.000118134727371586374
1.45906616415115304e-07
6.69443398344523222e-07
6.91941428328111966e-06
8.13514943184220928e-05
8.11414570689445428e-05
2.11735175115194181e-08
1.46251091080862038e-06
1.18041094768632971e-05
3.64082110592961738e-05
0.00013241363953236685
7.65001848793507573e-08
6.4520659181846111e-07
3.57602453871920129e-06
1.7668432788477525e-05
9.70685012758364183e-05
2.92260388814480732e-08
2.25285843047484676e-07
1.3827426486007429e-06
6.59191688136104703e-06
7.22103452258638886e-05
6.12164449915432958e-09
5.44558129294479967e-08
4.32281827736684473e-07
3.30188352704244668e-06
2.31072451583142129e-05
2.14310923295784695e-10
3.54452062549237044e-09
4.98458593733636394e-08
5.61477891956002672e-07
3.94214728454562042e-06
1.09224759207754462e-17
9.16473726888210758e-16
6.315824995888927e-14
3.83482543815217731e-12
2.47201263698308247e-10
-8.47110413507835915e-29
-1.09149929537035506e-23
-4.99499377165741538e-25
-6.34456882492946714e-20
-1.67970233185337706e-16
0.0798604631814876786
0.713181914909124748
0.0225010254067294704
0.669957018690631401
0.00220461636873945039
0.000231148976230913304
0.000528173729483898255
0.00406325414274215542
0.376874905539366201
0.000665508165354573009
7.59548806263100039e-05
5.26478094360798075e-05
0.000412864597218167589
0.00583008565147790855
4.42019192911425642e-05
4.32534958540568373e-05
7.03754793607133308e-05
8.05327454931413608e-05
0.00863719086683312383
4.80412896022143337e-06
1.92311340574273829e-05
7.87909187481434506e-05
8.31213466277846275e-05
0.00323040811317289395
3.79683207242104069e-06
2.83244489666155619e-05
9.16732841473954471e-05
8.38884221513650061e-05
9.31785358798256565e-05
2.23896584004966391e-06
6.88709054771890164e-06
2.31345032683081198e-05
6.63490288310682273e-05
8.15185493741603275e-05
5.39499381621681484e-07
2.02186305459588438e-06
1.01470099376080006e-05
5.99969677912892463e-05
6.47311719546500233e-05
7.80848300388233113e-08
1.08963461017671425e-06
7.18615611006692592e-06
2.4579213519669857e-05
0.000151131671509971964
6.05150272589214432e-08
5.16739699282903684e-07
3.05406460639219642e-06
1.86130334805763566e-05
8.9243143225297615e-05
2.48684208216785376e-08
1.9569534159184021e-07
1.26893210624256613e-06
7.07843990285673483e-06
4.85521104557800937e-05
5.64503762205240584e-09
5.16509741121739782e-08
4.13076750826759856e-07
2.97582930830048448e-06
2.11676728984365518e-05
2.13499227112413754e-10
3.60670951864544189e-09
5.07520247213207951e-08
5.51982240363342535e-07
3.89587963365072582e-06
9.04869480353135618e-18
7.78461668763595848e-16
5.54355816499774136e-14
3.42905533228531616e-12
2.28307293415936829e-10
-4.5517973317072999e-26
1.89326617253042826e-31
-1.68754208634581518e-23
-6.54999413758420753e-23
-7.66083112495601611e-18
0.00156405328787724324
0.00141481087606925605
0.000989941418115823039
0.00110605955287323846
0.00198856509064403771
0.000280351431171083456
0.000411450375614342309
0.000638048745474741833
0.000990575203452365247
0.000467309602967301964
0.000213471881236664874
0.000355811619963992834
0.000415840945941813598
0.000797927775722414938
3.99294013301801517e-05
0.000107808508867949387
0.000313390054684797143
0.000357119314555284415
0.000519599243343517141
0.000350144333573579824
0.000868654745829833068
0.00111881093368038868
0.000411269208912627834
0.000255510411472298479
0.000619710754996502045
0.0010789937786714731
0.00112387833305205623
0.000875569392801607083
0.000112582328786293208
4.3449731317868168e-07
1.60612210317187843e-06
0.000176359355157024975
1.39708859319064932e-05
3.4404653099104045e-05
4.7642100520326777e-08
2.02782124447260629e-07
7.39728944050854113e-07
2.41934003245981503e-06
6.56507432465832128e-06
4.69231624616102565e-09
2.21369600657658868e-08
9.3834486056794705e-08
2.35056137890984803e-07
1.15297595657040283e-06
2.46700604931089385e-10
1.44200764343533433e-09
-3.81876245719107533e-09
2.52651184717477434e-08
1.25466335712193075e-07
4.66976599797359725e-12
-2.81567941446062429e-10
-1.12734851781524401e-10
8.28022805231383082e-10
3.16017259442594776e-09
-2.32745534946095853e-17
-7.63826758414968191e-15
-1.20161947040774768e-12
-4.95428575059518983e-12
-1.38520612408067471e-11
-1.16158404037996049e-10
6.27416372274813016e-11
-1.64200812063150691e-17
-3.43256686876623807e-16
-7.05872559499452711e-15
-4.64367852210130396e-14
-5.69225642620829497e-13
-2.01680367713351665e-12
-5.87842067879832804e-12
-4.14121766399842378e-20
-1.51805747192539505e-18
-1.04403926284542273e-17
-8.11956455100423577e-17
-1.12300885859512677e-15
-1.18651246352482472e-14
-1.58889903157801833e-13
-6.64874252427154707e-25
-8.72551023964731104e-24
-1.34137318521258618e-22
-6.11481689256278654e-21
-2.12014604581649982e-19
-7.31490711997293464e-18
-2.4579564516790546e-16
0.00110955622367699147
0.00107181476651804384
0.000721874223522270633
0.000985169920759537774
0.00180705984622805483
0.000233530615643123769
0.000433869222163796666
0.000530669193353218958
0.000720794918139900449
0.000475844442070397168
0.000157947928335054225
0.000307566857434183932
0.000439508564430140776
0.000709537098962059677
3.92752593502902528e-05
9.70220253367214705e-05
0.000161041293444489524
0.000309042973873433163
0.000612179513619446041
7.14392185012277295e-06
0.000146812407702961306
0.000372086720994109455
0.000247582556460996845
0.000380182257080415183
6.76959792620046882e-06
0.000102986665806497046
0.000160317286236632178
0.000174912127160021657
0.000194901199461572458
1.11651307330156778e-06
8.34533343830424229e-06
2.93076385728219186e-05
3.27869218499449993e-05
8.60091367522248558e-05
1.92271428452112682e-07
7.80202745126466747e-07
3.24913312370693659e-06
1.05600960659412217e-05
3.00253774780984493e-05
1.80254097739332088e-08
1.45404512421274775e-07
6.10022141116702654e-07
2.32688151292156758e-06
6.98157212857302023e-06
1.99986826620179465e-09
1.04990633718168487e-08
5.99286695257606135e-08
2.75198792259483555e-07
1.09731660328835717e-06
-7.29562838175406294e-13
1.48339399582760733e-10
1.36903171523275298e-09
1.08920315276657018e-08
7.29330567613413106e-08
-1.85626874207835731e-16
-1.96456680810981267e-13
-4.53110819909709544e-12
-2.94249899103414203e-11
-1.36409844108851396e-10
-3.09112093779354702e-10
9.91673504229175564e-10
-1.38080308712950616e-16
-7.07622893780363967e-15
-7.19015394530218364e-14
-8.11091171567553264e-13
-5.90849481835849977e-12
-3.07693958990924255e-11
-9.72001562507594382e-11
-9.39968295621151094e-19
-5.7870106084659836e-18
-1.23025943081112478e-16
-2.21028514827992267e-15
-3.37877556517975416e-14
-3.9145644920654901e-13
-3.24979094783330476e-12
-3.25445494382075753e-25
-6.32845484969272876e-23
-3.81515379289497828e-21
-1.76606049027768788e-19
-7.28676707903806598e-18
-2.37183030611745645e-16
-8.29090793166437427e-15
0.000838528994480377881
0.00105888212768063205
0.000535857326112764007
0.000836621368353284572
0.000461234341171555399
0.000239479767328401274
0.000365582969469157226
0.000446549025407622807
0.000542499126755324659
0.000311234997468687801
0.000202986344763386863
0.00027590545109188407
0.00043145078043084782
0.000684041204831844119
4.74487699667152204e-05
0.000126641805268101342
0.000202897396280738183
0.000434324623094884429
0.000691251445345998292
1.40721036547552809e-05
4.66392426353844254e-05
0.000183560430209904902
0.000307947309559109829
0.000683793204511893562
8.04034465464278991e-06
2.33092892097214212e-05
5.99761531333766149e-05
0.000142658917363796243
0.000435678316939957404
2.05384993097044247e-06
7.09518264814594802e-06
2.1343721506528475e-05
5.92162582441474445e-05
0.000152364534163322563
5.16070684625890731e-07
1.99612398863540602e-06
6.82475532042956767e-06
2.17516500722395983e-05
6.12719926735144231e-05
9.40110375039917992e-08
4.62480048906696107e-07
2.15718702440460203e-06
8.41554688331282035e-06
2.90041398286765971e-05
6.58562877233164827e-09
5.78832340184283314e-08
3.32993068743359481e-07
1.59460320325993559e-06
6.63203307993370773e-06
9.77016629229071995e-11
2.05937200079662281e-09
1.6748797082286913e-08
1.07242121267667696e-07
5.73813137328562623e-07
-5.79549134111980692e-13
-2.77492497959154801e-12
-1.69983178861202819e-11
-8.02552602418067809e-11
-2.05075737577875089e-10
7.13185015265936414e-10
1.62899671285375062e-08
-1.78406956935299867e-15
-3.57868166383519404e-14
-5.30194336862662958e-13
-5.34399813547975916e-12
-3.82810753572088124e-11
-2.01404467123714526e-10
-5.76955505939547593e-10
-2.04984108219400393e-18
-6.36769203563657384e-17
-1.64556589334914051e-15
-3.28704721467485692e-14
-4.43891253930146888e-13
-4.47511676864928831e-12
-3.21134243155915035e-11
-1.00246054325737901e-23
-1.16622253914945168e-21
-7.16206669584257934e-20
-3.6586933056000439e-18
-1.41737655202758221e-16
-4.36133199671202207e-15
-1.23470163817052729e-13
0.000614050565541991592
0.00177729768370252445
0.000441857901339845027
0.000734821090989956648
0.00124941434542242386
0.000181547842493246393
0.000285284318982924616
0.000373290225900229213
0.000444311734852306252
0.000626237883154247407
0.000167718059151506199
0.000231354979546320028
0.000590594708533587111
0.000554279795096964041
5.08479573137523276e-05
0.000115868945535989589
0.000346152206851800949
0.00114288495710381226
0.000793594477062162674
1.73661952623909487e-05
5.23045563996335058e-05
0.000385394964269855536
0.000690294741523299511
0.000748346888419514382
8.94569733679647295e-06
2.68349564465173105e-05
7.19259613750278986e-05
0.000170162990128728262
0.000894891671568594552
2.50994057121119305e-06
9.37144970907429959e-06
2.83773497647254861e-05
7.82123993391373087e-05
0.000582550253418729941
6.72853044996500881e-07
2.86775239645775989e-06
1.02530059742294525e-05
3.27009895502896594e-05
0.000158702166618580572
1.72867199650483388e-07
9.177673591648091e-07
4.09104051747032161e-06
1.61979374963872609e-05
5.65732027876205329e-05
3.10397192848806772e-08
2.08687184530260704e-07
1.19169579390565022e-06
5.64146908668985073e-06
2.33414246688157842e-05
9.27905771005747948e-10
1.29336082892987159e-08
9.65016081890078784e-08
5.84249475738157935e-07
2.98173486008615639e-06
-5.11648611843206227e-13
-1.96256949464049363e-11
-2.03054226126373096e-11
7.72345428954626137e-11
1.84427561651010276e-09
1.86808248787392306e-08
1.41040252888682998e-07
-4.29630438229896868e-14
-1.38949258062608897e-13
-1.71628424917958997e-12
-1.53106838583187379e-11
-9.97342512227934006e-11
-5.05428466728151906e-10
-4.63659520569737564e-10
-1.06134926874946862e-17
-3.16458787950408259e-16
-1.03205626944081044e-14
-1.94166719811282413e-13
-2.57163411931864888e-12
-2.61930307128651598e-11
-1.87693229371075236e-10
-4.21964179290389844e-23
-9.64060387572932738e-21
-7.33961301475600977e-19
-3.71917386462693098e-17
-1.36580250885979028e-15
-4.08206034043327729e-14
-1.0455550825230211e-12
0.000635373870715347103
0.00447785666083150638
0.000513638996353991571
0.000618182419236900944
0.000383232634016829983
0.000193302638432810104
0.000300296053995893774
0.000446437788887322053
0.00051352413574610675
0.00042146601622606607
0.000155898592061742939
0.000468295609177278257
0.00058901163112777728
0.000614775994131146891
2.66763084192188174e-05
0.000160740001704417568
0.00128664909521681008
0.00130056866222329095
0.000840142783400260563
1.28872046116420662e-05
5.10616208571001377e-05
0.000447298636262919683
0.000921068720611910243
0.000976164381226493258
7.78408531777730322e-06
3.20252790349895104e-05
6.27261037729571146e-05
0.000176765741561490009
0.000708376622741598884
2.36617874771292517e-06
8.80130063770383144e-06
2.76526859029677668e-05
7.46732887664044732e-05
0.000624577596941190997
6.71135445560285885e-07
3.27605694818169531e-06
1.25172143886692105e-05
4.45421517844692925e-05
0.000476490755004356113
2.20588666729491797e-07
1.2607697518755332e-06
5.90294147158210988e-06
2.41390793654525649e-05
0.000168387137464166934
5.59059737943084343e-08
3.73455208844529639e-07
2.10644789048179333e-06
1.03478811233915663e-05
4.38441232778746391e-05
4.93073992286276036e-09
4.44671457243395369e-08
3.27199075323962201e-07
2.00630290672781467e-06
1.02287076844899166e-05
-2.89677713454266297e-12
-3.10461849488094239e-12
4.87884940923570323e-11
1.10450645480959127e-09
1.21093567649509949e-08
1.00206612995329187e-07
6.77173692232032414e-07
-1.53348682154683982e-14
-3.24005819426508391e-13
-2.9656110450148443e-12
-1.68669757611895917e-11
-4.05968142832986614e-11
5.36109376184585637e-10
1.12744768237315061e-08
-2.67391891251268035e-17
-1.26823800630082536e-15
-3.24415488399326161e-14
-5.13250495265614947e-13
-6.61054216630961127e-12
-7.50871938282064564e-11
-5.72284230045075281e-10
-4.54417540440381305e-22
-5.4581579429282282e-20
-3.53509705701208435e-18
-1.69749836550532169e-16
-6.55336231449522451e-15
-2.06706599270607864e-13
-5.21065294350483596e-12
0.00100763992419031071
0.00996791826187907667
0.000624144918943936441
0.00205615814095783372
0.00186353286042939287
0.000262837193083305127
0.000441326737131391648
0.0005237694024074575
0.00441522728092486137
0.000663843929624172136
0.000136791958735808176
0.000665720690064293321
0.000605066645518007561
0.000852906999708949801
2.35634647997046837e-05
0.000367501421151103524
0.00177708221561335522
0.00130024432601376838
0.000978870450539177104
1.38864154379306509e-05
0.00049124411810104354
0.00129777735177304164
0.000811527810400217891
0.000986249900714904811
6.17592695930866102e-06
3.10597564441787073e-05
6.50834132057999799e-05
0.00028954913346693797
0.00129463137222760364
1.91843239055740199e-06
7.40945707126068517e-06
2.39300847700796341e-05
0.000181954207369006013
0.000837976801712410476
5.87934915042077883e-07
3.28125315486161921e-06
1.2929445817068059e-05
4.99123573245363258e-05
0.000406581022646354453
2.22812764919650924e-07
1.49329734120697097e-06
7.20388573560524591e-06
2.89990652232139398e-05
0.000422633100620889554
6.72496662558276565e-08
4.66943183536098511e-07
2.70949447795471353e-06
1.36888182753492618e-05
7.73296649467957093e-05
1.05561830172446188e-08
9.24306307328638878e-08
6.56505260489650799e-07
3.99438998877699595e-06
2.06873377986658842e-05
3.63512510383677557e-13
1.65389231947433906e-11
2.86161592371467489e-10
3.69300559968902113e-09
3.69740964669312746e-08
3.02775772088931608e-07
2.04078646119946347e-06
-1.01242504752821861e-14
-1.88497823654566562e-13
-3.45885782276171916e-13
2.22318568302966817e-11
3.93878516735890567e-10
5.5753335735181865e-09
5.95781757055323864e-08
-2.4665468300594584e-17
-1.3276361988256992e-15
-2.56862636709963293e-14
-5.37792648882531387e-13
-6.85159245087045744e-12
-8.44925770385826814e-11
-7.32259304537257503e-10
-3.60743282888359191e-22
-7.47247790937333356e-20
-5.99830474240858763e-18
-2.81469654433902695e-16
-1.19192499904571802e-14
-4.51193682875283356e-13
-1.26459747041867011e-11
0.00260770444143066651
0.137611985133267223
0.0010479296005488593
0.0978035108680605225
0.00184965681928651133
0.000837651524235186098
0.000847841513194455359
0.000625209348276165987
0.0314485779854559722
0.000830757317212687434
0.00106443805217882942
0.000943299430440113764
0.000844275004331646386
0.00966972419168590606
0.000431370765159390856
0.00179378006907670575
0.0018173808599225049
0.0015987672633807873
0.00133428291228485638
1.91379170406119044e-05
0.000876491488840064423
0.00150704324336764636
0.00138696958457524134
0.00111110257074463438
1.05087766444826187e-05
1.8268687077963055e-05
5.56711030805884472e-05
0.00042890696454053192
0.00429655037982826227
1.44716940976521886e-06
5.82339725913402043e-06
2.03851465566930938e-05
0.000113577749018679952
0.00182625795119162413
5.09612969293417393e-07
2.29163454875926315e-06
1.18699759174024606e-05
5.78835956307096862e-05
0.000646841394741786346
2.472341800667941e-07
1.62686949071467993e-06
8.18635197557526502e-06
3.13086853500496126e-05
0.000251571654313883857
7.68827031919711987e-08
5.5523456669336637e-07
3.31314369144379008e-06
1.66044163653437249e-05
0.000120419239430807944
1.17551009654998013e-08
1.0383490135614759e-07
7.8380012202637516e-07
5.01113270186660884e-06
2.69161208775947085e-05
1.50286009150692869e-12
3.90557981318967304e-11
6.21007497350562768e-10
7.7410726287396869e-09
7.98882957423448549e-08
6.78176451605961698e-07
4.64496001777292742e-06
-3.50837234085856204e-14
1.64843480920144083e-13
3.92073105103489241e-12
7.62983773119845557e-11
1.20880075322268143e-09
1.57074766652136847e-08
1.65272581179242855e-07
-1.95895406962840976e-18
1.19050977492399617e-18
1.27336481000821034e-16
-1.57358405450085386e-13
-4.26038054050807095e-12
-3.39318174575626862e-11
-2.08719324296591323e-10
-3.59376510483992208e-24
-1.89891158197680618e-22
-2.25818472854346542e-18
-2.20471289659190494e-16
-7.98112376352261491e-15
-3.8008100355327822e-13
-1.4976249999143493e-11
0.0125420023382460319
0.554767432830693408
0.00261128489419364378
0.411019060968765726
0.00281460247429813747
0.00161109413221880576
0.00151497821385580345
0.0011464655227022176
0.185640706387812326
0.00115838538286078393
0.00180860800970825868
0.00135390052542745058
0.00145060783643416458
0.00529586233915346934
0.00109775829967961262
0.00172970022516650591
0.000973853568630831876
0.00266699656668960717
0.0026373932559380568
1.16194575850368274e-05
0.000143641362656058737
0.000660455864537426354
0.00199066992160256556
0.00181636175121393422
3.90454843790692824e-06
1.62426323231074298e-05
7.32236118635602523e-05
0.000126785086060236655
0.0042823631686977788
1.21511720629250162e-06
5.4707897554991654e-06
2.31229665085292122e-05
5.07467152960403131e-05
0.00234087110458082621
5.34617095974554607e-07
2.41757753275889469e-06
1.48839923222447333e-05
8.11682668122607544e-05
0.000749100535813737936
1.80300967071501393e-07
1.47861902855684063e-06
7.76699343372361487e-06
3.73258253096016716e-05