/*--------------------------------*- C++ -*----------------------------------*\
| =========                 |                                                 |
| \\      /  F ield         | OpenFOAM: The Open Source CFD Toolbox           |
|  \\    /   O peration     | Version:  2206                                  |
|   \\  /    A nd           | Website:  www.openfoam.com                      |
|    \\/     M anipulation  |                                                 |
\*---------------------------------------------------------------------------*/
FoamFile
{
    version     2.0;
    format      ascii;
    arch        "LSB;label=32;scalar=64";
    class       volScalarField;
    location    "0.239999999999999991";
    object      p;
}
// * * * * * * * * * * * * * * * * * * * * * * * * * * * * * * * * * * * * * //

dimensions      [1 -1 -2 0 0 0 0];

internalField   nonuniform List<scalar> 
7248
(
22.6611786914540971
3.07997870123540451
0.0428303834794441229
0.219727487696673052
-2.50621850204342866
-2.44707921583912924
-2.29890191651025599
-1.9398893869188516
-1.00787115908474334
-3.04012215849209877
-3.07457828336202654
-3.00899530596236131
-3.09929661146206481
-2.90402906368215596
-3.58932702220784527
-3.63971889982677865
-3.69279994101765885
-3.78743975510074549
-3.49849209864805388
-4.09611802903597955
-4.12461319313765795
-4.22270122626711419
-4.35360996473687933
-4.75105544680036296
-4.525143174505458
-4.58403500810619491
-4.68306614689209511
-4.75023981130366657
-5.08239221117389306
-4.93831300557283637
-4.99973866149010604
-5.07797249662511252
-5.14149418312073614
-5.38576767134572343
-5.33956520554061598
-5.405137400635315
-5.49147346219784094
-5.59964946110621398
-5.82123416029862284
-5.722395321325636
-5.79219246866373183
-5.88965262598930739
-6.0266767143746236
-6.2231314465744294
-6.08709866094170859
-6.15459970331567252
-6.24718899088779711
-6.37160715433636504
-6.54960476406714243
-6.43539697300635538
-6.49384329365629931
-6.57284997818282424
-6.68048916932811832
-6.84383385173042758
-6.71061107171536797
-6.73689111381423
-6.77032573780605684
-6.81391766603880367
-6.87129838905618229
-6.94898052997830273
-7.06257267957811585
-7.05963349867083156
-7.07613780903882095
-7.0970968525934639
-7.12394647262446234
-7.15832877797167555
-7.20218753247175592
-7.25878633133520523
-7.40674047574306726
-7.41294953247902555
-7.42112525148703295
-7.43183812794909038
-7.44563058476959583
-7.46285716720156334
-7.48299679584606725
-7.75455385131769592
-7.75069539961766729
-7.74659803761751409
-7.74241881040616242
-7.73837812478698073
-7.73482307776605804
-7.73265429452479935
33.0532322198963016
12.4893593144481656
1.25108029062735326
3.91387849233797169
-2.39275321460390789
-2.50752194580286147
-2.31794859561113231
-1.69853998104499748
-0.591649681011574557
-2.9998814912480265
-3.06088745073752433
-2.97628722159163273
-3.03939457697642723
-2.74004139266074631
-3.56737568982347142
-3.61716449643601878
-3.61627574363167881
-3.67152811344474905
-3.29821152462931622
-4.0927264604716207
-4.11600777155258957
-4.1712462738845586
-4.23878818984694572
-4.61924320491879215
-4.51735662405085492
-4.56445560034332409
-4.65686993522389248
-4.71009236824273447
-5.01387287996602726
-4.93661545919514211
-4.98891012393464539
-5.06406788408756903
-5.12139561270767896
-5.37178007474477504
-5.34356487086899179
-5.4019368921976767
-5.48057693076782648
-5.5782128299171756
-5.76813226565022141
-5.72851644132385029
-5.79445130947872489
-5.88685413569970439
-6.01494837478125444
-6.18345158419888108
-6.09500244718860262
-6.16199188602759662
-6.25309285627443856
-6.37204055705893158
-6.53366946506721646
-6.44546430639945278
-6.5056661177893309
-6.58635655432553779
-6.69475577589324988
-6.8548535404459674
-6.78112571510210582
-6.82773412329470997
-6.88904549116444898
-6.97196723068729618
-7.09203986693259747
-7.10714542471074662
-7.13705402023448698
-7.17561015229584243
-7.22544867383955669
-7.2909533932744921
-7.42904758941969945
-7.44207060641331619
-7.45897833360535589
-7.48054250540763288
-7.50693779126508254
-7.75156643461240691
-7.74844864883159623
-7.74566304206281409
-7.74372212464205401
-7.74393981516470298
44.49420986279641
26.6618082392146789
2.38684817323257192
6.88938596757316191
-2.15445596458491906
-2.4212369715121187
-2.26972797342457522
-1.70321636796264642
-0.217226594933208617
-2.9816355416081004
-3.04286918339803725
-2.95554814232085894
-3.03163334581728661
-2.88622895381044309
-3.52796633201651666
-3.58067494339672621
-3.57488484151009489
-3.59450274448144391
-2.94437027557131614
-4.04529824258133619
-4.06986923098307773
-4.10099664338250403
-4.12708987588463394
-4.27756739413421716
-4.4852475383875543
-4.53387561057745891
-4.62085378741411823
-4.67179053285534263
-4.94022456624441908
-4.91482671577126418
-4.97134086665536135
-5.04754223328924034
-5.10488131531750344
-5.33410936598306051
-5.33254489198705617
-5.39228322705921581
-5.46668364928346762
-5.55523079894172866
-5.72686269640138423
-5.72599416336119305
-5.79176770513716299
-5.87962448054034681
-5.99690281005319292
-6.14640607010681794
-6.09778094204866594
-6.16462338367062923
-6.25306559426233743
-6.36410797701550468
-6.50927382484070716
-6.45166483766811982
-6.51288413449654691
-6.59379047237251648
-6.70126746602336265
-6.85567759342736682
-6.78916501285715679
-6.83792697424770335
-6.90175335071237761
-6.98781514000178028
-7.11145902205942804
-7.11530611714575745
-7.14769081424402675
-7.18961565055214535
-7.24430768983022233
-7.31693079137153646
-7.43586379997822533
-7.45091981065048525
-7.47061401718802998
-7.49616290007687613
-7.52867280713213294
-7.75607840178159513
-7.75398083532005433
-7.75244906189414795
-7.75222967581635114
-7.75517637068684884
55.8971833626144701
33.5515005019979071
4.26728301164566659
11.2642695868996725
-1.51441304302631607
-2.10286689255291304
-2.07910927274148216
-1.4566729077682723
1.91005990347446186
-2.91278105759796402
-2.98044429335257322
-2.83396556997085325
-2.87827954662347141
-2.69654645701418616
-3.5259759131365529
-3.56562778313173423
-3.52064583825002275
-3.56385026812099248
-3.1438181306240871
-4.01040856100388154
-4.02823847613931463
-4.02969560982874331
-4.060763313983208
-4.21147128374141744
-4.46665160165652164
-4.5034136810802563
-4.56524017862432441
-4.63274264069824859
-4.88886206076033059
-4.90149585112925212
-4.95506332247663739
-5.03223124834422286
-5.08570704319207589
-5.3130319335036571
-5.32084476037071941
-5.38030218227477075
-5.45052469135498541
-5.52595946746424982
-5.69743905699357267
-5.71961917391083752
-5.78563608895618309
-5.87043350269970787
-5.98230614302898012
-6.1271957347367394
-6.09702964254234736
-6.16380750284735335
-6.24979932082847167
-6.35632506223623217
-6.48778203551558441
-6.45469765674466789
-6.51654274943126843
-6.59703687020164065
-6.70216973181358622
-6.84918323803484874
-6.79475249590102504
-6.84500131414641722
-6.91043270579778213
-6.99788239713535543
-7.12227780497975704
-7.12163279475055155
-7.15595926979963615
-7.20049055069694965
-7.25907800556698479
-7.3376374447000634
-7.44149240151980518
-7.45827333696436501
-7.48038024697530801
-7.50950860439560675
-7.5475960138503444
-7.76001042897499449
-7.7588542617502636
-7.75852601753993198
-7.76008431115577846
-7.76604215314860546
69.413350869243402
48.0665917583955888
7.31964929144212562
17.0119808741826546
-1.50594637894402084
-1.85476923673894767
-2.00188609479291291
-0.983538488890825846
4.58023419712310442
-2.84654988197555436
-2.82026815640216144
-2.72791026943197012
-2.72605008251658898
-2.54133609611943001
-3.50698236851480249
-3.48836785534593297
-3.40671528995747108
-3.46451406362315195
-3.05699084925807441
-3.97183271633155677
-3.98059365863970438
-3.99295957577213878
-4.0740394042029946
-4.22402176659788964
-4.4339835579613931
-4.4740930908216372
-4.53073566925421822
-4.60680177154948201
-4.88405614144134059
-4.88448568408806061
-4.9421886984167589
-5.0214308170204065
-5.07730361470611946
-5.29880686720342897
-5.3108674972403076
-5.37130821965130423
-5.44090928674105534
-5.50863338558964255
-5.68677374532326496
-5.71351824773673655
-5.77926704575928341
-5.86038632056017139
-5.96666675495979071
-6.1138286783854241
-6.09461700418512553
-6.16100521979543814
-6.24512424099086694
-6.34985863147780449
-6.47226484522771361
-6.45577414094259083
-6.51770049620303382
-6.59758101359636306
-6.69993714505826965
-6.83499742821168965
-6.79830171252827142
-6.84954904912771312
-6.91590975130055963
-7.00361342896618577
-7.12856380025034575
-7.12629096214068447
-7.16207464093282731
-7.20845689212820062
-7.27007649935997957
-7.3548914923787132
-7.44591887740705616
-7.46410146099628147
-7.48819156591242319
-7.52027834576163201
-7.56271503517771837
-7.76326616113612378
-7.76293696769857444
-7.76370181433975137
-7.76699400169621068
-7.77614842814634777
78.2444236262482775
51.8416470634117559
9.27273583942647406
19.9825802261539138
-1.42027432615679139
-1.71602242112858128
-1.88110050203044121
-0.626124723249644077
6.92172163452380573
-2.80973785988569436
-2.78035106261656484
-2.71964521142337468
-2.66760341480633034
-2.47976382537316908
-3.45354429206524216
-3.40941007910742844
-3.29191249492173998
-3.31959252615741107
-2.92607497410049433
-3.93829128562384767
-3.93890684184507833
-3.8892977717499182
-4.0108524211529879
-4.01577948746958846
-4.4097410145364071
-4.45282530517579556
-4.50418484948732356
-4.57686668658606521
-4.84185650051397687
-4.86975640652407904
-4.93294381363194923
-5.01529885806009013
-5.05811434035098806
-5.27667813614691283
-5.29960427057915773
-5.36192523815416511
-5.43223426059756243
-5.49953217987619603
-5.67331695260750646
-5.70708352387281348
-5.77208369150590705
-5.84968955136211655
-5.94771145216691899
-6.09211544794776927
-6.09192964623937794
-6.15769078700014383
-6.24019704788207719
-6.3417889843648716
-6.45724171676911052
-6.45581621583114718
-6.51761074770317173
-6.59646793903806294
-6.69556039221468691
-6.82289147287595732
-6.80045242211350498
-6.85232507359962728
-6.91915505728585778
-7.0065824477032983
-7.13178675780324056
-7.12953474766301376
-7.16638059932831606
-7.21416134795182007
-7.2781229916381367
-7.36740948088801595
-7.44918245536328083
-7.46843368848447309
-7.49403121500489711
-7.52828167216768573
-7.5736231710369033
-7.76577757949375336
-7.76612476141882979
-7.76781036223543531
-7.77259944974652495
-7.78467312660207078
84.1137634538490317
62.2181540881003912
10.8424431855454486
22.6257877489199473
-1.36591488015335072
-1.52596865468671083
-1.6883791563079158
-0.368721465753013788
7.86428241796249949
-2.74237625838505927
-2.74479407046626456
-2.76242755682042107
-2.73799850961942282
-2.50753698707596229
-3.41481790407928099
-3.40698193431860918
-3.33841613350646682
-3.32876942262301823
-2.88675003989568424
-3.91590012503432749
-3.91529523515334699
-3.8494117641901231
-3.9534173465984459
-3.96740862755518631
-4.39146282972835156
-4.42399403517286416
-4.45516991689110586
-4.53988383528555062
-4.70904166837606297
-4.85759701014386813
-4.91584556195997191
-4.98812697280286788
-5.04096346532058437
-5.23076032059217777
-5.29075202721469928
-5.35211675758499439
-5.42072591756500088
-5.48706570298671359
-5.64945670395254051
-5.70147521950784952
-5.76558907081908778
-5.8398627246064283
-5.92937402646331257
-6.06421034237091927
-6.08932613771163389
-6.15447792340682831
-6.23507768594946299
-6.33379520454971168
-6.44495026412429262
-6.45537473083761615
-6.51692657704887601
-6.5946129196337111
-6.69056901335274645
-6.81294130547032761
-6.80161989892594843
-6.85379754261324159
-6.9206355363988008
-7.00753243593124431
-7.13208415032257914
-7.1315794196417297
-7.16911853285045453
-7.21780967004791751
-7.28334788752956541
-7.37523719830333402
-7.451334070301737
-7.47131735977138245
-7.49795074521817728
-7.53372161413552632
-7.58111041950873243
-7.76749212382346865
-7.76832713750154635
-7.77069896917221481
-7.7765954309713079
-7.7906794120740841
84.9530469104831809
58.2095335617082128
11.305462941208134
20.0405141456581077
-1.1352818474463362
-1.29118814277154925
-1.36746659318292618
-0.195051169952593639
7.41100854961155164
-2.73699768131384857
-2.69360458561078797
-2.66115219856588237
-2.65322916110240126
-2.77040874759464728
-3.39773882029381546
-3.40781041690201647
-3.35469172761467327
-3.32260119692311084
-2.82256210382487893
-3.89821889797859589
-3.91340379964854401
-3.86975078302313458
-3.93443952752712889
-3.82710945855561313
-4.37963950517914924
-4.40911092653744507
-4.42964155392507575
-4.50175531061684175
-4.57285579127544839
-4.84835742543672232
-4.90116199801658059
-4.96751472511649261
-5.02494007088268013
-5.19210180247424091
-5.28551572373924738
-5.34550030803883214
-5.41252470362695703
-5.47592340517209841
-5.6286013847195262
-5.69836646571912464
-5.76160823337992589
-5.83308692270039586
-5.91659837512951992
-6.04370047032090696
-6.08772975422983631
-6.15248096749436435
-6.23131317719728806
-6.3270584680899189
-6.43700045027231482
-6.45499697386010673
-6.51643515089461278
-6.59319901824046539
-6.68671960365414542
-6.80720290768442737
-6.80214050514011959
-6.85443461160815204
-6.92111989880233658
-7.00755497114357784
-7.13121342064455899
-7.13257274403773067
-7.17046573408502486
-7.21961647214595192
-7.28583294552404848
-7.37856633452166921
-7.45240792966604371
-7.47277212428373705
-7.49995790014731156
-7.53656792830870792
-7.58522366418245486
-7.76836919745314081
-7.76946820059361354
-7.77222385906069668
-7.77875428439012584
-7.79396373899330719
-0.0887257656705422448
-0.983527841883569565
-1.62418947206896247
-1.79336337903600507
-2.17886817739048766
-2.19435718317438866
-2.07401819128406295
-1.98587251638532525
-1.9413789154140515
-3.14450901862308507
-2.97581581342857637
-2.83315800373746907
-2.5980202576529452
-2.43268021077093355
-3.67696786682759713
-3.59685428431228837
-3.48321616897488706
-3.38826173541093123
-3.32908003677792586
-4.16382751964844644
-4.1798014780570858
-4.09192525516853234
-4.03659357783216333
-4.07042513906685954
-4.56949166098344417
-4.72230364218438492
-4.73860039557866486
-4.65737231742105884
-4.62882204920510087
-4.93848667698508059
-5.05381021173593936
-5.11981754775985376
-5.14822359957925713
-5.13800497303060677
-5.26917372483733537
-5.32764307653597502
-5.36906030142940516
-5.405514695838189
-5.44476986204332469
-5.61108285342359725
-5.6455149406881322
-5.67949838867968548
-5.71421209051443757
-5.74053093476144927
-5.96593075850408905
-5.99006829664822682
-6.01268443419161258
-6.03284626291861947
-6.03919818924818852
-6.31673004098426993
-6.33150068471235894
-6.34423207158153257
-6.35161497283119392
-6.34479490738570995
-6.65133421959189342
-6.65873355602892225
-6.66626041510159872
-6.67294983290643273
-6.67711300852293022
-6.67566329672210834
-6.66339146218807432
-7.01213714802306054
-7.0136660673354605
-7.01465887843377356
-7.01457873035027646
-7.01235533599538563
-7.00608389822497379
-6.99316536828895163
-7.37225958266074421
-7.36852688757620111
-7.36410155541423261
-7.3587612490521801
-7.35210640341571064
-7.34347128174819375
-7.33206434700128984
-7.73357567894180242
-7.72494988225106294
-7.71567341412446783
-7.70600625795978633
-7.69625664254436259
-7.68676618329373085
-7.67794235109620082
-0.324283033555959221
-0.83831428139699371
-1.85859830134703286
-1.91023153426550873
-2.5898163625693682
-2.46125345976075938
-2.40156564653740023
-2.38491951934700408
-2.53917430977861258
-3.28983389497727341
-3.18753586537868561
-3.05541556054732899
-2.92705978109750076
-3.01826069618084381
-3.80324629556751104
-3.85248355647251373
-3.72824984341657473
-3.59095678194011203
-3.68667755435344979
-4.2370645797655504
-4.40846519941726989
-4.40633894655514169
-4.23103722821981165
-4.27082504218154746
-4.58285269243479565
-4.74872795765036582
-4.86833346395181987
-4.78097552612469645
-4.74840774800648369
-4.89758350853567759
-4.98676916011671434
-5.05992670213843976
-5.10753127696891163
-5.16617376670440542
-5.25440851048453172
-5.30671277482175974
-5.35785678532368426
-5.41395820032227526
-5.49345728860864568
-5.61142203104576254
-5.6483305716088763
-5.68956869824389777
-5.7383334946467679
-5.79137263752239662
-5.96971971742248808
-5.99640950141846751
-6.0247640789055481
-6.05438067645895739
-6.07636179403346421
-6.32161255909646691
-6.33846934651658955
-6.35495123194334077
-6.36804920871656499
-6.3692721156015244
-6.65397295064780714
-6.66210151088766445
-6.67063571504963626
-6.67884713811845643
-6.68528584110507662
-6.68706517630581487
-6.67859562647446747
-7.01406465139216628
-7.01621967876238628
-7.01806376635961016
-7.01905629727596381
-7.01816065047550897
-7.01349608664558133
-7.00214603153624449
-7.37361327502302366
-7.37026149460568636
-7.36630432037960148
-7.36152193434504554
-7.35549985921955063
-7.34752035483264443
-7.33668172187903078
-7.73442621527511953
-7.72595449439989146
-7.7168255708813005
-7.7072773605398357
-7.69760645649419306
-7.68816986502507405
-7.67940369308029247
-0.160126049610811894
-0.463180786775223563
-1.8099097165060507
-1.87879968075560599
-2.3287161526923299
-2.43784283105656607
-2.50754471248083188
-2.53381584599345233
-2.69549790774388942
-3.24078147100286351
-3.2126758303349332
-3.18236468287683527
-3.12469097222867198
-3.29421110483117197
-3.76577097809979033
-3.82775881446987309
-3.82250926045837325
-3.75722528908539033
-3.89811217642623653
-4.14281042162975055
-4.25625603136850206
-4.33686853882689949
-4.32785008714843134
-4.4073481932640961
-4.49217609916074778
-4.57636021490606559
-4.67493908151952464
-4.72027002279284957
-4.80532140888604253
-4.87113954649541547
-4.93568037405135573
-5.00481161065138913
-5.07926967111241101
-5.21777416649803261
-5.24925071336574334
-5.3018393371708914
-5.36508513102083917
-5.44957768535840081
-5.5896346463832165
-5.61852320517072723
-5.66139074055248859
-5.71487031764849007
-5.7864756268103319
-5.88595702346591221
-5.98014893050224394
-6.01244759088353398
-6.05056788897062958
-6.0974459197267441
-6.1500230521848458
-6.33203014181040036
-6.35343412256050932
-6.37673862765030552
-6.4005506042018192
-6.41780381722486748
-6.65882963358416546
-6.66859278015967671
-6.67942768388793251
-6.69087221181708358
-6.70178382424516617
-6.70967283259555725
-6.70879559219651256
-7.0178776540101353
-7.0212465918104412
-7.02470585565726413
-7.02779553397504841
-7.02954547993197654
-7.02805151445383558
-7.01989316476450131
-7.37626939362086098
-7.37366417783373151
-7.37063591486187875
-7.36697728644797412
-7.36225097953123431
-7.35562878885228155
-7.34584266087719406
-7.73597155616876186
-7.72780835833759649
-7.71899603376740373
-7.70974908709643092
-7.70033638788682584
-7.69107527857606943
-7.68232692582110044
0.0332147795531732015
-0.059285951244598678
-1.66011432148498672
-1.74443856925342855
-2.2795906280651721
-2.44954656202877441
-2.47496998878327812
-2.48036660889244098
-2.6044855542198313
-3.25840311240444302
-3.21766035167194664
-3.20002767582213909
-3.16060397189543396
-3.32082243292405943
-3.81035125006574571
-3.82698865087015916
-3.86319499932837385
-3.87039285704765357
-3.98230847464217153
-4.17178214231111522
-4.2561622573758946
-4.36003079676413385
-4.44993092206153218
-4.50059270881985896
-4.5133224619307839
-4.58877267371697606
-4.67816041762732659
-4.74200685790230647
-4.86596173256322118
-4.87851863538903974
-4.94275804508461647
-5.01839447694676721
-5.10955177362713542
-5.29804268980594451
-5.25931829530459005
-5.31902883541565874
-5.39835489603772434
-5.51177372058333681
-5.70890866684898768
-5.63393090302411537
-5.68540875786558875
-5.75429806446380265
-5.85317279866061035
-6.01160227084571552
-5.99631375273350642
-6.03667623381807328
-6.08764160298341661
-6.15686039902705851
-6.25837339602638032
-6.34706713493114449
-6.37501322484091748
-6.40814087383145559
-6.44791117315748696
-6.49257571380737453
-6.66567280201143753
-6.67778589406839096
-6.69194704272050434
-6.70811763213504086
-6.72567935481620882
-6.74302291329226922
-6.75533443926402022
-7.02327158893295245
-7.02837940733201627
-7.03416429828268797
-7.04034293371494524
-7.04611765636521792
-7.04971954000864898
-7.04747100430693063
-7.38007548985439055
-7.37855328287655698
-7.37688430804465956
-7.374903551830994
-7.37217981722741378
-7.36778634705037927
-7.36004614489154108
-7.73818870039968587
-7.73048899070570084
-7.72216360278000202
-7.71340125959118783
-7.70442996227922983
-7.69550502968413586
-7.68690100821586864
0.566407037625606069
0.888593505656301019
-1.50091871272514865
-1.46101835814341641
-2.11795639336673158
-2.34496489079360781
-2.35654910829523567
-2.34783182491171072
-2.29041726539449186
-3.14745797176633424
-3.1291989881433393
-3.1124545324634143
-3.10577665259826485
-3.22072420189687536
-3.76225325229163854
-3.77859327037992765
-3.86615784422187492
-3.90430355413773444
-4.06311340528497666
-4.16893881956830192
-4.26901682955613015
-4.41288766579231329
-4.50498971572906282
-4.60127349261780516
-4.52610454761941838
-4.62675463843145351
-4.73563950990794869
-4.80362789581366378
-4.9309823207026362
-4.89461968044718354
-4.97306910201942021
-5.06397320754775215
-5.16202108481559385
-5.35014979458944673
-5.2784704751281053
-5.34791390178926029
-5.44063590124362761
-5.57014058552131086
-5.79402405761370609
-5.65462274038293433
-5.71547250378101968
-5.7985912591255282
-5.92032260235661845
-6.127249742404695
-6.01630835485849769
-6.0658770427028772
-6.13144518456023935
-6.22493317402942559
-6.3793284010103033
-6.36540114811781521
-6.40104420412619923
-6.44568134563294493
-6.50429172475238282
-6.58812977675050426
-6.67407186160983468
-6.68906256830731216
-6.70727240619402387
-6.72924329042583302
-6.75515747471192451
-6.78488391379343803
-6.81673346692194038
-7.02992406059643482
-7.03717293263641963
-7.04583645293211269
-7.05590386574338968
-7.06691633205586633
-7.07756101223962553
-7.08452363049553924
-7.38479978765807044
-7.38463644560664356
-7.38468825825933628
-7.3848749032919212
-7.3848359198222866
-7.38364567396408056
-7.37937960639963642
-7.74096723543089027
-7.73387053359839882
-7.72619352277250293
-7.71809774901620216
-7.70977345119730639
-7.70141928923739894
-7.69324424521724559
1.61451385614967169
3.05795104586952959
-1.47351636345087611
-1.18558058485749207
-1.93771086314765828
-2.29780202965854308
-2.29994878456995178
-2.30376394522995032
-1.69757439963503032
-3.03568246543559184
-3.06324321959765555
-3.03446138332127546
-3.03903012727958233
-2.8961642336782063
-3.6725572920763252
-3.69371367527896144
-3.78408900240014123
-3.89049538475176071
-4.06096003988992393
-4.12724160313975208
-4.23048522276359762
-4.3884218107112769
-4.48870705464783448
-4.65281335126010198
-4.52348909953384659
-4.6380003453369163
-4.75312747654527978
-4.81222614142231198
-4.93385178773964395
-4.91049826446740312
-4.99531956934253607
-5.09025644642862396
-5.18793723360459857
-5.35208544979785028
-5.29843818491018492
-5.373883178354534
-5.47382753847261316
-5.60943552979161186
-5.83173145202465903
-5.67593138474440373
-5.74416674778183634
-5.83758484936673039
-5.97145349933843939
-6.19704686849684716
-6.03742027189342956
-6.09542380967415998
-6.17426483240000223
-6.28646187997736661
-6.47536861133292785
-6.38515804144207877
-6.42867076511909907
-6.48547593079672424
-6.56399944838698701
-6.68854251291707946
-6.68346818147423605
-6.70155743946006233
-6.7241124262650942
-6.75237078875085928
-6.78754829842469487
-6.8314763772128142
-6.88723750936514367
-7.03739487922682549
-7.04702230146790942
-7.05889158098264868
-7.07335561494515552
-7.09046839061271061
-7.10972856698141076
-7.12937237669868118
-7.39015709724274839
-7.39154165925694961
-7.39356872510883978
-7.39628984754806851
-7.39949835313179793
-7.40243326946865476
-7.40324617946245844
-7.74416156676115808
-7.73778577620341768
-7.73089542416874664
-7.7236326913544886
-7.71616587836019185
-7.70866582540399126
-7.70134066712050824
4.00839281955633009
8.117988046136702
-1.72620469590732561
-1.46441270903477516
-1.9919423466018733
-2.24731378170817431
-2.29449659395630023
-2.44507185115348058
-2.07117803245940024
-2.96783902402861521
-2.96958013116876574
-2.93975352092019593
-3.04517396168109489
-2.74752930999975575
-3.57569536845945457
-3.61203338247679628
-3.67639262870938044
-3.8270700591430078
-4.157822889251654
-4.08770182098707746
-4.17573410560652292
-4.28417380487571897
-4.42573875445345077
-4.68659105749991056
-4.52375458852799905
-4.62426230999894017
-4.71826251082465919
-4.79448394339030948
-4.95342035840134898
-4.92468382950613037
-5.0044584675958852
-5.09110573123931331
-5.18461858658948227
-5.33721846043805304
-5.31541917841159428
-5.39092076894816863
-5.49133371575976703
-5.6290203454717771
-5.86341199159465098
-5.69494769207744156
-5.76704773335006049
-5.86665063239645246
-6.00768646257717265
-6.23356153886128084
-6.05718437371489404
-6.12113894792621416
-6.20889968507444845
-6.33131377698645714
-6.53065266264960531
-6.40439282042904523
-6.4547844447756475
-6.5223566799891346
-6.61628797596556595
-6.76674716659044417
-6.69317319298956814
-6.71430282119190291
-6.74105172243002659
-6.77536278224974442
-6.81950650439115069
-6.87720048813430829
-6.95705732034889301
-7.04517288088116445
-7.05723817383111118
-7.07237319501797757
-7.09133698215024477
-7.11476404846364296
-7.14299702574496731
-7.17630354738033738
-7.39581703982690719
-7.39884128526916207
-7.40296629936679995
-7.4084097115061871
-7.4151902723248746
-7.42285556444234818
-7.42995948516864946
-7.7476028929237355
-7.74203387353598504
-7.73603283060692171
-7.7297344111299493
-7.72330505853276073
-7.71692889240024105
-7.71093472546141978
10.6641954773076897
13.102561659424282
-1.44811757858144219
-0.0949548936987412162
-2.32216973501164503
-2.30796481069598602
-2.26038567177307659
-2.31459347560566542
-0.976535593038079242
-3.01941138157484268
-2.96445922238414639
-2.95155460331821828
-3.11450336728735255
-3.03518589503106995
-3.56170873477002736
-3.59901172919806278
-3.6992653829280675
-3.86130571370921594
-3.91600743049511557
-4.08707878988627193
-4.14088931134040994
-4.22676102035426737
-4.39736656048817398
-4.93196721549470229
-4.52461931497891001
-4.59879806752287479
-4.69572154238617134
-4.7977748494522503
-5.08828524748336264
-4.9331795623891006
-5.00454928147983757
-5.08718932892030296
-5.16927661230207391
-5.37259775946372997
-5.32931976958921716
-5.4009201555574311
-5.49582566141528694
-5.6229155767462915
-5.86305046963801324
-5.71038292231926725
-5.78295733469957796
-5.88347311528383088
-6.02372424891741343
-6.24330521635375035
-6.07399514295326881
-6.14099650577037526
-6.23280466721205784
-6.35883653247660874
-6.55416081998301614
-6.42151352761121963
-6.47690569768463664
-6.55188093793099124
-6.65537417234239115
-6.81672809915546818
-6.70247077203062513
-6.72636290332463194
-6.75678723533351722
-6.79630378261355972
-6.84802232234691566
-6.91726434885460684
-7.01710435591877602
-7.05274383343086164
-7.06713875779460299
-7.08535673598512261
-7.1085312183150533
-7.13784249285272931
-7.17441984281646583
-7.22018631885532525
-7.40144373848002868
-7.40610325168593064
-7.41231447846987468
-7.42047261936880709
-7.43085541065283817
-7.4434058205583753
-7.45712352306364412
-7.75111952251577829
-7.74640317330877881
-7.74134916456252231
-7.73609621814118942
-7.73082779948651044
-7.7257867490042953
-7.72155367799133874
24.0324093522086208
32.4808578639868273
16.927695057259168
25.603617622560936
7.64286039959378272
12.2714657532571181
20.8359485931750399
2.70384815543208035
4.64741065409024401
9.15923884603643046
17.5351347938779867
27.2509728811491101
36.1113896151242315
19.0505665808164437
28.3024634613729589
7.98137577526728492
13.40966561639652
22.4346075138490377
2.8177956847883987
4.7897501185198994
9.6715273780794746
18.083647865233381
33.5506100910662326
40.3219464760700532
23.3248151174099334
30.6086697292907814
10.6946886036554787
16.2018449516728111
23.5369272308901287
3.8702578741828475
6.32954670872028302
11.2608286611972765
18.5029390680858938
38.277724883039582
36.6661348269958012
23.6670004841208197
25.2668571845048291
11.6246728606077738
14.3849040205069514
17.1522354696794537
5.18671652971172747
6.11884821630170705
8.97073845389076041
11.6129259315966351
27.5398458106250246
13.4788915182614346
12.8444395754029301
8.05564723345150924
8.40369426655911411
4.48086063095212239
6.70204763144295157
6.38428201155070241
1.236201264553074
2.0223311816447449
5.70303322240584976
-3.09760045527815464
-5.78296371097847484
-5.71325588683288288
-4.22304683785642965
-0.359291623859917308
-4.76706452452293661
-3.52158650945639451
-1.20644369074511815
-3.42255683599660188
-8.0540528670690037
-2.69760268937878323
-2.42883184674972652
-2.87896118900497155
-2.18843919738324555
-2.89183961615995422
-5.18776880399485663
-1.92237249811146427
-2.96986118316968373
9.96426705893350118
-2.65391062031341107
-2.54644274209864108
-3.09855767379766966
-4.19252564691027363
-3.99471674028780521
-4.09248280179524127
-3.74032973213487541
-3.83287525924665307
-3.95586985728154517
-3.55734921718161656
-5.78629138608377502
-3.95025469080411273
-3.73279232916404746
-3.42410706904693019
-0.32717362918041637
1.41253373534604343
5.35376795526632954
12.6751479597019792
-1.54702323802139929
-0.351504145178381577
2.43521132280203112
8.12089036018439359
-1.95497761027129791
-1.56387053854645863
0.724678362507287233
6.0202724988488967
-2.60663003750387112
-2.67736064463362666
-1.1036394053381855
2.82216157146267932
-3.44538676589619453
-3.49165522344526025
-2.43084242235894799
-0.338030369027341848
-4.18710153455825562
-4.12619289820730462
-3.39817949269834685
-2.45531686722373621
-4.70572954858140147
-4.63607605134685219
-4.16914785223139717
-3.6436888790205435
-5.13649705608104234
-5.04406888277836263
-4.71299264594825473
-4.33995952558928977
-5.4503759429009806
-5.34634184798659984
-5.10169595187373659
-4.84856173063119122
-5.72097152309063972
-5.62041617534127091
-5.4477048768039511
-5.28715578630606586
-6.00597755518600884
-5.92303610289021254
-5.80611865746360234
-5.70495310609312156
-6.31167750573233022
-6.25233992075191125
-6.17740703305626759
-6.11280792942523732
-6.63612575698224649
-6.59659799332618046
-6.55031015858709331
-6.51007685254650958