/*--------------------------------*- C++ -*----------------------------------*\
| =========                 |                                                 |
| \\      /  F ield         | OpenFOAM: The Open Source CFD Toolbox           |
|  \\    /   O peration     | Version:  2206                                  |
|   \\  /    A nd           | Website:  www.openfoam.com                      |
|    \\/     M anipulation  |                                                 |
\*---------------------------------------------------------------------------*/
FoamFile
{
    version     2.0;
    format      ascii;
    arch        "LSB;label=32;scalar=64";
    class       surfaceScalarField;
    location    "0.209999999999999992";
    object      alphaPhi0.water;
}
// * * * * * * * * * * * * * * * * * * * * * * * * * * * * * * * * * * * * * //

dimensions      [0 3 -1 0 0 0 0];

oriented        oriented;

internalField   nonuniform List<scalar> 
20789
(
1.80006335379885434e-05
-1.80961158250849027e-05
-5.74466859047322208e-06
5.84015094707617414e-06
4.01126778475492817e-05
-2.22187858086823045e-05
-6.31700826032295051e-06
6.42374983557158254e-06
6.21644249637945379e-05
-2.21681624215617469e-05
-7.12816774533048853e-06
7.24458315742028997e-06
8.43817958345256439e-05
-2.23505914820617251e-05
-8.47643181377032644e-06
8.6096525753703418e-06
0.000106787055848721893
-2.25613191957516339e-05
-1.04467572111257492e-05
1.06028165766542063e-05
0.000130027244884618829
-2.34340075884774263e-05
-1.32417045232260462e-05
1.34355232987440244e-05
0.00015447095906902399
-2.46638437734533705e-05
-1.71215116929814545e-05
1.73416415555264557e-05
0.000180104379570447334
-2.598957072699235e-05
-2.25792110447014513e-05
2.29353616166335657e-05
0.000206540092203051141
-2.67527499507713419e-05
-2.98652570243490489e-05
3.0182294783217015e-05
0.000233291877187544172
-2.76914544683827229e-05
-4.05634527140870071e-05
4.15031227115262758e-05
0.000259384552356278374
-2.6638524097744124e-05
-5.46048852488766794e-05
5.51507345649863851e-05
0.000280545058373183936
-2.45751044549119756e-05
-7.58787824617928491e-05
7.92651204942506797e-05
0.000297616151452584907
-1.98208980949949176e-05
-0.000103782230669524595
0.000106497785300084001
0.00029227127548323706
-1.59200663039538536e-05
-0.000149721174967746114
0.000170884331522094552
0.000240056763367842157
1.60695586451924625e-06
-0.000197256982545446002
0.000231665450236800193
3.58624038770434658e-05
-0.000302435560909315563
0.00048661528200357677
1.85555697339208223e-05
-3.67524931964877829e-05
-5.74754331055277562e-06
5.84835102350566309e-06
3.98457999551235615e-05
-4.36175682908279897e-05
-6.24465947856992387e-06
6.35321184249663657e-06
6.05630804359415066e-05
-4.30032308370922742e-05
-7.04335988918425493e-06
7.1611479677993763e-06
8.14468678197356207e-05
-4.3367652465140835e-05
-8.36020580343162004e-06
8.49347957735576485e-06
0.000103300759860876522
-4.45714049448433407e-05
-1.03022881965154826e-05
1.04584821136715783e-05
0.000126214006625991159
-4.65342483180545939e-05
-1.30492984257857902e-05
1.32362926277247894e-05
0.00015021411099582952
-4.88966621316044695e-05
-1.68744905896738363e-05
1.71072048608439198e-05
0.000175396490314806821
-5.14711135826694766e-05
-2.21650821650870498e-05
2.24642460919194598e-05
0.00020140186469115416
-5.3188486836038374e-05
-2.94924041114215565e-05
2.99227671179925812e-05
0.000227811618150416614
-5.47453504566577923e-05
-3.97243734248201876e-05
4.03685163388910063e-05
0.000253897095729132519
-5.38777734759487352e-05
-5.39699567462514692e-05
5.51237283246779189e-05
0.000276730030192522624
-4.97327683733435392e-05
-7.45307429347690631e-05
7.67960247249184166e-05
0.000295336483694881992
-4.31124434924981678e-05
-0.000103704737439371011
0.000108331237700094285
0.000298262378920595731
-3.48025798661237828e-05
-0.000148158601254540608
0.000163874882196382864
0.000260238253368653678
-1.16981469783921837e-05
-0.00020474615220238761
0.000245898125434067466
0.000100044358855058265
-0.0003337648187263208
0.000508013928506138271
1.90479828397343645e-05
-5.59062057914974121e-05
-5.70484923082106468e-06
5.81057932140288927e-06
3.96163879911928186e-05
-6.42979658493263102e-05
-6.21169474789175615e-06
6.32368784756890605e-06
6.02068385247291028e-05
-6.37147022899365797e-05
-6.99860373980106649e-06
7.11962544115479342e-06
8.11321181031141703e-05
-6.44290958970211616e-05
-8.29084086754169494e-06
8.42700560967709132e-06
0.000102952726968234321
-6.65510632003049954e-05
-1.0199793420498725e-05
1.03588438809873225e-05
0.000125859008866183018
-6.96299528204286159e-05
-1.28996495798162209e-05
1.30890733969355422e-05
0.000149918727230007167
-7.31868705812958826e-05
-1.66551322614146896e-05
1.68856238086525285e-05
0.000175193254273677392
-7.70428470568660945e-05
-2.18469775562594383e-05
2.21441859367437241e-05
0.000201413527872003789
-7.9812339608057619e-05
-2.90340834141949037e-05
2.94376646395563833e-05
0.000228289004747249234
-8.22542042200373268e-05
-3.90507237875260281e-05
3.9684100334952479e-05
0.000254738545543752005
-8.13907095987292549e-05
-5.30001573985489614e-05
5.40635454387280857e-05
0.000278175965429657034
-7.54851582805750613e-05
-7.32492821666448971e-05
7.53916001193374131e-05
0.000297707417281160716
-6.72707164400528166e-05
-0.000101495662945898688
0.000105953189457706922
0.000299811284838362566
-5.26982460708088124e-05
-0.00014561883388406049
0.000160745399154967169
0.000253986526819202348
-1.6952641322180301e-05
-0.000201561672236139154
0.000242205149992038432
0.000157842451723883774
-0.000331031602069507607
0.000494460830157595504
1.92833393384207745e-05
-7.53011567578893055e-05
-5.63865191952086902e-06
5.75026648668584131e-06
3.93173357905016155e-05
-8.44475506524650722e-05
-6.14278083231332575e-06
6.25837477332128124e-06
5.96848161318708312e-05
-8.42064150174065762e-05
-6.91241089114841277e-06
7.03664955105458912e-06
8.05310454369244784e-05
-8.54140454996001329e-05
-8.17202036225945786e-06
8.31074786189199746e-06
0.000102267208914217226
-8.84491920123692e-05
-1.00329326401211544e-05
1.01949068598737119e-05
0.000125114317428463948
-9.26676037352714376e-05
-1.2664794195117041e-05
1.28553475710581245e-05
0.000149191152913798799
-9.7491085172256894e-05
-1.63196346548688916e-05
1.65470276017166879e-05
0.000174557116507142383
-0.000102693215903681612
-2.13714708275278231e-05
2.16558945625342864e-05
0.000201036112420920369
-0.000106666388399661728
-2.83541486855527919e-05
2.87292225719439165e-05
0.000228508702277184473
-0.000110314939379915801
-3.80754390695000204e-05
3.86635926711335505e-05
0.000255551383688725777
-0.000109395722106570616
-5.16314491742014895e-05
5.25937461383528066e-05
0.000280072178384166242
-0.000102256128681152259
-7.13168235870436084e-05
7.33728705887620253e-05
0.000300670849913040451
-9.25006087365170436e-05
-9.84452142053463691e-05
0.000102713118951298116
0.000303676277493302978
-7.14777104421817483e-05
-0.000141146639233736101
0.000156168858979070937
0.000253984978933142352
-1.62382097250263802e-05
-0.0001969078962645145
0.000237139838296263983
0.000218004401708436529
-0.000320430630330976779
0.000478398940564800737
1.93083071068567455e-05
-9.47290410230264274e-05
-5.54962299626660126e-06
5.66921940046655584e-06
3.89579507469441718e-05
-0.000104217140293976884
-6.04270709998202988e-06
6.16268585983536501e-06
5.90628619420470384e-05
-0.000104438862052747415
-6.79003709652749749e-06
6.91760980122337607e-06
7.9766904842495603e-05
-0.00010625911224049179
-8.00935043657707266e-06
8.15041731053421207e-06
0.000101382663694484068
-0.000110230771757950237
-9.8084198076476409e-06
9.97429449732059117e-06
0.000124142801029510265
-0.000115619750131722287
-1.23524802440320956e-05
1.25445590904913653e-05
0.000148217739294877752
-0.000121789439530631694
-1.58780478896762193e-05
1.61015540990297755e-05
0.000173702679188234515
-0.000128441785050231825
-2.07514032699854406e-05
2.10151532106474409e-05
0.00020053260578469458
-0.000133834695314541451
-2.74681032686462879e-05
2.7806631118730828e-05
0.000228703334601538502
-0.000138995365841703523
-3.68204791441442385e-05
3.73302937639888324e-05
0.000256555591353813247
-0.000138094712256890169
-4.98804422419958486e-05
5.0727133692142979e-05
0.000282642652868927101
-0.000130479954573223413
-6.8746462679052293e-05
7.06845129935015763e-05
0.000304797893812395234
-0.000119337645065769883
-9.46376463288747745e-05
9.86577539619517375e-05
0.000307475860649583101
-9.09674307297738815e-05
-0.000135660953505506308
0.000150350937329295285
0.000251094308853477832
-1.13760177150844441e-05
-0.000192647778267319406
0.000231704170763923241
0.000282816836987135169
-0.000314547545825459953
0.000465450264699560242
1.92017287753718451e-05
-0.000114061760039618472
-5.43844631851539412e-06
5.56953286391980503e-06
3.85164391365272262e-05
-0.000123657427539128367
-5.91424092886264236e-06
6.03996782438380243e-06
5.83270471790078173e-05
-0.000124380015063532614
-6.63451262482734855e-06
6.7652262810199925e-06
7.88284231894723276e-05
-0.000126903650086088518
-7.80564467390014024e-06
7.94900613972610202e-06
0.000100278349261747471
-0.000131852988829781685
-9.52991468155337532e-06
9.70245709965693777e-06
0.000122914809183749502
-0.000138452016170330979
-1.1968112884445328e-05
1.21642515916766531e-05
0.000146959328868777344
-0.000146052853761697573
-1.53396806834139952e-05
1.55590176749951968e-05
0.000172573415079500152
-0.000154291085818337195
-1.99967049910734093e-05
2.02325085355360744e-05
0.000199803738186561951
-0.000161350602982009747
-2.63967140603327906e-05
2.66830481295520052e-05
0.000228760997378103635
-0.000168344056269905632
-3.53105707677694726e-05
3.57027676114938974e-05
0.000257717606158987993
-0.000167766581837089379
-4.7759087922791614e-05
4.8474728894154361e-05
0.000285888402744796969
-0.000160660412002176594
-6.56201103988109953e-05
6.73739167974886951e-05
0.000309565258224564434
-0.000147834883351427359
-9.01449552236118754e-05
9.38214082104832196e-05
0.000311683443312072588
-0.000109978296066690569
-0.000129540926026576637
0.000143301506412280141
0.000246508078426459058
-2.00971151896261236e-06
-0.000186734406318002198
0.000224306568888856341
0.000349443349573616156
-0.000306843091770388817
0.000451939655573691142
1.90009847395684943e-05
-0.000133209802321145846
-5.30653562221660218e-06
5.45398611425402267e-06
3.79830143944695492e-05
-0.000142772283881094299
-5.75992416978929369e-06
5.89332201698295569e-06
5.74677487558555121e-05
-0.000143996752853276297
-6.44923667478277519e-06
6.58187990936563988e-06
7.77094329694607238e-05
-0.000147290901570730867
-7.56424763394471515e-06
7.71058026427419548e-06
9.89422890262420154e-05
-0.000153269889674997152
-9.20179263855616047e-06
9.38680426522059382e-06
0.000121409202374166608
-0.000161122516491595295
-1.15190490788505597e-05
1.17239180111909897e-05
0.000145385869092946797
-0.000170242176499307222
-1.47153291127532318e-05
1.49297236656940268e-05
0.000171113503124379967
-0.000180215094898443468
-1.91220101241884182e-05
1.93207223393184202e-05
0.000198778138169826424
-0.000189218398823559142
-2.51623726092689371e-05
2.53685512631170756e-05
0.000228609412378135362
-0.000198403232096507504
-3.35710002346202872e-05
3.3802396551236678e-05
0.000258990477599352711
-0.000198714746456993719
-4.52975005593747558e-05
4.58676472714146551e-05
0.000289887990753071826
-0.00019334431789415601
-6.20053583463946043e-05
6.35001799657327443e-05
0.000314587884213155509
-0.00017906655941630852
-8.50527475026138823e-05
8.80948752484544289e-05
0.000316137066789008757
-0.000126362483352004615
-0.000123032202689329808
0.000134975662360531157
0.000237882974369410565
1.27285140546112094e-05
-0.000178076073941868003
0.000213468185375452263
0.000412880731074476257
-0.000295354056635475882
0.000432545757393272231
1.87229415881573698e-05
-0.000152100642648264855
-5.1559801902489148e-06
5.32524608238356229e-06
3.73499335498797251e-05
-0.000161540515914428042
-5.58247734044905016e-06
5.72559863465800801e-06
5.64692303051352032e-05
-0.000163244796307619342
-6.23855526872928332e-06
6.3693962580926088e-06
7.63973162936021566e-05
-0.000167367655189086333
-7.28924539184230696e-06
7.44043974598184546e-06
9.73600239499973567e-05
-0.000174435715801365412
-8.8297112311077012e-06
9.03601914112055762e-06
0.000119603117784719613
-0.000183579655878263578
-1.1015069090339939e-05
1.12333278365058627e-05
0.000143460058594657377
-0.000194299733029378372
-1.40180993820184248e-05
1.42243806840995996e-05
0.000169265657803203875
-0.000206161719537394138
-1.8145591467601174e-05
1.82943656003271947e-05
0.000197349952600464585
-0.000217375039990866912
-2.37907733435666486e-05
2.38732998055891883e-05
0.000228047852215263928
-0.000229114433799598933
-3.16471785900916393e-05
3.16731096164908583e-05
0.000260186865105311042
-0.000231223258558307568
-4.25493258696475524e-05
4.29324269953630804e-05
0.0002949836688013579
-0.000229200635394617605
-5.79403527405785245e-05
5.90447168733365909e-05
0.000322860375994986077
-0.00021347787060856712
-7.89184244153826048e-05
8.13162806986266878e-05
0.00031607312481178357
-0.000139136596776259666
-0.000115457665712392156
0.000125045028188350206
0.000225005812198422197
3.33235381884828397e-05
-0.000164728708244244745
0.000204403103464907433
0.000467915462844757538
-0.000285225381517787639
0.00041273540245900808
1.83644751596781162e-05
-0.00017065604751876674
-4.98991926466041112e-06
5.18503257392361215e-06
3.66019383705376832e-05
-0.000179926300681482925
-5.38477232954553876e-06
5.53860200119169008e-06
5.53114468946885721e-05
-0.000182067301494895595
-6.00859122112651006e-06
6.12767077025871548e-06
7.48796503281959027e-05
-0.00018708683377018407
-6.98589351771805904e-06
7.14425864079826782e-06
9.55200493013398053e-05
-0.00019530319970837028
-8.42180330330235371e-06
8.65817855358210051e-06
0.000117475442205828144
-0.000205755960123989059
-1.04690028294603608e-05
1.07021297929423429e-05
0.00014114723769098153
-0.000218148778565212693
-1.32638288704943571e-05
1.34573614582137342e-05
0.000166962337896429253
-0.000232036779940906834
-1.70897623647583974e-05
1.71712486237764996e-05
0.000195364311484031962
-0.000245645051624188441
-2.23200611507725185e-05
2.22174282127584354e-05
0.000226846739301851159
-0.000260323635932683704
-2.96087679029451956e-05
2.93733704208354215e-05
0.00026118971245823238
-0.000265641919102033305
-3.9567091293209621e-05
3.96894691552234584e-05
0.000300984172651171751
-0.000269596005273870681
-5.33368004009242286e-05
5.39618631516124817e-05
0.000334473798504454352
-0.00025044211812579937
-7.17835312225999938e-05
7.36046947447927235e-05
0.00032085734054856734
-0.000149910524872490583
-0.000106651934916785935
0.000114097207313213704
0.000218583171773304
5.93921820974959192e-05
-0.000161224053582984688
0.000195391580635624054
0.000515527060846290028
-0.000282625940726179462
0.000403006346135111916
1.79094589616948422e-05
-0.000188774040625861648
-4.81347848545874832e-06
5.03352904890266997e-06
3.57185583718394465e-05
-0.000197882162115214374
-5.16938136504035271e-06
5.33076612931331591e-06
5.39770299211120647e-05
-0.000200393769513903543
-5.76824740409425497e-06
5.85224023571530662e-06
7.31526657334478003e-05
-0.000206408441968481554
-6.66055268642343846e-06
6.82607108497776771e-06
9.3417193586132371e-05
-0.000215812965587745923
-7.98940936606688553e-06
8.25903724406823532e-06
0.000115008842638458759
-0.000227562584805648379
-9.89634243673971536e-06
1.01431785168301848e-05
0.000138411235144594836
-0.000241689181362818761
-1.24718913180676873e-05
1.26521020680361622e-05
0.000164116095781468869
-0.000257676025270508373
-1.59846917106239239e-05
1.59744020569027818e-05
0.000192595294333689442
-0.000273677863922844994
-2.08115429735569458e-05
2.04359891142765543e-05
0.000224685109702766126
-0.000291748046829795995
-2.75242602124310527e-05
2.69581603447142536e-05
0.000261511492268753562
-0.000302173681783600965
-3.63583624592489144e-05
3.61948296294776174e-05
0.000306486315472268445
-0.000314700402023135274
-4.80912346670797313e-05
4.82821543358686459e-05
0.000342209604060808212
-0.000286601904639157627
-6.41101432665928245e-05
6.48313342395881041e-05
0.00032102955639445684
-0.000157558291058875675
-9.6968307751856941e-05
0.000102025895416499586
0.00021619386695808038
8.08390282403854835e-05
-0.000153492788040321881
0.000179643687319900079
0.000552521619090350536
-0.000278433070770931564
0.000387989046533383634
1.73486852824117599e-05
-0.000206327319245954289
-4.63371291362562863e-06
4.86731561708798743e-06
3.46900847978912378e-05
-0.000215345131253751011
-4.93620269184631803e-06
5.09350217269795373e-06
5.24664925608687763e-05
-0.000218136174829728751
-5.52811972750010916e-06
5.5327888334458174e-06
7.1229516225910792e-05
-0.000225291333494956987
-6.31809344658231637e-06
6.48545896516650307e-06
9.10517848441960823e-05
-0.000235874164070184181
-7.54546294363077945e-06
7.84301984691721673e-06
0.000112182774597989406
-0.000248881842009398896
-9.31429621188362206e-06
9.57846138125381369e-06
0.000135200142710028751
-0.000264782871587879859
-1.16673027004619897e-05
1.18432150892856665e-05
0.000160579943718966927
-0.000282783257579181338
-1.48737215443608841e-05
1.47312253647685627e-05
0.000188739297404716166
-0.000300901919987969768
-1.93395207121014032e-05
1.85710088412354785e-05
0.000221143363534795969
-0.000322990677796241709
-2.54193526823453491e-05
2.44782402968001261e-05
0.000260191290235716214
-0.000340531426631326495
-3.29146614489970527e-05
3.25549647271043821e-05
0.000308738335196467666
-0.000362674097296059289
-4.24273261716778683e-05
4.22645230182109284e-05
0.000338179498848298257
-0.00032148446495079778
-5.65675351964813666e-05
5.5807176705686829e-05
0.000298916301693364717
-0.000161093331296342015
-8.61021028380087351e-05
9.068633915999217e-05
0.000175765432642530778
7.18072881004295794e-05
-0.000132322435811793918
0.000134132222591382334
0.000529875811665431228
-0.000254653531845565719
0.000354374433141262839
1.67044703370542916e-05
-0.000223184817890940572
-4.46697360164721197e-06
4.68777817357458708e-06
3.35396858131164664e-05
-0.00023223059333678711
-4.67361135914242419e-06
4.80516417387392086e-06
5.08113382012904849e-05
-0.00023517923324712896
-5.29605984840346724e-06
5.15445246742118374e-06
6.91390296070340722e-05
-0.000243670230395687205
-5.95704112399739917e-06
6.11558569717846269e-06
8.84187480791950452e-05
-0.000255339538944888056
-7.10298121581411868e-06
7.41932930040904432e-06
0.000108956869664902854
-0.000269554707872393
-8.74203565968497117e-06
9.04423920550103224e-06
0.000131421166865178685
-0.000287220626850374049
-1.08819745948922799e-05
1.10718124072332096e-05
0.000156122526931596034
-0.000306859848829517834
-1.38115309781030595e-05
1.34666771945871338e-05
0.000183419605602694633
-0.000326536359905680717
-1.79554181072440749e-05
1.66559721173677629e-05
0.000215581187114570401
-0.000353402073846403658
-2.32606989751777974e-05
2.19979382945710477e-05
0.000255442468380395163
-0.000379332432361717358
-2.92800094727682365e-05
2.89311740929679585e-05
0.000303116660674446117
-0.000408549770714540224
-3.66980794121876344e-05
3.6317515544835241e-05
0.000319528362591037403
-0.000338131643050804099
-4.8876295708831185e-05
4.79706948897489898e-05
0.000227697901247600541
-0.000143371936912832629
-7.45119366979291064e-05
7.50828005544714795e-05
0.000136528131873894445
6.06256809849919307e-05
-9.09618230178702166e-05
8.96811806071274768e-05
0.000571076876097117059
-0.000237364856566082115
0.000308082696922541374
1.60400749094482925e-05
-0.000239241820963507443
-4.33003163480428089e-06
4.49546391168269971e-06
3.23377508724077205e-05
-0.000248435109961435766
-4.35694631733058419e-06
4.43774264959098665e-06
4.90694980466735512e-05
-0.000251346714174931814
-5.0781776982551866e-06
4.69776329491175493e-06
6.69119885217063417e-05
-0.000261426757609457903
-5.56894683425301426e-06
5.71081803463877085e-06
8.5483249347832605e-05
-0.000273969599438765653
-6.68237833974778446e-06
7.01391599760571092e-06
0.000105250198700878326
-0.000289373647925850446
-8.19829700722417889e-06
8.59663395348006589e-06
0.000126920056482565598
-0.000308671635486328056
-1.01524340359381876e-05
1.03720954817526957e-05
0.000150454868498825354
-0.000329180290215753111
-1.2844485106180631e-05
1.21870823914601641e-05
0.000176224169823197685
-0.000349647059754345211
-1.66440337952294817e-05
1.47064044713114677e-05
0.00020702158738756843
-0.000381809927566957314
-2.09870582479955729e-05
1.96089629137118967e-05
0.000244862498034330018
-0.000415660004730071574
-2.55520443419581977e-05
2.54717598700697059e-05
0.000285271966548384542
-0.000445619122449724206
-3.11068917961893074e-05
3.06077372746495078e-05
0.000260158570188466238
-0.000349271949610103398
-4.04507210461624685e-05
3.9402877534720494e-05
0.000144640707121709085
-9.24496135717424e-05
-4.63995983307199993e-05
4.49082581197558729e-05
0.000116574393758796076
6.45215475599161109e-05
-6.83916547532586262e-05
7.04083340161689521e-05
0.000585064058511114947
-0.000208521127482571244
0.000266614639511009394
1.54541847774646149e-05
-0.000254434719722646386
-4.22720964016529528e-06
4.27391561049231201e-06
3.1193574626431193e-05
-0.000263826303418607559
-3.95947579684512356e-06
3.96397999843721993e-06
4.72934693570311218e-05
-0.000266323227963066289
-4.89204405090799755e-06
4.13684129882990131e-06
6.45553743082182582e-05
-0.000278379969915474852
-5.14560679192129326e-06
5.29482153652447082e-06
8.21381565871040877e-05
-0.000291366773578235962
-6.32141389118695694e-06
6.67316591078475667e-06
0.000100915796042258754
-0.000308099130570921417
-7.6842618895273555e-06
8.30864294060397247e-06
0.000121449352315865686
-0.000328584161205947337
-9.51613735312109152e-06
9.73422970017290109e-06
0.00014325680652277917
-0.000348833253222997745
-1.19763425390271824e-05
1.08612465538703171e-05
0.000166696268803497532
-0.000369189030572250208
-1.52975960333820697e-05
1.27323243101954092e-05
0.000194239217016547793
-0.000406333608833919411
-1.85222449041849307e-05
1.73818572987899534e-05
0.000226622760714037633
-0.000445521763808288691
-2.17733192258740873e-05
2.21423405703496952e-05
0.000255028696244545062
-0.000468373769605263208
-2.54744187001795761e-05
2.48380543678316496e-05
0.000177050360959763836
-0.000312845020563871533
-3.01554627685992572e-05
2.77209794499063783e-05
0.000100073546450961075
-5.68435072552635003e-05
-2.89480166775908791e-05
2.80998857702618051e-05
9.13254810397435581e-05
5.56716134907153849e-05
-5.22100194346885013e-05
5.37030365918029357e-05
0.000581270460156966943
-0.000188869637014326959
0.000224432231590981712
1.50613674685027213e-05
-0.000268740314357371899
-4.13573032971096247e-06
3.98924281167900388e-06
3.01998896434392291e-05
-0.000278167622648073788
-3.48353812802680564e-06
3.36851814069294767e-06
4.5486393936085627e-05
-0.000279642284614387753
-4.7412806852309528e-06
3.47747938285864886e-06
6.19989066721349518e-05
-0.000294259781192114038
-4.6919221364321441e-06
4.93641234468536968e-06
7.81643267654625132e-05
-0.000306907336311993968
-6.04806181559642875e-06
6.42953829517238531e-06
9.56991321144781774e-05
-0.000325424560779258363
-7.16710776227047663e-06
8.21481211692090185e-06
0.000114610316513627945
-0.000346019952631538847
-9.00210321876649726e-06
9.04711609232475888e-06
0.000134084720833545955
-0.000364759253096257909
-1.11261503859902597e-05
9.42510272308148246e-06
0.000154180814150959016
-0.000383978300446549084
-1.37398957581928385e-05
1.07716609816529281e-05
0.00017599713788058171
-0.000424385296145795654
-1.57941801624869509e-05
1.52883273823507989e-05
0.000199195210822059455
-0.000464465397951291934
-1.78337484236185069e-05
1.86644435440791535e-05
0.000202016689402890689
-0.000461419327513026161
-1.91997877889732567e-05
1.84963635222961414e-05
0.000101244674224267706
-0.000239365484963928834
-1.56941143971724354e-05
1.32246526610186922e-05
7.10322934296826042e-05
-3.12805705803340507e-05
-2.13798260315587427e-05
2.08143988545512046e-05
6.79088315308064652e-05
4.94977317532607658e-05
-3.57991883572952835e-05
3.57584493177708277e-05
0.000562306947866858943
-0.0001683260301576567
0.000193892084510335531
1.48821707875406641e-05
-3.96816696881823044e-06
3.59159400849623671e-06
-0.000282088857932981114
2.92314667488349708e-05
-2.98449650226209887e-06
2.66224790313697997e-06
-0.00029092831836317098
4.34581576381351534e-05
-4.48313818604780711e-06
2.85187345547546301e-06
-0.000290944746581519762
5.88292329329909925e-05
-4.25056932692647396e-06
4.65018214900760329e-06
-0.000308417803860172612
7.31029501825801383e-05
-5.75498742737354426e-06
6.24099890602584901e-06
-0.00031986161554001057
8.90054098938277343e-05
-6.60170431311559598e-06
8.13152587338198913e-06
-0.000340616357470954713
0.000105659256399024217
-8.51683621549715848e-06
8.09102229397578068e-06
-0.000359610635298513674
0.000121962542601466561
-1.0035005641631342e-05
7.78445802395844197e-06
-0.000375672633687054074
0.000137604528910864371
-1.17651385594157348e-05
8.78799830563203954e-06
-0.00039261074327082493
0.000152002748618394772
-1.27429851870899222e-05
1.3054868268501921e-05
-0.000433577136253877145
0.000167505120101067739
-1.36213282493628247e-05
1.46998229073460414e-05
-0.000472797548534288528
0.000149170876631698096
-1.27666078804465995e-05
1.20843041943052413e-05
-0.000428120926207908425
5.97217413982825422e-05
-7.65244529263610329e-06
7.1691563542744486e-06
-0.000133485049629707218
4.40340440514783588e-05
-1.32903924362205199e-05
1.24067222653369971e-05
-1.62184549595013228e-05
4.58767547518451212e-05
-2.45888737253268222e-05
2.31888083904388875e-05
-0.000144578155199283896
0.000170943347193275574
1.7705625331624597e-05
-1.80235690395542633e-05
-5.42672481989613841e-06
3.94667692051264989e-05
-2.21061733445622707e-05
-5.97197871975596944e-06
6.10920350570930696e-05
-2.20163551757794638e-05
-6.73707832256505756e-06
8.27714195099456729e-05
-2.21486986525105686e-05
-8.00711747597149081e-06
0.00010449137623170398
-2.23041373704817791e-05
-9.86257639429910591e-06
0.000126820848257989737
-2.30837889187714215e-05
-1.24873874294227949e-05
0.00015000787537378457
-2.41731443201502015e-05
-1.61353942454815576e-05
0.00017388972949081754
-2.5273139871090889e-05
-2.11879249899750458e-05
0.000197803599235006508
-2.57698213755975795e-05
-2.80093050249366601e-05
0.000220984960367018763
-2.61637073841249395e-05
-3.75811060611322124e-05
0.000241441677445603312
-2.46026459902515958e-05
-5.04589560978144217e-05
0.000255051184620333732
-2.12695154778370502e-05
-6.82478961119176739e-05
0.000259574961372613182
-1.60416760180789936e-05
-9.23006909909055876e-05
0.000245268176674954489
-8.42673498226479794e-06
-0.000127094066347342862
0.000187926500044477358
7.70059215998535729e-06
-0.000161940467037880115
4.9105181676061949e-05
-0.000183774965556786699
1.82556704071879789e-05
-3.66017908156545085e-05
-5.42499187273736155e-06
3.91946807075382604e-05
-4.33885093817461257e-05
-5.90133364610816782e-06
5.95056509290363194e-05
-4.27149172744077343e-05
-6.65576787950692966e-06
7.98913129130306355e-05
-4.29976927593163377e-05
-7.89687352047954031e-06
0.000101094348801774564
-4.40841054652857831e-05
-9.72535580039058876e-06
0.000123136989443296428
-4.58683821488740367e-05
-1.23073456234485885e-05
0.000145945905343916859
-4.79651694214149049e-05
-1.58913811359425807e-05
0.000169476168325252664
-5.01479882711441052e-05
-2.08204964180140196e-05
0.000193127352712971348
-5.13276089096986011e-05
-2.75858005782868346e-05
0.000216198969241778301
-5.20667801769597648e-05
-3.68929169233158375e-05
0.000237347647520904384
-5.01562434968183697e-05
-4.95650378568483364e-05
0.000252861719412843971
-4.41484647451861401e-05
-6.72277885176687063e-05
0.000260205127987417275
-3.57702174098154023e-05
-9.13788025742327445e-05
0.000250226609672964443
-2.2431729583611962e-05
-0.000124424869713228207
0.000209589841719057669
8.80323246628968747e-06
-0.000166859608613746554
0.00011929817692104095
-0.000215777820269228115
1.87449009512867999e-05
-5.56707161400617014e-05
-5.38082454032037484e-06
3.89723445697948555e-05
-6.39595145065437084e-05
-5.86813260914267233e-06
5.91639047211647072e-05
-6.32921823979087916e-05
-6.61289804887674299e-06
7.9597214486458871e-05
-6.38909635318617869e-05
-7.8308790508029041e-06
0.000100777309796106263
-6.58363456033174194e-05
-9.62764762533523893e-06
0.000122827643809075219
-6.86537547570064544e-05
-1.21646098919438606e-05
0.000145715973336364073
-7.18230943782415432e-05
-1.5685535570817868e-05
0.000169366493341268612
-7.51240291221373267e-05
-2.05214551613682673e-05
0.000193280305921548557
-7.7103884040340942e-05
-2.71716195507511336e-05
0.000216864275557467485
-7.84320379328660197e-05
-3.62694369345983736e-05
0.000238439230506324326
-7.60025812976313224e-05
-4.87287823029553376e-05
0.000254662969733310913
-6.76553859061870805e-05
-6.61423324993706113e-05
0.000262826329778440091
-5.65378305899813801e-05
-8.94680277898869328e-05
0.00025195168151857187
-3.54959767505065444e-05
-0.00012248404318600714
0.000204685004017788648
1.44662312932021016e-05
-0.000163171944529633014
0.000182428740168221441
-0.000222861318781296126
1.89815129108418405e-05
-7.49770671268689748e-05
-5.31381104833796287e-06
3.86853464559749045e-05
-8.40050135576603447e-05
-5.80111022077793586e-06
5.86646084918256177e-05
-8.36517096770775367e-05
-6.53213985691909623e-06
7.90307998594767553e-05
-8.47102431898630841e-05
-7.71892548940213857e-06
0.000100142943188194435
-8.75122535554849967e-05
-9.46915995749821061e-06
0.000122157214788827609
-9.13912192327957556e-05
-1.19415914724660584e-05
0.000145096392927424479
-9.57122416866981691e-05
-1.53696533336110119e-05
0.000168882991756174526
-0.000100203561715933589
-2.00785218477275635e-05
0.000193122334100315663
-0.000103150569887817722
-2.65467897931138838e-05
0.000217395732984876193
-0.000105405321789880805
-3.5375553396941559e-05
0.000239699946112575582
-0.000102433584166055833
-4.75047005873496602e-05
0.000257257714443737942
-9.22819179512665734e-05
-6.4429381605475317e-05
0.000267267171431022929
-7.86838520428199576e-05
-8.69061339715818728e-05
0.000256851594446585757
-4.89476538904204248e-05
-0.000118825658858289217