/*--------------------------------*- C++ -*----------------------------------*\
| =========                 |                                                 |
| \\      /  F ield         | OpenFOAM: The Open Source CFD Toolbox           |
|  \\    /   O peration     | Version:  2206                                  |
|   \\  /    A nd           | Website:  www.openfoam.com                      |
|    \\/     M anipulation  |                                                 |
\*---------------------------------------------------------------------------*/
FoamFile
{
    version     2.0;
    format      ascii;
    arch        "LSB;label=32;scalar=64";
    class       surfaceVectorField;
    location    "0.209999999999999992";
    object      Uf;
}
// * * * * * * * * * * * * * * * * * * * * * * * * * * * * * * * * * * * * * //

dimensions      [0 1 -1 0 0 0 0];

internalField   nonuniform List<vector> 
20789
(
(0.0576050472056266888 -0.0140254487554080515 -0.0173408043270269208)
(0.0292701920184356285 -0.02573799057290619 -0.0165226851923397436)
(0.0286863942702714654 -0.0122351842648484588 -0.0163414073791044966)
(0.0291613686750070329 -0.0122828920166632022 -0.0166129021438555929)
(0.128366744783057873 -0.0158741500528512408 -0.0193464156372557504)
(0.0924841031623323817 -0.031601348156192248 -0.0180814789040707989)
(0.0912995885536794782 -0.0157521079055064697 -0.0179693107997393672)
(0.0928163267759300054 -0.0158290227445589821 -0.0182727918134924436)
(0.198935718382134447 -0.0160884948882274101 -0.0224602507639341011)
(0.160791329610667888 -0.0315294121289771134 -0.0204036074092136879)
(0.160093035925991778 -0.0159029428840799236 -0.0202766622689863722)
(0.162784118719258269 -0.0160101019907935467 -0.020607550263910774)
(0.270035052253503272 -0.0162788122126641815 -0.0272412010267651522)
(0.231446376640624618 -0.031788973302125316 -0.0242439792500709038)
(0.233706192638276078 -0.0161455875285531486 -0.0241119157987584841)
(0.238030116278835857 -0.016293357381685164 -0.0244904254809592964)
(0.341736313886924103 -0.0165779491296143833 -0.0341083900336568435)
(0.3003697453252413 -0.032088882687900451 -0.0298797570087486579)
(0.302505303324037689 -0.0162428795158361845 -0.0297167754338758146)
(0.308756594411795815 -0.0164327021469138426 -0.0301599934920258397)
(0.416110408544274724 -0.0172402973768114691 -0.0437144113709001386)
(0.372459427114360753 -0.0333303279951586151 -0.0378669376001410374)
(0.374004928922389901 -0.0166907317778201628 -0.0376674891698118089)
(0.382801318777721167 -0.0169443775440824562 -0.0382177650978191494)
(0.49433718464616333 -0.0181619169278667246 -0.0572134692325954597)
(0.447653475116072452 -0.035079748647801369 -0.0489588092475391132)
(0.447861382075078862 -0.0174858295686428251 -0.0487044240911203088)
(0.460091606363269456 -0.0178466280045177922 -0.0493290254187109117)
(0.576372820140457764 -0.018925489442368007 -0.0755518119591000598)
(0.527703769022660252 -0.036965583330407982 -0.0645172551442071973)
(0.526657083389071579 -0.0183993131166962018 -0.0642302148102715659)
(0.543712856559697144 -0.0189160517096008257 -0.0652408715819343954)
(0.660978318695624179 -0.0196169036731564037 -0.101775929166436463)
(0.609440447509304706 -0.0380514515533000725 -0.0855410060813653617)
(0.605241592318908395 -0.018836463844697178 -0.0849577030864510918)
(0.629182007197947812 -0.0195905215936038116 -0.0858557135916306197)
(0.746598886213330593 -0.0196464902074016574 -0.137487914276639367)
(0.694894928721428995 -0.0393870568366947588 -0.116211311795198113)
(0.687006309842144502 -0.0194801970525034507 -0.115392682109559871)
(0.720644289759705736 -0.0205750909793825688 -0.118059569437559075)
(0.830115166925366688 -0.0184245915695758801 -0.190000684955141497)
(0.779524826686782468 -0.0378901181167478132 -0.156959186713419629)
(0.764723190220276794 -0.0184916202371017691 -0.155340723756348303)
(0.813708751757261872 -0.020132535740940611 -0.156884204793116877)
(0.897945264659335551 -0.0158173917677564488 -0.262376538034958362)
(0.857475773261197394 -0.0349568016465918105 -0.220018984140272794)
(0.830622004948643688 -0.0163517176186905831 -0.215878857400568835)
(0.901097344942568657 -0.0189754291741130142 -0.225498925402147804)
(0.952725686450525022 -0.0128704929782240355 -0.37837929317767921)
(0.924312031821331925 -0.0281981496861528243 -0.303603315515362793)
(0.878589809952490031 -0.0126351985258549519 -0.29529918172691072)
(0.993534929327631655 -0.0157931143894774403 -0.303001662701611385)
(0.936072908689041583 -0.00377440350553892578 -0.552766319378396265)
(0.963536117118582669 -0.0226625508780096338 -0.451208377979216424)
(0.897147977659090379 -0.00889203655998061643 -0.426125894840729713)
(1.04842746844784518 -0.0152218316473401328 -0.486253558099142003)
(0.816968918728236404 0.0184329919646464835 -1.08487082506388277)
(0.975896751082063418 0.00238336453348041155 -0.657589963248366938)
(0.857007474558829085 0.00502356547427747994 -0.583742537987157584)
(1.22239804137656072 -0.00580055303476921698 -0.684846258542397779)
(0.643221027315201921 0.0628688250189155529 -1.52230908852152425)
(0.603304962534270794 0.039616579418173696 -1.07996472051171333)
(1.07469713134266254 0.0253445064763454138 -1.68042185179975889)
(0.0593807640499064288 -0.0429045141354184589 -0.0172633597693836217)
(0.0299924695318665724 -0.0522727106050442786 -0.0164886954489436369)
(0.0293788295698587595 -0.038301657373715374 -0.0163494338011633336)
(0.0298586691164819049 -0.038450205327929296 -0.0166361024064212645)
(0.12751257046946482 -0.047046478586650467 -0.019138670676028733)
(0.0931642952840522759 -0.0620364263724285103 -0.0179482396539615771)
(0.0921606771138910041 -0.0473086507996306471 -0.0177633656761816278)
(0.0936749747994966853 -0.0475524722264753785 -0.0180720142298548721)
(0.193811168159021469 -0.0467910451312365458 -0.0221873358953504941)
(0.159698254133433082 -0.0611628848079720372 -0.0202339127042508067)
(0.158792811414209312 -0.0465033205901612123 -0.020035297114772966)
(0.161524398361818339 -0.0468157622117310254 -0.0203700861821837879)
(0.260642954586693842 -0.0474053944901475788 -0.0268825352320544095)
(0.226433103600309577 -0.0616814216657835465 -0.0239933019054841407)
(0.224957630923103086 -0.0467162453114664117 -0.0237811923615694511)
(0.229140446402119224 -0.0471219761235147916 -0.0241598429046081878)
(0.330579737404245011 -0.0488705522907578876 -0.0336383045752328622)
(0.294556077958175067 -0.063393792079829106 -0.0295430017589761139)
(0.292135297443599118 -0.0476239758798628343 -0.0293057165718185776)
(0.298149853347810301 -0.048152384638069437 -0.0297493263273573769)
(0.403907485118519982 -0.0511329342461720529 -0.0431113354767800327)
(0.365978648881675139 -0.0661858876062599577 -0.0373924152358391729)
(0.362348520427238363 -0.0494890504749937177 -0.0371200638942426608)
(0.370784230844258378 -0.0502096016942205625 -0.0376509699944251736)
(0.480714517245059481 -0.0538253406505195056 -0.0562625951591508855)
(0.440793271161618372 -0.069546389503497133 -0.0483219980598877732)
(0.435538941090441112 -0.0519079218458754627 -0.0480016229128430311)
(0.447266483660504199 -0.052931830222337474 -0.0486620831525524586)
(0.561306584232020289 -0.0561127054644867951 -0.0745064492664724853)
(0.519891823837550948 -0.0732086094309110647 -0.0634562136705196789)
(0.512227466102315843 -0.0545067737736300711 -0.0630520302525434118)
(0.528489716731706971 -0.0559681057336205504 -0.0639006626819958873)
(0.644534789590615165 -0.0578940544759425912 -0.0999763887101270537)
(0.601566890400453302 -0.0756520751157600257 -0.0844567025375963371)
(0.59053665008074907 -0.0559741260397651069 -0.0838967998821693456)
(0.613274672467877702 -0.0580829189381499439 -0.0851172591307540055)
(0.729060806791160254 -0.0580807836506626596 -0.135682584231978431)
(0.686553275465741963 -0.07786750916527857 -0.113891827230455142)
(0.670511301654157621 -0.0572880586130418423 -0.113005438961210153)
(0.702355127520246758 -0.060311055763541295 -0.114831898253081058)
(0.812554557341087946 -0.0551171922032080083 -0.186977485898550927)
(0.771650416041941289 -0.0766350472393531601 -0.15510419508295914)
(0.748157337491857088 -0.05530689552308167 -0.153533876389872925)
(0.794050597848812822 -0.0596904046483307804 -0.156806766051691027)
(0.885847747982307809 -0.0486581458818434523 -0.261245761620677253)
(0.851659637736287833 -0.070749105351546146 -0.215583671496989898)
(0.818048057828001274 -0.0496577314378579965 -0.212058100873141836)
(0.883334312383621034 -0.0562530977597413342 -0.218492967005286726)
(0.945647364119115985 -0.0398766259631511757 -0.376432400316899785)
(0.922347658202909426 -0.0613453400965219414 -0.301833381147730451)
(0.872034987193791133 -0.0404720615558088401 -0.295118302654504783)
(0.976153648452933398 -0.0492856898762004808 -0.308257712032227571)
(0.956001243331584094 -0.0216440832479505539 -0.556032021849187319)
(0.967654458780872417 -0.0495813746202505221 -0.444261596954444449)
(0.898671788350496881 -0.0282287735592283706 -0.421849194072952016)
(1.04557122971043315 -0.0420135985918210775 -0.466483991191404712)
(0.860837375555204121 0.0534836811616301866 -1.09502822670600586)
(0.987258714196770359 -0.0169650969475699173 -0.661488833808979271)
(0.8783335265444977 0.0019104785222398338 -0.585698430853394125)
(1.1965804037709713 -0.0278421902862269512 -0.708985923701611398)
(0.682690516167900108 0.170704972939624139 -1.52229829438258846)
(0.680918828152784261 0.128900443938098602 -1.13941789139801664)
(1.11524400787891476 0.0810807388667564577 -1.68893458326185986)
(0.0609563551683714386 -0.0714885454831375861 -0.0171735753335215957)
(0.0305547606541404053 -0.0795147105195630338 -0.0163520218479128766)
(0.030126623654246544 -0.0656801194176207248 -0.0162278601066255627)
(0.0306094067598332471 -0.065945415813068689 -0.0165285378155946641)
(0.126778181687531355 -0.0766018957197212996 -0.0190434816821836508)
(0.0933971162698276208 -0.0914497536688756579 -0.0178170422144905277)
(0.092664211188408438 -0.0769585431585080998 -0.017669469476643853)
(0.0941718723922118778 -0.0773592113495831374 -0.0179879093629599328)
(0.192670741316539856 -0.076364006719418287 -0.0220398787143844532)
(0.158609792212655282 -0.0906204937184919429 -0.0200606277615176971)
(0.157905763320850295 -0.075789037396554404 -0.0199078659740665326)
(0.160600439496556918 -0.0762874400996886026 -0.0202518545514328192)
(0.259635097763759981 -0.0778704889170332148 -0.0266537684324058416)
(0.224878451165850091 -0.0916368887559726175 -0.0237385371359934635)
(0.22378116336767051 -0.0763634291658508435 -0.0235837557103599355)
(0.227901620089807383 -0.0769995300552768214 -0.0239706394696770284)
(0.329465134810220828 -0.0808649419309921125 -0.0332971124195824281)
(0.292921405389730438 -0.094655314261340523 -0.0291746788561358661)
(0.291042077633807572 -0.0786285540310265596 -0.0290140252192672074)
(0.296965890946950972 -0.0794713221683353704 -0.0294657890580600386)
(0.402770285946600248 -0.0847782056310061177 -0.0426030778189469272)
(0.364263401847149171 -0.099034877473979474 -0.0368610034055519842)
(0.361287577820574357 -0.082091157108863555 -0.0366942165976183315)
(0.36958952994599148 -0.0832499479835709794 -0.0372320826927104581)
(0.47976768439501033 -0.0891629259315032813 -0.0555156165712565666)
(0.439003377588835009 -0.104094517061681491 -0.0475447825206742683)
(0.43449066440017925 -0.0860653042598585188 -0.0473774424427553173)
(0.446022540193625638 -0.0877044593452171173 -0.048031649858407327)
(0.560654146262747122 -0.0930272881156750803 -0.0734064669416435167)
(0.518387617163895809 -0.109579744891230221 -0.0623361552122924656)
(0.51155439085351917 -0.0902909292704262567 -0.062146886386221796)
(0.527533699445008386 -0.092617027229263113 -0.0629900641196205063)
(0.644569514416319711 -0.0959682921494726671 -0.0983721410579244671)
(0.600451888038486037 -0.113520086685618957 -0.0828215864385972722)
(0.590302613883719629 -0.0929833787532647754 -0.0825926885773762831)
(0.61263269157053124 -0.0963161692312407836 -0.0837371479841584054)
(0.730585586114208096 -0.0967262654602770167 -0.133313438081435809)
(0.686690802166395553 -0.116995033909929699 -0.111539251634239819)
(0.671470204004043003 -0.0950142197895043478 -0.111088668546767327)
(0.702704896859305039 -0.0997301459147375002 -0.112884786316843733)
(0.815245126968428102 -0.0925222372367013046 -0.183710380681398111)
(0.773655466566577132 -0.115769766402814861 -0.151682608471037983)
(0.750846708379795169 -0.0928845512240577265 -0.150774541603058421)
(0.795955445240855042 -0.0996528336903368256 -0.153790773673323417)
(0.890847949950331119 -0.0834055762999509759 -0.256171291024043402)
(0.855613948155502291 -0.107391927418467967 -0.210954712501992131)
(0.822400476688382898 -0.0841394761482229248 -0.208448206548113996)
(0.886420228513356112 -0.093894709095951101 -0.214531220115054239)
(0.954161156567421842 -0.0698211351801948238 -0.36966257778527517)
(0.928915392579812593 -0.095751636383495875 -0.294167776073068654)
(0.878365101529076764 -0.0714428246674101985 -0.289056793478664253)
(0.981330334171313545 -0.0852368404718060885 -0.301591262071626232)
(0.964031472831064162 -0.0416999597179042378 -0.549718408914237067)
(0.978982997955380352 -0.0751737779097206432 -0.434678477359409898)
(0.911179010220577901 -0.0509650789779285823 -0.415614464385252791)
(1.05227566543419204 -0.0701397500329334483 -0.458026059301670341)
(0.843403902894809487 0.0988137800861553783 -1.08875890148556165)
(0.995450010707220057 -0.0246029945757651816 -0.653708399504834059)
(0.880861949194278293 -0.0022199014382424942 -0.578996860967566529)
(1.21151132245648996 -0.0475464556472544736 -0.701497476159680056)
(0.666839665309568841 0.273256546159913682 -1.51033994512169722)
(0.659791074005196765 0.239734352830823949 -1.12801293321099116)
(1.09105761104916588 0.148226773335663031 -1.67260240716686082)
(0.0617093486697228022 -0.0996379268503932297 -0.0169954887288818086)
(0.030774010642831591 -0.107099750269037841 -0.0161468871493449656)
(0.0305029068402799114 -0.0931557198757194671 -0.0160394483140427896)
(0.0309829312069920884 -0.093542084355746874 -0.0163568668226212501)
(0.125820914109262577 -0.105627979228475014 -0.018834188293824574)
(0.0931396236521150889 -0.120108092617929638 -0.0175868127660722129)
(0.0926403842015339901 -0.105643882481531226 -0.0174733409261240043)
(0.0941270227038886048 -0.106190094687240083 -0.0178020241954941483)
(0.190999790250333035 -0.106001741276687989 -0.0217592861831267109)
(0.157195538200708224 -0.119765486866095838 -0.0197736922790722053)
(0.15666312078917044 -0.104986767257689753 -0.0196625896424658247)
(0.159302294296175095 -0.105664717039510747 -0.0200157312532704725)
(0.257710996344895971 -0.10850059209224272 -0.026259447559723495)
(0.222787234083281244 -0.121483487814766367 -0.0233476984173790515)
(0.221928173430202658 -0.10622762292626553 -0.023245664073731756)
(0.225953619560145258 -0.107093068789506418 -0.0236398495762414201)
(0.327270605133768544 -0.112928931410904834 -0.0327385698421054083)
(0.290509704330505214 -0.125800808189958452 -0.0286308541085300815)
(0.288982967572570637 -0.109744404578128091 -0.0285392673487326887)
(0.294764932434866067 -0.11089580262231058 -0.0289993778800065015)
(0.400386180027905936 -0.1184984672401697 -0.0418027081072793461)
(0.361613373674521288 -0.131801238333888154 -0.0360946387318875767)
(0.35908768967112209 -0.114724212140589074 -0.0360260240355109451)
(0.367178544554047526 -0.11630817230109998 -0.0365671564847158334)
(0.477438143359057598 -0.124683965046358147 -0.0543653211617101811)
(0.436198755834582452 -0.138662530275737883 -0.0464472790931941965)
(0.432204557413735535 -0.12035138419261715 -0.0464229385788938811)
(0.443433611334869471 -0.122588192279555502 -0.0470684149728217288)
(0.558617101479786604 -0.130271643687576488 -0.0717512747092462488)
(0.515791985798552011 -0.146062764526769029 -0.0607674061778851055)
(0.509568760049127989 -0.126326691549819181 -0.0607940793668926976)
(0.525098003092488108 -0.129492552603597461 -0.0616010260233349483)
(0.643360575368981391 -0.134765628278016164 -0.0959886970149126384)
(0.598373812622168932 -0.151715725836437165 -0.0805663836677546208)
(0.588811887270416223 -0.130428335327748862 -0.0806583388405656271)
(0.61051670552049897 -0.134960458532940558 -0.0817219417768846601)
(0.731289200090610381 -0.136258586054065961 -0.129908422023841952)
(0.686176983197250179 -0.156908480158402752 -0.108305252598215551)
(0.671500303866369386 -0.133767415235305304 -0.108314208940052586)
(0.701823398123144759 -0.140155767355489347 -0.109982093814005741)
(0.817852690588985465 -0.130844383138373432 -0.178926940291632031)
(0.775429143254401487 -0.155607239398230651 -0.147126210455295225)
(0.753183520226748726 -0.131222586392927554 -0.146881108533673366)
(0.797015554959076056 -0.140358804548764732 -0.149610497140317822)
(0.896999928228811472 -0.119589022753614341 -0.248951197551017411)
(0.860253099941121091 -0.145487539862381915 -0.204459101347425953)
(0.827316557353097726 -0.119710113899175671 -0.202948566910639727)
(0.889276929646127257 -0.132813898598154623 -0.208786699579812079)
(0.964342289155452281 -0.100700723854642626 -0.359183675647203549)
(0.937935734984270852 -0.131712023201622702 -0.284148271080274351)
(0.887474978499053102 -0.104347772829786314 -0.280389647705873435)
(0.988366531764543144 -0.122663317383560885 -0.292450809964967362)
(0.97834199650803011 -0.0566509696355722778 -0.538668467950007113)
(0.993169614101748865 -0.10223540397677372 -0.421297688011310956)
(0.925264070295340857 -0.0740717847506772581 -0.403632038965840934)
(1.05931145052415188 -0.100810743425383265 -0.445311346560207322)
(0.843299434640141565 0.151162467696914188 -1.07528944314097052)
(1.01256084581994399 -0.0237688719968022349 -0.64387457989236041)
(0.900341677898355952 0.00129618067021624673 -0.570595173872727401)
(1.22540416185334866 -0.061959666485035661 -0.688965114482392949)
(0.663542580884153965 0.384890409729289174 -1.49406110162855765)
(0.651492421472088745 0.355523654345013929 -1.11554601660074426)
(1.07943530166949597 0.223285868159396883 -1.64187817117816559)
(0.0617891130644568978 -0.12766874932949912 -0.0167382111865353699)
(0.0307388290693493757 -0.134731598644518585 -0.0158763682269560114)
(0.0305703852995093533 -0.120747834995781261 -0.0157861134500168719)
(0.0310416882418268689 -0.121254048777649545 -0.0161262384493751076)
(0.124670644466816763 -0.134324369049794834 -0.0185263167513198407)
(0.0924843711964356968 -0.148225993191463623 -0.0172697044907536706)
(0.0921783186041471719 -0.13397714733422908 -0.0171886060566154679)
(0.0936302219196968738 -0.134663516609750344 -0.0175297657009914447)
(0.189009190208410394 -0.135381106434643544 -0.0213621045133245459)
(0.155475718717233535 -0.148541746100006838 -0.0193856486150334288)
(0.155144637385472017 -0.133880045941594944 -0.0193144256553170052)
(0.157709060102557919 -0.13472953113324973 -0.0196770593921898468)
(0.255265340813481068 -0.138924796475594969 -0.0257191049661856484)
(0.220286407859845518 -0.151131170604379389 -0.0228339740407462084)
(0.219710008657348355 -0.135882987843035236 -0.0227828779846288437)
(0.223612728410175016 -0.136967045457547398 -0.0231837376172078259)
(0.324439688005346061 -0.144823702348301525 -0.0319869229983122463)
(0.287507645950569934 -0.156780631336463416 -0.0279300906966588082)
(0.286382435709955474 -0.140665120655566939 -0.0279005683882726473)
(0.291980982773846376 -0.142105290112196525 -0.0283718113617824584)
(0.397277170148721326 -0.152141587849970616 -0.0407392097178024409)
(0.358234642712177198 -0.164446196088412516 -0.0351175273698828352)
(0.356226112931878724 -0.147228195750189444 -0.0351375812099566018)
(0.364044142646898494 -0.149209557138680393 -0.0356831143372082216)
(0.474323680520532864 -0.160245012578044327 -0.0528493641093691069)
(0.432595409805969666 -0.173222639738651707 -0.0450610835750984012)
(0.429220675113755834 -0.154637094643764905 -0.0451668079540263057)
(0.440056677780466865 -0.157428886919968897 -0.0458013270854466109)
(0.555884844626502228 -0.167744789873285755 -0.0695825151363934913)
(0.512334633151757202 -0.182686342421430281 -0.0587883513992093071)
(0.506861296846788156 -0.162480426764841451 -0.0590303521187138039)
(0.521803361001018207 -0.16643713727741094 -0.059778665145177233)
(0.641754402670025703 -0.174129008406708752 -0.0928829392510575197)
(0.595630700351152731 -0.190360049678739596 -0.0777397748332206984)
(0.586825445988913286 -0.168267104890886199 -0.0781382935458966171)
(0.607744436829512735 -0.173929303991640666 -0.079098264686861014)
(0.73192555524165781 -0.176539041566005361 -0.125523041029668853)
(0.68523309815279132 -0.197707515980989651 -0.104257199997284056)
(0.671442130960097194 -0.173356116470157029 -0.104745469694637258)
(0.700575746076543715 -0.18129987405550832 -0.106191153875445143)
(0.821099657685796958 -0.170454449924084345 -0.172658371511089065)
(0.777226938455852889 -0.196441174711983219 -0.141477742842267495)
(0.755836211321748608 -0.170373477716394495 -0.141902647414943683)
(0.797962899503372181 -0.181716192314803432 -0.144304502076627955)
(0.905297314496000149 -0.157633045853938419 -0.23965617487668292)
(0.866098833461820594 -0.185660533097485425 -0.196203241738110434)
(0.833657177580057973 -0.157220328494740935 -0.195639409175092482)
(0.893296764425647094 -0.173609564974296693 -0.201143148917182407)
(0.978717545476226913 -0.133046327630900851 -0.346262283444381924)
(0.949944650146529845 -0.170055993891590984 -0.272141047501480493)
(0.899665704572771618 -0.139325381087817085 -0.269618288623064972)
(0.996948667518084419 -0.161561947119065158 -0.281043981367323836)
(0.996811251880149629 -0.0686903737324840169 -0.52650379995366392)
(1.012307442283779 -0.130464326969692346 -0.405504057502225068)
(0.945205978905694022 -0.0982939661713657098 -0.389213691941742379)
(1.07189439814056819 -0.133887756168358407 -0.429588386039324477)
(0.849533739762534768 0.210879991771005249 -1.06264623837994909)
(1.03144777208201988 -0.0169027850972403824 -0.634886140942026)
(0.925987705868770661 0.0101864640155747421 -0.56029714061819258)
(1.24041422820068115 -0.0711521121840848064 -0.677478813208589936)
(0.66914768743634756 0.511292268576874709 -1.4813315990381084)
(0.656287395095457193 0.47833905301780355 -1.10818839810966785)
(1.07762642259297614 0.309013444850014585 -1.61052616490869638)
(0.0614480369799042872 -0.155412021050700927 -0.0164078615311743087)
(0.0305347952476125901 -0.162228206269130371 -0.015544488889344555)
(0.0304421361042074672 -0.148283379686145023 -0.0154698198094886993)
(0.0308995481137985945 -0.148906946612582414 -0.0158426319526447298)
(0.123257890260889028 -0.162555542343046033 -0.0181290363544672518)
(0.0915015867418869921 -0.175875777942213513 -0.0168749037049560936)
(0.0913737703830774517 -0.161794867806467235 -0.0168231616749529335)
(0.0927787716922200689 -0.162613848289866469 -0.0171806816899149478)
(0.186654822947881049 -0.164432448338688558 -0.0208575181424550914)
(0.153420058218063621 -0.176903986125519663 -0.0189055600901238824)
(0.153311517939514586 -0.162361831723382227 -0.0188720285266617376)
(0.155783146397870498 -0.163372432990502942 -0.0192436141003774451)
(0.252262851671861299 -0.169134022118213379 -0.0250449597712193717)
(0.217329551005664728 -0.180494071107529297 -0.0222079782211666125)
(0.217066315368252521 -0.165297612840765884 -0.0222034542437587815)
(0.220821653012457986 -0.166587185586736741 -0.0226108714887281285)
(0.320907378780520058 -0.176558802625861627 -0.0310606950682294006)
(0.283872691185301562 -0.18753447702534054 -0.0270906023148112275)
(0.283183414683879697 -0.171404627205429094 -0.0271084280359661055)
(0.288561596651283114 -0.173109420433607719 -0.0275986862760010422)
(0.393350749189078086 -0.185707451234816162 -0.0394394012271788025)
(0.354069534633426275 -0.196921798441374279 -0.0339557243646509271)
(0.352627196234230778 -0.179609363936132582 -0.0340444216891536561)
(0.360117269370221926 -0.181950959814117574 -0.0346015792524701216)
(0.470303185772076526 -0.195874290627384873 -0.0510000708649386014)
(0.428094169400682623 -0.207735071560733092 -0.0434200460850581241)
(0.425421904291031772 -0.188921173888268568 -0.0436358252233974356)
(0.435773086629914153 -0.192212704065999107 -0.044258612909871986)
(0.552284070501563584 -0.205544284936011068 -0.0669456110960365419)
(0.50789496634792175 -0.219456846774199632 -0.0564370722370929612)
(0.503274410306893571 -0.19881462435188188 -0.0568845333175554552)
(0.51751747702658335 -0.203504033792676675 -0.0575535959499417424)
(0.639447079519128048 -0.21420946332043006 -0.089114035579447165)
(0.592010777610688654 -0.229505276771201944 -0.0743972765536868308)
(0.584148060957199844 -0.206652600142675752 -0.0750928154917720747)
(0.604100891010507124 -0.213338546227956088 -0.0759048189177660426)
(0.732160376949250846 -0.21788899674434925 -0.120211901809882768)
(0.683571618587109686 -0.239469660099689979 -0.099460923448873112)
(0.670893204114739738 -0.213978794191348159 -0.100455323500562951)
(0.698566336112475428 -0.223323813765483797 -0.101567543446987471)
(0.824920320208471392 -0.211871957546244605 -0.165022613069288754)
(0.778870616731088816 -0.23868368949703192 -0.134829347573479114)
(0.758510166836151356 -0.210783801384785807 -0.135878115366158542)
(0.798675213210938151 -0.224268793639773395 -0.137909816379818279)
(0.916027974200382622 -0.198100511259498069 -0.228688114362908229)
(0.873168904304394533 -0.228646626706357547 -0.18640964022824047)
(0.841403711501649387 -0.197209974131610566 -0.186768609426008592)
(0.898450369944492344 -0.2165961773772756 -0.191756374893874065)
(0.996838121408863076 -0.166943623023280918 -0.331382821559323804)
(0.965727120733911981 -0.211121337221325256 -0.258408700844470707)
(0.915204706354089792 -0.176806054332248053 -0.257228480759613132)
(1.00702566338878619 -0.202921880030290464 -0.26752799488267065)
(1.0185418005243605 -0.0773361101096676218 -0.513886398490587037)
(1.03576924486233257 -0.158264292110633198 -0.387415024955617582)
(0.968630271505003471 -0.12308023724907205 -0.37428589545926999)
(1.0919861779752027 -0.166883869264655482 -0.410593848076323598)
(0.859957655976760327 0.284003759643119802 -1.05357150160018609)
(1.05020763741111689 -0.00315857987700616811 -0.625352584902330588)
(0.95044245645153469 0.0275190140655992184 -0.554033174990131161)
(1.23773241427816227 -0.0728684046701347926 -0.667509078643769183)
(0.677250070075302468 0.651446167724131109 -1.47206287652439682)
(0.66414971586135374 0.619739746194861829 -1.10662743960297627)
(1.07219159011694232 0.412538863762937857 -1.5907267250688264)
(0.0608059904969791218 -0.182826192401919274 -0.0160115310631263365)
(0.0302006120220276036 -0.189462742832700815 -0.0151574215532634723)
(0.0301716475503088256 -0.17561435627375746 -0.0150946433708151126)
(0.0306096166471689878 -0.176349729357906493 -0.0155140096127015827)
(0.121552000945213123 -0.190346520486962795 -0.0176514274406127207)
(0.0902227730777399595 -0.203063671285316133 -0.0164114895987180487)
(0.0902713885010979489 -0.189162972109228222 -0.0163843093321907017)
(0.0916170008746784587 -0.190105947201770625 -0.0167636730822894112)
(0.183907073605703686 -0.193105964068307601 -0.0202560201688354036)
(0.151001043750613184 -0.20480593757332119 -0.0183418867782661164)
(0.151141311189602223 -0.190414962044217595 -0.0183451617739993807)
(0.153503313224759907 -0.191576074000547325 -0.0187222698130517611)
(0.248685862428195237 -0.199047187168496953 -0.0242536207647584684)
(0.213875402506870843 -0.209492663511218619 -0.0214837952152125977)
(0.213962275639277555 -0.194388508928603737 -0.0215170473932637767)
(0.217551183756874988 -0.195868580194515807 -0.0219329656168092239)
(0.316638878196378482 -0.208061293027444305 -0.0299856316112327645)
(0.279570964527055599 -0.217998744005099332 -0.0261373387622938075)
(0.279354044499638021 -0.201883757532044517 -0.0261755194680905606)
(0.284482368762056737 -0.203820276308799703 -0.026701316322995064)
(0.388545310206573014 -0.219136759566084527 -0.0379363692225302557)
(0.349074802941282125 -0.229171224497151993 -0.0326424555764041335)
(0.348245128263140358 -0.211803821923903401 -0.0327678610937038109)
(0.355356813805436378 -0.214452214063756363 -0.0333499573349415671)
(0.465291020604678862 -0.231535904528642617 -0.0488570474572124838)
(0.422617325791049825 -0.242148688358433339 -0.0415608860917891509)
(0.420724579418563061 -0.22315458685782058 -0.0418614084827801033)
(0.430506663198259587 -0.226877276871339684 -0.042470321353066845)
(0.547654904420144306 -0.243674904463933889 -0.0638887376947432362)
(0.502361828506038943 -0.256345015729080472 -0.053760316714965839)
(0.49869814375946625 -0.23531738295056126 -0.0543996117375127736)
(0.512147092559592787 -0.240653372897644574 -0.0549635371786647564)
(0.63624395740416595 -0.255065761954255177 -0.0847441644231127084)
(0.587322779803782113 -0.269170719322343432 -0.070592277771745135)
(0.580559874010051935 -0.245644350806326101 -0.0715883177447556029)
(0.599346496041646692 -0.253205818602615262 -0.0721731303890687514)
(0.731821332457229801 -0.260576720559049124 -0.114078369212469527)
(0.680943559211968585 -0.282276999653360894 -0.0940365285582012017)
(0.669631444720921509 -0.255727895735145094 -0.0955214116476831021)
(0.695689881758772999 -0.266350389087422867 -0.0961782100628076064)
(0.829271673368562001 -0.255708446251529609 -0.156216374732430968)
(0.779971285851843166 -0.28280656956637551 -0.12734555478320872)
(0.761025163001363913 -0.252932772410383755 -0.128904455857407757)
(0.799025142732197158 -0.268372406192943336 -0.130527729237437273)
(0.929416681060885708 -0.241497594509350183 -0.216130226709803308)
(0.881680107700805515 -0.275289651821264636 -0.175290740790643246)
(0.850834266698216712 -0.240494095917774875 -0.176540796075092599)
(0.904389879144207987 -0.262395307909640829 -0.18080919413891422)
(1.02012309752799801 -0.201428015692634688 -0.314440904240764485)
(0.986857488530097582 -0.255722467521497521 -0.242087490361020369)
(0.93480344251268066 -0.217274824753777934 -0.243149422393126674)