/*--------------------------------*- C++ -*----------------------------------*\
| =========                 |                                                 |
| \\      /  F ield         | OpenFOAM: The Open Source CFD Toolbox           |
|  \\    /   O peration     | Version:  2206                                  |
|   \\  /    A nd           | Website:  www.openfoam.com                      |
|    \\/     M anipulation  |                                                 |
\*---------------------------------------------------------------------------*/
FoamFile
{
    version     2.0;
    format      ascii;
    arch        "LSB;label=32;scalar=64";
    class       volScalarField;
    location    "0.330000000000000071";
    object      rAU;
}
// * * * * * * * * * * * * * * * * * * * * * * * * * * * * * * * * * * * * * //

dimensions      [-1 3 1 0 0 0 0];

internalField   nonuniform List<scalar> 
29184
(
2.77851228029971675e-05
2.59733770882004649e-05
2.43579791321805066e-05
2.29248530081352562e-05
2.16847296201656368e-05
2.05565853668908249e-05
1.95013017562132126e-05
1.84855852188539609e-05
1.7542471606011556e-05
1.66022817660060669e-05
1.57774261764654404e-05
1.48571917171197782e-05
1.41393217936324423e-05
1.30811055535916213e-05
1.24731802580778047e-05
1.19698547774251005e-05
2.6400476328806657e-05
2.44305924951745675e-05
2.30801817879762222e-05
2.19308152392141537e-05
2.08942499072561136e-05
1.98828422013819243e-05
1.89058813322592676e-05
1.79687073515237201e-05
1.70862432759678134e-05
1.62410618179664384e-05
1.54486686564248783e-05
1.46525327444586447e-05
1.39061545468824652e-05
1.30032107115140032e-05
1.22213145890727725e-05
1.13599762588466964e-05
2.50770981868300931e-05
2.30965566717547031e-05
2.19376604221819518e-05
2.0934563340454959e-05
1.99894881986028964e-05
1.90647660463117071e-05
1.81666407742321452e-05
1.73031121158624146e-05
1.64924185829980434e-05
1.5726799455339258e-05
1.50105668875969674e-05
1.43172055640576704e-05
1.36630533953771678e-05
1.28878678493342956e-05
1.20857848518325628e-05
1.11655434264136628e-05
2.38368711822412895e-05
2.19461250866155985e-05
2.09194843588180454e-05
2.00318488190756235e-05
1.91711614034597197e-05
1.83210506503203158e-05
1.74916257290864338e-05
1.66918780966117903e-05
1.59437605894381276e-05
1.52446270870571013e-05
1.45990405196863716e-05
1.40000938253555369e-05
1.3445345408352576e-05
1.28004993847613242e-05
1.20532336538322252e-05
1.1128677338641727e-05
2.26892162315545115e-05
2.09297265562405378e-05
2.00030208826601316e-05
1.9206458384795699e-05
1.841950140892411e-05
1.76344349347812185e-05
1.68645955935106371e-05
1.6119453257766883e-05
1.54243499179191912e-05
1.47797550381996974e-05
1.41981667711701076e-05
1.36871651762540793e-05
1.32392085865226979e-05
1.27325436710172543e-05
1.21057367154469838e-05
1.10671692429241584e-05
2.16335653064278872e-05
2.00163476691501926e-05
1.91727535354976193e-05
1.84502414461059483e-05
1.77282366453856844e-05
1.70009782625379283e-05
1.62828813190382673e-05
1.55836479084829103e-05
1.49309192231543536e-05
1.4328709427759455e-05
1.38023000553233521e-05
1.33725328660318288e-05
1.30353345966185578e-05
1.26846348593770211e-05
1.22369072152484908e-05
1.09230579356575788e-05
2.06666641423946187e-05
1.91883800163827787e-05
1.84162585114994599e-05
1.77557256103289178e-05
1.70920696867297229e-05
1.6417197599350235e-05
1.57441242090465925e-05
1.50818134178541557e-05
1.44589219060630161e-05
1.38865044573619257e-05
1.34053917661943106e-05
1.30484991778072956e-05
1.28228187138551237e-05
1.26603290339597014e-05
1.24744124439070383e-05
1.07280592869268384e-05
1.97851012222245561e-05
1.84349821345217811e-05
1.77235360775590419e-05
1.71167287213517553e-05
1.65075529014090876e-05
1.58811389732326911e-05
1.52467817279727722e-05
1.4610980920268217e-05
1.40038036153448209e-05
1.34502295960695581e-05
1.30044664091277734e-05
1.27064103932332618e-05
1.2590448402974651e-05
1.26533771753433369e-05
1.28225365553085929e-05
1.04488222334605618e-05
1.8985850450435764e-05
1.77483824272681809e-05
1.7086476540404331e-05
1.65288122372856647e-05
1.59730472844270734e-05
1.53919038488476669e-05
1.47894081989287281e-05
1.41679937965901394e-05
1.35637577221306593e-05
1.30231676300335321e-05
1.26001390985429896e-05
1.23377964956562722e-05
1.23266084661648689e-05
1.26533977088009412e-05
1.28746379011880867e-05
1.00552691933154584e-05
1.82652950331292432e-05
1.7121962015519496e-05
1.6499719350988816e-05
1.5990461020013412e-05
1.54888601579357379e-05
1.49494261526800933e-05
1.4371106859299255e-05
1.37521022588472468e-05
1.31444225482312662e-05
1.26169560334796575e-05
1.21959692211024908e-05
1.19361205070255117e-05
1.20232024260444511e-05
1.26656777047448665e-05
1.24664070700262218e-05
9.55460127287595777e-06
1.761916273411189e-05
1.65511724991151689e-05
1.59629509984148579e-05
1.55041532202959167e-05
1.50575675337796933e-05
1.45553819689703188e-05
1.39940908256254022e-05
1.33698091779709615e-05
1.27631637252555207e-05
1.22503334479396866e-05
1.17994017750759605e-05
1.15082790385760933e-05
1.17067003928045185e-05
1.28184584793323834e-05
1.18760815044167931e-05
8.82643928254059832e-06
1.7045988420143649e-05
1.60390297452880707e-05
1.54833984109581491e-05
1.50774461625510875e-05
1.46857420360075355e-05
1.42161508900513851e-05
1.36683071414260758e-05
1.30403067007654286e-05
1.24506310993228586e-05
1.19481384494331515e-05
1.14336167064581689e-05
1.11054124574326689e-05
1.14547388870913829e-05
1.32573920083846937e-05
1.13359976201699002e-05
8.25554240671399189e-06
1.65515607542594782e-05
1.55978142278363417e-05
1.50781089612868167e-05
1.47254347947083468e-05
1.43881850884808393e-05
1.39479072996399582e-05
1.34174435464913857e-05
1.28000031991243162e-05
1.2250670831082252e-05
1.17548018320054417e-05
1.11828821750620167e-05
1.0884565259732826e-05
1.1595835525838212e-05
1.42242300323143041e-05
1.10857107635247807e-05
7.78228442186410843e-06
1.61499256966847323e-05
1.52524337281583124e-05
1.47772957316712946e-05
1.44761594399388279e-05
1.41942799474123314e-05
1.37842634554355024e-05
1.32875353927242071e-05
1.27077286054564015e-05
1.22297540729744636e-05
1.17690556115140022e-05
1.12536864955517693e-05
1.13551483537904938e-05
1.57495462649638539e-05
1.79709532908807967e-05
1.13165478219017196e-05
7.42455141608607716e-06
1.58602648348657114e-05
1.50452940489660311e-05
1.46283059581768198e-05
1.43783750683970188e-05
1.41579762100630833e-05
1.37930815141999563e-05
1.3365844062124917e-05
1.28669282285940893e-05
1.25192883760776288e-05
1.22228625466692744e-05
1.20789673088119483e-05
1.66317585059256379e-05
3.46268835966009672e-05
5.35004502831681121e-05
1.40612816030428792e-05
7.29446757646194499e-06
1.5743054827513821e-05
1.50698602533161924e-05
1.47410671964076196e-05
1.45494550888915055e-05
1.44137853654683738e-05
1.41260381866262853e-05
1.3780979086279047e-05
1.34138552476734831e-05
1.36940969313902618e-05
1.43155006910666061e-05
1.7421476899194063e-05
4.27667903733573081e-05
0.000165059206797407872
0.000228399827360410874
3.04723328942178735e-05
7.49174521217199162e-06
2.78192731161750979e-05
2.60350639971877818e-05
2.44481985254444564e-05
2.30478830728210795e-05
2.18425294743259981e-05
2.07538313727230478e-05
1.97429359284524369e-05
1.87884405991769824e-05
1.79089469925374187e-05
1.7079346278681995e-05
1.6350903062801836e-05
1.56309459997065053e-05
1.50757631342346349e-05
1.44062064865934544e-05
1.39502240658109445e-05
1.51715353574180215e-05
2.6433394302471854e-05
2.4491385014068319e-05
2.31713102989954376e-05
2.2053293111049135e-05
2.10483972258351164e-05
2.00733634586005093e-05
1.91406693911489219e-05
1.82595679262170297e-05
1.74475186304780792e-05
1.66986937307535728e-05
1.60236455481583306e-05
1.54010674877534503e-05
1.4878864405578578e-05
1.43296792712901283e-05
1.39203555451359426e-05
1.40077854593152426e-05
2.51094138528042226e-05
2.31564658444507557e-05
2.20277456623143931e-05
2.1055103677322506e-05
2.01406184980599681e-05
1.92507600051260597e-05
1.83958001463280156e-05
1.75871008634033867e-05
1.68480342029585758e-05
1.61784838490247837e-05
1.55861023522020341e-05
1.50712040935785482e-05
1.46572537926209661e-05
1.42306920214813711e-05
1.38818390976056189e-05
1.34958263618352023e-05
2.38689749084366325e-05
2.2004205859334863e-05
2.1007884340639628e-05
2.01497682360353739e-05
1.93178096992378829e-05
1.85006290755279828e-05
1.77127836628503977e-05
1.69662104345136084e-05
1.62900342770585592e-05
1.56874740968059766e-05
1.51707506792953147e-05
1.47570725251692159e-05
1.44561210785979925e-05
1.41709482242529111e-05
1.39239148822236245e-05
1.3219028641079561e-05
2.27208076409855389e-05
2.09848134276767488e-05
2.00892886705587163e-05
1.93213172569967459e-05
1.8560446355090989e-05
1.78058412281387701e-05
1.70753323242069595e-05
1.63809406619429198e-05
1.57573930178272214e-05
1.52101378496472143e-05
1.47623062946294254e-05
1.44445060290603114e-05
1.42633837167217325e-05
1.41363165544577868e-05
1.40583522762607659e-05
1.29503357134358135e-05
2.16635353821728252e-05
2.00663994530739243e-05
1.92565495927599534e-05
1.85618501637270497e-05
1.7862191608716035e-05
1.71622065863629957e-05
1.64803079017481835e-05
1.58283281151890766e-05
1.52464322448190096e-05
1.474278402246905e-05
1.43557283791542178e-05
1.41274900375229251e-05
1.40712605895828183e-05
1.41271606192142777e-05
1.42716962861741622e-05
1.25593408686091732e-05
2.06930454489254187e-05
1.92301057902174714e-05
1.84974288596492117e-05
1.78638886623771261e-05
1.72170674293909974e-05
1.65654682660981499e-05
1.59244215296888792e-05
1.53047089723067396e-05
1.47522526340786861e-05
1.42806404990279628e-05
1.39454308623102579e-05
1.37985719233095798e-05
1.38689338933627193e-05
1.41506630085399475e-05
1.42974885634800288e-05
1.21262451302251567e-05
1.98043584572771077e-05
1.8464345022006731e-05
1.7802156149819e-05
1.72205082148172225e-05
1.66200910053195082e-05
1.60124988524537387e-05
1.54049760740457297e-05
1.48061882791865024e-05
1.42704382375953916e-05
1.38216634541555685e-05
1.35291305108531237e-05
1.34486537838028952e-05
1.36421983392751007e-05
1.42000508041284954e-05
1.40126481515623293e-05
1.16251169215804308e-05
1.89925991716135023e-05
1.77608962084397247e-05
1.7162353950701911e-05
1.66255115596058374e-05
1.60675892941703227e-05
1.55014134532991914e-05
1.49196943323131911e-05
1.43295817944401757e-05
1.38006940028352972e-05
1.33713384479497277e-05
1.31092078626289132e-05
1.30672239580772052e-05
1.33748409759382892e-05
1.42578336856645086e-05
1.35169412329854836e-05
1.10363412718925381e-05
1.82525438762708096e-05
1.71136588640234222e-05
1.65714890726090114e-05
1.60750971243952855e-05
1.55582821264105098e-05
1.50321768315264938e-05
1.44681593370527219e-05
1.3876537886450511e-05
1.3352984610101659e-05
1.29464790896500261e-05
1.26925065821782187e-05
1.26452206193007077e-05
1.30517854639146342e-05
1.42097365105108813e-05
1.28629717359747706e-05
1.03582059324017783e-05
1.75787332841054031e-05
1.65203955159428571e-05
1.60272938312449975e-05
1.55702366490932743e-05
1.50945693215980047e-05
1.46084615028932668e-05
1.4055806042627143e-05
1.34596988544803968e-05
1.29520038271120339e-05
1.25714610206096853e-05
1.22847456605422378e-05
1.21799944523181101e-05
1.26967320705566967e-05
1.40158496885912226e-05
1.21406574506698134e-05
9.46929175772039535e-06
1.69683069371496477e-05
1.59857203945014547e-05
1.55351237717269979e-05
1.51190649700624877e-05
1.46846786186321072e-05
1.42417623460552962e-05
1.36994977846240662e-05
1.31073262829959711e-05
1.26360131840834084e-05
1.22736369424461764e-05
1.18944279689923201e-05
1.17008527637562106e-05
1.23495700916044287e-05
1.36575086761612037e-05
1.13955961771572379e-05
8.7260153045633883e-06
1.64275564472478954e-05
1.55240586892137222e-05
1.51110824084312056e-05
1.47393391696073935e-05
1.43469764184530032e-05
1.39572588310856219e-05
1.34321016883694333e-05
1.28642922297626806e-05
1.24533967785163039e-05
1.20879147620624999e-05
1.15785623128726752e-05
1.13313788377643361e-05
1.22946882418575406e-05
1.36583636442909679e-05
1.08576152765449225e-05
8.13674046925837269e-06
1.59803345012270605e-05
1.5164481285792623e-05
1.47866273260766042e-05
1.44627332015529839e-05
1.41180800081880539e-05
1.37995639481731853e-05
1.33060722420227795e-05
1.27932181346920646e-05
1.24668682749910607e-05
1.20920288814045739e-05
1.15339608812686643e-05
1.15494165040819382e-05
1.52860203605583921e-05
1.51619032542127169e-05
1.05527611914970579e-05
7.62167620827459061e-06
1.56634798095671648e-05
1.49535994853482822e-05
1.46131897174052485e-05
1.43452777982099412e-05
1.40657950817019806e-05
1.38436043784337566e-05
1.34111332461943626e-05
1.29975731813917636e-05
1.27947831572494847e-05
1.24953448489129699e-05
1.2189620070390175e-05
1.59159350507751192e-05
2.93548707058065311e-05
2.99003564360086601e-05
1.14401500125088784e-05
7.30549518641484189e-06
1.5550333722508624e-05
1.49883042185611136e-05
1.4706594756477071e-05
1.45190085029602677e-05
1.43341101409609068e-05
1.42350780824723439e-05
1.38923117796919383e-05
1.36161477243737049e-05
1.38899367551883863e-05
1.44118588122362478e-05
1.72171793121824708e-05
3.87783788867286392e-05
0.000115778487595591129
0.000115388666299036345
1.62286167618608972e-05
7.25791751019501726e-06
2.78797968976872278e-05
2.61187017166452868e-05
2.45581167322612246e-05
2.31900388884992763e-05
2.20207568837994091e-05
2.09741582981614843e-05
2.0012762465659824e-05
1.91231425236171144e-05
1.83193830137801652e-05
1.75986139080546984e-05
1.69851318592659386e-05
1.645491836582798e-05
1.60883984170675285e-05
1.57468269890275253e-05
1.57994560355879467e-05
1.85175000892946539e-05
2.64928874702680196e-05
2.45739059063046764e-05
2.32799976130802238e-05
2.21915872282378021e-05
2.12196779146678978e-05
2.02842084740805864e-05
1.94005101958297779e-05
1.85820357613251816e-05
1.78493105450485536e-05
1.72037511219772867e-05
1.66578047539486402e-05
1.62169056494422894e-05
1.59275459311351867e-05
1.57123275490736709e-05
1.58029503803389429e-05
1.6531274265249578e-05
2.51690698997245608e-05
2.32402686247852078e-05
2.21346270653826124e-05
2.11888320044371316e-05
2.03058531286108328e-05
1.94539882397452804e-05
1.86471710000817698e-05
1.79009946070199686e-05
1.72431571722340128e-05
1.6678512645840524e-05
1.62213023145184127e-05
1.58933939792929341e-05
1.57307391589998936e-05
1.56470236120158166e-05
1.58979369434731312e-05
1.55242381937924547e-05
2.39330120452458867e-05
2.2091123395856842e-05
2.11132148776861562e-05
2.02786296051161077e-05
1.94760618701998283e-05
1.86947120549822794e-05
1.79536819454175269e-05
1.72695906941923308e-05
1.66763058715589271e-05
1.61800560894352485e-05
1.58028843047537337e-05
1.55829705175412755e-05
1.55483595757979945e-05
1.56262140061558979e-05
1.59382331190536923e-05
1.49671536804800806e-05
2.27943361932839821e-05
2.10779738081118781e-05
2.01938788315276294e-05
1.94452844911315609e-05
1.87110346591471962e-05
1.79891441258311563e-05
1.73034335623071974e-05
1.66715887382298595e-05
1.61326368369666083e-05
1.56930042338930285e-05
1.53883624507189699e-05
1.52714670519291886e-05
1.53694603045618429e-05
1.56370928458056858e-05
1.58510243093008808e-05
1.4473383729114346e-05
2.17524984821256242e-05
2.01694183548729401e-05
1.93611833909734072e-05
1.868106301249346e-05
1.8004482905538493e-05
1.7332339186844406e-05
1.66921084629234559e-05
1.61032587447714834e-05
1.56087908535390053e-05
1.52147327002680154e-05
1.49743084346112484e-05
1.49529274840047508e-05
1.5189139115997071e-05
1.56776335400252261e-05
1.55981401986115791e-05
1.38225955155120479e-05
2.0803562016159008e-05
1.9345768625217183e-05
1.86021632280255571e-05
1.79784074464500902e-05
1.73496804062925427e-05
1.67177919554125101e-05
1.61141764438527352e-05
1.55606363759756075e-05
1.51017703667071169e-05
1.47427094506670966e-05
1.4556389024471224e-05
1.46203832296089242e-05
1.4996555921358401e-05
1.57152292505350605e-05
1.5242972047045951e-05
1.31366827988168163e-05
1.99416156776749267e-05
1.85929238233570168e-05
1.79057061934018674e-05
1.73295433924269644e-05
1.67391288762611137e-05
1.61384767520509237e-05
1.55651804923680414e-05
1.50420949844799856e-05
1.46109001450913899e-05
1.42760558035465305e-05
1.41309954640792589e-05
1.42625823739478806e-05
1.477243952740492e-05
1.55529231541278678e-05
1.47656619017021985e-05
1.24263831055731721e-05
1.91583563288129985e-05
1.78989312301649002e-05
1.72616188843825636e-05
1.6725867113809998e-05
1.61648736277391948e-05
1.55890052628303252e-05
1.50444807271023214e-05
1.45497200938444018e-05
1.41377503995239811e-05
1.38155898027723284e-05
1.36945670110602334e-05
1.38632763168918113e-05
1.44998270164885773e-05
1.51561016793748539e-05
1.41173682617737016e-05
1.1690040448949203e-05
1.84423264994681112e-05
1.7253002818974423e-05
1.66610004593283103e-05
1.61596672839248343e-05
1.56219263891825062e-05
1.50697729730748424e-05
1.45577352419488427e-05
1.4089286949647676e-05
1.36861432812670516e-05
1.33655215449263766e-05
1.32446862629877539e-05
1.34077014276471905e-05
1.41691123676156999e-05
1.4659649600147397e-05
1.33284634855955251e-05
1.08878529159742259e-05
1.77799896251276716e-05
1.66481825589791817e-05
1.60989559877691314e-05
1.56285283417561452e-05
1.51134306337567228e-05
1.45904630124128011e-05
1.41173173953965563e-05
1.36700639140734335e-05
1.32657599359130483e-05
1.29388390437202821e-05
1.27846323339774123e-05
1.28861483153284245e-05
1.37648819764376932e-05
1.41457299717609934e-05
1.24533596663522387e-05
9.81736255495545795e-06
1.71604230469459224e-05
1.60862758388641992e-05
1.55800996734591496e-05
1.51412447757885676e-05
1.46547253028387618e-05
1.41709713409327698e-05
1.37415283046501213e-05
1.33071476500383425e-05
1.28984757852780673e-05
1.25620076105005419e-05
1.23327743527845186e-05
1.23207249938663775e-05
1.33216498500080543e-05
1.35853602728466656e-05
1.1565857094683792e-05
9.03340155610153629e-06
1.65837385502792833e-05
1.55831855482407461e-05
1.51244196262627414e-05
1.47216758647970289e-05
1.42741898083354148e-05
1.38406609294446232e-05
1.34558311271476522e-05
1.30283396071557902e-05
1.26265939885956032e-05
1.22860362954026242e-05
1.19510777822994642e-05
1.18255218106508506e-05
1.30308558748295441e-05
1.31626528813083918e-05
1.07740233821884504e-05
8.38575934034815143e-06
1.60702126775877367e-05
1.51743922713167924e-05
1.4771313918796439e-05
1.44103135657187759e-05
1.40137907357992208e-05
1.36406019570606794e-05
1.32993543553136256e-05
1.28850765095677983e-05
1.25249501118205372e-05
1.22173408951629248e-05
1.18345464778235937e-05
1.17755289264495766e-05
1.48496213302085846e-05
1.40339191041056041e-05
1.02459867069284359e-05
7.79015896663120131e-06
1.5667674041515285e-05
1.49170245189460196e-05
1.45809512605013144e-05
1.42711052928184021e-05
1.39371973794038137e-05
1.36362583449495806e-05
1.33454139640999156e-05
1.29813664499694915e-05
1.27406861080971774e-05
1.25696938920258061e-05
1.23547081449955478e-05
1.45496881033472263e-05
2.51583826986484521e-05
2.2192631511715429e-05
1.06348759546075821e-05
7.36128211216714973e-06
1.54741681993873519e-05
1.49208978510800028e-05
1.46704067351039662e-05
1.44277259879121913e-05
1.41808404529409117e-05
1.39620786423392985e-05
1.3715627838910823e-05
1.34796620108268718e-05
1.38692474136124591e-05
1.45179984474801929e-05
1.64857272270642349e-05
3.13305104467679024e-05
8.18241179224847326e-05
7.74305713976561149e-05
1.2456156783752465e-05
7.15995497648506972e-06
2.79618950253413695e-05
2.62165863966427549e-05
2.46811233166601429e-05
2.33451244924890555e-05
2.22125045648493949e-05
2.12090725404310558e-05
2.02994294907012129e-05
1.94751211497447491e-05
1.87503222011332038e-05
1.8134224354625267e-05
1.7642445190089144e-05
1.72875512431102936e-05
1.71117150216670708e-05
1.70728891920687632e-05
1.75255097375509587e-05
2.108582958022527e-05
2.65648292550434664e-05
2.46590114105151538e-05
2.3393147451296979e-05
2.23374404293855819e-05
2.14010694387191524e-05
2.05074224715861081e-05
1.96747489813625788e-05
1.89200510799729626e-05
1.82674114993064922e-05
1.77252705191544478e-05
1.73102844984911669e-05
1.70463053557901723e-05
1.6980886682478827e-05
1.70497838894889363e-05
1.73148057701806376e-05
1.84496509172714235e-05
2.52287636410171807e-05
2.33145721094354222e-05
2.22379051968474513e-05
2.13248335713809517e-05
2.04774003421168495e-05
1.96668818530299348e-05
1.89105579123768132e-05
1.82274324771974901e-05
1.7650242010499069e-05
1.71905666756787187e-05
1.68697762347951715e-05
1.67262496501617481e-05
1.6808747975627076e-05
1.70243005755839486e-05
1.73320105835316362e-05
1.70678600320776259e-05
2.39790110989305128e-05
2.21530729498688861e-05
2.12057283036524474e-05
2.04042797321761873e-05
1.96370210608540954e-05
1.88964145742791725e-05
1.82050281833942367e-05
1.75828642827100555e-05
1.70700648690204107e-05
1.66795419201008255e-05
1.64430793802637977e-05
1.64157236381170572e-05
1.66432933403757831e-05
1.7045866265853409e-05
1.7171579971601298e-05
1.63213516344829602e-05
2.28244137627367062e-05
2.11262393564871357e-05
2.02751074864515307e-05
1.95599717453694438e-05
1.88604477460782871e-05
1.81786744052586732e-05
1.75416193786181474e-05
1.69702174384510422e-05
1.65107177526324339e-05
1.61767292116919139e-05
1.6016008107351237e-05
1.60988725242292156e-05
1.64733865126087091e-05
1.7028390732444955e-05
1.70048878927113147e-05
1.55980191134635673e-05
2.176433300864279e-05
2.02036171233530564e-05
1.94310289456121671e-05
1.87837938191196665e-05
1.81409906622613434e-05
1.7508863520218864e-05
1.69166489773324334e-05
1.63862994506148702e-05
1.59690725201249242e-05
1.56796578109954603e-05
1.55853288687141595e-05
1.57689446894844509e-05
1.62960783341944687e-05
1.68622914580241875e-05
1.65915959103139675e-05
1.47321043155464765e-05
2.07953971205330113e-05
1.93669467090355338e-05
1.86604025907231632e-05
1.80672974885997518e-05
1.7471770975462992e-05
1.68815112171688336e-05
1.6325950942548864e-05
1.58277964465529883e-05
1.54422442935050372e-05
1.51861354444080458e-05
1.51474136347284222e-05
1.54202144029576424e-05
1.61031589966292864e-05
1.65630756447236703e-05
1.6038957540445014e-05
1.38627088386002469e-05
1.99135327790223706e-05
1.86030310613889833e-05
1.79510975415369285e-05
1.74019288971531744e-05
1.6846310032857315e-05
1.62918296261567038e-05
1.57667153818057832e-05
1.52933901922619788e-05
1.49299425550365557e-05
1.46969630620025734e-05
1.47013688550832216e-05
1.50450898839148362e-05
1.58751203638836173e-05
1.61577780961135328e-05
1.54135044838016974e-05
1.30175244355818728e-05
1.91131261185549422e-05
1.79004483067489773e-05
1.72917023747959496e-05
1.67796794400875523e-05
1.62593034611957621e-05
1.5737167194336611e-05
1.52393281571643425e-05
1.47852555478637012e-05
1.44355099654759704e-05
1.42165324986228776e-05
1.42475571178553287e-05
1.46297047962073426e-05
1.5593448021847216e-05
1.56359475909239729e-05
1.46608757556791687e-05
1.21929850431690077e-05
1.83856980904317112e-05
1.72487697005831345e-05
1.66733768071059483e-05
1.61956462619059657e-05
1.5709156182979281e-05
1.52197661527943572e-05
1.47494414802828991e-05
1.43097391648257163e-05
1.39660278494651569e-05
1.37526389531582728e-05
1.37858377843821915e-05
1.41582884117680709e-05
1.52515548896889461e-05
1.5009523841744733e-05
1.37761444143551826e-05
1.13559592453364564e-05
1.77210154108458022e-05
1.66405692382008501e-05
1.60928447619836055e-05
1.56519477049753612e-05
1.52013424438912256e-05
1.47494187792974884e-05
1.43086319777414172e-05
1.38767360313004007e-05
1.35327971238802071e-05
1.33169357255512213e-05
1.33141947075783091e-05
1.36113072972222675e-05
1.48373771020788645e-05
1.43580030148933738e-05
1.28143614624233876e-05
1.02860305092895166e-05
1.71109255017512937e-05
1.60759134087239261e-05
1.55571543334687279e-05
1.51611762714850651e-05
1.47512650416411796e-05
1.43449247975603645e-05
1.39335036553727808e-05
1.3500299421636683e-05
1.31554192584281646e-05
1.29275506647816211e-05
1.28345429749413364e-05
1.29808252612879966e-05
1.43318191112210613e-05
1.37147661124979981e-05
1.18370558123139214e-05
9.31120597671811323e-06
1.65551483876320632e-05
1.55688293100129356e-05
1.50900226508665996e-05
1.47490829595938443e-05
1.43849905296913925e-05
1.40331398465581933e-05
1.36448973192587683e-05
1.32032761681831271e-05
1.2867721239225482e-05
1.26169556778847586e-05
1.2380470539378081e-05
1.23493571403601303e-05
1.38928068731651808e-05
1.31399613428626786e-05
1.09397082670639841e-05
8.62445037233754193e-06
1.60686415355803889e-05
1.51536007847902474e-05
1.47321463677752394e-05
1.44531573166220726e-05
1.41390998879639718e-05
1.38483192764984282e-05
1.34729932376366185e-05
1.30303804728940866e-05
1.27331936976944872e-05
1.24703321948500538e-05
1.21212143774995081e-05
1.20416080266862967e-05
1.49635439702316339e-05
1.35492433212968763e-05
1.03199553317502147e-05
8.00728428955227527e-06
1.56911103102926515e-05
1.48881740165202186e-05
1.45428511452868827e-05
1.43277518951726007e-05
1.40677260608638051e-05
1.38429524502977223e-05
1.34824458776167418e-05
1.30804387004180154e-05
1.28811538912904181e-05
1.26783194977903132e-05
1.24064296597677215e-05
1.35713610955900603e-05
2.29252667214295884e-05
1.86710568310205664e-05
1.03355155801625072e-05
7.51167948682997447e-06
1.55192959040530321e-05
1.48814563233885575e-05
1.4637865105677335e-05
1.44854103319853896e-05
1.42945302738788239e-05
1.41417249217941092e-05
1.38004500110380228e-05
1.35131956075102166e-05
1.38114246321327047e-05
1.41491716285518902e-05
1.52937094225759319e-05
2.60161132008510668e-05
6.45624762632881349e-05
5.05389137546748197e-05
1.23854887210145354e-05
7.24497245627585673e-06
2.80669417820199086e-05
2.63316334072377208e-05
2.48175318703918313e-05
2.35098177916681765e-05
2.2411550530607734e-05
2.14499157713682907e-05
2.05914541415899005e-05
1.98306851004690228e-05
1.91845438835728576e-05
1.8667364074596889e-05
1.82976442978997862e-05
1.81034858183917947e-05
1.81270212962584556e-05
1.83679380761392001e-05
1.91714500808998636e-05
2.33501081436980084e-05
2.66630800417302682e-05
2.47637985423347381e-05
2.35188595431105841e-05
2.24903732335909584e-05
2.15874037400725786e-05
2.07350059960529724e-05
1.99528689760340043e-05
1.92603818370684288e-05
1.86856589127151123e-05
1.82421115892099513e-05
1.79500299256471307e-05
1.78503186805378337e-05
1.7990966967645514e-05
1.83236809104008719e-05
1.86303179465520849e-05
2.02712996664592999e-05
2.53229607887731354e-05
2.34144219247029189e-05
2.23551292396762681e-05
2.14677576994724187e-05
2.06537790427174822e-05
1.98844947003534336e-05
1.91783584213179024e-05
1.85569748856712641e-05
1.80583562662551095e-05
1.76982104991124465e-05
1.75057227167187521e-05
1.75359225472286505e-05
1.78463164644657387e-05
1.83019560217937189e-05
1.85810243938296217e-05
1.8547272492126069e-05
2.40738974672051643e-05
2.22503457049566238e-05
2.13144431143621446e-05
2.0536725482882456e-05
1.98032244474961079e-05
1.91040695306167331e-05
1.84623135445714443e-05
1.79008478408716686e-05
1.74657615473576758e-05
1.71740024491142166e-05
1.70690331447445804e-05
1.72235392978020005e-05
1.76955907923913361e-05
1.8215470340780894e-05
1.83185301270802714e-05
1.75440788893339015e-05
2.29262560724872541e-05
2.12232748758746252e-05
2.0374973314344928e-05
1.96814537724149343e-05
1.90166797113429647e-05
1.83770175281601032e-05
1.77888769008592917e-05
1.72763549614229819e-05
1.68919248266649582e-05
1.66540978416636686e-05
1.66261405674109925e-05
1.68961895848022118e-05
1.75311545495336817e-05
1.80186371311962472e-05
1.81178399077886296e-05
1.65555170570047388e-05
2.18808732080519106e-05
2.03020362996832196e-05
1.95208032354604915e-05
1.88936572390836729e-05
1.8287994938904755e-05
1.76994994360934554e-05
1.71554543951739375e-05
1.66810996002549185e-05
1.6333992220580852e-05
1.61360921974950534e-05
1.6173446768063665e-05
1.654575122219603e-05
1.73469870913213558e-05
1.77146388380605801e-05
1.75545001588867784e-05
1.55075404525708485e-05
2.09356967066953046e-05
1.94664256315160379e-05
1.8737514490382152e-05
1.81649580827193825e-05
1.76115807403777988e-05
1.70681118987287879e-05
1.65600542906554409e-05
1.61131543015133997e-05
1.57892065146529405e-05
1.56173129497208316e-05
1.57061199376179411e-05
1.61646576258240931e-05
1.71349514590185217e-05
1.73189937446145367e-05
1.68573872972941717e-05
1.45094187763910428e-05
2.00872124598867191e-05
1.86998702365707574e-05
1.80118050442502781e-05
1.74879410472557051e-05
1.698411035549143e-05
1.6482176481800154e-05
1.60033296638419426e-05
1.55724902841012944e-05
1.52563549218210261e-05
1.50974824370627647e-05
1.52218468626477723e-05
1.57438878862253392e-05
1.68631405569676196e-05
1.68189184337249165e-05
1.60965680278390051e-05
1.35579784235177097e-05
1.93280812511084401e-05
1.79871384130717475e-05
1.73325703897811015e-05
1.68579008423867242e-05
1.64060720198643918e-05
1.59447547034567336e-05
1.54886021125395738e-05
1.50602386448941494e-05
1.47360495802856872e-05
1.45801684410822739e-05
1.47208964079966776e-05
1.52680274028051601e-05
1.65177171850130318e-05
1.62084111102418622e-05
1.52876697575455642e-05
1.26610225370740047e-05
1.86439107491458153e-05
1.73168210249728089e-05
1.66941478633141387e-05
1.62754256364576751e-05
1.58830407518298351e-05
1.54622817032346277e-05
1.50202827504406523e-05
1.45776552690393562e-05
1.42321541591012494e-05
1.40748721352642666e-05
1.42054102647349539e-05
1.47283987174236899e-05
1.61006592599549682e-05
1.54848873043422202e-05
1.43229656714316103e-05
1.17707584682479424e-05
1.80150958879027708e-05
1.66853841234996813e-05
1.60989504318920839e-05
1.57494029040426429e-05
1.54249303696259547e-05
1.50423216860681752e-05
1.46020684941201234e-05
1.41272586455673715e-05
1.37563414322658831e-05
1.35994180509390637e-05
1.36789943501719459e-05
1.41127423344489715e-05
1.56356696110812187e-05
1.47177400312165852e-05
1.32514139642634037e-05
1.08795521871650946e-05
1.74251846019388615e-05
1.61005934034211426e-05
1.55581520137081863e-05
1.52957885948859881e-05
1.50437585118204122e-05
1.46926276694540258e-05
1.42387878931746836e-05
1.3718620423823285e-05
1.33341290792623592e-05
1.31802437486176957e-05
1.31501426324318523e-05
1.34302480715189578e-05
1.51159180708088115e-05
1.39836021442613863e-05
1.21893540345755424e-05
9.80339726272505644e-06
1.68704635945497112e-05