<?xml version="1.0"?>
<VTKFile type="UnstructuredGrid"  version="0.1"  >
<UnstructuredGrid>
<Piece  NumberOfPoints="405" NumberOfCells="1536">
<Points>
<DataArray  type="Float64"  NumberOfComponents="3"  format="ascii">0.45 0 -0.2  0.475 0 -0.2  0.5 0 -0.2  0.525 0 -0.2  0.55 0 -0.2  0.4529424492813992 0.02758452724198016 -0.1986951081977174  0.4768235535566541 0.02608245670941915 -0.1993211576057665  0.5012779602765922 0.02513094090572271 -0.2000503022785164  0.5261603960951141 0.02412451807333789 -0.2008801574749358  0.5514663016796586 0.02243008464696438 -0.2017077702820885  0.4557316820880364 0.05417716050062656 -0.1986590371132367  0.4796511534132578 0.05191308134472992 -0.1993400224310853  0.5040132113172471 0.05014721320241067 -0.2001386352718608  0.5287945085010662 0.04833568090996647 -0.2009924516840012  0.5538489783889279 0.04581474452892215 -0.2018620969584852  0.45910455658241 0.08011333381296305 -0.1988776538682049  0.4830863758191635 0.07730851038129119 -0.1994973016306567  0.5074393885949332 0.07492208790488192 -0.200201179061246  0.5321175783599792 0.07247360495515456 -0.2009285721820958  0.5569465893135026 0.06941718342136112 -0.2016507889472534  0.4627959366206894 0.1055013172952959 -0.1991472157604187  0.486838431632267 0.1023381821448285 -0.1996606657168191  0.5111850681836012 0.09950381566073555 -0.2002395993980373  0.5357699279718229 0.09660268953198008 -0.2008256543908211  0.5604300793951047 0.09323093005702417 -0.2013967069810992  0.4665474135186896 0.130494875805161 -0.1993661381413598  0.4906834923545505 0.1271243019748406 -0.19979408320518  0.5150317565075141 0.123980921532371 -0.2002661237307838  0.5395444624457254 0.1207829376322496 -0.2007375193194648  0.5640919598513792 0.1172552741906971 -0.2011939695731792  0.4702504384078289 0.1552225779511309 -0.1995149559635023  0.4944849744603384 0.1517497441751441 -0.1998911364620179  0.5188533883011377 0.1484161380959303 -0.2002892149285213  0.5433207996559082 0.1450431890003077 -0.200681428141802  0.5678018750254322 0.1414627385805161 -0.201064615950954  0.4738658363714313 0.179798290177425 -0.1996095695303907  0.498192715454068 0.1762847069711857 -0.1999649214902496  0.5225895565659763 0.1728494911015017 -0.2003141352320077  0.5470334988160374 0.1693914759089042 -0.2006545841134753  0.5714790387900771 0.1658138597630726 -0.2010020113189304  0.4774219242144694 0.2042975651280698 -0.1996822880220572  0.5017750203737508 0.2007795237774571 -0.2000337852839723  0.5261887576313392 0.1973123241198846 -0.2003401300489104  0.5506462752156739 0.1938202501400476 -0.2006346957622121  0.5750948247109994 0.1902466721226668 -0.2009721959821911  0.45 0 -0.175  0.475 0 -0.175  0.5 0 -0.175  0.525 0 -0.175  0.55 0 -0.175  0.4533099401937593 0.02740596855089128 -0.1742196435264867  0.4772475782471842 0.02595983114800124 -0.1745929440102526  0.5017364879194107 0.02511893961705244 -0.1750428728254362  0.5266964153983514 0.02427966996733816 -0.1755418473774723  0.5522432650863214 0.02264266866159349 -0.1760329377794174  0.4562281710934404 0.05408104145439126 -0.1740530365892347  0.4802013216933938 0.05182701980073545 -0.1745481485660837  0.5046056473586136 0.05006732879726947 -0.1751263179954473  0.5294346892782829 0.04825846025205643 -0.175734228295478  0.5545987483824488 0.04569941206713041 -0.1763078794245541  0.4595907782241183 0.08006218537284683 -0.1741302442113886  0.4836398839559958 0.07724326173533626 -0.1746252013745915  0.5080151198625655 0.0748011990045558 -0.1751780423084263  0.5327012099661348 0.07228674169077262 -0.1757451080450685  0.557556254921128 0.06918982480825545 -0.1762927391222071  0.4632282435392046 0.1054687919386614 -0.1742724067698  0.4873400338091241 0.1022801736396322 -0.1747260714971134  0.5116953516165018 0.09937631384228965 -0.1752113224834836  0.5362661015030917 0.09640301586909138 -0.1757022366537822  0.5609181883764198 0.09300533513326206 -0.1761851981267751  0.4669319192372344 0.1304616216772541 -0.1744037907742014  0.4911253898388163 0.1270671569190904 -0.1748159285590966  0.5154755891760151 0.1238643935700212 -0.1752381542772385  0.5399682094945655 0.1206081160140451 -0.1756605748876854  0.5644971316499491 0.1170644499925296 -0.1760836567309662  0.4706104552965845 0.1551865634256419 -0.1745024182290442  0.4948840270295642 0.1516929075846342 -0.1748881208001922  0.5192481773002319 0.1483146948873174 -0.1752654023432113  0.543696789241499 0.1448989591255224 -0.1756386467719404  0.5681596777657847 0.1413062916255158 -0.1760210156109997  0.4742265672247025 0.1797577353637681 -0.1745748497349007  0.4985692491455064 0.1762302009408438 -0.1749500300123938  0.5229541848065311 0.1727611500820407 -0.1752962417198599  0.5473833973420124 0.1692674688835339 -0.1756355011698195  0.571818468458576 0.1656752536990238 -0.1759972082086407  0.4777807470084322 0.2042562175046685 -0.174652628698346  0.5021588027187316 0.2007311126389422 -0.1750160580017574  0.5265539124739348 0.1972271222314633 -0.1753294954282618  0.5509923657411888 0.1936957089629958 -0.1756363925146057  0.5754358222811555 0.1901058475673968 -0.175985099217805  0.45 0 -0.15  0.475 0 -0.15  0.5 0 -0.15  0.525 0 -0.15  0.55 0 -0.15  0.4536143786395727 0.02741451371328535 -0.1495522063998197  0.4774407386416948 0.02592588811141624 -0.1497789992029096  0.5018983165546739 0.02511095403156268 -0.1500332810828796  0.5268886168152677 0.02429166104867016 -0.1503135573840398  0.5525406483982785 0.02255573061366001 -0.150585719702878  0.4566304816042533 0.05404005034494989 -0.1493735865665842  0.4805306559145927 0.05177541179650653 -0.1497077743873273  0.5049180291305981 0.05003815550163344 -0.1500892058750311  0.529790162412463 0.04824218971343823 -0.1504869492602625  0.5550385072721944 0.04562900586721019 -0.1508512650407063  0.4600271471206703 0.08000458363155956 -0.149358656977275  0.4840342631368023 0.07718389770465937 -0.149733739943147  0.5084016303652305 0.0747446342704009 -0.1501373649601604  0.5331128708957121 0.07222445815662754 -0.1505509994680299  0.5580141115665898 0.06911557816301865 -0.150944838775019  0.4636651522714542 0.1054070291718529 -0.1494052029503427  0.4877536734719362 0.1022166255661813 -0.1497864715388002  0.5121010673404988 0.09930045771471242 -0.1501743095206202  0.5366786521161639 0.0963112148349419 -0.1505671769137961  0.5613477386483258 0.09291636938893832 -0.1509545517948163  0.4673583340502666 0.1304052191559417 -0.1494627038526725  0.4915367628087171 0.1270033590560153 -0.1498407183561663  0.5158768582554363 0.1237803966975052 -0.1502066435764104  0.5403647237101972 0.120504195887547 -0.1505735817069745  0.5648933556718769 0.1169640524074032 -0.1509462029903308  0.4710316280649023 0.1551397616133292 -0.1495140161243549  0.4952907215886531 0.1516313417612275 -0.1498908825312377  0.5196420049417426 0.1482287702797387 -0.1502399845689029  0.54407959074076 0.1447907721200134 -0.1505863983350046  0.5685329354838958 0.1411953195617283 -0.1509486626567154  0.4746576293516462 0.1797254476800255 -0.1495612312719472  0.4989815084504001 0.1761716095703165 -0.1499428633311709  0.5233499420914824 0.1726740294636371 -0.1502771643629699  0.5477641523872968 0.1691547183248296 -0.1506060076455195  0.5721846423729621 0.1655500593425948 -0.1509649244124561  0.4782509886526595 0.2042386044143748 -0.1496392685897443  0.5025984283713851 0.2006732007417786 -0.1500130768541325  0.526972822761179 0.1971348802304535 -0.1503188829184489  0.5513899815242201 0.1935729837808815 -0.1506215088360307  0.5758120959910841 0.1899620842901245 -0.1509722861315697  0.45 0 -0.125  0.475 0 -0.125  0.5 0 -0.125  0.525 0 -0.125  0.55 0 -0.125  0.4537824307127052 0.02745485162904097 -0.124739475462485  0.4775518349860796 0.02592722346510781 -0.1248702079747999  0.5019880125745102 0.02510829400043771 -0.125016454315787  0.5269891933032497 0.02428460768316627 -0.1251778997266197  0.5526852606228256 0.02247663303347152 -0.1253407232135495  0.4568930672347449 0.05405857345750917 -0.1246017966664147  0.480744390310887 0.05176451804821067 -0.1248126700959785  0.5051150508849125 0.0500259497940697 -0.125051590103733  0.5300038818789734 0.04822099375926481 -0.1252977104429274  0.5552863468744533 0.04554546048184984 -0.1255221580199936  0.4603470180604012 0.07999976105725759 -0.1245469298955823  0.484322909508154 0.07715887191897933 -0.1248102507874301  0.5086786835111535 0.07471421180321938 -0.125090108520114  0.5334003203800983 0.07218290968198729 -0.1253733062202314  0.5583205694649429 0.06903953323075764 -0.1256439502634845  0.4640192797624781 0.1053884168704517 -0.1245337467848212  0.4880886505218943 0.102180557956643 -0.1248299930173534  0.5124256420848836 0.09925259865742297 -0.1251279472579127  0.5370043388085538 0.09624971620375425 -0.1254265583351107  0.5616792475706995 0.09283647473818854 -0.1257229440551247  0.4677345419095254 0.1303815023624032 -0.1245379307452225  0.4918995210970004 0.1269607774237806 -0.1248583101359097  0.5162278701556778 0.1237198132378975 -0.1251663246274088  0.5407094921300626 0.1204266474814736 -0.1254725837173321  0.5652343599526742 0.1168730472687285 -0.1257853395557914  0.4714285019754281 0.1551179211711158 -0.1245515816452317  0.4956740561869512 0.1515856867744709 -0.1248923296155301  0.520011233899995 0.1481595148789254 -0.1252072499733574  0.5444375606595117 0.1447005064533103 -0.1255180114528638  0.5688808178456208 0.1410898692409047 -0.1258443785869382  0.4750820625454967 0.1797111324665432 -0.1245784812171112  0.4993887257531558 0.1761245859679064 -0.1249374734708387  0.5237394765357357 0.1725977988657008 -0.1252518254821314  0.5481384562278786 0.1690528243282461 -0.1255602285117918  0.5725444003635121 0.1654276219290312 -0.1258985797303209  0.4787218660068564 0.204231629869857 -0.1246533335995843  0.5030416259453843 0.2006234159528143 -0.125009044517626  0.5273921987663414 0.1970507771823218 -0.1253001815162976  0.5517892608817353 0.1934583510469354 -0.1255873083895121  0.5761924051995507 0.1898199702760284 -0.1259230315989494  0.45 0 -0.1  0.475 0 -0.
[...]
<PointData  Vectors="Displacement"> 
<DataArray  type="Float64"  Name="Displacement"  NumberOfComponents="3" format="ascii">0.0000000000000000e+00 0.0000000000000000e+00 0.0000000000000000e+00  0.0000000000000000e+00 0.0000000000000000e+00 0.0000000000000000e+00  0.0000000000000000e+00 0.0000000000000000e+00 0.0000000000000000e+00  0.0000000000000000e+00 0.0000000000000000e+00 0.0000000000000000e+00  0.0000000000000000e+00 0.0000000000000000e+00 0.0000000000000000e+00  2.9424492813991247e-03 2.5845272419801574e-03 1.3048918022826816e-03  1.8235535566540003e-03 1.0824567094191552e-03 6.7884239423345667e-04  1.2779602765923483e-03 1.3094090572269990e-04 -5.0302278516372211e-05  1.1603960951139592e-03 -8.7548192666210957e-04 -8.8015747493580359e-04  1.4663016796583048e-03 -2.5699153530356262e-03 -1.7077702820884914e-03  5.7316820880363491e-03 4.1771605006265446e-03 1.3409628867633212e-03  4.6511534132578254e-03 1.9130813447299335e-03 6.5997756891477712e-04  4.0132113172471114e-03 1.4721320241066496e-04 -1.3863527186080594e-04  3.7945085010663111e-03 -1.6643190900335267e-03 -9.9245168400125222e-04  3.8489783889278559e-03 -4.1852554710778500e-03 -1.8620969584852559e-03  9.1045565824099586e-03 5.1133338129630401e-03 1.1223461317951069e-03  8.0863758191633897e-03 2.3085103812911633e-03 5.0269836934330387e-04  7.4393885949331877e-03 -7.7912095118088409e-05 -2.0117906124598534e-04  7.1175783599792212e-03 -2.5263950448454640e-03 -9.2857218209584493e-04  6.9465893135022619e-03 -5.5828165786388781e-03 -1.6507889472535081e-03  1.2795936620689263e-02 5.5013172952959469e-03 8.5278423958118268e-04  1.1838431632267091e-02 2.3381821448284741e-03 3.3933428318095980e-04  1.1185068183601125e-02 -4.9618433926447729e-04 -2.3959939803725488e-04  1.0769927971822676e-02 -3.3973104680199255e-03 -8.2565439082106507e-04  1.0430079395104827e-02 -6.7690699429758623e-03 -1.3967069810992333e-03  1.6547413518689644e-02 5.4948758051609290e-03 6.3386185864024516e-04  1.5683492354550438e-02 2.1243019748406243e-03 2.0591679482000763e-04  1.5031756507514215e-02 -1.0190784676289396e-03 -2.6612373078384490e-04  1.4544462445725543e-02 -4.2170623677504114e-03 -7.3751931946471321e-04  1.4091959851379145e-02 -7.7447258093028557e-03 -1.1939695731792313e-03  2.0250438407828846e-02 5.2225779511308294e-03 4.8504403649776522e-04  1.9484974460338471e-02 1.7497441751440392e-03 1.0886353798215845e-04  1.8853388301137641e-02 -1.5838619040697212e-03 -2.8921492852135121e-04  1.8320799655908070e-02 -4.9568109996923140e-03 -6.8142814180205012e-04  1.7801875025432286e-02 -8.5372614194839779e-03 -1.0646159509539723e-03  2.3865836371431203e-02 4.7982901774249334e-03 3.9043046960929431e-04  2.3192715454068060e-02 1.2847069711856803e-03 3.5078509750366150e-05  2.2589556565976263e-02 -2.1505088984982881e-03 -3.1413523200766926e-04  2.2033498816037143e-02 -5.6085240910958662e-03 -6.5458411347524715e-04  2.1479038790077142e-02 -9.1861402369274939e-03 -1.0020113189303755e-03  2.7421924214469373e-02 4.2975651280697594e-03 3.1771197794283417e-04  2.6775020373750902e-02 7.7952377745714560e-04 -3.3785283972285454e-05  2.6188757631339269e-02 -2.6876758801153318e-03 -3.4013004891040720e-04  2.5646275215673735e-02 -6.1797498599523628e-03 -6.3469576221203807e-04  2.5094824710999341e-02 -9.7533278773332399e-03 -9.7219598219104022e-04  0.0000000000000000e+00 0.0000000000000000e+00 0.0000000000000000e+00  0.0000000000000000e+00 0.0000000000000000e+00 0.0000000000000000e+00  0.0000000000000000e+00 0.0000000000000000e+00 0.0000000000000000e+00  0.0000000000000000e+00 0.0000000000000000e+00 0.0000000000000000e+00  0.0000000000000000e+00 0.0000000000000000e+00 0.0000000000000000e+00  3.3099401937591584e-03 2.4059685508912789e-03 7.8035647351343902e-04  2.2475782471841430e-03 9.5983114800124024e-04 4.0705598974738596e-04  1.7364879194105302e-03 1.1893961705243016e-04 -4.2872825436196308e-05  1.6964153983514364e-03 -7.2033003266184332e-04 -5.4184737747225899e-04  2.2432650863215575e-03 -2.3573313384065218e-03 -1.0329377794174258e-03  6.2281710934404032e-03 4.0810414543912595e-03 9.4696341076532550e-04  5.2013216933937123e-03 1.8270198007354463e-03 4.5185143391639746e-04  4.6056473586138617e-03 6.7328797269477979e-05 -1.2631799544732318e-04  4.4346892782829734e-03 -1.7415397479435663e-03 -7.3422829547803100e-04  4.5987483824487183e-03 -4.3005879328695948e-03 -1.3078794245540257e-03  9.5907782241182755e-03 5.0621853728468006e-03 8.6975578861147890e-04  8.6398839559958564e-03 2.2432617353362549e-03 3.7479862540854236e-04  8.0151198625654299e-03 -1.9880099544420551e-04 -1.7804230842628814e-04  7.7012099661348523e-03 -2.7132583092273886e-03 -7.4510804506847008e-04  7.5562549211280229e-03 -5.8101751917445654e-03 -1.2927391222070264e-03  1.3228243539204529e-02 5.4687919386613758e-03 7.2759323019993801e-04  1.2340033809123916e-02 2.2801736396321597e-03 2.7392850288658139e-04  1.1695351616501959e-02 -6.2368615771032183e-04 -2.1132248348358174e-04  1.1266101503091720e-02 -3.5969841309086031e-03 -7.0223665378226017e-04  1.0918188376419859e-02 -6.9946648667379794e-03 -1.1851981267751509e-03  1.6931919237234333e-02 5.4616216772541380e-03 5.9620922579865690e-04  1.6125389838816229e-02 2.0671569190903378e-03 1.8407144090340548e-04  1.5475589176015129e-02 -1.1356064299788283e-03 -2.3815427723846135e-04  1.4968209494565458e-02 -4.3918839859548890e-03 -6.6057488768542629e-04  1.4497131649948905e-02 -7.9355500074703364e-03 -1.0836567309661822e-03  2.0610455296584524e-02 5.1865634256418524e-03 4.9758177095574313e-04  1.9884027029564287e-02 1.6929075846341128e-03 1.1187919980785436e-04  1.9248177300231775e-02 -1.6853051126826443e-03 -2.6540234321131801e-04  1.8696789241498906e-02 -5.1010408744776321e-03 -6.3864677194040611e-04  1.8159677765784168e-02 -8.6937083744842419e-03 -1.0210156109995894e-03  2.4226567224702414e-02 4.7577353637680807e-03 4.2515026509920610e-04  2.3569249145506174e-02 1.2302009408438075e-03 4.9969987606257627e-05  2.2954184806531001e-02 -2.2388499179594040e-03 -2.9624171985980977e-04  2.2383397342012296e-02 -5.7325311164660199e-03 -6.3550116981944086e-04  2.1818468458576185e-02 -9.3247463009761694e-03 -9.9720820864068510e-04  2.7780747008432159e-02 4.2562175046685444e-03 3.4737130165396615e-04  2.7158802718731681e-02 7.3111263894224505e-04 -1.6058001757349272e-05  2.6553912473934658e-02 -2.7728777685366991e-03 -3.2949542826177930e-04  2.5992365741188732e-02 -6.3042910370042097e-03 -6.3639251460568733e-04  2.5435822281155391e-02 -9.8941524326031406e-03 -9.8509921780500507e-04  0.0000000000000000e+00 0.0000000000000000e+00 0.0000000000000000e+00  0.0000000000000000e+00 0.0000000000000000e+00 0.0000000000000000e+00  0.0000000000000000e+00 0.0000000000000000e+00 0.0000000000000000e+00  0.0000000000000000e+00 0.0000000000000000e+00 0.0000000000000000e+00  0.0000000000000000e+00 0.0000000000000000e+00 0.0000000000000000e+00  3.6143786395726471e-03 2.4145137132853449e-03 4.4779360018033451e-04  2.4407386416948457e-03 9.2588811141625267e-04 2.2100079709039142e-04  1.8983165546737294e-03 1.1095403156267985e-04 -3.3281082879637319e-05  1.8886168152678531e-03 -7.0833895132983618e-04 -3.1355738403980414e-04  2.5406483982783499e-03 -2.4442693863399919e-03 -5.8571970287801583e-04  6.6304816042533007e-03 4.0400503449498854e-03 6.2641343341582182e-04  5.5306559145926627e-03 1.7754117965065382e-03 2.9222561267265817e-04  4.9180291305981208e-03 3.8155501633432678e-05 -8.9205875031036342e-05  4.7901624124631059e-03 -1.7578102865617696e-03 -4.8694926026250261e-04  5.0385072721943402e-03 -4.3709941327897970e-03 -8.5126504070630077e-04  1.0027147120670274e-02 5.0045836315595624e-03 6.4134302272497376e-04  9.0342631368022456e-03 2.1838977046594148e-03 2.6626005685309400e-04  8.4016303652304988e-03 -2.5536572959910798e-04 -1.3736496016040012e-04  8.1128708957122885e-03 -2.7755418433724958e-03 -5.5099946802985526e-04  8.0141115665895418e-03 -5.8844218369813297e-03 -9.4483877501911771e-04  1.3665152271454227e-02 5.4070291718529111e-03 5.9479704965733574e-04  1.2753673471936088e-02 2.2166255661813451e-03 2.1352846119983732e-04  1.2101067340498988e-02 -6.9954228528754841e-04 -1.7430952062029754e-04  1.1678652116163903e-02 -3.6887851650581087e-03 -5.6717691379604563e-04  1.1347738648325523e-02 -7.0836306110616965e-03 -9.5455179481618215e-04  1.7358334050266551e-02 5.4052191559417111e-03 5.3729614732754766e-04  1.6536762808717086e-02 2.0033590560153418e-03 1.5928164383375125e-04  1.5876858255436457e-02 -1.2196033024947893e-03 -2.0664357641027545e-04  1.5364723710197046e-02 -4.4958041124530451e-03 -5.7358170697444099e-04  1.4893355671876735e-02 -8.0359475925968257e-03 -9.4620299033084071e-04  2.1031628064902209e-02 5.1397616133291614e-03 4.8598387564512265e-04  2.0290721588653041e-02 1.6313417612274790e-03 1.0911746876226424e-04  1.9642004941742879e-02 -1.7712297202613838e-03 -2.3998456890288921e-04  1.9079590740759999e-02 -5.2092278799865995e-03 -5.8639833500463039e-04  1.8532935483895924e-02 -8.8046804382717093e-03 -9.4866265671529398e-04  2.4657629351646178e-02 4.7254476800254533e-03 4.3876872805286466e-04  2.3981508450399990e-02 1.1716095703164183e-03 5.7136668829080508e-05  2.3349942091482383e-02 -2.3259705363629672e-03 -2.7716436296977950e-04  2.2764152387297093e-02 -5.8452816751704620e-03 -6.0600764551945049e-04  2.2184642372961957e-02 -9.4499406574051707e-03 -9.6492441245618274e-04  2.8250988652659504e-02 4.2386044143747801e-03 3.6073141025563343e-04  2.7598428371384952e-02 6.7320074177855307e-04 -1.3076854132446093e-05  2.6972822761178961e-02 -2.8651197695465716e-03 -3.1888291844890389e-04  2.6389981524220112e-02 -6.4270162191184957e-03 -6.2150883603066527e-04  2.5812095991084097e-02 -1.0037915709875495e-02 -9.7228613156971632e-04  0.0000000000000000e+00 0.0000000000000000e+00 0.0000000000000000e+00  0.0000000000000000e+00 0.0000000000000000e+00 0.0000000000000000e+00  0.0000000000000000e+00 0.0000000000000000e+00 0.0000000000000000e+00  0.0000000000000000e+00 0.0000000000000000e+00 0.0000000000000000e+00  0.0000000000000000e+00 0.0000000000000000e+00 0.0000000000000000e+00  3.7824307127052844e-03 2.4548516290409813e-03 2.6052453751496753e-04  2.5518349860795659e-03 9.2722346510782316e-04 1.2979202520005628e-04  1.9880125745102522e-03 1.0829400043770832e-04 -1.6454315786967107e-05  1.9891933032499640e-03 -7.1539231683373744e-04 -1.7789972661977531e-04  2.6852606228256232e-03 -2.5233669665284788e-03 -3.4072321354945597e-04  6.8930672347447810e-03 4.0585734575091592e-03 3.9820333358530513e-04  5.7443903108870256e-03 1.7645180482106781e-03 1.8732990402151709e-04  5.1150508849124908e-03 2.5949794069708498e-05 -5.1590103732988588e-05  5.0038818789734877e-03 -1.7790062407351832e-03 -2.9771044292747743e-04  5.2863468744532962e-03 -4.4545395181501699e-03 -5.2215801999354436e-04  1.0347018060401274e-02 4.9997610572575721e-03 4.5307010441768513e-04  9.3229095081540977e-03 2.1588719189793147e-03 1.8974921256989801e-04  8.6786835111533935e-03 -2.8578819678065149e-04 -9.0108520114017866e-05  8.4003203800981797e-03 -2.8170903180127519e-03 -3.7330622023144729e-04  8.3205694649427109e-03 -5.9604667692423731e-03 -6.4395026348459288e-04  1.4019279762477984e-02 5.3884168704517645e-03 4.6625321517879999e-04  1.3088650521894262e-02 2.1805579566430465e-03 1.7000698264654543e-04  1.2425642084883672e-02 -7.4740134257700525e-04 -1.2794725791265046e-04  1.2004338808553559e-02 -3.7502837962457543e-03 -4.2655833511077507e-04  1.1679247570699589e-02 -7.1635252618114610e-03 -7.2294405512470124e-04  1.7734541909525402e-02 5.3815023624031533e-03 4.6206925477753935e-04  1.6899521097000249e-02 1.9607774237805687e-03 1.4168986409029296e-04  1.6227870155678080e-02 -1.2801867621024597e-03 -1.6632462740884550e-04  1.5709492130062518e-02 -4.5733525185263730e-03 -4.7258371733206121e-04  1.5234359952673998e-02 -8.1269527312714789e-03 -7.8533955579137432e-04  2.1428501975428050e-02 5.1179211711157744e-03 4.4841835476831023e-04  2.0674056186951031e-02 1.5856867744708950e-03 1.0767038446994662e-04  2.0011233899995026e-02 -1.8404851210745725e-03 -2.0724997335735010e-04  1.9437560659511660e-02 -5.2994935466897982e-03 -5.1801145286377477e-04  1.8880817845620793e-02 -8.9101307590952923e-03 -8.4437858693815716e-04  2.5082062545496699e-02 4.7111324665432075e-03 4.2151878288880967e-04  2.4388725753155521e-02 1.1245859679064451e-03 6.2526529161258056e-05  2.3739476535735875e-02 -2.4022011342992406e-03 -2.5182548213143765e-04  2.3138456227878596e-02 -5.9471756717539414e-03 -5.6022851179174220e-04  2.2544400363511973e-02 -9.5723780709687685e-03 -8.9857973032089040e-04  2.8721866006856347e-02 4.2316298698569640e-03 3.4666640041565992e-04  2.8041625945384292e-02 6.2341595281431247e-04 -9.0445176259699123e-06  2.7392198766341299e-02 -2.9492228176781960e-03 -3.0018151629753240e-04  2.6789260881735524e-02 -6.5416489530646061e-03 -5.8730838951213276e-04  2.6192405199550763e-02 -1.0180029723971652e-02 -9.2303159894936650e-04  0.0000000000000000e+00 0.0000000000000000e+00 0.0000000000000000e+00  0.0000000000000000e+00 0.0000000000000000e+00 0.0000000000000000e+00  0.0000000000000000e+00 0.0000000000000000e+00 0.0000000000000000e+00  0.0000000000000000e+00 0.0000000000000000e+00 0.0000000000000000e+00  0.0000000000000000e+00 0.0000000000000000e+00 0.0000000000000000e+00  3.8813436475798537e-03 2.4940238696266833e-03 1.3226219073375579e-04  2.6221490154344799e-03 9.3834376290865672e-04 6.5863669236778465e-05  2.0478403732986719e-03 1.0936090118724139e-04 1.1654647950259920e-06  2.0510421972659383e-03 -7.2425433554884969e-04 -7.3014552941674221e-05  2.7626739930096504e-03 -2.5795205740896665e-03 -1.6015747223585499e-04  7.0643667086386624e-03 4.1045751832130065e-03 2.2604259578421640e-04  5.8896107179100786e-03 1.7766281262552193e-03 1.0879819121078905e-04  5.2500203470656689e-03 2.1008657536429269e-05 -1.4573995299392307e-05  5.1413666030550734e-03 -1.8046659007879208e-03 -1.3990025276268937e-04  5.4295078385780907e-03 -4.5327142520700673e-03 -2.6089139761777103e-04  1.0577965820095969e-02 5.0369732519412970e-03 2.9722147763353946e-04  9.5335635033019610e-03 2.1630704761933131e-03 1.2914443341224935e-04  8.8800928749499710e-03 -3.0330465418874171e-04 -4.0650684323508462e-05  8.6004763955006107e-03 -2.8598982781675710e-03 -2.0977448655809256e-04  8.5186200494586986e-03 -6.0463809614533289e-03 -3.7865832634022235e-04  1.4297375583424027e-02 5.4133778340265835e-03 3.4972383704887696e-04  1.3351220847864668e-02 2.1739882317110075e-03 1.3489810642114869e-04  1.2678666932564212e-02 -7.7872740020181244e-04 -7.6499697078317311e-05  1.2251897045714069e-02 -3.8079125949245824e-03 -2.8564182621793803e-04  1.1919805672181726e-02 -7.2554459109895096e-03 -4.9813564903732977e-04  1.8050781664841684e-02 5.3956206486178602e-03 3.8490586482486672e-04  1.7202708280254494e-02 1.9440357766572411e-03 1.2757311059635628e-04  1.6520391551601350e-02 -1.3237507550231287e-03 -1.1987677532372275e-04  1.5993287891161476e-02 -4.6435577241580456e-03 -3.6376248431834889e-04  1.5508192573548261e-02 -8.2263006818342702e-03 -6.1417906573480428e-04  2.1779406663697192e-02 5.1246343296488701e-03 4.0023845044977327e-04  2.1011437877895424e-02 1.5606314939517949e-03 1.0662884817220366e-04  2.0336149133185582e-02 -1.8943011006361087e-03 -1.6861370004465882e-04  1.9751385377897394e-02 -5.3808055239825811e-03 -4.3898565553783032e-04  1.9182904672190148e-02 -9.0188563467396704e-03 -7.2132905178243190e-04  2.5468371139372392e-02 4.7143206933267486e-03 3.8929760852919994e-04  2.4759149407687770e-02 1.0927237234423016e-03 6.7467378143907879e-05  2.4094766262502686e-02 -2.4649738064721149e-03 -2.2077440572421168e-04  2.3480546320949383e-02 -6.0391659809660349e-03 -5.0322397405298217e-04  2.2873572656587522e-02 -9.6929846749768209e-03 -8.0979087252375703e-04  2.9151483338258719e-02 4.2317111637128098e-03 3.2073897613155123e-04  2.8449056204426327e-02 5.8478005161601270e-04 -1.8903787938770067e-06  2.7780036382420083e-02 -3.0206462433188964e-03 -2.7386124412435894e-04  2.7161590976219199e-02 -6.6447438725507312e-03 -5.4114607168373387e-04  2.6550987141449264e-02 -1.0315351148338264e-02 -8.4999163094494465e-04  0.0000000000000000e+00 0.0000000000000000e+00 0.0000000000000000e+00  0.0000000000000000e+00 0.0000000000000000e+00 0.0000000000000000e+00  0.0000000000000000e+00 0.0000000000000000e+00 0.0000000000000000e+00  0.0000000000000000e+00 0.0000000000000000e+00 0.0000000000000000e+00  0.0000000000000000e+00 0.0000000000000000e+00 0.0000000000000000e+00  3.9342022092958354e-03 2.5276797601943230e-03 3.3985433442912199e-06  2.6691066888007492e-03 9.5289292484549034e-04 -2.6154314728078181e-06  2.0914676427178534e-03 1.1229766732320536e-04 1.7180358032059100e-05  2.0893418891791853e-03 -7.3236105599033255e-04 3.4157643636078725e-05  2.7927730743169828e-03 -2.6133398004175310e-03 2.6362856330808139e-05  7.1704260132027398e-03 4.1657093459909252e-03 5.6411782484868302e-05  5.9873287400888896e-03 1.8035664944025505e-03 2.8203959903408002e-05  5.3415697907625891e-03 2.0850594649204808e-05 2.1801179852895621e-05  5.2234212204637712e-03 -1.8324191561799436e-03 1.9763795892571439e-05  5.4938267799216570e-03 -4.6007414305273961e-03 3.3739692764343523e-06  1.0739231062087009e-02 5.1050694838451942e-03 1.4674080142088934e-04  9.6825417495472570e-03 2.1900886905959070e-03 6.8570103880420016e-05  9.0201019998939046e-03 -3.1162748847671267e-04 8.5886874353266209e-06  8.7287046420595343e-03 -2.9048045446234991e-03 -4.5562644920621628e-05  8.6265305564629975e-03 -6.1369184908450858e-03 -1.1283927753793418e-04  1.4511015438752229e-02 5.4738514741185578e-03 2.3975804518324678e-04  1.3549804140046126e-02 2.1925269530618293e-03 1.0136387522485343e-04  1.2866623788191716e-02 -7.9708783073595901e-04 -2.4624348500263776e-05  1.2427738253196787e-02 -3.8643459659819159e-03 -1.4444176800335398e-04  1.2076896405989532e-02 -7.3568099423267355e-03 -2.7343822654469694e-04  1.8311466266323996e-02 5.4416040156182984e-03 3.1391949682858361e-04  1.7447334051128641e-02 1.9503606717011482e-03 1.1581405202244382e-04  1.6753583847417611e-02 -1.3524343469062845e-03 -7.2345453723618734e-05  1.6214948764582890e-02 -4.7080521658429677e-03 -2.5432456264791860e-04  1.5714102847182769e-02 -8.3318597544688646e-03 -4.4231721329633964e-04  2.2082124763966923e-02 5.1547736942599461e-03 3.5670383073712524e-04  2.1297360667550117e-02 1.5543940227603491e-03 1.0831671531331219e-04  2.0609934287256992e-02 -1.9328747398330759e-03 -1.2824708300934916e-04  2.0014288068443915e-02 -5.4521856455474948e-03 -3.5858196507078339e-04  1.9433079039983977e-02 -9.1268251411410536e-03 -5.9565737462235525e-04  2.5808442414268114e-02 4.7305385730142847e-03 3.6029635834583968e-04  2.5081563806941473e-02 1.0751624905590671e-03 7.5918634651806410e-05  2.4403939800269385e-02 -2.5125939078652795e-03 -1.8738210165811152e-04  2.3779197259105229e-02 -6.1175025028766096e-03 -4.4454281259371560e-04  2.3162209477203415e-02 -9.8051302317157304e-03 -7.1652310424776900e-04  2.9528917924628546e-02 4.2360023404715277e-03 3.0086208167181975e-04  2.8804813801601825e-02 5.5751202097602693e-04 1.1500896794381921e-05  2.8120473331527042e-02 -3.0760099322542887e-03 -2.4508992876548193e-04  2.7492242795170256e-02 -6.7300918775960537e-03 -4.9597199262343418e-04  2.6874886957568248e-02 -1.0434827960865535e-02 -7.7533235033178333e-04  0.0000000000000000e+00 0.0000000000000000e+00 0.0000000000000000e+00  0.0000000000000000e+00 0.0000000000000000e+00 0.0000000000000000e+00  0.0000000000000000e+00 0.0000000000000000e+00 0.0000000000000000e+00  0.0000000000000000e+00 0.0000000000000000e+00 0.0000000000000000e+00  0.0000000000000000e+00 0.0000000000000000e+00 0.0000000000000000e+00  3.9311701947354121e-03 2.5598105346357814e-03 -1.8561031048816204e-04  2.6888200325747031e-03 9.7235925802677703e-04 -1.0563907990836754e-04  2.1149932074186043e-03 1.1666894249464478e-04 3.2510733413227223e-05  2.0946934313283952e-03 -7.4005921292291405e-04 1.7836922347161963e-04  2.7566179442807524e-03 -2.6211496998892305e-03 2.9230935714362076e-04