<?xml version="1.0"?>
<VTKFile type="UnstructuredGrid"  version="0.1"  >
<UnstructuredGrid>
<Piece  NumberOfPoints="405" NumberOfCells="1536">
<Points>
<DataArray  type="Float64"  NumberOfComponents="3"  format="ascii">0.45 0 -0.2  0.475 0 -0.2  0.5 0 -0.2  0.525 0 -0.2  0.55 0 -0.2  0.4504884649940791 0.02527138853226257 -0.1999873550462742  0.4753192033196685 0.02508191335199247 -0.2000038710941644  0.5002344567809912 0.02499980898878033 -0.2000454822274071  0.525208645674897 0.02492119228881488 -0.2001010504396213  0.5502388335196731 0.02476404741009639 -0.2001595804976325  0.4507281504746741 0.05038551285508804 -0.1999921648730867  0.4756061993082424 0.05018403343698285 -0.2000193330350882  0.5005247108972207 0.05003310036270425 -0.2000664685353546  0.5254952795495514 0.04988592389237231 -0.2001196434369391  0.5505089133778024 0.04967507506439844 -0.2001745776138658  0.4509297501119509 0.07545192255579167 -0.1999753779841405  0.4758523915256735 0.07525278943727683 -0.2000187349230675  0.500796781867498 0.07506302175852235 -0.2000691026683206  0.5257737601270922 0.07487038191611922 -0.2001197997833607  0.5507758263982667 0.0746424967600724 -0.2001710867121272  0.4511168953586399 0.1004848959316013 -0.1999494593336404  0.4760697576581084 0.1002873315229976 -0.2000055131638959  0.501037873985944 0.1000796342080612 -0.2000626939997196  0.5260231621486445 0.09986445174975421 -0.2001170990747719  0.5510203551077406 0.09963625302722839 -0.2001717617751735  0.4512923067658059 0.1254997560502433 -0.1999196723360234  0.4762702858976547 0.1253019735674502 -0.1999886556404963  0.5012549926892305 0.1250859470965392 -0.2000544053146324  0.52624682679098 0.1248624318287759 -0.200116472017924  0.5512428523992445 0.1246390919583291 -0.200179120743219  0.4514725754008136 0.1505042642731347 -0.199896022674016  0.4764649993001228 0.1503028581635233 -0.1999743668429922  0.5014602687743283 0.1500857534445761 -0.2000479289247865  0.5264563579630112 0.1498616279187305 -0.2001181799525826  0.5514527321496535 0.1496420921184051 -0.2001897588889255  0.4516679256279772 0.175504861567053 -0.1998845350275546  0.4766658132146239 0.1752997002037058 -0.1999662527946236  0.5016654495281119 0.1750835054168172 -0.2000443316710493  0.5266638302280616 0.1748613037678419 -0.2001204310820426  0.5516610352903257 0.1746426079484602 -0.2001987584259063  0.4518696177189106 0.200503282694556 -0.1998799967420189  0.476873276190711 0.2002962604366369 -0.1999626426474405  0.5018778144739346 0.200081077568508 -0.2000425433453717  0.5268781120245246 0.199860847541987 -0.2001214187697161  0.5518751491192324 0.1996415806785937 -0.2002026169557446  0.45 0 -0.175  0.475 0 -0.175  0.5 0 -0.175  0.525 0 -0.175  0.55 0 -0.175  0.4504825154692938 0.02528147130730793 -0.1749758024894959  0.4753461725677615 0.02509194840919546 -0.1750035250939471  0.500267514786398 0.02501561731165609 -0.17503274069908  0.5252478690015085 0.02494661546754249 -0.1750693350115052  0.550293848905593 0.0247902193033683 -0.1751085538742361  0.4507459917133628 0.05039222062263707 -0.1749690627370761  0.4756456153452231 0.050189295286639 -0.1750110867407263  0.5005718925976231 0.05004154448621978 -0.1750534951138447  0.5255459732034952 0.04989588860398058 -0.1750990346021273  0.5505652175801263 0.0496808051088615 -0.1751467992393723  0.4509675831824113 0.0754497577041584 -0.1749538381952969  0.4759035503145086 0.07525023859088557 -0.1750080391803743  0.5008515089656601 0.07506337888775427 -0.1750583300039112  0.5258292966688857 0.07487144634949922 -0.1751082571531293  0.5508318797362226 0.07464046355643307 -0.1751616288982703  0.4511713949661774 0.1004782957784738 -0.1749322075847085  0.4761314596485175 0.100280247046499 -0.1749966133051611  0.5010996542584408 0.1000760715115428 -0.17505497140302  0.5260839085407181 0.09986320862959784 -0.1751111956329325  0.5510801883731257 0.09963355483620442 -0.1751708132276787  0.4513609305342089 0.1254913150627202 -0.1749093782290014  0.4763405746709641 0.1252940304747544 -0.1749825922603597  0.5013236828886103 0.1250818644331473 -0.1750495002615144  0.5263140589602365 0.1248615685810278 -0.1751136449105613  0.5513094946503277 0.1246377277199126 -0.1751805641838961  0.4515515180510934 0.1504984257873438 -0.17489141445009  0.4765423034832276 0.150297110958397 -0.1749712734794484  0.5015352226092139 0.1500827243654431 -0.1750454032922462  0.5265301222489015 0.1498614106142213 -0.1751169747155696  0.5515268573881135 0.1496417307230982 -0.175190920948621  0.4517512905614235 0.1755020496062266 -0.1748819781235109  0.4767472767381239 0.1752967064934173 -0.1749655088880955  0.5017448276550378 0.1750817841356181 -0.1750437959403852  0.5267425944122478 0.1748610967594583 -0.1751202223847456  0.5517409541280971 0.1746422409853096 -0.175199364767456  0.4519547187402077 0.2005020057083338 -0.174881295574331  0.4769565255607138 0.2002950048331623 -0.1749655252016999  0.5019590899428978 0.200080126474501 -0.1750442761051726  0.52695915306404 0.1998601965242183 -0.1751215074015967  0.5519578667407075 0.19964084308572 -0.1752022897029271  0.45 0 -0.15  0.475 0 -0.15  0.5 0 -0.15  0.525 0 -0.15  0.55 0 -0.15  0.4505393687742615 0.0252945129551673 -0.1499676247480606  0.4753802297090071 0.02509356821870166 -0.1500014864346509  0.5002914871387991 0.02501807519564903 -0.15002400927757  0.525270645146236 0.02495038166215441 -0.1500496985332927  0.5503244957484502 0.02478626391951314 -0.1500774797988539  0.450815555726259 0.05040637408611533 -0.1499495557142097  0.475700122704713 0.05019508563600013 -0.1500002496979605  0.5006176184185233 0.0500459922731157 -0.1500395422753989  0.5255909844360639 0.04990046906208947 -0.1500795042639317  0.5506141620437884 0.04967855039519195 -0.1501222478130089  0.4510447801325839 0.07546368901934183 -0.1499321045627198  0.4759704996156088 0.07525722622935831 -0.149994977956286  0.5009121020491332 0.07506754762883198 -0.1500452409709644  0.5258883486915302 0.07487344594096607 -0.150094580090594  0.5508908786467204 0.07463665875890033 -0.150148401013305  0.451254476126747 0.1004896604739317 -0.1499137057419151  0.4762067661589385 0.1002863065464849 -0.1499852517302189  0.5011699169056527 0.100078917843759 -0.1500450048522059  0.5261520589624792 0.09986293008900604 -0.1501029120968016  0.5511465001968607 0.09962780952195983 -0.1501656304161375  0.4514466451534141 0.1255005262291294 -0.14989632113954  0.4764210878764796 0.1252992037740637 -0.149974633522357  0.5014003756388561 0.1250838030816035 -0.1500429334247103  0.5263887078181563 0.1248602317873183 -0.150109117910081  0.5513821746629397 0.1246313050801993 -0.1501795324263111  0.4516391106893204 0.1505058170403781 -0.1498833932358392  0.4766263404990744 0.1503014679051478 -0.1499666005267966  0.5016165059984761 0.150084252292579 -0.1500417266947675  0.5266097765255382 0.1498598443288268 -0.1501148717337621  0.5516051741736124 0.1496356649166574 -0.150191718600218  0.4518414034503554 0.1755090079352046 -0.1498769304882107  0.4768343888891675 0.1753009315423126 -0.1499635175405651  0.5018296882430199 0.1750833384082057 -0.1500424496412148  0.5268262292277778 0.1748596949434251 -0.1501197427490006  0.551823986599057 0.1746369841639852 -0.1502012794436109  0.4520472981333326 0.2005095073388871 -0.1498805854892957  0.4770464159328607 0.2002995877069323 -0.1499673788530467  0.5020469290563905 0.200081913998797 -0.1500453305897647  0.5270460799418069 0.1998590389013339 -0.150121750874657  0.55204471642454 0.199636386282824 -0.1502040572196166  0.45 0 -0.125  0.475 0 -0.125  0.5 0 -0.125  0.525 0 -0.125  0.55 0 -0.125  0.4505825247844769 0.02531098580601425 -0.1249609680625442  0.4754122600178187 0.0250967242121821 -0.1249920674408571  0.5003152226891751 0.02501895847159946 -0.1250144988563246  0.5252917658259602 0.02494980140102655 -0.1250372550926071  0.5503494496861946 0.02477572924595508 -0.1250617209386491  0.4508798823049847 0.05042573434339718 -0.1249352825786873  0.475754611046332 0.05020313860292502 -0.1249846544848226  0.5006639125225676 0.0500493811801407 -0.1250244658065889  0.5256341959648166 0.04990006793858695 -0.1250624438128234  0.5506587358964242 0.04966740218385185 -0.1251022954142418  0.4511212642303642 0.07548303121280024 -0.1249142685093236  0.4760400861073251 0.07526803430106509 -0.1249774982198481  0.500975137415421 0.07507240125326961 -0.1250296936996781  0.525948286966417 0.0748728399309594 -0.1250794511754223  0.5509498214208094 0.07462685888144363 -0.1251328964416013  0.4513389660349497 0.1005073276442577 -0.1248967576246844  0.4762859840713651 0.1002974443100745 -0.1249697432162742  0.5012440853453958 0.1000839890034271 -0.1250321083205596  0.5262232957560923 0.09986189372190594 -0.1250919618713549  0.551215659037897 0.09961907661861825 -0.1251562399990389  0.4515354526753668 0.1255159380744122 -0.1248828358118906  0.4765060004365524 0.1253098525653014 -0.1249629856397046  0.5014815066934902 0.1250886146741064 -0.1250337529147535  0.5264673839748337 0.1248589897162962 -0.1251022637067011  0.5514587440565552 0.1246235619744575 -0.1251750875469431  0.4517302887177368 0.1505195280001935 -0.1248739187996151  0.4767147044051255 0.1503111521589338 -0.1249590078157139  0.5017021784328336 0.150088686911084 -0.1250360892560022  0.5266936087944712 0.1498586452883692 -0.1251113032287103  0.5516874410144286 0.1496288288098762 -0.1251907220578139  0.4519357430137703 0.1755225247465984 -0.1248708938443985  0.4769260054782806 0.1753102403683996 -0.1249594034687029  0.5019190204161426 0.175087671357315 -0.1250397547208539  0.5269142422661012 0.1748586652858232 -0.1251186126111851  0.5519111668697588 0.1746306736492536 -0.1252027282442974  0.4521464143055781 0.2005242761405622 -0.1248780638118465  0.4771421197711591 0.2003090922678879 -0.1249666642761173  0.5021404458804227 0.2000863348089497 -0.1250451069648564  0.5271386266108724 0.199858182245731 -0.1251220862722103  0.5521370891856939 0.1996300707587901 -0.1252066262699272  0.45 0 -0.1  0.475 0 -0.1  0.5 0 -0.1  0.525 0 -0.1  0.
[...]
<PointData  Vectors="Displacement"> 
<DataArray  type="Float64"  Name="Displacement"  NumberOfComponents="3" format="ascii">0.0000000000000000e+00 0.0000000000000000e+00 0.0000000000000000e+00  0.0000000000000000e+00 0.0000000000000000e+00 0.0000000000000000e+00  0.0000000000000000e+00 0.0000000000000000e+00 0.0000000000000000e+00  0.0000000000000000e+00 0.0000000000000000e+00 0.0000000000000000e+00  0.0000000000000000e+00 0.0000000000000000e+00 0.0000000000000000e+00  4.8846499407905624e-04 2.7138853226256932e-04 1.2644953725821882e-05  3.1920331966842975e-04 8.1913351992468335e-05 -3.8710941643591510e-06  2.3445678099119716e-04 -1.9101121966742701e-07 -4.5482227407086078e-05  2.0864567489697233e-04 -7.8807711185121854e-05 -1.0105043962129448e-04  2.3883351967307406e-04 -2.3595258990361377e-04 -1.5958049763250198e-04  7.2815047467401125e-04 3.8551285508804059e-04 7.8351269133628658e-06  6.0619930824246137e-04 1.8403343698284187e-04 -1.9333035088218270e-05  5.2471089722071489e-04 3.3100362704240751e-05 -6.6468535354610335e-05  4.9527954955147187e-04 -1.1407610762768462e-04 -1.1964343693905793e-04  5.0891337780231661e-04 -3.2492493560156224e-04 -1.7457761386579723e-04  9.2975011195088261e-04 4.5192255579165456e-04 2.4622015859438070e-05  8.5239152567342241e-04 2.5278943727682272e-04 -1.8734923067466010e-05  7.9678186749793079e-04 6.3021758522343493e-05 -6.9102668320563824e-05  7.7376012709215708e-04 -1.2961808388080204e-04 -1.1979978336069205e-04  7.7582639826655523e-04 -3.5750323992760253e-04 -1.7108671212725369e-04  1.1168953586398896e-03 4.8489593160130288e-04 5.0540666359606180e-05  1.0697576581083930e-03 2.8733152299761813e-04 -5.5131638958499586e-06  1.0378739859441312e-03 7.9634208061200081e-05 -6.2693999719551342e-05  1.0231621486445225e-03 -1.3554825024579816e-04 -1.1709907477188500e-04  1.0203551077406063e-03 -3.6374697277161480e-04 -1.7176177517347170e-04  1.2923067658059566e-03 4.9975605024330991e-04 8.0327663976627103e-05  1.2702858976546627e-03 3.0197356745024085e-04 1.1344359503711021e-05  1.2549926892304699e-03 8.5947096539208846e-05 -5.4405314632377997e-05  1.2468267909799926e-03 -1.3756817122414483e-04 -1.1647201792398632e-04  1.2428523992444151e-03 -3.6090804167083698e-04 -1.7912074321901891e-04  1.4725754008135898e-03 5.0426427313463268e-04 1.0397732598406912e-04  1.4649993001227433e-03 3.0285816352324012e-04 2.5633157007793146e-05  1.4602687743281023e-03 8.5753444576122217e-05 -4.7928924786517302e-05  1.4563579630110196e-03 -1.3837208126956665e-04 -1.1817995258260063e-04  1.4527321496534730e-03 -3.5790788159491006e-04 -1.8975888892547234e-04  1.6679256279771501e-03 5.0486156705296307e-04 1.1546497244540627e-04  1.6658132146239327e-03 2.9970020370577742e-04 3.3747205376360396e-05  1.6654495281119342e-03 8.3505416817214174e-05 -4.4331671049287873e-05  1.6638302280615133e-03 -1.3869623215808386e-04 -1.2043108204265331e-04  1.6610352903257367e-03 -3.5739205153980676e-04 -1.9875842590626660e-04  1.8696177189105889e-03 5.0328269455593173e-04 1.2000325798115891e-04  1.8732761907110100e-03 2.9626043663689771e-04 3.7357352559497975e-05  1.8778144739347604e-03 8.1077568507975650e-05 -4.2543345371728038e-05  1.8781120245244518e-03 -1.3915245801300033e-04 -1.2141876971605457e-04  1.8751491192324128e-03 -3.5841932140624343e-04 -2.0261695574460667e-04  0.0000000000000000e+00 0.0000000000000000e+00 0.0000000000000000e+00  0.0000000000000000e+00 0.0000000000000000e+00 0.0000000000000000e+00  0.0000000000000000e+00 0.0000000000000000e+00 0.0000000000000000e+00  0.0000000000000000e+00 0.0000000000000000e+00 0.0000000000000000e+00  0.0000000000000000e+00 0.0000000000000000e+00 0.0000000000000000e+00  4.8251546929372599e-04 2.8147130730792850e-04 2.4197510504156606e-05  3.4617256776144469e-04 9.1948409195460374e-05 -3.5250939471076931e-06  2.6751478639793847e-04 1.5617311656081770e-05 -3.2740699079900300e-05  2.4786900150847505e-04 -5.3384532457510621e-05 -6.9335011505151377e-05  2.9384890559294952e-04 -2.0978069663170335e-04 -1.0855387423607874e-04  7.4599171336280101e-04 3.9222062263706217e-04 3.0937262923948210e-05  6.4561534522305337e-04 1.8929528663899940e-04 -1.1086740726236453e-05  5.7189259762321790e-04 4.1544486219778050e-05 -5.3495113844701443e-05  5.4597320349526919e-04 -1.0411139601942799e-04 -9.9034602127352062e-05  5.6521758012641795e-04 -3.1919489113849678e-04 -1.4679923937225601e-04  9.6758318241132644e-04 4.4975770415838466e-04 4.6161804703106010e-05  9.0355031450862979e-04 2.5023859088556998e-04 -8.0391803742750428e-06  8.5150896566011129e-04 6.3378887754280503e-05 -5.8330003911178475e-05  8.2929666888556563e-04 -1.2855365050081058e-04 -1.0825715312934376e-04  8.3187973622249507e-04 -3.5953644356694406e-04 -1.6162889827032138e-04  1.1713949661774018e-03 4.7829577847381942e-04 6.7792415291522001e-05  1.1314596485174685e-03 2.8024704649898870e-04 3.3866948389593646e-06  1.0996542584408727e-03 7.6071511542764349e-05 -5.4971403019966256e-05  1.0839085407180664e-03 -1.3679137040217173e-04 -1.1119563293255733e-04  1.0801883731257338e-03 -3.6644516379558313e-04 -1.7081322767864920e-04  1.3609305342088523e-03 4.9131506272018146e-04 9.0621770998644498e-05  1.3405746709640467e-03 2.9403047475437468e-04 1.7407739640299042e-05  1.3236828886103692e-03 8.1864433147339882e-05 -4.9500261514392027e-05  1.3140589602365271e-03 -1.3843141897222210e-04 -1.1364491056128178e-04  1.3094946503276915e-03 -3.6227228008734466e-04 -1.8056418389606174e-04  1.5515180510934400e-03 4.9842578734373593e-04 1.0858554991001827e-04  1.5423034832275685e-03 2.9711095839694075e-04 2.8726520551594582e-05  1.5352226092138020e-03 8.2724365443094462e-05 -4.5403292246231574e-05  1.5301222489014403e-03 -1.3858938577871439e-04 -1.1697471556956764e-04  1.5268573881132967e-03 -3.5826927690178122e-04 -1.9092094862095061e-04  1.7512905614234472e-03 5.0204960622662995e-04 1.1802187648911059e-04  1.7472767381239214e-03 2.9670649341730602e-04 3.4491111904521415e-05  1.7448276550378551e-03 8.1784135618075596e-05 -4.3795940385192015e-05  1.7425944122478518e-03 -1.3890324054171717e-04 -1.2022238474558675e-04  1.7409541280970892e-03 -3.5775901469041455e-04 -1.9936476745603893e-04  1.9547187402076593e-03 5.0200570833373230e-04 1.1870442566897760e-04  1.9565255607137703e-03 2.9500483316229352e-04 3.4474798300098662e-05  1.9590899428978464e-03 8.0126474501028867e-05 -4.4276105172616372e-05  1.9591530640398844e-03 -1.3980347578172779e-04 -1.2150740159670229e-04  1.9578667407074333e-03 -3.5915691427999808e-04 -2.0228970292712550e-04  0.0000000000000000e+00 0.0000000000000000e+00 0.0000000000000000e+00  0.0000000000000000e+00 0.0000000000000000e+00 0.0000000000000000e+00  0.0000000000000000e+00 0.0000000000000000e+00 0.0000000000000000e+00  0.0000000000000000e+00 0.0000000000000000e+00 0.0000000000000000e+00  0.0000000000000000e+00 0.0000000000000000e+00 0.0000000000000000e+00  5.3936877426151051e-04 2.9451295516729533e-04 3.2375251939489630e-05  3.8022970900706318e-04 9.3568218701662069e-05 -1.4864346509381059e-06  2.9148713879909656e-04 1.8075195649028414e-05 -2.4009277570001031e-05  2.7064514623593685e-04 -4.9618337845593601e-05 -4.9698533292704333e-05  3.2449574845019700e-04 -2.1373608048686103e-04 -7.7479798853934806e-05  8.1555572625903851e-04 4.0637408611532162e-04 5.0444285790352111e-05  7.0012270471297923e-04 1.9508563600012383e-04 -2.4969796048658896e-07  6.1761841852333492e-04 4.5992273115692635e-05 -3.9542275398903296e-05  5.9098443606387058e-04 -9.9530937910541716e-05 -7.9504263931722956e-05  6.1416204378834981e-04 -3.2144960480804546e-04 -1.2224781300889843e-04  1.0447801325838158e-03 4.6368901934183330e-04 6.7895437280163752e-05  9.7049961560878454e-04 2.5722622935831223e-04 5.0220437140220689e-06  9.1210204913318334e-04 6.7547628831967423e-05 -4.5240970964424701e-05  8.8834869153022779e-04 -1.2655405903395014e-04 -9.4580090593948134e-05  8.9087864672025006e-04 -3.6334124109968475e-04 -1.4840101330496782e-04  1.2544761267469554e-03 4.8966047393168258e-04 8.6294258084880572e-05  1.2067661589383956e-03 2.8630654648493408e-04 1.4748269781158805e-05  1.1699169056528758e-03 7.8917843758994087e-05 -4.5004852205876063e-05  1.1520589624790429e-03 -1.3706991099396383e-04 -1.0291209680156395e-04  1.1465001968606597e-03 -3.7219047804017277e-04 -1.6563041613750894e-04  1.4466451534140797e-03 5.0052622912942599e-04 1.0367886046005169e-04  1.4210878764795726e-03 2.9920377406369601e-04 2.5366477643062500e-05  1.4003756388562051e-03 8.3803081603477878e-05 -4.2933424710259532e-05  1.3887078181562180e-03 -1.3976821268174875e-04 -1.0911791008092972e-04  1.3821746629395977e-03 -3.6869491980064909e-04 -1.7953242631107389e-04  1.6391106893204053e-03 5.0581704037808335e-04 1.1660676416084342e-04  1.6263404990743814e-03 3.0146790514777312e-04 3.3399473203420299e-05  1.6165059984760213e-03 8.4252292578909714e-05 -4.1726694767420658e-05  1.6097765255382386e-03 -1.4015567117327187e-04 -1.1487173376207899e-04  1.6051741736124532e-03 -3.6433508334265491e-04 -1.9171860021794223e-04  1.8414034503553551e-03 5.0900793520464399e-04 1.2306951178928907e-04  1.8343888891674688e-03 3.0093154231257695e-04 3.6482459434930334e-05  1.8296882430198717e-03 8.3338408205652773e-05 -4.2449641214802134e-05  1.8262292277777766e-03 -1.4030505657491212e-04 -1.1974274900054360e-04  1.8239865990569912e-03 -3.6301583601475922e-04 -2.0127944361086319e-04  2.0472981333326009e-03 5.0950733888709338e-04 1.1941451070428907e-04  2.0464159328606492e-03 2.9958770693225262e-04 3.2621146953356430e-05  2.0469290563904234e-03 8.1913998796990386e-05 -4.5330589764717946e-05  2.0460799418068063e-03 -1.4096109866608677e-04 -1.2175087465702269e-04  2.0447164245400440e-03 -3.6361371717594378e-04 -2.0405721961653034e-04  0.0000000000000000e+00 0.0000000000000000e+00 0.0000000000000000e+00  0.0000000000000000e+00 0.0000000000000000e+00 0.0000000000000000e+00  0.0000000000000000e+00 0.0000000000000000e+00 0.0000000000000000e+00  0.0000000000000000e+00 0.0000000000000000e+00 0.0000000000000000e+00  0.0000000000000000e+00 0.0000000000000000e+00 0.0000000000000000e+00  5.8252478447687122e-04 3.1098580601424705e-04 3.9031937455845142e-05  4.1226001781867385e-04 9.6724212182099369e-05 7.9325591428552105e-06  3.1522268917500763e-04 1.8958471599457738e-05 -1.4498856324618888e-05  2.9176582596016792e-04 -5.0198598973455242e-05 -3.7255092607110370e-05  3.4944968619466684e-04 -2.2427075404492195e-04 -6.1720938649129870e-05  8.7988230498469095e-04 4.2573434339717494e-04 6.4717421312674063e-05  7.5461104633201958e-04 2.0313860292502133e-04 1.5345515177382650e-05  6.6391252256753971e-04 4.9381180140697756e-05 -2.4465806588844371e-05  6.3419596481669870e-04 -9.9932061413053806e-05 -6.2443812823446799e-05  6.5873589642416767e-04 -3.3259781614815694e-04 -1.0229541424174890e-04  1.1212642303642078e-03 4.8303121280023157e-04 8.5731490676372807e-05  1.0400861073250284e-03 2.6803430106507771e-04 2.2501780151908129e-05  9.7513741542104310e-04 7.2401253269595089e-05 -2.9693699678055191e-05  9.4828696641696512e-04 -1.2716006904060507e-04 -7.9451175422248934e-05  9.4982142080932846e-04 -3.7314111855638976e-04 -1.3289644160132123e-04  1.3389660349496862e-03 5.0732764425767598e-04 1.0324237531558997e-04  1.2859840713650786e-03 2.9744431007446730e-04 3.0256783725770133e-05  1.2440853453957032e-03 8.3989003427077549e-05 -3.2108320559603003e-05  1.2232957560922696e-03 -1.3810627809406767e-04 -9.1961871354887071e-05  1.2156590378970872e-03 -3.8092338138173346e-04 -1.5623999903890043e-04  1.5354526753667841e-03 5.1593807441219523e-04 1.1716418810944799e-04  1.5060004365523643e-03 3.0985256530139581e-04 3.7014360295406555e-05  1.4815066934902969e-03 8.8614674106378318e-05 -3.3752914753478868e-05  1.4673839748337641e-03 -1.4101028370381140e-04 -1.0226370670109213e-04  1.4587440565550561e-03 -3.7643802554251861e-04 -1.7508754694314983e-04  1.7302887177368239e-03 5.1952800019343555e-04 1.2608120038486259e-04  1.7147044051254482e-03 3.1115215893374537e-04 4.0992184286106757e-05  1.7021784328335454e-03 8.8686911083964780e-05 -3.6089256002204176e-05  1.6936087944711563e-03 -1.4135471163079894e-04 -1.1130322871029207e-04  1.6874410144285168e-03 -3.7117119012379312e-04 -1.9072205781391186e-04  1.9357430137703479e-03 5.2252474659841657e-04 1.2910615560149074e-04  1.9260054782805629e-03 3.1024036839958957e-04 4.0596531297044990e-05  1.9190204161425467e-03 8.7671357315014390e-05 -3.9754720853907313e-05  1.9142422661011422e-03 -1.4133471417682815e-04 -1.1861261118512882e-04  1.9111668697588255e-03 -3.6932635074646953e-04 -2.0272824429737375e-04  2.1464143055780838e-03 5.2427614056219595e-04 1.2193618815350269e-04  2.1421197711590607e-03 3.0909226788789060e-04 3.3335723882677913e-05  2.1404458804227429e-03 8.6334808949681618e-05 -4.5106964856396261e-05  2.1386266108724085e-03 -1.4181775426903953e-04 -1.2208627221031669e-04  2.1370891856939294e-03 -3.6992924120988644e-04 -2.0662626992720950e-04  0.0000000000000000e+00 0.0000000000000000e+00 0.0000000000000000e+00  0.0000000000000000e+00 0.0000000000000000e+00 0.0000000000000000e+00  0.0000000000000000e+00 0.0000000000000000e+00 0.0000000000000000e+00  0.0000000000000000e+00 0.0000000000000000e+00 0.0000000000000000e+00  0.0000000000000000e+00 0.0000000000000000e+00 0.0000000000000000e+00  6.1672624422678989e-04 3.2819376169668772e-04 4.6825276768035688e-05  4.3868231414897872e-04 1.0081369868478049e-04 1.8496052796393394e-05  3.3696239719518723e-04 1.9804419155818326e-05 -4.2288301615850233e-06  3.1177388163542395e-04 -5.2015344994664200e-05 -2.6251602377376925e-05  3.7205576729424744e-04 -2.3635061027870959e-04 -4.9178640839213078e-05  9.3539295330501029e-04 4.4764715258751930e-04 7.9271848985264232e-05  8.0367306472362455e-04 2.1221032565850548e-04 3.2414711965799621e-05  7.0777996049647138e-04 5.2162620093605803e-05 -8.4033626982475842e-06  6.7574275088803438e-04 -1.0296931671152719e-04 -4.6230034185561347e-05  7.0059317622400317e-04 -3.4785741709944236e-04 -8.4523589945086940e-05  1.1916501569334572e-03 5.0508008604639070e-04 1.0390987652347686e-04  1.1058703310975846e-03 2.7981200811197517e-04 4.1873929078083548e-05  1.0366042506697482e-03 7.6806586615096555e-05 -1.2516835257143496e-05  1.0072661948908367e-03 -1.3012501260013359e-04 -6.3642245724516199e-05  1.0074483013242151e-03 -3.8716846768799170e-04 -1.1680442637995580e-04  1.4198848025968830e-03 5.2758243166561023e-04 1.2105738895865321e-04  1.3633035589240435e-03 3.0991517644588976e-04 4.8111411509567308e-05  1.3179284614390631e-03 8.9346733063325220e-05 -1.7203159126366195e-05  1.2948021868282786e-03 -1.4024128505754486e-04 -7.9576675078949784e-05  1.2851843502783092e-03 -3.9220455777118948e-04 -1.4489042142743684e-04  1.6227605817706059e-03 5.3397247784445917e-04 1.3181507283099091e-04  1.5906085971863547e-03 3.2224019911331736e-04 5.1054385507927938e-05  1.5634462754644275e-03 9.4502898041759443e-05 -2.2649930030645564e-05  1.5473851989596986e-03 -1.4210952800684109e-04 -9.3999734494837949e-05  1.5368678718632601e-03 -3.8491960597828985e-04 -1.6861833840637984e-04  1.8213971775820723e-03 5.3607334002435099e-04 1.3647611026645383e-04  1.8038785779491185e-03 3.2312150911166575e-04 5.0586540462805403e-05  1.7894606996105785e-03 9.4807466156990845e-05 -2.8937196343340957e-05  1.7794698153850595e-03 -1.4160339428619161e-04 -1.0670358943344987e-04  1.7719199816671315e-03 -3.7762455206679903e-04 -1.8814595527219926e-04  2.0304512674067339e-03 5.3892078294322070e-04 1.3539826590041619e-04  2.0190130636259041e-03 3.2211510805194206e-04 4.6260693629655870e-05  2.0105267141524324e-03 9.3988723350566411e-05 -3.5996859617503412e-05  2.0048233094659995e-03 -1.4108695913022675e-04 -1.1695045414022713e-04  2.0010329854469613e-03 -3.7493269576346677e-04 -2.0306283125614164e-04  2.2458122890994200e-03 5.4139820031817590e-04 1.2551376106795565e-04  2.2395949895828290e-03 3.2110738596794126e-04 3.6343930483521404e-05  2.2367234092146734e-03 9.2801198417856779e-05 -4.3864883526902003e-05  2.2343880993554656e-03 -1.4134727655570973e-04 -1.2267513782943153e-04  2.2327711157733004e-03 -3.7563629249732849e-04 -2.0916122935635010e-04  0.0000000000000000e+00 0.0000000000000000e+00 0.0000000000000000e+00  0.0000000000000000e+00 0.0000000000000000e+00 0.0000000000000000e+00  0.0000000000000000e+00 0.0000000000000000e+00 0.0000000000000000e+00  0.0000000000000000e+00 0.0000000000000000e+00 0.0000000000000000e+00  0.0000000000000000e+00 0.0000000000000000e+00 0.0000000000000000e+00  6.4660528563438308e-04 3.4585192267524084e-04 5.5850653822593955e-05  4.6182655341309148e-04 1.0560135196744711e-04 2.8618836317997564e-05  3.5744785899625167e-04 2.0754899383017156e-05 6.1269298834199503e-06  3.3109332380980001e-04 -5.4367220068108494e-05 -1.4294289496667540e-05  3.9282265895709703e-04 -2.4899469949333928e-04 -3.5157939512860266e-05  9.8650808852115057e-04 4.7081769754848935e-04 9.6846378407323177e-05  8.4904964651129279e-04 2.2172699876869638e-04 5.0061866656585242e-05  7.4977693802114141e-04 5.4528136787253538e-05 8.1238822301448108e-06  7.1596648215804099e-04 -1.0756969101352796e-04 -2.9253791961907911e-05  7.4024729485964980e-04 -3.6553533930149088e-04 -6.5995381168810119e-05  1.2587714494808955e-03 5.2796597778012827e-04 1.2599614950364256e-04  1.1686248938545998e-03 2.9159043061727051e-04 6.2675673778519312e-05  1.0962953138268863e-03 8.0681550960582044e-05 5.3378464949651875e-06  1.0650152589593224e-03 -1.3451882934733582e-04 -4.7548794488815258e-05  1.0636364409079516e-03 -4.0375233472705294e-04 -1.0079660708177828e-04  1.4985573510159615e-03 5.4824731465517331e-04 1.4247079232753270e-04  1.4385338048609434e-03 3.2239148763498838e-04 6.7669411608651885e-05  1.3906056217094012e-03 9.4701091671535936e-05 -1.5718296892627280e-06  1.3657265298223349e-03 -1.4271572772700227e-04 -6.7202968834869072e-05  1.3544209025709603e-03 -4.0464236666630846e-04 -1.3399045604374661e-04  1.7086608018578166e-03 5.5245326326516645e-04 1.4910526868419429e-04  1.6740413200115275e-03 3.3499707773391465e-04 6.6596368971686914e-05  1.6449754991823902e-03 1.0115820905694861e-04 -1.0902874689709426e-05  1.6275492775404293e-03 -1.4229028436932019e-04 -8.5802773584534310e-05  1.6156268798988857e-03 -3.9281042358119258e-04 -1.6248376564731846e-04  1.9116447694275897e-03 5.5331026110846493e-04 1.4830725114573520e-04  1.8925829957186005e-03 3.3599982724613213e-04 6.1207618166592701e-05  1.8769456747318421e-03 1.0238449247676907e-04 -2.1296740350019257e-05  1.8660350109634650e-03 -1.4000512651945939e-04 -1.0208341908267758e-04  1.8575198237962679e-03 -3.8218095201386718e-04 -1.8547065193687937e-04  2.1240828357819968e-03 5.5589861738679326e-04 1.4220772196088104e-04  2.1117434769890599e-03 3.3522123398670265e-04 5.2522264634527971e-05  2.1025430390230241e-03 1.0214174792445598e-04 -3.1948949686767865e-05  2.0963662031824441e-03 -1.3852562030743624e-04 -1.1528152599384684e-04  2.0921259204194158e-03 -3.7796462251698702e-04 -2.0289196986696755e-04  2.3427593919009685e-03 5.5844237801984452e-04 1.2961082136749941e-04  2.3363035058381232e-03 3.3436526107152994e-04 4.0010062765855974e-05  2.3333481001466365e-03 1.0124858296732630e-04 -4.2613482018121469e-05  2.3309985767509035e-03 -1.3840283688437864e-04 -1.2394548974832027e-04  2.3294828670965963e-03 -3.7849728949828178e-04 -2.1187962418900129e-04  0.0000000000000000e+00 0.0000000000000000e+00 0.0000000000000000e+00  0.0000000000000000e+00 0.0000000000000000e+00 0.0000000000000000e+00  0.0000000000000000e+00 0.0000000000000000e+00 0.0000000000000000e+00  0.0000000000000000e+00 0.0000000000000000e+00 0.0000000000000000e+00  0.0000000000000000e+00 0.0000000000000000e+00 0.0000000000000000e+00  6.7351081300029772e-04 3.6495631641717549e-04 6.6138097953351779e-05  4.8488902562212921e-04 1.1080026323418716e-04 3.6748478638834535e-05  3.7953335294711970e-04 2.1628270239062180e-05 1.6509037266300920e-05  3.5095938139573094e-04 -5.7201319630209910e-05 1.5352934628395428e-06  4.1115467978738681e-04 -2.6226221565274878e-04 -1.4091448223965144e-05  1.0375886222766700e-03 4.9