<?xml version="1.0"?>
<VTKFile type="UnstructuredGrid"  version="0.1"  >
<UnstructuredGrid>
<Piece  NumberOfPoints="405" NumberOfCells="1536">
<Points>
<DataArray  type="Float64"  NumberOfComponents="3"  format="ascii">0.45 0 -0.2  0.475 0 -0.2  0.5 0 -0.2  0.525 0 -0.2  0.55 0 -0.2  0.453543323792572 0.02805894121885691 -0.1983948773908364  0.4771945395992045 0.02632499731931936 -0.1991494173960815  0.5015145135969067 0.02519820222254428 -0.2000281271337742  0.5263326321052045 0.02399095689437021 -0.201035141780976  0.5516279143124951 0.02195699115006606 -0.2020597514562682  0.4569196297607978 0.05495264499923973 -0.1983215698193156  0.4805759537030846 0.05230303703580513 -0.1991614383201146  0.5047628251775366 0.05020731828073748 -0.2001385857567306  0.5294373978488559 0.04804366976732803 -0.2011863996792457  0.5544061661393401 0.04503825082749399 -0.2022601561394387  0.4609739965368603 0.08099656923315268 -0.1985719854504008  0.4846682253618487 0.07770120087208465 -0.1993505411399586  0.5088184618020467 0.07487272910669505 -0.200227805643535  0.5333481853410567 0.07195779532891992 -0.2011348069484435  0.558027558634865 0.06833069645806876 -0.2020379635357293  0.4653707025833991 0.1063445045486176 -0.19889123565464  0.4891127240375689 0.1026295120306858 -0.1995526818757304  0.5132321898765982 0.09927543940841832 -0.2002920538618455  0.5376309793001858 0.0958312723289499 -0.2010411130966046  0.5620967930918729 0.09184601708853198 -0.2017737017236503  0.4697889827291575 0.1312081120017681 -0.1991446561775638  0.4936372440749899 0.1272560549057435 -0.1997182300098662  0.5177458726549747 0.1235406610218005 -0.200342882991401  0.5420462488327318 0.1197523326409126 -0.2009673516687605  0.5663737846741027 0.1155940445260564 -0.2015753279324446  0.4741143738023468 0.1557597660988361 -0.1993091976443824  0.4980886690271539 0.1516884446331726 -0.1998392190999395  0.522219557433215 0.1477516085823818 -0.2003893442594295  0.5464617351507783 0.1437627858731345 -0.2009314876262044  0.5707112053209065 0.1395470887080319 -0.2014646020198639  0.4783407511421492 0.1801391851012693 -0.1994210044675575  0.5024295134817119 0.1760120877134107 -0.1999364440015765  0.5265963486884762 0.1719576584099328 -0.2004382997895633  0.5508119299032036 0.1678733706455755 -0.2009275518020134  0.5750224795518571 0.1636608436901054 -0.201426871354631  0.4825181078239183 0.2044275036812734 -0.1995201793808146  0.5066395351083784 0.2002879699201082 -0.2000333219302013  0.530830880544345 0.1961966906722345 -0.2004890617530612  0.5550631001924737 0.1920747777917359 -0.2009281610277668  0.5792771316616468 0.1878656821885635 -0.2014181034153066  0.45 0 -0.175  0.475 0 -0.175  0.5 0 -0.175  0.525 0 -0.175  0.55 0 -0.175  0.4539891855546224 0.02782489509521469 -0.1740289145898782  0.477711783206828 0.02615850742736862 -0.1744857545969674  0.5020766980048579 0.02516212157922709 -0.1750360316587643  0.5269974352874048 0.02416133239044834 -0.175648506514374  0.552605338586275 0.02220209736858189 -0.1762613021684303  0.4575322836526035 0.05479724026272917 -0.1738012965270111  0.4812550698545185 0.05216205531970372 -0.174421118202624  0.5054938773995846 0.05007819591455082 -0.1751389281963169  0.5302304973617186 0.04792328669521201 -0.175894859835783  0.5553377896692568 0.04486880012725909 -0.1766142408944622  0.4615872053027031 0.08088893999163939 -0.1738779495778611  0.4853632393000719 0.07757811596809766 -0.1745114463498644  0.5095382897093093 0.07468923773208756 -0.1752120961748564  0.5340770297493754 0.07170217465189815 -0.1759306033782369  0.5587883382448867 0.06802513729515328 -0.176628794894737  0.46593167393322 0.1062593382997586 -0.174038212296716  0.4897578565081484 0.1025135929772778 -0.1746353844848704  0.5138849045236789 0.09908300386561228 -0.175267418894462  0.5382648771495651 0.09556046425807582 -0.1759063596283527  0.562720551137291 0.09154456723728333 -0.1765379876210155  0.4703091788144279 0.1311229300664461 -0.1741863924265475  0.4942245421805483 0.1271408059159985 -0.1747479906631116  0.5183321234647639 0.1233612454170503 -0.1753170745078366  0.5426065429889191 0.1195110873097907 -0.1758858901379364  0.5669114813005885 0.1153345355797459 -0.176457374498118  0.4746242623981808 0.1556708298452917 -0.1742976170920391  0.4986384258483665 0.1515742082300181 -0.1748411028957705  0.5227598189372569 0.1475899965796199 -0.1753681122195671  0.5469775500301994 0.1435562662776283 -0.1758889147660639  0.5712053900358455 0.1393264394719852 -0.1764226777303316  0.4788609160716599 0.1800439794798729 -0.1743872921467118  0.5029622211736787 0.1759022228065542 -0.1749262624184863  0.5271102740761388 0.1718115259518204 -0.1754241734905673  0.5513056801839906 0.167688417143586 -0.175911605106917  0.5755035131416323 0.1634581864817726 -0.1764287761198126  0.4830342544595529 0.2043310187638266 -0.1744967950167434  0.5071838025988837 0.2001852883157604 -0.1750234651349753  0.5313492462303055 0.1960536438679084 -0.1754842310984245  0.5555557145627827 0.1918872314207097 -0.1759341833883594  0.5797628188209689 0.1876580559112438 -0.1764381144715766  0.45 0 -0.15  0.475 0 -0.15  0.5 0 -0.15  0.525 0 -0.15  0.55 0 -0.15  0.4543707342130565 0.02782997572734799 -0.149428637223056  0.4779578990741115 0.02611298079633426 -0.149710936222031  0.5022862006932147 0.02514706265540784 -0.1500304850669574  0.5272447538555635 0.0241690169254254 -0.1503837583202964  0.552974581847626 0.02207593963069985 -0.15073349794965  0.4580448845707323 0.05473903571267046 -0.1491876543925577  0.4816769331616685 0.05208701654302705 -0.1496152521901302  0.5058967722178657 0.05002865546195625 -0.1501007338544305  0.53068726067348 0.04788479093314998 -0.1506079841741914  0.5558930968984593 0.04474991280872974 -0.1510780318290449  0.4621545931422705 0.08080548124327756 -0.1491526870605617  0.4858760012677855 0.07748552895470286 -0.1496441847376542  0.5100414038701029 0.07459772881232409 -0.1501694235087961  0.5346106839688483 0.07159910477863815 -0.1507076975349157  0.5593756100964944 0.06789521161091366 -0.151224731240579  0.4665146749483776 0.1061667311243154 -0.149195802396658  0.490307184232207 0.1024094472978294 -0.1497097777987161  0.5144223915440942 0.09896125064790499 -0.1502287927930789  0.5388089303706114 0.09541559545029397 -0.1507540046811572  0.563282737479423 0.09139291112584476 -0.151274831282517  0.4708959967927362 0.1310334541320482 -0.1492551853582622  0.4947853652823243 0.1270318109741132 -0.1497800883870403  0.5188761576572665 0.1232247121614345 -0.1502849975634666  0.5431416666631469 0.1193470785928539 -0.1507904591435152  0.5674433607730758 0.1151660650863383 -0.1513050454547297  0.4752198480121093 0.1555875884678907 -0.1493119212280268  0.4992067426977431 0.1514644848177116 -0.1498484529044248  0.5233061923768199 0.1474475232741105 -0.1503437598987946  0.5475063888774132 0.143383460046277 -0.1508343486526349  0.5717194263429771 0.1391429454486486 -0.1513471407989808  0.4794758184424477 0.1799705282169715 -0.1493734658612322  0.5035460201625557 0.1757931910815974 -0.1499242135147554  0.5276678607849354 0.1716644744756107 -0.1504082431896094  0.5518405782269272 0.1675068586369122 -0.1508835049628413  0.5760172277488524 0.1632558869824449 -0.1514005622265228  0.4836915466046997 0.2042657839374531 -0.1494904750439397  0.5078038681437647 0.200072219610798 -0.1500322342359638  0.5319402236507801 0.19589631382694 -0.1504800616042373  0.5561167569344621 0.1916900712067835 -0.1509213989630817  0.5802946130745967 0.1874313354445569 -0.1514300134266592  0.45 0 -0.125  0.475 0 -0.125  0.5 0 -0.125  0.525 0 -0.125  0.55 0 -0.125  0.4545917017930197 0.02788077716532363 -0.1246530559245167  0.4781066760303683 0.02611576312135492 -0.1248210792437014  0.5024082903785663 0.02514254582837911 -0.1250131677230147  0.5273799916226097 0.02415617384038396 -0.1252266013933943  0.5531592297362522 0.02196423438342308 -0.1254460473447421  0.4583953376753636 0.05476427496095907 -0.1244614194570135  0.4819637468787557 0.05207105884259126 -0.124741582392121  0.5061627161670389 0.0500060632163116 -0.1250591086920263  0.5309731327283018 0.04784382022702547 -0.1253880867341274  0.5562138034443571 0.04461841079222476 -0.1256922840058305  0.4625895796603992 0.08079904513233674 -0.1243773823578812  0.4862675273207528 0.07744544077037771 -0.1247358102170494  0.5104170003889235 0.07454407701759307 -0.1251159001417974  0.534997185012024 0.07152286459814594 -0.1255014960255683  0.5597793286641628 0.06776347261942572 -0.125873222711669  0.4670067395341394 0.1061385426999412 -0.1243476563729609  0.4907691467387097 0.1023484826804975 -0.1247615600258901  0.5148678710625471 0.09887795328156443 -0.1251762483734813  0.5392524832936829 0.09530687490597504 -0.1255920868486582  0.5637280900198383 0.09124988023458368 -0.1260067545043297  0.4714312424542234 0.130993428996717 -0.1243427789184861  0.4952955928909392 0.1269562043931277 -0.1248013479654027  0.5193660070390892 0.1231189191012966 -0.125240083214487  0.5436191627787961 0.1192123281746666 -0.1256760279398975  0.5679110404630295 0.1150043000572192 -0.1261220438613261  0.4757953839122484 0.1555432998952792 -0.1243548944752385  0.499755551048557 0.1513794860270093 -0.1248518177082922  0.5238298423806224 0.1473254767263752 -0.12530880191048  0.5480104007000851 0.1432278086363991 -0.1257591205068851  0.5722057380124523 0.1389592895924206 -0.1262322982446239  0.4800971370323412 0.1799278805671746 -0.1243927540928439  0.5041349157603542 0.1757012510048916 -0.1249219592018383  0.5282263539228396 0.1715287869471326 -0.1253833989388832  0.5523739618139657 0.1673320252970873 -0.1258352891630173  0.5765272814624156 0.1630474186909575 -0.1263315304489773  0.4843786518558862 0.2042229993290476 -0.1245113462397041  0.5084459073584731 0.1999699773173745 -0.1250368643628518  0.5325441300131932 0.1957451400418482 -0.1254645317241315  0.5566892344928314 0.1914943269266028 -0.1258854449323049  0.5808382644769682 0.1871938159520236 -0.1263791875389247  0.45 0 -0.1  0.475 0 -0.1  0.5 
[...]
<PointData  Vectors="Displacement"> 
<DataArray  type="Float64"  Name="Displacement"  NumberOfComponents="3" format="ascii">0.0000000000000000e+00 0.0000000000000000e+00 0.0000000000000000e+00  0.0000000000000000e+00 0.0000000000000000e+00 0.0000000000000000e+00  0.0000000000000000e+00 0.0000000000000000e+00 0.0000000000000000e+00  0.0000000000000000e+00 0.0000000000000000e+00 0.0000000000000000e+00  0.0000000000000000e+00 0.0000000000000000e+00 0.0000000000000000e+00  3.5433237925718728e-03 3.0589412188569013e-03 1.6051226091636918e-03  2.1945395992044436e-03 1.3249973193193596e-03 8.5058260391848847e-04  1.5145135969067745e-03 1.9820222254427104e-04 -2.8127133774185174e-05  1.3326321052044359e-03 -1.0090431056297808e-03 -1.0351417809759767e-03  1.6279143124948939e-03 -3.0430088499339447e-03 -2.0597514562681681e-03  6.9196297607977166e-03 4.9526449992397170e-03 1.6784301806844859e-03  5.5759537030845990e-03 2.3030370358051336e-03 8.3856167988547391e-04  4.7628251775365541e-03 2.0731828073746952e-04 -1.3858575673057814e-04  4.4373978488559040e-03 -1.9563302326719664e-03 -1.1863996792457940e-03  4.4061661393401050e-03 -4.9617491725060126e-03 -2.2601561394387285e-03  1.0973996536860290e-02 5.9965692331526701e-03 1.4280145495991856e-03  9.6682253618486369e-03 2.7012008720846354e-03 6.4945886004135703e-04  8.8184618020466510e-03 -1.2727089330495412e-04 -2.2780564353496098e-04  8.3481853410567446e-03 -3.0422046710801088e-03 -1.1348069484435209e-03  8.0275586348647083e-03 -6.6693035419312209e-03 -2.0379635357293661e-03  1.5370702583399044e-02 6.3445045486176183e-03 1.1087643453599819e-03  1.4112724037568899e-02 2.6295120306858446e-03 4.4731812426963927e-04  1.3232189876598211e-02 -7.2456059158170210e-04 -2.9205386184544279e-04  1.2630979300185523e-02 -4.1687276710501023e-03 -1.0411130966045620e-03  1.2096793091872919e-02 -8.1539829114680509e-03 -1.7737017236503399e-03  1.9788982729157509e-02 6.2081120017681126e-03 8.5534382243624438e-04  1.8637244074989810e-02 2.2560549057434550e-03 2.8176999013384776e-04  1.7745872654974858e-02 -1.4593389781994413e-03 -3.4288299140098553e-04  1.7046248832731807e-02 -5.2476673590873806e-03 -9.6735166876040163e-04  1.6373784674102644e-02 -9.4059554739435274e-03 -1.5753279324445548e-03  2.4114373802346788e-02 5.7597660988360812e-03 6.9080235561761513e-04  2.3088669027153973e-02 1.6884446331725618e-03 1.6078090006053908e-04  2.2219557433214916e-02 -2.2483914176182271e-03 -3.8934425942947841e-04  2.1461735150778271e-02 -6.2372141268655533e-03 -9.3148762620445899e-04  2.0711205320906395e-02 -1.0452911291968205e-02 -1.4646020198639169e-03  2.8340751142149144e-02 5.1391851012693073e-03 5.7899553244252161e-04  2.7429513481712020e-02 1.0120877134106947e-03 6.3555998423517999e-05  2.6596348688476202e-02 -3.0423415900672885e-03 -4.3829978956324601e-04  2.5811929903203405e-02 -7.1266293544244913e-03 -9.2755180201339502e-04  2.5022479551857203e-02 -1.1339156309894610e-02 -1.4268713546309751e-03  3.2518107823918271e-02 4.4275036812733417e-03 4.7982061918544239e-04  3.1639535108378629e-02 2.8796992010822947e-04 -3.3321930201351928e-05  3.0830880544345123e-02 -3.8033093277655074e-03 -4.8906175306119072e-04  3.0063100192473574e-02 -7.9252222082641221e-03 -9.2816102776670814e-04  2.9277131661646805e-02 -1.2134317811436467e-02 -1.4181034153065658e-03  0.0000000000000000e+00 0.0000000000000000e+00 0.0000000000000000e+00  0.0000000000000000e+00 0.0000000000000000e+00 0.0000000000000000e+00  0.0000000000000000e+00 0.0000000000000000e+00 0.0000000000000000e+00  0.0000000000000000e+00 0.0000000000000000e+00 0.0000000000000000e+00  0.0000000000000000e+00 0.0000000000000000e+00 0.0000000000000000e+00  3.9891855546223048e-03 2.8248950952146899e-03 9.7108541012184588e-04  2.7117832068279022e-03 1.1585074273686201e-03 5.1424540303267102e-04  2.0766980048577293e-03 1.6212157922707596e-04 -3.6031658764229189e-05  1.9974352874048609e-03 -8.3866760955166367e-04 -6.4850651437394684e-04  2.6053385862750580e-03 -2.7979026314181106e-03 -1.2613021684302682e-03  7.5322836526034807e-03 4.7972402627291678e-03 1.1987034729889366e-03  6.2550698545184918e-03 2.1620553197037192e-03 5.7888179737606790e-04  5.4938773995848655e-03 7.8195914550823872e-05 -1.3892819631689324e-04  5.2304973617186305e-03 -2.0767133047879943e-03 -8.9485983578304056e-04  5.3377896692567844e-03 -5.1311998727409085e-03 -1.6142408944622160e-03  1.1587205302703166e-02 5.8889399916393515e-03 1.1220504221389387e-03  1.0363239300071945e-02 2.5781159680976469e-03 4.8855365013566175e-04  9.5382897093092278e-03 -3.1076226791243455e-04 -2.1209617485644087e-04  9.0770297493754197e-03 -3.2978253481018641e-03 -9.3060337823685363e-04  8.7883382448866853e-03 -6.9748627048467340e-03 -1.6287948947370026e-03  1.5931673933219911e-02 6.2593382997586039e-03 9.6178770328400652e-04  1.4757856508148207e-02 2.5135929772777481e-03 3.6461551512963951e-04  1.3884904523678878e-02 -9.1699613438770322e-04 -2.6741889446194202e-04  1.3264877149564988e-02 -4.4395357419241702e-03 -9.0635962835270301e-04  1.2720551137291109e-02 -8.4554327627167098e-03 -1.5379876210155242e-03  2.0309178814427765e-02 6.1229300664460955e-03 8.1360757345253192e-04  1.9224542180548247e-02 2.1408059159984923e-03 2.5200933688841634e-04  1.8332123464763796e-02 -1.6387545829496517e-03 -3.1707450783657133e-04  1.7606542988919113e-02 -5.4889126902092971e-03 -8.8589013793635425e-04  1.6911481300588459e-02 -9.6654644202540350e-03 -1.4573744981180154e-03  2.4624262398180857e-02 5.6708298452916662e-03 7.0238290796083595e-04  2.3638425848366573e-02 1.5742082300180722e-03 1.5889710422955716e-04  2.2759818937256801e-02 -2.4100034203801608e-03 -3.6811221956709311e-04  2.1977550030199355e-02 -6.4437337223716929e-03 -8.8891476606386293e-04  2.1205390035845054e-02 -1.0673560528014842e-02 -1.4226777303315372e-03  2.8860916071659720e-02 5.0439794798728564e-03 6.1270785328813469e-04  2.7962221173678515e-02 9.0222280655418742e-04 7.3737581513707063e-05  2.7110274076138658e-02 -3.1884740481796570e-03 -4.2417349056726131e-04  2.6305680183990481e-02 -7.3115828564140235e-03 -9.1160510691695718e-04  2.5503513141632416e-02 -1.1541813518227417e-02 -1.4287761198126163e-03  3.3034254459552832e-02 4.3310187638266450e-03 5.0320498325655283e-04  3.2183802598883794e-02 1.8528831576032656e-04 -2.3465134975298557e-05  3.1349246230305411e-02 -3.9463561320916031e-03 -4.8423109842449843e-04  3.0555714562782686e-02 -8.1127685792903078e-03 -9.3418338835939499e-04  2.9762818820968841e-02 -1.2341944088756149e-02 -1.4381144715766205e-03  0.0000000000000000e+00 0.0000000000000000e+00 0.0000000000000000e+00  0.0000000000000000e+00 0.0000000000000000e+00 0.0000000000000000e+00  0.0000000000000000e+00 0.0000000000000000e+00 0.0000000000000000e+00  0.0000000000000000e+00 0.0000000000000000e+00 0.0000000000000000e+00  0.0000000000000000e+00 0.0000000000000000e+00 0.0000000000000000e+00  4.3707342130564824e-03 2.8299757273479850e-03 5.7136277694406633e-04  2.9578990741115012e-03 1.1129807963342663e-03 2.8906377796898756e-04  2.2862006932147317e-03 1.4706265540784290e-04 -3.0485066957386372e-05  2.2447538555635431e-03 -8.3098307457459485e-04 -3.8375832029642853e-04  2.9745818476257881e-03 -2.9240603693001443e-03 -7.3349794964999119e-04  8.0448845707323802e-03 4.7390357126704591e-03 8.1234560744232551e-04  6.6769331616684966e-03 2.0870165430270583e-03 3.8474780986975839e-04  5.8967722178656003e-03 2.8655461956245171e-05 -1.0073385443046910e-04  5.6872606734800343e-03 -2.1152090668500228e-03 -6.0798417419146084e-04  5.8930968984592606e-03 -5.2500871912702527e-03 -1.0780318290449405e-03  1.2154593142270478e-02 5.8054812432775625e-03 8.4731293943824868e-04  1.0876001267785453e-02 2.4855289547028926e-03 3.5581526234589961e-04  1.0041403870102893e-02 -4.0227118767592807e-04 -1.6942350879616382e-04  9.6106839688482847e-03 -3.4008952213618691e-03 -7.0769753491562988e-04  9.3756100964942062e-03 -7.1047883890863325e-03 -1.2247312405790573e-03  1.6514674948377678e-02 6.1667311243154528e-03 8.0419760334200395e-04  1.5307184232206925e-02 2.4094472978294030e-03 2.9022220128393508e-04  1.4422391544094497e-02 -1.0387493520949873e-03 -2.2879279307888033e-04  1.3808930370611242e-02 -4.5844045497060396e-03 -7.5400468115714432e-04  1.3282737479422879e-02 -8.6070888741552557e-03 -1.2748312825169251e-03  2.0895996792736172e-02 6.0334541320481968e-03 7.4481464173778737e-04  1.9785365282324292e-02 2.0318109741132660e-03 2.1991161295979101e-04  1.8876157657266624e-02 -1.7752878385654675e-03 -2.8499756346656691e-04  1.8141666663146802e-02 -5.6529214071461362e-03 -7.9045914351520837e-04  1.7443360773075643e-02 -9.8339349136616471e-03 -1.3050454547297021e-03  2.5219848012109154e-02 5.5875884678906708e-03 6.8807877197329481e-04  2.4206742697743023e-02 1.4644848177116313e-03 1.5154709557522962e-04  2.3306192376820016e-02 -2.5524767258895374e-03 -3.4375989879455279e-04  2.2506388877413248e-02 -6.6165399537229828e-03 -8.3434865263486819e-04  2.1719426342977292e-02 -1.0857054551351428e-02 -1.3471407989807155e-03  2.9475818442447645e-02 4.9705282169715528e-03 6.2653413876792065e-04  2.8546020162555565e-02 7.9319108159735317e-04 7.5786485244549548e-05  2.7667860784935390e-02 -3.3355255243892753e-03 -4.0824318960931634e-04  2.6840578226927481e-02 -7.4931413630878281e-03 -8.8350496284120891e-04  2.6017227748852463e-02 -1.1744113017555012e-02 -1.4005622265228963e-03  3.3691546604699724e-02 4.2657839374531407e-03 5.0952495606026147e-04  3.2803868143764452e-02 7.2219610797997569e-05 -3.2234235963756154e-05  3.1940223650779975e-02 -4.1036861730600087e-03 -4.8006160423728672e-04  3.1116756934462090e-02 -8.3099287932165110e-03 -9.2139896308169494e-04  3.0294613074596799e-02 -1.2568664555443154e-02 -1.4300134266591591e-03  0.0000000000000000e+00 0.0000000000000000e+00 0.0000000000000000e+00  0.0000000000000000e+00 0.0000000000000000e+00 0.0000000000000000e+00  0.0000000000000000e+00 0.0000000000000000e+00 0.0000000000000000e+00  0.0000000000000000e+00 0.0000000000000000e+00 0.0000000000000000e+00  0.0000000000000000e+00 0.0000000000000000e+00 0.0000000000000000e+00  4.5917017930197463e-03 2.8807771653236295e-03 3.4694407548336084e-04  3.1066760303682657e-03 1.1157631213549284e-03 1.7892075629858095e-04  2.4082903785662873e-03 1.4254582837911091e-04 -1.3167723014695794e-05  2.3799916226099767e-03 -8.4382615961604130e-04 -2.2660139339436095e-04  3.1592297362521729e-03 -3.0357656165769234e-03 -4.4604734474211488e-04  8.3953376753635265e-03 4.7642749609590673e-03 5.3858054298644962e-04  6.9637468787557000e-03 2.0710588425912604e-03 2.5841760787900293e-04  6.1627161670388432e-03 6.0632163116058219e-06 -5.9108692026242074e-05  5.9731327283019013e-03 -2.1561797729745310e-03 -3.8808673412742893e-04  6.2138034443570750e-03 -5.3815892077752501e-03 -6.9228400583044077e-04  1.2589579660399097e-02 5.7990451323367102e-03 6.2261764211879423e-04  1.1267527320752911e-02 2.4454407703776979e-03 2.6418978295062552e-04  1.0417000388923318e-02 -4.5592298240697255e-04 -1.1590014179741848e-04  9.9971850120238043e-03 -3.4771354018540909e-03 -5.0149602556833915e-04  9.7793286641626835e-03 -7.2365273805742904e-03 -8.7322271166902156e-04  1.7006739534139319e-02 6.1385426999412719e-03 6.5234362703912581e-04  1.5769146738709664e-02 2.3484826804974915e-03 2.3843997410984204e-04  1.4867871062547099e-02 -1.1220467184355422e-03 -1.7624837348126655e-04  1.4252483293682781e-02 -4.6931250940249634e-03 -5.9208684865825166e-04  1.3728090019838263e-02 -8.7501197654163091e-03 -1.0067545043296634e-03  2.1431242454223384e-02 5.9934289967169072e-03 6.5722108151391903e-04  2.0295592890939105e-02 1.9562043931276481e-03 1.9865203459723372e-04  1.9366007039089372e-02 -1.8810808987034201e-03 -2.4008321448699553e-04  1.8619162778796088e-02 -5.7876718253334148e-03 -6.7602793989751816e-04  1.7911040463029253e-02 -9.9956999427807253e-03 -1.1220438613261008e-03  2.5795383912248341e-02 5.5432998952791102e-03 6.4510552476146473e-04  2.4755551048556926e-02 1.3794860270092185e-03 1.4818229170779370e-04  2.3829842380622374e-02 -2.6745232736248388e-03 -3.0880191048004567e-04  2.3010400700085115e-02 -6.7721913636009379e-03 -7.5912050688507554e-04  2.2205738012452202e-02 -1.1040710407579363e-02 -1.2322982446238669e-03  3.0097137032341282e-02 4.9278805671746067e-03 6.0724590715615441e-04  2.9134915760353958e-02 7.0125100489164835e-04 7.8040798161636371e-05  2.8226353922839665e-02 -3.4712130528674816e-03 -3.8339893888318248e-04  2.7373961813965716e-02 -7.6679747029127256e-03 -8.3528916301721346e-04  2.6527281462415529e-02 -1.1952581309042469e-02 -1.3315304489773493e-03  3.4378651855886157e-02 4.2229993290476197e-03 4.8865376029587251e-04  3.3445907358473061e-02 -3.0022682625536895e-05 -3.6864362851820454e-05  3.2544130013193145e-02 -4.2548599581517998e-03 -4.6453172413141825e-04  3.1689234492831508e-02 -8.5056730733972363e-03 -8.8544493230497767e-04  3.0838264476968212e-02 -1.2806184047976434e-02 -1.3791875389247345e-03  0.0000000000000000e+00 0.0000000000000000e+00 0.0000000000000000e+00  0.0000000000000000e+00 0.0000000000000000e+00 0.0000000000000000e+00  0.0000000000000000e+00 0.0000000000000000e+00 0.0000000000000000e+00  0.0000000000000000e+00 0.0000000000000000e+00 0.0000000000000000e+00  0.0000000000000000e+00 0.0000000000000000e+00 0.0000000000000000e+00  4.7300580113437650e-03 2.9330821688751730e-03 1.9287628476288138e-04  3.2063272886694309e-03 1.1323616246368957e-03 1.0067693753525433e-04  2.4935949709473694e-03 1.4390328686276864e-04 5.1640249239003366e-06  2.4674024602278919e-03 -8.5802464713744463e-04 -1.0501284697032905e-04  3.2632104079665415e-03 -3.1180848618505516e-03 -2.3373717126435041e-04  8.6381304942302738e-03 4.8275483841216217e-03 3.3200900782617577e-04  7.1694792974540478e-03 2.0870351608619749e-03 1.6330203383085805e-04  6.3539906461693007e-03 -4.9246020456322812e-06 -1.7720624109719227e-05  6.1661008086836061e-03 -2.2003644391181778e-03 -2.0445529423144011e-04  6.4076958484470588e-03 -5.5034155719111254e-03 -3.8575401804851985e-04  1.2921325574253739e-02 5.8488739333299950e-03 4.3725346855535334e-04  1.1567995250775951e-02 2.4457042827460492e-03 1.9209410015380077e-04  1.0702964177499451e-02 -4.9065157437971213e-04 -5.8739528325832398e-05  1.0278555074808954e-02 -3.5526457248678299e-03 -3.1079787394339619e-04  1.0051348337080197e-02 -7.3775983439125408e-03 -5.6234612357341346e-04  1.7411674571341379e-02 6.1681164907477562e-03 5.1540560350247177e-04  1.6147654389131148e-02 2.3279517763574722e-03 1.9782766633474820e-04  1.5229884795912566e-02 -1.1824934228639740e-03 -1.1615877465625129e-04  1.4603268055522270e-02 -4.7958469430997453e-03 -4.2810942570623977e-04  1.4063590639191364e-02 -8.9065384773795147e-03 -7.4454397990150159e-04  2.1899172186543865e-02 6.0034217900009294e-03 5.6780096731867105e-04  2.0738481263691093e-02 1.9156069759423949e-03 1.8304782465377909e-04  1.9789105038899430e-02 -1.9645168342713060e-03 -1.8612428653189226e-04  1.9025749513050621e-02 -5.9135375995699718e-03 -5.5045290844882820e-04  1.8298745913910851e-02 -1.0168107424539314e-02 -9.2436271582005218e-04  2.6321617100897251e-02 5.5377477870307799e-03 5.8997707037562763e-04  2.5254522899065924e-02 1.3220541656411022e-03 1.4715085665404523e-04  2.4304936556232667e-02 -2.7774620026187655e-03 -2.6492356335981672e-04  2.3464977556266937e-02 -6.9185077354765494e-03 -6.6944755301527712e-04  2.2639163748636167e-02 -1.1230887122852458e-02 -1.0926364255076811e-03  3.0681811299442099e-02 4.9118459018197740e-03 5.7046319520759163e-04  2.9687553911594836e-02 6.2926727595469104e-04 8.2330159269476818e-05  2.8750309605833795e-02 -3.5915499798611248e-03 -3.4957216378997484e-04  2.7873906992282926e-02 -7.8338839966562469e-03 -7.7206146849248330e-04  2.7004439031256686e-02 -1.2163689236275289e-02 -1.2331709278202237e-03  3.5033609759086606e-02 4.1951594022522683e-03 4.5705334744001617e-04  3.4057900248609399e-02 -1.1777100143672646e-04 -3.2213290417819606e-05  3.3119802856310020e-02 -4.3924868190369807e-03 -4.3669535585992640e-04  3.2236972497834998e-02 -8.6918247887895310e-03 -8.3409844410402864e-04  3.1361921869582379e-02 -1.3042559331346621e-02 -1.2983854330135098e-03  0.0000000000000000e+00 0.0000000000000000e+00 0.0000000000000000e+00  0.0000000000000000e+00 0.0000000000000000e+00 0.0000000000000000e+00  0.0000000000000000e+00 0.0000000000000000e+00 0.0000000000000000e+00  0.0000000000000000e+00 0.0000000000000000e+00 0.0000000000000000e+00  0.0000000000000000e+00 0.0000000000000000e+00 0.0000000000000000e+00  4.8136823036711244e-03 2.9805930517641287e-03 3.6952152821990320e-05  3.2782262123546356e-03 1.1536099754757255e-03 1.5571378355680618e-05  2.5593306147758750e-03 1.4795044660296150e-04 2.1023761902174243e-05  2.5260519326723678e-03 -8.7099174491723401e-04 2.0012904354892761e-05  3.3110055370509416e-03 -3.1723746108967346e-03 -1.2798041720457369e-05  8.8047650990079485e-03 4.9115761056315408e-03 1.2786500229092400e-04  7.3195805040975337e-03 2.1225112464608215e-03 6.4753114945809688e-05  6.4934087317755551e-03 -8.7983207827262125e-06 2.2762698140966180e-05  6.2919431353512289e-03 -2.2453719355542082e-03 -1.7577755617504362e-05  6.5070979845405540e-03 -5.6100673044876519e-03 -7.4005823600445988e-05  1.3172723460995857e-02 5.9383082834727563e-03 2.5860736302353945e-04  1.1796647091399902e-02 2.4756971269602477e-03 1.1986335420859442e-04  1.0916209970204378e-02 -5.1226172493711139e-04 -1.5842814075618008e-06  1.0473577568802602e-02 -3.6282244738337923e-03 -1.1833487541701757e-04  1.0214875555210255e-02 -7.5208023867590294e-03 -2.4958577699732740e-04  1.7742612834488854e-02 6.2422482608154983e-03 3.8709924940583785e-04  1.6451801723389541e-02 2.3398587798454011e-03 1.5961457647644851e-04  1.5515426124717516e-02 -1.2252500871400421e-03 -5.4943675876961690e-05  1.4868774142571178e-02 -4.8948744131567775e-03 -2.6287100666297667e-04  1.4298846860823909e-02 -9.0714355679034752e-03 -4.8132624627958599e-04  2.2303236808934191e-02 6.0528418639887605e-03 4.8653697328642322e-04  2.1113349493756577e-02 1.9044518970485820e-03 1.7134816820656645e-04  2.0143025645343520e-02 -2.0284564687154624e-03 -1.2986163545391352e-04  1.9359315203955299e-02 -6.0309745002157297e-03 -4.2303716613466876e-04  1.8605588569764738e-02 -1.0346100105291566e-02 -7.2434070439380139e-04  2.6792289807646325e-02 5.5612412118704229e-03 5.4052329004479721e-04  2.5693915710858779e-02 1.2883052326847792e-03 1.5087778880858120e-04  2.4721067828068443e-02 -2.8611718911816090e-03 -2.1750739056221530e-04  2.3860691644733686e-02 -7.0521460905172608e-03 -5.7666774878261209e-04  2.3011861963917572e-02 -1.1419440087671236e-02 -9.4753620844440758e-04  3.1213197634798313e-02 4.9127625401164145e-03 5.3679302254929938e-04  3.0185207235213122e-02 5.7511695607273148e-04 9.3205504024070472e-05  2.9221960614849340e-02 -3.6932916799388197e-03 -3.1083566948576519e-04  2.8324741877010305e-02 -7.9833140028143443e-03 -7.0512261360054286e-04  2.7435535043173007e-02 -1.2365035995694218e-02 -1.1263274744636672e-03  3.5630522323567559e-02 4.1747950936823547e-03 4.3504593516124814e-04  3.4611631331772717e-02 -1.9062153227805893e-04 -1.4655639522304614e-05  3.3642372645365078e-02 -4.5101403818825275e-03 -4.0288849929662944e-04  3.2738477523672406e-02 -8.8567405336771234e-03 -7.8288301425427480e-04  3.1847529913689193e-02 -1.3261055900521830e-02 -1.2134478025206577e-03  0.0000000000000000e+00 0.0000000000000000e+00 0.0000000000000000e+00  0.0000000000000000e+00 0.0000000000000000e+00 0.0000000000000000e+00  0.0000000000000000e+00 0.0000000000000000e+00 0.0000000000000000e+00  0.0000000000000000e+00 0.0000000000000000e+00 0.0000000000000000e+00  0.0000000000000000e+00 0.0000000000000000e+00 0.0000000000000000e+00  4.8312182830959555e-03 3.0285590184101351e-03 -1.9333855869203880e-04  3.3183880348052188e-03 1.1809147800367862e-03 -1.1275578617386781e-04  2.6018979786994524e-03 1.5398154382243533e-04 3.5491490300679861e-05  2.5457348903646835e-03 -8.8266951713639012e-04 1.9040455951108438e-04  3.2802773068906265e-03 -3.1929918198978749e-03 3.05735340054