<?xml version="1.0"?>
<VTKFile type="UnstructuredGrid"  version="0.1"  >
<UnstructuredGrid>
<Piece  NumberOfPoints="405" NumberOfCells="1536">
<Points>
<DataArray  type="Float64"  NumberOfComponents="3"  format="ascii">0.45 0 -0.2  0.475 0 -0.2  0.5 0 -0.2  0.525 0 -0.2  0.55 0 -0.2  0.4545911543144246 0.02895487834645856 -0.1977935269449334  0.4778319141769887 0.02678502568652803 -0.1988110468896484  0.5019134268032882 0.02531461253894752 -0.1999924706648765  0.5266211581547648 0.02370324520145926 -0.2013587926902613  0.5519070586614654 0.02098074812123281 -0.202790809283873  0.4590796169894346 0.05642323804564402 -0.1976472554539401  0.4822585702584257 0.05303252995852112 -0.1988087385749668  0.5061337812474475 0.05028825786526191 -0.2001470055222919  0.5306232725161681 0.04741658133716579 -0.2015906263586819  0.5554402435957596 0.04342874010435245 -0.2030859802039894  0.4644554363834341 0.0826685636780187 -0.1979560486586282  0.4876410616205827 0.07841854555303321 -0.1990604834881054  0.511433626357211 0.07470669230230916 -0.2002875343782896  0.535698870941127 0.07084537397614006 -0.2015592070211487  0.5600963428893394 0.06604527658210428 -0.202834826516469  0.470255557096396 0.1079267557307581 -0.1983686099743347  0.4934838181158085 0.1031138841384476 -0.1993394250413587  0.5172082530455212 0.09870559178364484 -0.2003994790337745  0.5412700729210348 0.0941491171105544 -0.20147276509825  0.5653594279671763 0.08888383743725473 -0.2025284360868235  0.4760573780264336 0.1325364499604101 -0.1986982703544223  0.4994297390485745 0.1273746583352272 -0.1995749235144227  0.5231216987260742 0.1224818252936758 -0.2004955774511905  0.547031643276868 0.1174767832055983 -0.2014110562782948  0.5709242727357399 0.1119882146557289 -0.2023056112123701  0.4817873103371104 0.1567153889549408 -0.1989457997292068  0.5052977003779779 0.1513530252696499 -0.1997656398604489  0.5290018117173185 0.146166047757602 -0.2005900751239788  0.5528194645315599 0.1409060133531296 -0.2013971615464851  0.5766032141572351 0.1353462049910823 -0.2021910717628301  0.4874424628866062 0.1806358650225867 -0.1991657236645831  0.511054023601777 0.1751794096866121 -0.1999426519969272  0.5347772053226756 0.1698439402908059 -0.2006927694456143  0.5585450016498391 0.1644691728495465 -0.2014235452375923  0.5822752936514389 0.1589211495461674 -0.2021669136669991  0.4930092179172768 0.2044350721256939 -0.1993668840641945  0.5166306122241066 0.1989706716202204 -0.2001229996066358  0.5403623775000265 0.1935920596349132 -0.2007966940359504  0.5641443023151024 0.1881709422763217 -0.201453075778406  0.5878795700101872 0.1826333881281767 -0.2021803232000431  0.45 0 -0.175  0.475 0 -0.175  0.5 0 -0.175  0.525 0 -0.175  0.55 0 -0.175  0.455211219415736 0.02861079874409798 -0.173659919048548  0.4785383879209436 0.02652915465584976 -0.174281628856661  0.5026859834269565 0.02523254941248183 -0.1750301566486635  0.5275485278438429 0.02390971123713602 -0.1758682951078328  0.5532968510244075 0.02130095684153217 -0.176728696934209  0.459944874363736 0.05615347477239544 -0.1733212287550035  0.4832032971843612 0.05278028136342444 -0.1741843558038648  0.5071483928766816 0.05005876382782181 -0.1751767200355216  0.5317303167143177 0.04720644414535818 -0.1762258998731365  0.5567470655161341 0.04314481240892479 -0.1772365626875102  0.4653494534667183 0.08244813500332633 -0.1734072417587987  0.4886255765479909 0.07817393014364021 -0.1743087701728709  0.5124435946823926 0.07439024374981569 -0.1752949284711112  0.5367201248085054 0.07043927573407072 -0.1763074773699038  0.5611636916408578 0.0655671784676152 -0.177300190118092  0.4711017837796073 0.1077341872592895 -0.1736172375172648  0.494415455982727 0.1028750573727026 -0.1744867492643167  0.5181368013394489 0.09837288506703987 -0.1753937838246103  0.5421678667470001 0.09371847677216313 -0.1763099468365658  0.5662439118301955 0.08841206815746282 -0.1772208608153607  0.4768648476397476 0.1323408812540434 -0.173822567482762  0.5002926016307797 0.1271406233005816 -0.1746552242393557  0.5239674960577974 0.1221686427210526 -0.1754872422153012  0.5478355253194328 0.1170858932103432 -0.1763165172053439  0.5716974171404609 0.1115749816119942 -0.1771508179044909  0.4825771270182923 0.1565216019194434 -0.173999621888025  0.5061118542966688 0.1511302154188686 -0.1748067677249421  0.5297879559710932 0.1458820499266096 -0.1755856151039503  0.5535655984670366 0.1405634863711386 -0.1763530367639181  0.5773188201462441 0.1349867984436472 -0.1771368485538873  0.4882248836116979 0.1804485501272257 -0.1741676832459766  0.5118386060402672 0.1749726831072001 -0.1749582934252769  0.5355253761732637 0.1695865780784163 -0.1756939081787093  0.5592596048625986 0.1641581274993205 -0.1764147441791291  0.5829698440150368 0.158586798731404 -0.1771737531457626  0.4937791748338195 0.2042564946498918 -0.1743573381415258  0.5174270972785615 0.1987757628915649 -0.1751254451580681  0.5411138799933367 0.193339198267692 -0.1758068245203032  0.5648540937850707 0.1878566906043512 -0.1764753989426888  0.5885765462195893 0.1822915427983033 -0.1772152341107941  0.45 0 -0.15  0.475 0 -0.15  0.5 0 -0.15  0.525 0 -0.15  0.55 0 -0.15  0.4557364326828953 0.02860485427243288 -0.149203163819764  0.4788849355062922 0.02645959795268024 -0.1495893281553234  0.5029877408104854 0.02520315868569964 -0.1500320903067228  0.5279039625015362 0.02390988025222607 -0.1505240686371485  0.5538087913812428 0.02109762722267782 -0.1510261044471212  0.4606639044787348 0.05605172314582532 -0.1488575011487605  0.4838016517059591 0.05265346676251927 -0.1494578645787286  0.5077268756861791 0.04996606701201156 -0.1501379141503036  0.5323858557023354 0.04712353105354132 -0.1508509201015413  0.557530828263506 0.04293055181531642 -0.1515224532728959  0.4661612120256911 0.08229797831121002 -0.1488049909815289  0.4893617975016946 0.07800546945046909 -0.1495068879700747  0.5131685092245726 0.07422326036975239 -0.1502530091020583  0.5374873499563203 0.07025269108398115 -0.151018211579092  0.5620011090831557 0.06533049536239842 -0.1517619035949124  0.4719483478936733 0.1075572865262504 -0.1488694293623322  0.4952118784945518 0.1026780262073992 -0.1496133547532041  0.5189142820762915 0.09815298796930649 -0.1503601686123501  0.5429516166591681 0.09346614641653812 -0.1511156619120836  0.5670506726005532 0.08814500717287173 -0.1518703555348002  0.4777184287291749 0.1321549261322159 -0.1489671217017117  0.5011076704021517 0.1269305528128123 -0.1497306593560523  0.5247550323863744 0.1219234240876749 -0.1504647058368781  0.5486066059352718 0.1168043400970005 -0.1511989987178299  0.5724627636976165 0.1112873346696797 -0.1519479070303093  0.4834277350683426 0.1563351139459229 -0.1490744434075147  0.5069311484979984 0.1509167574662303 -0.1498501088934835  0.5305752030293444 0.1456273816416855 -0.1505739772842996  0.554324867250487 0.1402697189467722 -0.1512909129908567  0.5780565655482324 0.1346816139328932 -0.1520371816148129  0.489089980775324 0.1802707047055667 -0.1491965024362404  0.5126701940325491 0.1747576252473012 -0.1499840783424707  0.5363218977345348 0.169324509702348 -0.1506920731929632  0.5600220494266611 0.1638521362637974 -0.1513889976825001  0.5837013666163873 0.1582570053922901 -0.1521392126930464  0.4946948666972311 0.2040856981401823 -0.1493842043747688  0.518300927113848 0.1985509422246832 -0.1501580054699828  0.5419504473686295 0.1930589408978959 -0.1508191076790361  0.5656470497569037 0.1875262999011082 -0.151472084459949  0.5893263674274213 0.1819263205461704 -0.1522107156953026  0.45 0 -0.125  0.475 0 -0.125  0.5 0 -0.125  0.525 0 -0.125  0.55 0 -0.125  0.4560564087121906 0.02867011005928738 -0.1245069235605508  0.479103211173759 0.02646253189439577 -0.1247416659452534  0.5031703350290242 0.02519458816752011 -0.1250136402780138  0.528104804060355 0.02388757436937667 -0.1253185414225942  0.5540679085561374 0.02092580611220027 -0.1256430583484746  0.4611771291925379 0.05607685364004401 -0.1242342692188549  0.4842224911202218 0.0526203300150867 -0.124636193088657  0.5081201359838896 0.04992114570526529 -0.1250890583871025  0.5328067108971236 0.04704679355743324 -0.1255613122990462  0.5579870678056917 0.0427129594381388 -0.1260069980221898  0.4668038302206412 0.08226701316906537 -0.1241236159273353  0.4899375833384099 0.07792377984413262 -0.124643553942637  0.5137211206022291 0.0741205163775184 -0.1251901992797365  0.5380531818419079 0.07011277078052311 -0.1257463106902582  0.5625809911098993 0.06510383181405476 -0.1262900004034792  0.4726769378624538 0.107479787965153 -0.1240993665615053  0.4958906640790519 0.1025530724627922 -0.1247027987976889  0.5195662371748418 0.09799697744753159 -0.1253019772535298  0.5435973077354435 0.09327235750379635 -0.1259039916590761  0.5676923154299337 0.08790034610228423 -0.1265097408939245  0.4785009403465144 0.1320440844972495 -0.1241197934901721  0.5018507953012767 0.1267750368646836 -0.1247855547067494  0.5254656621194098 0.1217288073949724 -0.1254205020130146  0.5492961108675601 0.116570286367383 -0.1260529117137644  0.5731345211173725 0.1110174531674942 -0.1267021325785664  0.4842479833613051 0.1562052632101218 -0.1241723166304864  0.5077169233336334 0.1507415316721168 -0.1248846165465506  0.5313250035402461 0.1454063191660972 -0.1255457471541532  0.555044537253118 0.1400052118857277 -0.1261995022423187  0.5787491780685987 0.134382948583319 -0.1268843498869222  0.4899534398671334 0.18013422149921 -0.1242630562711335  0.5134973388058367 0.174567722800941 -0.1250104532451086  0.5371096781283013 0.1690816424794912 -0.1256782386872648  0.5607739405572204 0.1635598433564034 -0.1263357583181333  0.5844191309981556 0.1579242714766722 -0.1270498056346412  0.4956291967559009 0.203940572345678 -0.1244503124072899  0.519186474962378 0.1983405661622833 -0.1251916123864968  0.5427907817640188 0.1927896541991824 -0.1258184933421577  0.5664447539535876 0.1872016326211706 -0.1264376094544967  0.5900819706642397 0.1815514539013882 -0.1271484061584597  0.45 0 -0.1  0.475 0 -0.1  0.
[...]
<PointData  Vectors="Displacement"> 
<DataArray  type="Float64"  Name="Displacement"  NumberOfComponents="3" format="ascii">0.0000000000000000e+00 0.0000000000000000e+00 0.0000000000000000e+00  0.0000000000000000e+00 0.0000000000000000e+00 0.0000000000000000e+00  0.0000000000000000e+00 0.0000000000000000e+00 0.0000000000000000e+00  0.0000000000000000e+00 0.0000000000000000e+00 0.0000000000000000e+00  0.0000000000000000e+00 0.0000000000000000e+00 0.0000000000000000e+00  4.5911543144245464e-03 3.9548783464585530e-03 2.2064730550666102e-03  2.8319141769885987e-03 1.7850256865280278e-03 1.1889531103515903e-03  1.9134268032882198e-03 3.1461253894751122e-04 7.5293351234425591e-06  1.6211581547647283e-03 -1.2967547985407368e-03 -1.3587926902612999e-03  1.9070586614652822e-03 -4.0192518787671924e-03 -2.7908092838729828e-03  9.0796169894344636e-03 6.4232380456440063e-03 2.3527445460599043e-03  7.2585702584257259e-03 3.0325299585211114e-03 1.1912614250332253e-03  6.1337812474473964e-03 2.8825786526189852e-04 -1.4700552229185841e-04  5.6232725161681745e-03 -2.5834186628342103e-03 -1.5906263586819931e-03  5.4402435957595432e-03 -6.5712598956475573e-03 -3.0859802039894892e-03  1.4455436383434083e-02 7.6685636780186844e-03 2.0439513413717560e-03  1.2641061620582650e-02 3.4185455530331998e-03 9.3951651189456747e-04  1.1433626357210930e-02 -2.9330769769085044e-04 -2.8753437828956085e-04  1.0698870941127054e-02 -4.1546260238599633e-03 -1.5592070211487173e-03  1.0096342889339249e-02 -8.9547234178957071e-03 -2.8348265164689873e-03  2.0255557096395978e-02 7.9267557307580987e-03 1.6313900256652257e-03  1.8483818115808463e-02 3.1138841384475984e-03 6.6057495864128379e-04  1.7208253045521180e-02 -1.2944082163551846e-03 -3.9947903377450885e-04  1.6270072921034665e-02 -5.8508828894456109e-03 -1.4727650982499880e-03  1.5359427967176350e-02 -1.1116162562745299e-02 -2.5284360868234913e-03  2.6057378026433656e-02 7.5364499604101149e-03 1.3017296455777832e-03  2.4429739048574373e-02 2.3746583352272184e-03 4.2507648557731640e-04  2.3121698726074200e-02 -2.5181747063241465e-03 -4.9557745119049813e-04  2.2031643276868063e-02 -7.5232167944016531e-03 -1.4110562782947283e-03  2.0924272735739803e-02 -1.3011785344271023e-02 -2.3056112123700932e-03  3.1787310337110387e-02 6.7153889549407923e-03 1.0542002707932708e-03  3.0297700377977993e-02 1.3530252696498637e-03 2.3436013955111833e-04  2.9001811717318408e-02 -3.8339522423980572e-03 -5.9007512397871999e-04  2.7819464531559788e-02 -9.0939866468704392e-03 -1.3971615464850691e-03  2.6603214157235024e-02 -1.4653795008917754e-02 -2.1910717628301061e-03  3.7442462886606125e-02 5.6358650225866395e-03 8.3427633541689023e-04  3.6054023601776994e-02 1.7940968661207414e-04 5.7348003072755280e-05  3.4777205322675579e-02 -5.1560597091941914e-03 -6.9276944561422942e-04  3.3545001649838882e-02 -1.0530827150453529e-02 -1.4235452375922935e-03  3.2275293651438969e-02 -1.6078850453832661e-02 -2.1669136669990969e-03  4.3009217917276736e-02 4.4350721256939058e-03 6.3311593580556722e-04  4.1630612224106724e-02 -1.0293283797795484e-03 -1.2299960663578167e-04  4.0362377500026629e-02 -6.4079403650867950e-03 -7.9669403595040978e-04  3.9144302315102152e-02 -1.1829057723678277e-02 -1.4530757784059422e-03  3.7879570010187248e-02 -1.7366611871823288e-02 -2.1803232000431184e-03  0.0000000000000000e+00 0.0000000000000000e+00 0.0000000000000000e+00  0.0000000000000000e+00 0.0000000000000000e+00 0.0000000000000000e+00  0.0000000000000000e+00 0.0000000000000000e+00 0.0000000000000000e+00  0.0000000000000000e+00 0.0000000000000000e+00 0.0000000000000000e+00  0.0000000000000000e+00 0.0000000000000000e+00 0.0000000000000000e+00  5.2112194157359227e-03 3.6107987440979830e-03 1.3400809514520669e-03  3.5383879209434561e-03 1.5291546558497536e-03 7.1837114333903648e-04  2.6859834269563044e-03 2.3254941248182466e-04 -3.0156648663470503e-05  2.5485278438428598e-03 -1.0902887628639858e-03 -8.6829510783277986e-04  3.2968510244075376e-03 -3.6990431584678313e-03 -1.7286969342090314e-03  9.9448743637360164e-03 6.1534747723954366e-03 1.6787712449965332e-03  8.2032971843611149e-03 2.7802813634244423e-03 8.1564419613519611e-04  7.1483928766817870e-03 5.8763827821809006e-05 -1.7672003552161782e-04  6.7303167143177968e-03 -2.7935558546418209e-03 -1.2258998731365699e-03  6.7470655161340400e-03 -6.8551875910752205e-03 -2.2365626875101561e-03  1.5349453466718333e-02 7.4481350033263139e-03 1.5927582412013767e-03  1.3625576547990946e-02 3.1739301436401958e-03 6.9122982712907922e-04  1.2443594682392718e-02 -6.0975625018431351e-04 -2.9492847111112561e-04  1.1720124808505435e-02 -4.5607242659293024e-03 -1.3074773699037812e-03  1.1163691640857622e-02 -9.4328215323848073e-03 -2.3001901180919786e-03  2.1101783779607274e-02 7.7341872592895395e-03 1.3827624827351716e-03  1.9415455982726867e-02 2.8750573727025913e-03 5.1325073568338686e-04  1.8136801339449053e-02 -1.6271149329601059e-03 -3.9378382461025246e-04  1.7167866746999973e-02 -6.2815232278368577e-03 -1.3099468365658277e-03  1.6243911830195520e-02 -1.1587931842537209e-02 -2.2208608153606794e-03  2.6864847639747471e-02 7.3408812540434222e-03 1.1774325172380516e-03  2.5292601630779708e-02 2.1406233005815552e-03 3.4477576064432630e-04  2.3967496057797473e-02 -2.8313572789474299e-03 -4.8724221530123250e-04  2.2835525319432733e-02 -7.9141067896567347e-03 -1.3165172053438395e-03  2.1697417140460789e-02 -1.3425018388005732e-02 -2.1508179044909571e-03  3.2577127018292261e-02 6.5216019194433402e-03 1.0003781119750010e-03  3.1111854296668868e-02 1.1302154188685828e-03 1.9323227505791809e-04  2.9787955971093082e-02 -4.1179500733904278e-03 -5.8561510395035315e-04  2.8565598467036348e-02 -9.4365136288614461e-03 -1.3530367639179989e-03  2.7318820146243750e-02 -1.5013201556352865e-02 -2.1368485538872527e-03  3.8224883611697819e-02 5.4485501272256744e-03 8.3231675402333373e-04  3.6838606040267098e-02 -2.7316892799869601e-05 4.1706574723097851e-05  3.5525376173263651e-02 -5.4134219215837510e-03 -6.9390817870927950e-04  3.4259604862598485e-02 -1.0841872500679467e-02 -1.4147441791290101e-03  3.2969844015036873e-02 -1.6413201268596054e-02 -2.1737531457625778e-03  4.3779174833819434e-02 4.2564946498918387e-03 6.4266185847419428e-04  4.2427097278561587e-02 -1.2242371084351274e-03 -1.2544515806810753e-04  4.1113879993336648e-02 -6.6608017323079860e-03 -8.0682452030317298e-04  3.9854093785070620e-02 -1.2143309395648857e-02 -1.4753989426887716e-03  3.8576546219589253e-02 -1.7708457201696594e-02 -2.2152341107940557e-03  0.0000000000000000e+00 0.0000000000000000e+00 0.0000000000000000e+00  0.0000000000000000e+00 0.0000000000000000e+00 0.0000000000000000e+00  0.0000000000000000e+00 0.0000000000000000e+00 0.0000000000000000e+00  0.0000000000000000e+00 0.0000000000000000e+00 0.0000000000000000e+00  0.0000000000000000e+00 0.0000000000000000e+00 0.0000000000000000e+00  5.7364326828953103e-03 3.6048542724328773e-03 7.9683618023605426e-04  3.8849355062921874e-03 1.4595979526802496e-03 4.1067184467661331e-04  2.9877408104854036e-03 2.0315868569964178e-04 -3.2090306722871683e-05  2.9039625015361975e-03 -1.0901197477739249e-03 -5.2406863714848375e-04  3.8087913812426600e-03 -3.9023727773221800e-03 -1.0261044471212035e-03  1.0663904478734845e-02 6.0517231458253190e-03 1.1424988512394954e-03  8.8016517059590800e-03 2.6534667625192749e-03 5.4213542127136622e-04  7.7268756861791727e-03 -3.3932987988443539e-05 -1.3791415030356386e-04  7.3858557023354227e-03 -2.8764689464586802e-03 -8.5092010154129752e-04  7.5308282635058827e-03 -7.0694481846835773e-03 -1.5224532728959068e-03  1.6161212025691086e-02 7.2979783112100179e-03 1.1950090184710395e-03  1.4361797501694466e-02 3.0054694504691179e-03 4.9311202992535861e-04  1.3168509224572579e-02 -7.7673963024761205e-04 -2.5300910205829574e-04  1.2487349956320367e-02 -4.7473089160188706e-03 -1.0182115790919640e-03  1.2001109083155570e-02 -9.6695046376015781e-03 -1.7619035949124069e-03  2.1948347893673368e-02 7.5572865262503877e-03 1.1305706376678046e-03  2.0211878494551676e-02 2.6780262073992059e-03 3.8664524679589331e-04  1.8914282076291762e-02 -1.8470120306934938e-03 -3.6016861235009111e-04  1.7951616659168043e-02 -6.5338535834618839e-03 -1.1156619120835523e-03  1.7050672600553093e-02 -1.1854992827128282e-02 -1.8703555348001811e-03  2.7718428729174804e-02 7.1549261322159515e-03 1.0328782982883260e-03  2.6107670402151600e-02 1.9305528128123108e-03 2.6934064394772486e-04  2.4755032386374505e-02 -3.0765759123250690e-03 -4.6470583687803344e-04  2.3606605935271814e-02 -8.1956599029995095e-03 -1.1989987178298489e-03  2.2462763697616270e-02 -1.3712665330320244e-02 -1.9479070303092471e-03  3.3427735068342519e-02 6.3351139459228850e-03 9.2555659248540656e-04  3.1931148497998316e-02 9.1675746623034158e-04 1.4989110651646240e-04  3.0575203029344411e-02 -4.3726183583145577e-03 -5.7397728429951615e-04  2.9324867250487077e-02 -9.7302810532278617e-03 -1.2909129908566781e-03  2.8056565548232437e-02 -1.5318386067106842e-02 -2.0371816148128572e-03  3.9089980775323899e-02 5.2707047055667545e-03 8.0349756375960196e-04  3.7670194032549065e-02 -2.4237475269890880e-04 1.5921657529322191e-05  3.6321897734534606e-02 -5.6754902976520177e-03 -6.9207319296311150e-04  3.5022049426661241e-02 -1.1147863736202608e-02 -1.3889976825000722e-03  3.3701366616387292e-02 -1.6742994607709873e-02 -2.1392126930464403e-03  4.4694866697231078e-02 4.0856981401823280e-03 6.1579562523124398e-04  4.3300927113847761e-02 -1.4490577753168607e-03 -1.5800546998272932e-04  4.1950447368629448e-02 -6.9410591021041509e-03 -8.1910767903607370e-04  4.0647049756903773e-02 -1.2473700098891793e-02 -1.4720844599489652e-03  3.9326367427421356e-02 -1.8073679453829653e-02 -2.2107156953026000e-03  0.0000000000000000e+00 0.0000000000000000e+00 0.0000000000000000e+00  0.0000000000000000e+00 0.0000000000000000e+00 0.0000000000000000e+00  0.0000000000000000e+00 0.0000000000000000e+00 0.0000000000000000e+00  0.0000000000000000e+00 0.0000000000000000e+00 0.0000000000000000e+00  0.0000000000000000e+00 0.0000000000000000e+00 0.0000000000000000e+00  6.0564087121905991e-03 3.6701100592873804e-03 4.9307643944924322e-04  4.1032111737589836e-03 1.4625318943957744e-03 2.5833405474656062e-04  3.1703350290241544e-03 1.9458816752011341e-04 -1.3640278013771606e-05  3.1048040603552508e-03 -1.1124256306233355e-03 -3.1854142259420316e-04  4.0679085561374376e-03 -4.0741938877997359e-03 -6.4305834847456795e-04  1.1177129192537896e-02 6.0768536400440006e-03 7.6573078114508693e-04  9.2224911202218179e-03 2.6203300150866998e-03 3.6380691134302632e-04  8.1201359838895416e-03 -7.8854294734707412e-05 -8.9058387102423887e-05  7.8067108971237309e-03 -2.9532064425667596e-03 -5.6131229904624459e-04  7.9870678056917221e-03 -7.2870405618612058e-03 -1.0069980221897507e-03  1.6803830220641160e-02 7.2670131690653504e-03 8.7638407266471042e-04  1.4937583338409883e-02 2.9237798441326137e-03 3.5644605736306797e-04  1.3721120602228907e-02 -8.7948362248163527e-04 -1.9019927973644592e-04  1.3053181841907782e-02 -4.8872292194769209e-03 -7.4631069025817020e-04  1.2580991109899266e-02 -9.8961681859452613e-03 -1.2900004034792508e-03  2.2676937862453842e-02 7.4797879651529982e-03 9.0063343849469246e-04  2.0890664079051786e-02 2.5530724627922555e-03 2.9720120231106447e-04  1.9566237174841867e-02 -2.0030225524683976e-03 -3.0197725352978987e-04  1.8597307735443429e-02 -6.7276424962036604e-03 -9.0399165907615816e-04  1.7692315429933700e-02 -1.2099653897715751e-02 -1.5097408939245005e-03  2.8500940346514389e-02 7.0440844972494377e-03 8.8020650982792935e-04  2.6850795301276622e-02 1.7750368646835479e-03 2.1444529325056935e-04  2.5465662119409930e-02 -3.2711926050275832e-03 -4.2050201301463164e-04  2.4296110867560231e-02 -8.4297136326169607e-03 -1.0529117137643893e-03  2.3134521117372287e-02 -1.3982546832505778e-02 -1.7021325785663763e-03  3.4247983361305100e-02 6.2052632101217368e-03 8.2768336951360825e-04  3.2716923333633310e-02 7.4153167211675518e-04 1.1538345344937221e-04  3.1325003540246123e-02 -4.5936808339028046e-03 -5.4574715415316481e-04  3.0044537253117971e-02 -9.9947881142723547e-03 -1.1995022423186910e-03  2.8749178068598585e-02 -1.5617051416681073e-02 -1.8843498869221772e-03  3.9953439867133379e-02 5.1342214992099568e-03 7.3694372886646544e-04  3.8497338805836522e-02 -4.3227719905896528e-04 -1.0453245108613883e-05  3.7109678128301543e-02 -5.9183575205088721e-03 -6.7823868726484004e-04  3.5773940557220454e-02 -1.1440156643596561e-02 -1.3357583181332665e-03  3.4419130998155557e-02 -1.7075728523327803e-02 -2.0498056346411916e-03  4.5629196755900860e-02 3.9405723456779713e-03 5.4968759271006157e-04  4.4186474962377979e-02 -1.6594338377166663e-03 -1.9161238649679320e-04  4.2790781764018869e-02 -7.2103458008176136e-03 -8.1849334215765767e-04  4.1444753953587675e-02 -1.2798367378829457e-02 -1.4376094544967782e-03  4.0081970664239776e-02 -1.8448546098611782e-02 -2.1484061584597122e-03  0.0000000000000000e+00 0.0000000000000000e+00 0.0000000000000000e+00  0.0000000000000000e+00 0.0000000000000000e+00 0.0000000000000000e+00  0.0000000000000000e+00 0.0000000000000000e+00 0.0000000000000000e+00  0.0000000000000000e+00 0.0000000000000000e+00 0.0000000000000000e+00  0.0000000000000000e+00 0.0000000000000000e+00 0.0000000000000000e+00  6.2680575077942603e-03 3.7416778386400815e-03 2.8410610544641831e-04  4.2570816490861913e-03 1.4866553537628813e-03 1.4923324732437200e-04  3.3024524499439597e-03 1.9638237626661977e-04 6.7640062375537084e-06  3.2386742059339751e-03 -1.1338659036812472e-03 -1.5901403370673908e-04  4.2164385130646562e-03 -4.1997873969969839e-03 -3.5807287038866492e-04  1.1549721306637622e-02 6.1597440204386993e-03 4.8181524413195583e-04  9.5362634515017957e-03 2.6367192034095510e-03 2.2984949127248793e-04  8.4110276353552317e-03 -1.0198510680510990e-04 -3.8643910868347940e-05  8.0972656416777901e-03 -3.0268891368377348e-03 -3.1862419012723410e-04  8.2662248714876919e-03 -7.4789818476686159e-03 -5.9552682331565597e-04  1.7310202129433849e-02 7.3190831646435866e-03 6.1603622566533053e-04  1.5391574491312182e-02 2.9054558975961852e-03 2.5080633711744205e-04  1.4150321053814138e-02 -9.4794085850307341e-04 -1.1934218822089091e-04  1.3471163496826305e-02 -5.0161414012392189e-03 -4.9322585703444864e-04  1.2974143568442892e-02 -1.0121614917643297e-02 -8.7078422582294876e-04  2.3287923277523076e-02 7.4876855222919259e-03 6.9875028130488893e-04  2.1456135362211023e-02 2.4919636173891214e-03 2.2911780159448958e-04  2.0102466918423007e-02 -2.1187180695008611e-03 -2.2977911706284138e-04  1.9111809040078535e-02 -6.9029939398247975e-03 -6.8728314524023630e-04  1.8176229088986570e-02 -1.2349694999376042e-02 -1.1553059974772977e-03  2.9192470179033189e-02 7.0080496883327481e-03 7.3485713699123726e-04  2.7501446292554351e-02 1.6751291824905628e-03 1.7363518126947718e-04  2.6082583490062292e-02 -3.4267722954280642e-03 -3.6063693373078237e-04  2.4884028395628421e-02 -8.6423283687067434e-03 -8.8992541389294115e-04  2.3689503097432101e-02 -1.4255981685142185e-02 -1.4355578926913055e-03  3.5000664622316435e-02 6.1351347193116766e-03 7.2234955406698040e-04  3.3433087064643506e-02 6.1148918231538729e-04 8.8724813733581236e-05  3.2004804417835986e-02 -4.7808150365002931e-03 -5.0343068602422345e-04  3.0691297116152486e-02 -1.0238405210287797e-02 -1.0876096115628724e-03  2.9362195322167842e-02 -1.5915612318834194e-02 -1.6979876878193008e-03  4.0762101299899510e-02 5.0406512078357496e-03 6.5230327745764900e-04  3.9270409684804108e-02 -5.8669897820343175e-04 -3.2851703754211781e-05  3.7844712312178432e-02 -6.1325090927346259e-03 -6.5235069242077024e-04  3.6473757834449221e-02 -1.1712922710155485e-02 -1.2622569183417033e-03  3.5084571274506260e-02 -1.7404584200063546e-02 -1.9216776800510442e-03  4.6506084076936391e-02 3.8237969818410368e-03 4.6974776480623507e-04  4.5022028938367591e-02 -1.8409508854333198e-03 -2.1560485847321351e-04  4.3585196290717575e-02 -7.4534929894314117e-03 -8.0338942183225625e-04  4.2201571631232525e-02 -1.3103106457418750e-02 -1.3828610857752777e-03  4.0802874389164828e-02 -1.8815292543765686e-02 -2.0465980148068321e-03  0.0000000000000000e+00 0.0000000000000000e+00 0.0000000000000000e+00  0.0000000000000000e+00 0.0000000000000000e+00 0.0000000000000000e+00  0.0000000000000000e+00 0.0000000000000000e+00 0.0000000000000000e+00  0.0000000000000000e+00 0.0000000000000000e+00 0.0000000000000000e+00  0.0000000000000000e+00 0.0000000000000000e+00 0.0000000000000000e+00  6.4059782877363847e-03 3.8091372536677211e-03 7.2301105912943276e-05  4.3737784632104223e-03 1.5180508116938861e-03 3.0722665684146676e-05  3.4072119174486945e-03 2.0310038886861334e-04 2.3629889595131951e-05  3.3316004198260204e-03 -1.1518859546447507e-03 5.1197445576908384e-06  4.2881280408171912e-03 -4.2822443065832884e-03 -6.0998512025937025e-05  1.1819369678086486e-02 6.2743877434338321e-03 2.0211839088907951e-04  9.7748343568423816e-03 2.6833140457986136e-03 9.2557612227523657e-05  8.6294574834774561e-03 -1.1108036081317247e-04 1.1362936504317707e-05  8.2924219971639603e-03 -3.0952325255282124e-03 -7.1167614698416684e-05  8.4136600790657868e-03 -7.6390254637045824e-03 -1.7661063989295289e-04  1.7707207594707976e-02 7.4292622669500140e-03 3.6760029885594850e-04  1.5747098352361266e-02 2.9337347204342044e-03 1.4804756718693251e-04  1.4477548839983348e-02 -9.9117079369258863e-04 -4.6656466280184069e-05  1.3766341032041891e-02 -5.1352976080610863e-03 -2.3710829640459470e-04  1.3213598481196864e-02 -1.0336184464850892e-02 -4.4883380238088254e-04  2.3797187736696524e-02 7.5614394833767341e-03 5.1280069890757558e-04  2.1918448566612101e-02 2.4825688213583009e-03 1.6854439237229282e-04  2.0531083168347845e-02 -2.2014428339391613e-03 -1.5357462783855652e-04  1.9504788411347958e-02 -7.0625581234191638e-03 -4.6802017071488682e-04  1.8516381692095858e-02 -1.2597918281326073e-02 -7.9937052116076199e-04  2.9796507197278947e-02 7.0324372588319037e-03 6.0520305549207883e-04  2.8057566501758786e-02 1.6232077774268993e-03 1.4241181455840641e-04  2.6602011142771248e-02 -3.5467805385642160e-03 -2.9522811647300781e-04  2.5367585356072496e-02 -8.8333338706882685e-03 -7.2360807995365756e-04  2.4127329149540348e-02 -1.4525444086598624e-02 -1.1657260504607852e-03  3.5678249020644121e-02 6.1122584351548225e-03 6.2861160177440326e-04  3.4066955356903572e-02 5.2217967068742921e-04 7.1372431689236475e-05  3.2601497205002591e-02 -4.9328876443730111e-03 -4.5486010545294875e-04  3.1253614678005255e-02 -1.0455679618582195e-02 -9.7104720301007040e-04  2.9886433526098960e-02 -1.6202474013187473e-02 -1.5044707725972632e-03  4.1497214637604966e-02 4.9802773179617914e-03 5.7460123184495621e-04  3.9967433167661458e-02 -7.0673026538302028e-04 -4.6308589758508838e-05  3.8506005248010157e-02 -6.3122708001243904e-03 -6.2006461455357299e-04  3.7103033971781670e-02 -1.1955002345762593e-02 -1.1839095655838596e-03  3.5682383473631500e-02 -1.7712511714487879e-02 -1.7828304021175743e-03  4.7298652476184075e-02 3.7307680071958001e-03 4.0161542359187465e-04  4.5777130800883963e-02 -1.9904229473760911e-03 -2.2589397331694051e-04  4.4305763873743881e-02 -7.6600264128889968e-03 -7.8207663711416279e-04  4.2892842657698958e-02 -1.3371076340985029e-02 -1.3288137531435923e-03  4.1468460746890728e-02 -1.9151496509387432e-02 -1.9400773176849954e-03  0.0000000000000000e+00 0.0000000000000000e+00 0.0000000000000000e+00  0.0000000000000000e+00 0.0000000000000000e+00 0.0000000000000000e+00  0.0000000000000000e+00 0.0000000000000000e+00 0.0000000000000000e+00  0.0000000000000000e+00 0.0000000000000000e+00 0.0000000000000000e+00  0.0000000000000000e+00 0.0000000000000000e+00 0.0000000000000000e+00  6.4555691423338569e-03 3.8802021009594918e-03 -2.4040643517240368e-04  4.4474414568706610e-03 1.5587634262403901e-03 -1.4642928768294168e-04  3.4797171971780285e-03 2.1398732236949027e-04 3.7792928869923096e-05  3.3705375920867336e-03 -1.1658370999188528e-03 2.2900338285365406e-04  4.2538108582378100e-03 -4.3124255928836128e-03 3