<?xml version="1.0"?>
<VTKFile type="UnstructuredGrid"  version="0.1"  >
<UnstructuredGrid>
<Piece  NumberOfPoints="405" NumberOfCells="1536">
<Points>
<DataArray  type="Float64"  NumberOfComponents="3"  format="ascii">0.45 0 -0.2  0.475 0 -0.2  0.5 0 -0.2  0.525 0 -0.2  0.55 0 -0.2  0.4543305569647124 0.02879295731971743 -0.1978115211041757  0.477657545771291 0.02675200877824335 -0.1988025179712544  0.5017776679804955 0.0253256277993798 -0.1999569627281431  0.5264947361985924 0.02375123871859142 -0.2012952619331944  0.5517595232550484 0.02111571159685032 -0.2026950115227394  0.4586544634271398 0.05620353811217176 -0.1976304672964619  0.4819125520324782 0.05294149909374062 -0.1987791624554444  0.5058377263134906 0.05027264366417872 -0.2000940209142713  0.5303426548702441 0.04747146161296517 -0.2015126491473312  0.5551419586717181 0.04359620380306107 -0.2029849431200227  0.463940012554583 0.08241322017832282 -0.1979410249539283  0.4871707173738848 0.07826533502834704 -0.1990260807852748  0.5109973388270811 0.0746485408882759 -0.2002299339952104  0.5352729462296866 0.07088514722564498 -0.2014776006447829  0.5596547050834441 0.06620514509295554 -0.202729883462963  0.4696855290104491 0.1076405784187512 -0.1983818778268319  0.4929213031900264 0.1029074241819932 -0.1993186208294171  0.5166553370532443 0.09860522855956867 -0.2003466339862444  0.5407162690280529 0.09416356412970288 -0.2013891569627572  0.5647882188838843 0.0890184477237075 -0.2024136759857149  0.475460972860879 0.1322050430534341 -0.1987584728356326  0.4987916788795289 0.1271237761152449 -0.1995764415808393  0.5224667413169456 0.1223460215203021 -0.2004507107378065  0.5463632209746556 0.1174632216907448 -0.2013244830995803  0.570235493406075 0.1120936358780381 -0.2021769945799528  0.4811040497739599 0.1563385752203841 -0.1990281723587467  0.5045693145305195 0.1510763205998966 -0.1997810681479602  0.5282423745069841 0.1460046607929371 -0.2005498034136826  0.5520384272339617 0.1408662300443953 -0.2013063549703679  0.5758002290103397 0.1354253438991888 -0.2020496755984412  0.4866234386912542 0.1802254201884326 -0.1992413714222624  0.5102043200242488 0.1748831758659583 -0.1999573368265937  0.53390002206571 0.1696617231085614 -0.2006512302342192  0.5576454456920389 0.1644057683415362 -0.2013280826578353  0.581354687617626 0.1589771636098752 -0.2020171313371002  0.4920566612863974 0.2040015082018795 -0.1994310299285411  0.5156554497372166 0.1986543047720361 -0.2001313907275433  0.539363210592535 0.1933903605467936 -0.2007517571243085  0.5631228885926337 0.1880862023130499 -0.2013538726707742  0.5868383843619742 0.1826670817750261 -0.2020262500449855  0.45 0 -0.175  0.475 0 -0.175  0.5 0 -0.175  0.525 0 -0.175  0.55 0 -0.175  0.4549359019478625 0.02843734425043257 -0.1736768988694618  0.4783414917343765 0.02648485078413133 -0.1742739642175486  0.502528487294939 0.02522976803869374 -0.1750032970417524  0.5274001604738593 0.02393777982517239 -0.1758218966017487  0.5531233832508688 0.02141258245351584 -0.1766611097348185  0.4595031033450072 0.05591876425066881 -0.173327520649444  0.4828290232034897 0.05267832567287996 -0.1741634237720282  0.5068207561389531 0.05003372669988418 -0.1751317117543861  0.5314174305329294 0.04725130646223262 -0.1761569739231671  0.5564181874100393 0.04330457092297928 -0.1771423063809117  0.4648034545767781 0.08218674492562908 -0.1734157182176681  0.4881185832194626 0.07802078413437059 -0.1742838941426897  0.5119685653674368 0.0743325661311957 -0.1752423435150816  0.5362545189889985 0.07047940619168216 -0.1762279890858701  0.5606850606206362 0.06573029365389348 -0.1771905828234814  0.4704863166541851 0.1074522947704775 -0.1736423215095939  0.4938079358296546 0.1026799189080723 -0.1744692722176149  0.5175389040018417 0.09828194407137252 -0.1753414960119329  0.5415686455919507 0.09374078933472861 -0.1762243718866318  0.5656296453457563 0.08855629819405507 -0.1770985175124507  0.4762042670529303 0.1320257311577391 -0.1738710271340361  0.499601984977252 0.1269076899638439 -0.1746517577641154  0.5232623320040826 0.1220477600590767 -0.1754389195031552  0.5471170118518585 0.1170852456370171 -0.1762261827016735  0.5709599493212486 0.1116941466933888 -0.1770164856802244  0.4818264628680645 0.1561619909839666 -0.1740625719659745  0.5053266338498764 0.1508715776033874 -0.1748133628464248  0.52897497745526 0.1457378543117685 -0.1755397148691087  0.5527314604327935 0.1405398800675047 -0.1762579070915887  0.5764632837691247 0.1350826701577353 -0.176992152861375  0.4873425291061093 0.1800523777077437 -0.1742310545733093  0.5109319724907395 0.1746932719354344 -0.1749650756386951  0.5345938363784936 0.1694220675627785 -0.1756464598414872  0.5583060222171569 0.1641128160149865 -0.1763147610784771  0.5819952487016656 0.1586616046287787 -0.1770213314397344  0.4927646539699866 0.2038350768456196 -0.1744161900781868  0.5163942712520848 0.1984755013930017 -0.1751282691878064  0.5400601595190369 0.1931555219366052 -0.1757562686955915  0.5637786537751386 0.1877911508736084 -0.1763717838268224  0.5874810638867916 0.1823452126455925 -0.1770583789711956  0.45 0 -0.15  0.475 0 -0.15  0.5 0 -0.15  0.525 0 -0.15  0.55 0 -0.15  0.4554238245323343 0.0284231822368069 -0.1492240619886378  0.478665645539346 0.02641327638511257 -0.149584560372713  0.5028140469338946 0.02519818362900634 -0.1500117445397198  0.5277408903894955 0.0239351219065444 -0.1504880786545559  0.5536174937517233 0.02121106247918131 -0.150972116864827  0.4601745358520587 0.05580832416733298 -0.1488830119529232  0.48339025774654 0.05254899328949669 -0.14944769402133  0.5073674320044818 0.0499394705925946 -0.150102421434358  0.5320426086957887 0.04716679682498467 -0.1507911194322668  0.5571721027612474 0.04309351319452155 -0.1514346738730231  0.4655575895254316 0.08202895185092056 -0.148835792806732  0.4888058429500417 0.07785289178627672 -0.1494937342157619  0.5126495802631638 0.07416824400340358 -0.1502085007462338  0.5369803066830334 0.07029707931439502 -0.1509434932230725  0.5614850927359567 0.06550185189071296 -0.1516514652686247  0.4712667291185489 0.107273655757543 -0.1489087648544853  0.4945469728367839 0.1024879709840464 -0.1496026934722215  0.518264688284318 0.09806983770942376 -0.1503119368740174  0.5423041312426536 0.09349872574404225 -0.1510309793813384  0.5663934084198771 0.0883025728075774 -0.151743594745463  0.4769932897771051 0.1318473444975468 -0.1490155396569137  0.5003580594343815 0.1267065587823981 -0.149726763687611  0.5239952460281285 0.1218142929957833 -0.1504160253789412  0.5478366092906419 0.1168181445460971 -0.1511069080214904  0.5716783676693949 0.1114231682099452 -0.1518085628313017  0.4826231213742884 0.1559921137897007 -0.1491279874564745  0.5060906844406928 0.1506717280037506 -0.1498517693830687  0.5297078798971773 0.1454982890822711 -0.1505247984348814  0.5534383323612241 0.1402632046212328 -0.1511924570259127  0.5771516653281313 0.1347960144547836 -0.1518879301855083  0.4881514914693676 0.1798945287944055 -0.149250412018102  0.5117090796360959 0.1744966218324105 -0.1499855930454779  0.5353365203132645 0.1691778892116027 -0.1506402920224049  0.5590158921506106 0.1638256183802878 -0.1512846930003487  0.5826759291856269 0.1583515751919533 -0.1519822409208542  0.4936169302813004 0.2036836544707585 -0.1494356889093418  0.5172111243843042 0.1982706774601673 -0.1501562023082691  0.5408422733968343 0.1928945230339426 -0.1507635577294352  0.5645184608072634 0.187480650833714 -0.1513631200706945  0.5881788018815336 0.1820008440210504 -0.152048577837126  0.45 0 -0.125  0.475 0 -0.125  0.5 0 -0.125  0.525 0 -0.125  0.55 0 -0.125  0.4557104921961057 0.02847763211704649 -0.1245342830490214  0.4788601362762721 0.02641482462611392 -0.1247452449385259  0.5029786148784446 0.02518978634009951 -0.1250007479057182  0.5279258477182537 0.0239137292947062 -0.125289696296753  0.5538599325999337 0.02104804009882771 -0.1255952241045877  0.4606361043232988 0.05582199790293299 -0.1242758358255463  0.4837695783640963 0.05251391101595721 -0.1246403083683593  0.5077257870329939 0.04989568446558618 -0.1250651097549201  0.53243159209097 0.04709362848555731 -0.1255110976573432  0.5575983446661894 0.04288797441894063 -0.1259266725544635  0.4661357829030108 0.08198917783149634 -0.1241742794365104  0.4893265054116712 0.07777162150100383 -0.1246461371118571  0.5131542071063602 0.07406975130957888 -0.1251570139344731  0.537502245395538 0.07016490856821622 -0.1256792838321495  0.562025287238721 0.06528922504473406 -0.1261835020075233  0.471922621683959 0.1071936566642797 -0.1241550332441487  0.495162378954432 0.1023671764332043 -0.1247039933587637  0.5188608200111312 0.09792183769050272 -0.1252615478123378  0.5428988226451654 0.09331681465209124 -0.1258233489105469  0.5669891328595861 0.08807371597700758 -0.126382925954421  0.4777071908145953 0.1317437399191574 -0.1241760706681998  0.501037858488472 0.1265587797310189 -0.1247865081157007  0.5246480974319429 0.1216308036022556 -0.1253747638190469  0.5484724764092295 0.1165989020464576 -0.1259611917329881  0.5723008956576918 0.1111702105560024 -0.1265598438699494  0.4833865936386567 0.1558778428898686 -0.1242254625631651  0.5068192834580036 0.1505087085459799 -0.1248852843492326  0.5304020522950748 0.1452912083137538 -0.1254955186288767  0.5541047329342407 0.1400153549454451 -0.1260985686912075  0.5777939332176526 0.134514994751215 -0.1267303943110361  0.4889636602412386 0.1797779743771729 -0.1243114684397384  0.5124835624803191 0.1743233677342645 -0.1250086909720009  0.5360714153423753 0.1689514682264812 -0.1256231917393204  0.5597158164497906 0.1635512269947236 -0.1262268871074599  0.5833432803856579 0.158037386569653 -0.126886794675133  0.494499140115379 0.2035609083339303 -0.1244957159742147  0.5180454349459507 0.1980797928058637 -0.1251862563673199  0.5416309120241063 0.1926435468157967 -0.1257579031469918  0.5652645421656018 0.1871750546112807 -0.1263217702595969  0.5888836906450604 0.181645798939435 -0.1269780778716653  0.45 0 -0.1  0.475 0 -0.1  0.5 0 -
[...]
<PointData  Vectors="Displacement"> 
<DataArray  type="Float64"  Name="Displacement"  NumberOfComponents="3" format="ascii">0.0000000000000000e+00 0.0000000000000000e+00 0.0000000000000000e+00  0.0000000000000000e+00 0.0000000000000000e+00 0.0000000000000000e+00  0.0000000000000000e+00 0.0000000000000000e+00 0.0000000000000000e+00  0.0000000000000000e+00 0.0000000000000000e+00 0.0000000000000000e+00  0.0000000000000000e+00 0.0000000000000000e+00 0.0000000000000000e+00  4.3305569647123007e-03 3.7929573197174262e-03 2.1884788958243958e-03  2.6575457712909468e-03 1.7520087782433539e-03 1.1974820287456364e-03  1.7776679804955549e-03 3.2562779937979705e-04 4.3037271856877418e-05  1.4947361985922819e-03 -1.2487612814085728e-03 -1.2952619331944148e-03  1.7595232550482558e-03 -3.8842884031496786e-03 -2.6950115227394166e-03  8.6544634271397084e-03 6.2035381121717508e-03 2.3695327035381736e-03  6.9125520324782620e-03 2.9414990937406166e-03 1.2208375445556287e-03  5.8377263134905093e-03 2.7264366417871825e-04 -9.4020914271210034e-05  5.3426548702441099e-03 -2.5285383870348264e-03 -1.5126491473312295e-03  5.1419586717180886e-03 -6.4037961969389380e-03 -2.9849431200227707e-03  1.3940012554582991e-02 7.4132201783228156e-03 2.0589750460716957e-03  1.2170717373884685e-02 3.2653350283470251e-03 9.7391921472513130e-04  1.0997338827080962e-02 -3.5145911172410868e-04 -2.2993399521032974e-04  1.0272946229686613e-02 -4.1148527743550441e-03 -1.4776006447829429e-03  9.6547050834438833e-03 -8.7948549070444443e-03 -2.7298834629630149e-03  1.9685529010449107e-02 7.6405784187512050e-03 1.6181221731679984e-03  1.7921303190026359e-02 2.9074241819932074e-03 6.8137917058295626e-04  1.6655337053244294e-02 -1.3947714404313489e-03 -3.4663398624435539e-04  1.5716269028052749e-02 -5.8364358702971365e-03 -1.3891569627571612e-03  1.4788218883884346e-02 -1.0981552276292524e-02 -2.4136759857148913e-03  2.5460972860878991e-02 7.2050430534341247e-03 1.2415271643674128e-03  2.3791678879528818e-02 2.1237761152449047e-03 4.2355841916068239e-04  2.2466741316945614e-02 -2.6539784796979068e-03 -4.5071073780648361e-04  2.1363220974655605e-02 -7.5367783092551649e-03 -1.3244830995802850e-03  2.0235493406075014e-02 -1.2906364121961915e-02 -2.1769945799527831e-03  3.1104049773959880e-02 6.3385752203840347e-03 9.7182764125331562e-04  2.9569314530519527e-02 1.0763205998965283e-03 2.1893185203988291e-04  2.8242374506984008e-02 -3.9953392070629003e-03 -5.4980341368262079e-04  2.7038427233961510e-02 -9.1337699556047550e-03 -1.3063549703679475e-03  2.5800229010339539e-02 -1.4574656100811302e-02 -2.0496755984412097e-03  3.6623438691254180e-02 5.2254201884325748e-03 7.5862857773765103e-04  3.5204320024248795e-02 -1.1682413404168638e-04 4.2663173406236969e-05  3.3900022065709981e-02 -5.3382768914386133e-03 -6.5123023421917263e-04  3.2645445692038651e-02 -1.0594231658463783e-02 -1.3280826578353055e-03  3.1354687617626012e-02 -1.6022836390124820e-02 -2.0171313371001860e-03  4.2056661286397311e-02 4.0015082018794489e-03 5.6897007145894740e-04  4.0655449737216715e-02 -1.3456952279638495e-03 -1.3139072754333401e-04  3.9363210592535121e-02 -6.6096394532063384e-03 -7.5175712430853062e-04  3.8122888592633464e-02 -1.1913797686950089e-02 -1.3538726707742047e-03  3.6838384361974265e-02 -1.7332918224973855e-02 -2.0262500449854883e-03  0.0000000000000000e+00 0.0000000000000000e+00 0.0000000000000000e+00  0.0000000000000000e+00 0.0000000000000000e+00 0.0000000000000000e+00  0.0000000000000000e+00 0.0000000000000000e+00 0.0000000000000000e+00  0.0000000000000000e+00 0.0000000000000000e+00 0.0000000000000000e+00  0.0000000000000000e+00 0.0000000000000000e+00 0.0000000000000000e+00  4.9359019478624729e-03 3.4373442504325733e-03 1.3231011305382494e-03  3.3414917343763282e-03 1.4848507841313328e-03 7.2603578245137906e-04  2.5284872949389156e-03 2.2976803869373047e-04 -3.2970417523594899e-06  2.4001604738593304e-03 -1.0622201748276075e-03 -8.2189660174867890e-04  3.1233832508689107e-03 -3.5874175464841655e-03 -1.6611097348185604e-03  9.5031033450072005e-03 5.9187642506688138e-03 1.6724793505560670e-03  7.8290232034896202e-03 2.6783256728799593e-03 8.3657622797183727e-04  6.8207561389532654e-03 3.3726699884177077e-05 -1.3171175438616734e-04  6.4174305329295833e-03 -2.7486935377673840e-03 -1.1569739231671837e-03  6.4181874100392904e-03 -6.6954290770207215e-03 -2.1423063809117215e-03  1.4803454576778109e-02 7.1867449256290579e-03 1.5842817823319266e-03  1.3118583219462578e-02 3.0207841343705770e-03 7.1610585731028448e-04  1.1968565367436864e-02 -6.6743386880431228e-04 -2.4234351508154660e-04  1.1254518988998449e-02 -4.5205938083178517e-03 -1.2279890858700503e-03  1.0685060620636016e-02 -9.2697063461065279e-03 -2.1905828234813299e-03  2.0486316654185002e-02 7.4522947704774986e-03 1.3576784904061089e-03  1.8807935829654482e-02 2.6799189080722484e-03 5.3072778238517340e-04  1.7538904001841743e-02 -1.7180559286274553e-03 -3.4149601193289206e-04  1.6568645591950610e-02 -6.2592106652713860e-03 -1.2243718866318412e-03  1.5629645345756334e-02 -1.1443701805944959e-02 -2.0985175124507336e-03  2.6204267052930250e-02 7.0257311577390921e-03 1.1289728659639039e-03  2.4601984977251991e-02 1.9076899638439295e-03 3.4824223588465796e-04  2.3262332004082637e-02 -2.9522399409232514e-03 -4.3891950315514154e-04  2.2117011851858406e-02 -7.9147543629828291e-03 -1.2261827016734322e-03  2.0959949321248495e-02 -1.3305853306611135e-02 -2.0164856802243995e-03  3.1826462868064474e-02 6.1619909839665827e-03 9.3742803402551247e-04  3.0326633849876449e-02 8.7157760338738520e-04 1.8663715357521068e-04  2.8974977455259933e-02 -4.2621456882315804e-03 -5.3971486910871995e-04  2.7731460432793363e-02 -9.4601199324952957e-03 -1.2579070915886392e-03  2.6463283769124303e-02 -1.4917329842264784e-02 -1.9921528613748808e-03  3.7342529106109197e-02 5.0523777077436296e-03 7.6894542669065692e-04  3.5931972490739428e-02 -3.0672806456560523e-04 3.4924361304890689e-05  3.4593836378493531e-02 -5.5779324372215531e-03 -6.4645984148715410e-04  3.3306022217156714e-02 -1.0887183985013472e-02 -1.3147610784770523e-03  3.1995248701665674e-02 -1.6338395371221334e-02 -2.0213314397344389e-03  4.2764653969986528e-02 3.8350768456196236e-03 5.8380992181321519e-04  4.1394271252084912e-02 -1.5244986069983164e-03 -1.2826918780639568e-04  4.0060159519036749e-02 -6.8444780633948503e-03 -7.5626869559143627e-04  3.8778653775138526e-02 -1.2208849126391657e-02 -1.3717838268223863e-03  3.7481063886791427e-02 -1.7654787354407422e-02 -2.0583789711955932e-03  0.0000000000000000e+00 0.0000000000000000e+00 0.0000000000000000e+00  0.0000000000000000e+00 0.0000000000000000e+00 0.0000000000000000e+00  0.0000000000000000e+00 0.0000000000000000e+00 0.0000000000000000e+00  0.0000000000000000e+00 0.0000000000000000e+00 0.0000000000000000e+00  0.0000000000000000e+00 0.0000000000000000e+00 0.0000000000000000e+00  5.4238245323342711e-03 3.4231822368068886e-03 7.7593801136225814e-04  3.6656455393460049e-03 1.4132763851125809e-03 4.1543962728701045e-04  2.8140469338946805e-03 1.9818362900634324e-04 -1.1744539719851862e-05  2.7408903894955059e-03 -1.0648780934555992e-03 -4.8807865455589746e-04  3.6174937517230842e-03 -3.7889375208186916e-03 -9.7211686482702735e-04  1.0174535852058717e-02 5.8083241673329775e-03 1.1169880470768257e-03  8.3902577465400571e-03 2.5489932894966977e-03 5.5230597867000225e-04  7.3674320044817823e-03 -6.0529407405409196e-05 -1.0242143435800322e-04  7.0426086957886712e-03 -2.8332031750153267e-03 -7.9111943226685031e-04  7.1721027612473348e-03 -6.9064868054784416e-03 -1.4346738730231323e-03  1.5557589525431610e-02 7.0289518509205583e-03 1.1642071932680058e-03  1.3805842950041627e-02 2.8528917862767431e-03 5.0626578423815401e-04  1.2649580263163740e-02 -8.3175599659642897e-04 -2.0850074623378950e-04  1.1980306683033541e-02 -4.7029206856050009e-03 -9.4349322307246697e-04  1.1485092735956534e-02 -9.4981481092870322e-03 -1.6514652686247377e-03  2.1266729118548985e-02 7.2736557575429775e-03 1.0912351455147182e-03  1.9546972836783857e-02 2.4879709840463790e-03 3.9730652777854867e-04  1.8264688284318292e-02 -1.9301622905762311e-03 -3.1193687401743743e-04  1.7304131242653530e-02 -6.5012742559577641e-03 -1.0309793813383628e-03  1.6393408419876923e-02 -1.1697427192422602e-02 -1.7435947454629032e-03  2.6993289777105099e-02 6.8473444975467954e-03 9.8446034308631168e-04  2.5358059434381425e-02 1.7065587823981165e-03 2.7323631238911750e-04  2.3995246028128633e-02 -3.1857070042167475e-03 -4.1602537894118902e-04  2.2836609290641921e-02 -8.1818554539028979e-03 -1.1069080214903249e-03  2.1678367669394728e-02 -1.3576831790054826e-02 -1.8085628313017057e-03  3.2623121374288286e-02 5.9921137897006680e-03 8.7201254352556128e-04  3.1090684440692795e-02 6.7172800375064998e-04 1.4823061693129059e-04  2.9707879897177328e-02 -4.5017109177288997e-03 -5.2479843488133888e-04  2.8438332361224183e-02 -9.7367953787672219e-03 -1.1924570259126553e-03  2.7151665328131434e-02 -1.5203985545216415e-02 -1.8879301855081827e-03  3.8151491469367541e-02 4.8945287944054949e-03 7.4958798189808478e-04  3.6709079636095876e-02 -5.0337816758956599e-04 1.4406954522045920e-05  3.5336520313264369e-02 -5.8221107883973527e-03 -6.4029202240486625e-04  3.4015892150610808e-02 -1.1174381619712175e-02 -1.2846930003486171e-03  3.2675929185626972e-02 -1.6648424808046628e-02 -1.9822409208541886e-03  4.3616930281300453e-02 3.6836544707585265e-03 5.6431109065824573e-04  4.2211124384303911e-02 -1.7293225398327351e-03 -1.5620230826901717e-04  4.0842273396834286e-02 -7.1054769660573889e-03 -7.6355772943519854e-04  3.9518460807263477e-02 -1.2519349166286005e-02 -1.3631200706944778e-03  3.8178801881533636e-02 -1.7999155978949574e-02 -2.0485778371259781e-03  0.0000000000000000e+00 0.0000000000000000e+00 0.0000000000000000e+00  0.0000000000000000e+00 0.0000000000000000e+00 0.0000000000000000e+00  0.0000000000000000e+00 0.0000000000000000e+00 0.0000000000000000e+00  0.0000000000000000e+00 0.0000000000000000e+00 0.0000000000000000e+00  0.0000000000000000e+00 0.0000000000000000e+00 0.0000000000000000e+00  5.7104921961056978e-03 3.4776321170464971e-03 4.6571695097863668e-04  3.8601362762720301e-03 1.4148246261139266e-03 2.5475506147409351e-04  2.9786148784445850e-03 1.8978634009951352e-04 -7.4790571820105826e-07  2.9258477182539364e-03 -1.0862707052938052e-03 -2.8969629675306828e-04  3.8599325999337203e-03 -3.9519599011722936e-03 -5.9522410458765407e-04  1.0636104323298787e-02 5.8219979029329868e-03 7.2416417445363504e-04  8.7695783640963070e-03 2.5139110159572153e-03 3.5969163164067936e-04  7.7257870329937991e-03 -1.0431553441381461e-04 -6.5109754920001948e-05  7.4315920909701566e-03 -2.9063715144426955e-03 -5.1109765734323580e-04  7.5983446661893406e-03 -7.1120255810593804e-03 -9.2667255446348480e-04  1.6135782903010779e-02 6.9891778314963250e-03 8.2572056348963034e-04  1.4326505411671244e-02 2.7716215010038276e-03 3.5386288814291835e-04  1.3154207106360047e-02 -9.3024869042116235e-04 -1.5701393447307472e-04  1.2502245395537941e-02 -4.8350914317838115e-03 -6.7928383214954982e-04  1.2025287238720941e-02 -9.7107749552659550e-03 -1.1835020075233646e-03  2.1922621683958955e-02 7.1936566642797316e-03 8.4496675585136159e-04  2.0162378954431955e-02 2.3671764332043352e-03 2.9600664123631212e-04  1.8860820011131266e-02 -2.0781623094972635e-03 -2.6154781233777029e-04  1.7898822645165353e-02 -6.6831853479087742e-03 -8.2334891054695230e-04  1.6989132859586104e-02 -1.1926284022992398e-02 -1.3829259544209664e-03  2.7707190814595325e-02 6.7437399191573556e-03 8.2392933180020520e-04  2.6037858488471899e-02 1.5587797310189265e-03 2.1349188429926219e-04  2.4648097431942972e-02 -3.3691963977443740e-03 -3.7476381904691998e-04  2.3472476409229538e-02 -8.4010979535423715e-03 -9.6119173298811228e-04  2.2300895657691604e-02 -1.3829789443997560e-02 -1.5598438699493831e-03  3.3386593638656641e-02 5.8778428898686227e-03 7.7453743683490413e-04  3.1819283458003542e-02 5.0870854597990958e-04 1.1471565076744909e-04  3.0402052295074755e-02 -4.7087916862461913e-03 -4.9551862887666062e-04  2.9104732934240672e-02 -9.9846450545549997e-03 -1.0985686912074694e-03  2.7793933217652458e-02 -1.5485005248785034e-02 -1.7303943110360779e-03  3.8963660241238596e-02 4.7779743771728302e-03 6.8853156026160787e-04  3.7483562480318949e-02 -6.7663226573544052e-04 -8.6909720009028579e-06  3.6071415342375499e-02 -6.0485317735188508e-03 -6.2319173932038458e-04  3.4715816449790646e-02 -1.1448773005276434e-02 -1.2268871074598267e-03  3.3343280385657835e-02 -1.6962613430347034e-02 -1.8867946751330157e-03  4.4499140115378880e-02 3.5609083339303098e-03 5.0428402578525026e-04  4.3045434945950659e-02 -1.9202071941362721e-03 -1.8625636731992761e-04  4.1630912024106299e-02 -7.3564531842033060e-03 -7.5790314699176423e-04  4.0264542165601935e-02 -1.2824945388719360e-02 -1.3217702595969942e-03  3.8883690645060469e-02 -1.8354201060565026e-02 -1.9780778716652920e-03  0.0000000000000000e+00 0.0000000000000000e+00 0.0000000000000000e+00  0.0000000000000000e+00 0.0000000000000000e+00 0.0000000000000000e+00  0.0000000000000000e+00 0.0000000000000000e+00 0.0000000000000000e+00  0.0000000000000000e+00 0.0000000000000000e+00 0.0000000000000000e+00  0.0000000000000000e+00 0.0000000000000000e+00 0.0000000000000000e+00  5.8931573416131566e-03 3.5374426804719006e-03 2.4903565574636562e-04  3.9921807251725189e-03 1.4365608941322428e-03 1.3563851849161725e-04  3.0927936638934874e-03 1.9189369517412481e-04 1.0888890138282809e-05  3.0434109206125231e-03 -1.1057159377577666e-03 -1.3727591054353916e-04  3.9924034124714175e-03 -4.0667371023769610e-03 -3.1589380892144109e-04  1.0960132791742634e-02 5.8916276930352368e-03 4.2407901723472466e-04  9.0431804151197975e-03 2.5275581456168173e-03 2.0899749265181292e-04  7.9816154752234102e-03 -1.2552570810228810e-04 -2.8239391520679055e-05  7.6898351927589051e-03 -2.9740461148431716e-03 -2.7876103983980293e-04  7.8483188614605244e-03 -7.2877554520229502e-03 -5.2341909242708379e-04  1.6580345635106197e-02 7.0323155226689367e-03 5.4516455109081187e-04  1.4726601258054910e-02 2.7536612170006103e-03 2.2920656654736274e-04  1.3535077196941008e-02 -9.9333168992310245e-04 -1.0028984623402171e-04  1.2875676813048631e-02 -4.9537585987258700e-03 -4.3581062007575237e-04  1.2378547748942948e-02 -9.9180519641134200e-03 -7.7068446527383963e-04  2.2464322041245707e-02 7.2004016000806245e-03 6.2437112065090623e-04  2.0665380469461873e-02 2.3112161382974738e-03 2.1171008270754295e-04  1.9340474993461400e-02 -2.1847494363208472e-03 -2.0032083010704021e-04  1.8361146025329136e-02 -6.8451072206622337e-03 -6.1281419877619639e-04  1.7425783769540598e-02 -1.2158050430822220e-02 -1.0309298096422407e-03  2.8330173883015973e-02 6.7164711662511985e-03 6.6578015511458040e-04  2.6624615139751905e-02 1.4680374900400178e-03 1.6302607769575075e-04  2.5205982736564859e-02 -3.5130553814462832e-03 -3.2066489786828956e-04  2.4005256185262114e-02 -8.5985568370113407e-03 -8.0008169589623540e-04  2.2804774474649365e-02 -1.4085806150204999e-02 -1.2916737146885134e-03  3.4082735750057554e-02 5.8242571770535621e-03 6.6418788849610102e-04  3.2477472278545555e-02 3.9086115661624720e-04 8.5108429237399001e-05  3.1025309311002811e-02 -4.8825224066523535e-03 -4.5395965039862773e-04  2.9697108549110288e-02 -1.0212422095509327e-02 -9.8471754397985310e-04  2.8355044940755979e-02 -1.5767037510071628e-02 -1.5392782804395367e-03  3.9727698128094978e-02 4.7059686027873171e-03 6.0570260122963992e-04  3.8206711947373712e-02 -8.1591115615418778e-04 -2.9773261410553063e-05  3.6754456793650574e-02 -6.2479657907659868e-03 -5.9444396886308996e-04  3.5363664331293364e-02 -1.1705329294815787e-02 -1.1482800970799062e-03  3.3957682461035185e-02 -1.7275053178342745e-02 -1.7513806044224345e-03  4.5340353071923488e-02 3.4688286503360773e-03 4.2869045781154851e-04  4.3837668310373890e-02 -2.0840772215000550e-03 -2.0702529688285121e-04  4.2376702093748324e-02 -7.5832761121805235e-03 -7.3697905935355106e-04  4.0970907488672326e-02 -1.3112657113150832e-02 -1.2585134669582955e-03  3.9554306539067163e-02 -1.8703893380425204e-02 -1.8656493699906783e-03  0.0000000000000000e+00 0.0000000000000000e+00 0.0000000000000000e+00  0.0000000000000000e+00 0.0000000000000000e+00 0.0000000000000000e+00  0.0000000000000000e+00 0.0000000000000000e+00 0.0000000000000000e+00  0.0000000000000000e+00 0.0000000000000000e+00 0.0000000000000000e+00  0.0000000000000000e+00 0.0000000000000000e+00 0.0000000000000000e+00  6.0043532419084321e-03 3.5927966799063180e-03 2.8788588311864109e-05  4.0884195948866862e-03 1.4645725673022919e-03 7.0732381211934471e-06  3.1798566048363572e-03 1.9872369508087772e-04 1.8504672535158034e-05  3.1197787658024940e-03 -1.1212094486931716e-03 1.8868978322867745e-05  4.0486339827683869e-03 -4.1373263086452450e-03 -2.5662983754971316e-05  1.1184256156566598e-02 5.9923602313607790e-03 1.2546688926862358e-04  9.2434693265156503e-03 2.5706703158770590e-03 5.3444364435445436e-05  8.1653911969039560e-03 -1.3229447281031797e-04 7.0022732388498862e-06  7.8525766410827945e-03 -3.0348066133766721e-03 -4.2601103076653449e-05  7.9674159331313121e-03 -7.4289003498510748e-03 -1.1348971727796343e-04  1.6918247983993179e-02 7.1345379720713772e-03 2.7188482825402040e-04  1.5030446459140513e-02 2.7828082606947183e-03 1.0445081891732214e-04  1.3814576115166852e-02 -1.0301906439655619e-03 -4.3480139434408305e-05  1.3126146775646604e-02 -5.0608752550292610e-03 -1.9003054856102326e-04  1.2578227695470949e-02 -1.0111430060838892e-02 -3.5525154891465901e-04  2.2906512719589225e-02 7.2753466646082359e-03 4.1432700604942488e-04  2.1067088882911131e-02 2.3086229602973410e-03 1.3127549658006649e-04  1.9712746249101829e-02 -2.2572155981318630e-03 -1.3697956561918774e-04  1.8701182269233712e-02 -6.9901177236878801e-03 -4.0018285008454221e-04  1.7717569391525759e-02 -1.2386061648924628e-02 -6.7704436927147323e-04  2.8865884272310134e-02 6.7519424925281636e-03 5.1831410692473618e-04  2.7117096852129582e-02 1.4273555142275049e-03 1.1880334572047747e-04  2.5665650040397222e-02 -3.6206053439370722e-03 -2.6255052367868788e-04  2.4432147574512498e-02 -8.7743836793776810e-03 -6.3577747682102279e-04  2.3189417837039230e-02 -1.4337627442398722e-02 -1.0195152025009268e-03  3.4703859909959625e-02 5.8203716110874102e-03 5.6178135717874331e-04  3.3052691006975193e-02 3.1465412604679723e-04 6.2966752023373864e-05  3.1564192119259829e-02 -5.0215883746466405e-03 -4.0673627944520443e-04  3.0203232608118670e-02 -1.0414997683448224e-02 -8.6590720704021176e-04  2.8825026770738938e-02 -1.6038769510474397e-02 -1.3400114489033916e-03  4.0422750772667000e-02 4.6692167124548689e-03 5.2788642836833547e-04  3.8854787104112040e-02 -9.2165397503103977e-04 -4.1488396384453249e-05  3.7363157654410312e-02 -6.4145957466928728e-03 -5.5854918557516524e-04  3.5939603035109374e-02 -1.1933224789883963e-02 -1.0639825202659553e-03  3.4502524417480987e-02 -1.7569062232029642e-02 -1.6039207316238693e-03  4.6108535627640640e-02 3.4016621511887791e-03 3.6551343491540787e-04  4.4553752477538545e-02 -2.2176825516385125e-03 -2.1119988363315294e-04  4.3049371049863255e-02 -7.7756707881660074e-03 -7.0767202440976003e-04  4.1611146158559612e-02 -1.3366114125478083e-02 -1.1943983568063999e-03  4.0168409020350106e-02 -1.9026207219879805e-02 -1.7466961535761460e-03  0.0000000000000000e+00 0.0000000000000000e+00 0.0000000000000000e+00  0.0000000000000000e+00 0.0000000000000000e+00 0.0000000000000000e+00  0.0000000000000000e+00 0.0000000000000000e+00 0.0000000000000000e+00  0.0000000000000000e+00 0.0000000000000000e+00 0.0000000000000000e+00  0.0000000000000000e+00 0.0000000000000000e+00 0.0000000000000000e+00  6.0278556296722860e-03 3.6506573003387915e-03 -2.9212773661984568e-04  4.1410110629008148e-03 1.5017648607806441e-03 -1.7902231449598544e-04  3.2328922464296981e-03 2.1022926181674874e-04 2.3220769960803334e-05  3.1406256553191117e-03 -1.1317929314194582e-03 2.3250828496693195e-04  3.9991938112171549e-03 -4.1543538416708879e-03 