<?xml version="1.0"?>
<VTKFile type="UnstructuredGrid"  version="0.1"  >
<UnstructuredGrid>
<Piece  NumberOfPoints="405" NumberOfCells="1536">
<Points>
<DataArray  type="Float64"  NumberOfComponents="3"  format="ascii">0.45 0 -0.2  0.475 0 -0.2  0.5 0 -0.2  0.525 0 -0.2  0.55 0 -0.2  0.4525353739798806 0.02684863850115778 -0.1993992542270827  0.4766064419007904 0.02566127191627932 -0.1997226685628448  0.5011630903913149 0.0250296694802007 -0.200154078107481  0.526067585217316 0.02439108598517567 -0.2006585291313774  0.5513112134506609 0.02325979300470715 -0.2011630442976385  0.4543656174384608 0.05284874003889818 -0.1994147385586489  0.4785838042521537 0.05130091159937605 -0.1997710188218927  0.503108644038056 0.05013154460676569 -0.2002433210839415  0.5279694462338043 0.04896013465546842 -0.2007539679741606  0.5530868733601675 0.04732612080080723 -0.2012640051553287  0.4562852696039976 0.07848708302270251 -0.1994470340146438  0.4806961682916529 0.07671882250752457 -0.1998293640321914  0.5053075718827644 0.07516912777640414 -0.2002710050130213  0.5301557804017982 0.07359586116795519 -0.200724233302603  0.5551667550261524 0.07167863966188019 -0.201169662772003  0.4583181352471222 0.1038406604940961 -0.1994739625728767  0.4828711443784292 0.1019212936314896 -0.1998547863295826  0.5075699383808516 0.1001262599709724 -0.2002652292183663  0.5324191157589316 0.09829292597706443 -0.200671383268784  0.5573617630792906 0.09622976615593161 -0.2010680107765151  0.4603830602004484 0.1289962360617711 -0.1994798688078203  0.4850602651683789 0.126985357517349 -0.1998618160356425  0.5098231953959446 0.1250331912397104 -0.2002515150477687  0.5346752116475308 0.1230464044061311 -0.2006309265959561  0.5595767750470216 0.1209204714851692 -0.2010031156819012  0.4624671061459588 0.1540133351483268 -0.1994799483503467  0.4872303642571724 0.1519492450203862 -0.1998642624648419  0.5120417150030421 0.1499127799787519 -0.2002430764784698  0.5368965458820745 0.147847017417537 -0.2006106034155299  0.5617740105596891 0.1457030156441479 -0.2009757743334121  0.4645749886372446 0.1789488918678693 -0.1994971709282396  0.489386731488227 0.1768595966469285 -0.1998762702823202  0.5142249431139601 0.1747843911751892 -0.2002444107608489  0.5390804838043098 0.1726860190679428 -0.2006046292238598  0.5639437252080741 0.1705433418098728 -0.2009718314379333  0.4666834457219107 0.2038451468661826 -0.1995258467215945  0.4915062505979357 0.2017472127137511 -0.1998995014976959  0.5163615543731307 0.1996597826112524 -0.2002519052904936  0.5412296898278769 0.1975519622860192 -0.2005991789336355  0.5660931486345517 0.1954110719319164 -0.2009691230456858  0.45 0 -0.175  0.475 0 -0.175  0.5 0 -0.175  0.525 0 -0.175  0.55 0 -0.175  0.4526805158195434 0.02680645368151031 -0.1745927658653782  0.4768606794475279 0.02564224666236175 -0.1748277538978185  0.5014493958334071 0.02507643433209883 -0.1751057776841022  0.5263990125916148 0.02453461244915937 -0.1754214380043447  0.5517751096853436 0.02342553685857959 -0.1757349863016619  0.4546138104854233 0.05284626651162205 -0.174504307146028  0.4789223028475377 0.05129449421184208 -0.1748256532089781  0.5034923579622432 0.05013640651397218 -0.1751936561753119  0.5283822731116251 0.04897194857709941 -0.1755815599330039  0.5535521024011183 0.04731215835171809 -0.1759542939761719  0.4565924515998389 0.07847976466460818 -0.1744886921780448  0.4810714930871969 0.07670127708783182 -0.1748475682975052  0.5057093957950085 0.07513673168837294 -0.1752264775236491  0.5305666176837677 0.07353940112986757 -0.1756103123147263  0.555586543488615 0.07159849580180203 -0.1759903676773152  0.4586570281840938 0.1038250160634904 -0.174482281646839  0.4832586645743565 0.1018922439015427 -0.1748574315281665  0.5079670033855354 0.1000780074076812 -0.1752307429046821  0.5328122146806045 0.09822095129860692 -0.1756005577625495  0.5577480434039842 0.0961428808078237 -0.1759733624143172  0.4607435092197849 0.1289698694377203 -0.1744736890366881  0.4854483380866201 0.1269507065494343 -0.1748571397411464  0.5102119737080087 0.1249839381605143 -0.175227343504902  0.5350560161535804 0.1229801757056528 -0.1755901537976456  0.5599479211386047 0.1208448874218165 -0.1759591806029504  0.4628446664505386 0.1539884751845258 -0.1744688758447433  0.4876191067781324 0.1519174349501448 -0.1748579726193077  0.5124255843740898 0.1498686507908298 -0.175228132868584  0.5372728778328592 0.1477905283807515 -0.1755901500388317  0.5621435611724942 0.1456393312330881 -0.1759613286600974  0.4649586311384673 0.1789289498781056 -0.1744792070678661  0.4897741559527772 0.1768344248473516 -0.1748698431537008  0.5146056156089606 0.1747463529701618 -0.1752371696231255  0.5394567189888229 0.1726350948077713 -0.1755977055494514  0.5643189371730986 0.1704845612471254 -0.1759738959739033  0.4670604013808175 0.203826217020298 -0.1745126610416568  0.4918978712239649 0.2017284629275939 -0.1748981965148163  0.5167459821265842 0.1996243044413943 -0.175253064469494  0.5416096434435353 0.1974989890426492 -0.1756020460433164  0.5664758008572301 0.1953501375832807 -0.1759768409519136  0.45 0 -0.15  0.475 0 -0.15  0.5 0 -0.15  0.525 0 -0.15  0.55 0 -0.15  0.4529440953568458 0.02684662437057474 -0.1497142527404706  0.477024317124185 0.02563400003357954 -0.1499014225075198  0.501578882423792 0.02508184169630712 -0.1500757966198747  0.5265400975241175 0.02455230905304189 -0.1502691951612091  0.5519832101989344 0.02338474565652967 -0.1504606586257273  0.4549575548623976 0.05287496570187539 -0.1495855045132493  0.4792013038333814 0.05129068905746201 -0.1498636803438233  0.5037462142352801 0.05013939192384272 -0.1501392223812548  0.528654305553232 0.04898250315514279 -0.1504233396083854  0.5538696500545944 0.04728434825854404 -0.1506968402148395  0.4569860283486023 0.07850460870027288 -0.1495265345263382  0.4814208824569658 0.07669837356452122 -0.1498592282404975  0.5060406553332045 0.07512797105116731 -0.1501742971321261  0.5309051911581439 0.07352401426886718 -0.1504914926614524  0.5559417607461878 0.07156325176196503 -0.1508094398802165  0.4590771132363122 0.1038395121062387 -0.1494920610454357  0.4836468581668892 0.1018866978334668 -0.1498551755626483  0.508338244817274 0.1000581578754302 -0.1501898803009125  0.5331807218829644 0.09818643515102683 -0.1505220323006576  0.558115698409395 0.09609462218389281 -0.1508632114533545  0.4611684407457251 0.1289772179208266 -0.1494684802226153  0.4858523907400332 0.1269428522038064 -0.1498495686660525  0.51060148293129 0.1249582226427762 -0.1501987945829857  0.535438143112102 0.1229367487317686 -0.1505428560447545  0.5603221765920235 0.1207887436900258 -0.1508998831441349  0.4632702870422822 0.1539915562605661 -0.1494574621751615  0.4880295434305024 0.1519079098868288 -0.1498497905682006  0.5128241446700793 0.1498407320906524 -0.150210252882885  0.537663253991565 0.1477438534411868 -0.1505647735851308  0.5625250847645729 0.1455787666731337 -0.1509352674986466  0.4653879139731539 0.1789341902088139 -0.1494634848012895  0.4901912123954441 0.1768255729784814 -0.1498638039230986  0.5150127311022893 0.1747179031636662 -0.1502280929685134  0.5398563368692543 0.1725866126829127 -0.1505867821534271  0.5647110738313394 0.1704195990408903 -0.1509685298633822  0.4675016816346069 0.2038388566943355 -0.1495053860330193  0.492328992038591 0.2017211068380245 -0.1499022155717776  0.5171693883081475 0.1995948711686944 -0.1502533605115982  0.5420251827973641 0.1974475384215134 -0.1505992930958485  0.5668837159068253 0.1952795262280889 -0.1509796851546639  0.45 0 -0.125  0.475 0 -0.125  0.5 0 -0.125  0.525 0 -0.125  0.55 0 -0.125  0.4531279833546223 0.02690833418953445 -0.1247764084375574  0.4771532372867158 0.0256433080299546 -0.1249172984430998  0.501678772225629 0.02508318162991667 -0.1250436098545793  0.5266390260154298 0.02454775534690923 -0.1251776451012211  0.552112515664032 0.02332300346559773 -0.1253153275977683  0.4552376757096335 0.05293816008370179 -0.1246439248540879  0.4794360678211833 0.05130704324361034 -0.1248696573647602  0.5039540763407721 0.05014254793073437 -0.1250845695250701  0.528862207450031 0.04897220107507609 -0.1252979672751986  0.5540963892583577 0.04721901713081297 -0.1255057692668183  0.4573335321095369 0.07855977911061571 -0.1245596502017221  0.4817356267315179 0.07671539664198027 -0.1248485336292123  0.5063325956508067 0.07512662094772525 -0.1251156215446123  0.5311930098323691 0.07350398114006593 -0.1253779360733374  0.5562339956082665 0.07150384459260518 -0.1256438015696939  0.4594684039694423 0.1038831974334137 -0.1245041387007531  0.4840135448315297 0.1019012127037641 -0.1248362190883533  0.50868519088276 0.1000505149612852 -0.125139481603286  0.5335191418187719 0.09815660892181499 -0.1254365000108493  0.558449159774574 0.09603599196173264 -0.1257439673065388  0.4615782246959753 0.129010331011864 -0.1244684157364216  0.4862471575220672 0.1269543701573627 -0.1248302390479528  0.5109807337394365 0.1249454418478903 -0.1251613045916948  0.5358073602664989 0.1228999642283582 -0.1254857049892372  0.5606825051484787 0.1207284631249301 -0.1258241731638499  0.4636913443366611 0.154018733436825 -0.1244520337293149  0.4884403963911228 0.1519157220384737 -0.124834255190405  0.5132231890410311 0.1498241903805942 -0.1251855799812988  0.5380528467144515 0.147702552253288 -0.1255306041359408  0.5629054723164574 0.145515589536996 -0.1258930816396111  0.4658236576366049 0.1789622504633963 -0.1244576342282984  0.4906174046274357 0.1768321942642883 -0.1248543962159014  0.515428598701052 0.1746990678436602 -0.1252144482414383  0.5402638544242427 0.1725417362877112 -0.1255689708822235  0.5651106108675478 0.1703513522959396 -0.1259492973629578  0.4679608025555645 0.2038723851678559 -0.1245071872733252  0.4927768543422836 0.2017275005554223 -0.1249024694011543  0.5176075391281174 0.1995736740398986 -0.1252491929240249  0.5424553281743223 0.1973985979103138 -0.1255905632839965  0.5673067058782 0.1952036059826421 -0.1259710677183042  0.45 0 -0.1  0.475 0 -0.1  0.5
[...]
<PointData  Vectors="Displacement"> 
<DataArray  type="Float64"  Name="Displacement"  NumberOfComponents="3" format="ascii">0.0000000000000000e+00 0.0000000000000000e+00 0.0000000000000000e+00  0.0000000000000000e+00 0.0000000000000000e+00 0.0000000000000000e+00  0.0000000000000000e+00 0.0000000000000000e+00 0.0000000000000000e+00  0.0000000000000000e+00 0.0000000000000000e+00 0.0000000000000000e+00  0.0000000000000000e+00 0.0000000000000000e+00 0.0000000000000000e+00  2.5353739798805361e-03 1.8486385011577775e-03 6.0074577291734381e-04  1.6064419007904285e-03 6.6127191627931940e-04 2.7733143715515405e-04  1.1630903913149462e-03 2.9669480200697358e-05 -1.5407810748099902e-04  1.0675852173158236e-03 -6.0891401482432537e-04 -6.5852913137742048e-04  1.3112134506608846e-03 -1.7402069952928497e-03 -1.1630442976384629e-03  4.3656174384607074e-03 2.8487400388981748e-03 5.8526144135109186e-04  3.5838042521536867e-03 1.3009115993760495e-03 2.2898117810732228e-04  3.1086440380559232e-03 1.3154460676568244e-04 -2.4332108394144980e-04  2.9694462338043497e-03 -1.0398653445315793e-03 -7.5396797416061321e-04  3.0868733601674058e-03 -2.6738791991927856e-03 -1.2640051553287923e-03  6.2852696039975538e-03 3.4870830227024894e-03 5.5296598535617717e-04  5.6961682916527702e-03 1.7188225075245598e-03 1.7063596780860909e-04  5.3075718827642710e-03 1.6912777640413316e-04 -2.7100501302120385e-04  5.1557804017982167e-03 -1.4041388320448298e-03 -7.2423330260304041e-04  5.1667550261522317e-03 -3.3213603381197967e-03 -1.1696627720029797e-03  8.3181352471222453e-03 3.8406604940961217e-03 5.2603742712330084e-04  7.8711443784291422e-03 1.9212936314895986e-03 1.4521367041741095e-04  7.5699383808516566e-03 1.2625997097237963e-04 -2.6522921836626492e-04  7.4191157589316098e-03 -1.7070740229355719e-03 -6.7138326878394834e-04  7.3617630792906985e-03 -3.7702338440684120e-03 -1.0680107765150791e-03  1.0383060200448447e-02 3.9962360617710772e-03 5.2013119217969139e-04  1.0060265168378763e-02 1.9853575173489893e-03 1.3818396435752344e-04  9.8231953959445149e-03 3.3191239710431444e-05 -2.5151504776871900e-04  9.6752116475309347e-03 -1.9535955938689000e-03 -6.3092659595607005e-04  9.5767750470215039e-03 -4.0795285148307490e-03 -1.0031156819011702e-03  1.2467106145958827e-02 4.0133351483267778e-03 5.2005164965328798e-04  1.2230364257172416e-02 1.9492450203861659e-03 1.3573753515814952e-04  1.2041715003041794e-02 -8.7220021248095699e-05 -2.4307647846982466e-04  1.1896545882074295e-02 -2.1529825824630764e-03 -6.1060341552991477e-04  1.1774010559689015e-02 -4.2969843558521197e-03 -9.7577433341208180e-04  1.4574988637244541e-02 3.9488918678693193e-03 5.0282907176047267e-04  1.4386731488227007e-02 1.8595966469284796e-03 1.2372971767973958e-04  1.4224943113960078e-02 -2.1560882481077491e-04 -2.4441076084883042e-04  1.4080483804309646e-02 -2.3139809320572536e-03 -6.0462922385981467e-04  1.3943725208074144e-02 -4.4566581901272400e-03 -9.7183143793336095e-04  1.6683445721910627e-02 3.8451468661825526e-03 4.7415327840554097e-04  1.6506250597935767e-02 1.7472127137511647e-03 1.0049850230412245e-04  1.6361554373130749e-02 -3.4021738874755040e-04 -2.5190529049361893e-04  1.6229689827876811e-02 -2.4480377139808008e-03 -5.9917893363548372e-04  1.6093148634551701e-02 -4.5889280680835882e-03 -9.6912304568574264e-04  0.0000000000000000e+00 0.0000000000000000e+00 0.0000000000000000e+00  0.0000000000000000e+00 0.0000000000000000e+00 0.0000000000000000e+00  0.0000000000000000e+00 0.0000000000000000e+00 0.0000000000000000e+00  0.0000000000000000e+00 0.0000000000000000e+00 0.0000000000000000e+00  0.0000000000000000e+00 0.0000000000000000e+00 0.0000000000000000e+00  2.6805158195433525e-03 1.8064536815103078e-03 4.0723413462188777e-04  1.8606794475277634e-03 6.4224666236174885e-04 1.7224610218151859e-04  1.4493958334069422e-03 7.6434332098820253e-05 -1.0577768410215383e-04  1.3990125916146900e-03 -4.6538755084063596e-04 -4.2143800434467208e-04  1.7751096853436375e-03 -1.5744631414204176e-03 -7.3498630166186245e-04  4.6138104854232453e-03 2.8462665116220482e-03 4.9569285397199636e-04  3.9223028475376181e-03 1.2944942118420829e-03 1.7434679102197785e-04  3.4923579622433000e-03 1.3640651397217829e-04 -1.9365617531187624e-04  3.3822731116252276e-03 -1.0280514229006018e-03 -5.8155993300390487e-04  3.5521024011182564e-03 -2.6878416482819145e-03 -9.5429397617192210e-04  6.5924515998388783e-03 3.4797646646081643e-03 5.1130782195519771e-04  6.0714930871969544e-03 1.7012770878318210e-03 1.5243170249481684e-04  5.7093957950085346e-03 1.3673168837294099e-04 -2.2647752364911522e-04  5.5666176837676617e-03 -1.4605988701324561e-03 -6.1031231472629907e-04  5.5865434886149326e-03 -3.4015041981979859e-03 -9.9036767731512198e-04  8.6570281840938085e-03 3.8250160634904274e-03 5.1771835316094398e-04  8.2586645743563981e-03 1.8922439015426737e-03 1.4256847183356805e-04  7.9670033855354823e-03 7.8007407681237185e-05 -2.3074290468205690e-04  7.8122146806044474e-03 -1.7790487013930932e-03 -6.0055776254944941e-04  7.7480434039842649e-03 -3.8571191921763256e-03 -9.7336241431720540e-04  1.0743509219784819e-02 3.9698694377203426e-03 5.2631096331189769e-04  1.0448338086620107e-02 1.9507065494342626e-03 1.4286025885361115e-04  1.0211973708008826e-02 -1.6061839485726316e-05 -2.2734350490198046e-04  1.0056016153580372e-02 -2.0198242943471998e-03 -5.9015379764562322e-04  9.9479211386046765e-03 -4.1551125781834628e-03 -9.5918060295034722e-04  1.2844666450538561e-02 3.9884751845257653e-03 5.3112415525671862e-04  1.2619106778132381e-02 1.9174349501447931e-03 1.4202738069238536e-04  1.2425584374089808e-02 -1.3134920917021094e-04 -2.2813286858403128e-04  1.2272877832859035e-02 -2.2094716192484704e-03 -5.9015003883171639e-04  1.2143561172493990e-02 -4.3606687669119513e-03 -9.6132866009736371e-04  1.4958631138467272e-02 3.9289498781056413e-03 5.2079293213386885e-04  1.4774155952777162e-02 1.8344248473516232e-03 1.3015684629920940e-04  1.4605615608960457e-02 -2.5364702983827445e-04 -2.3716962312542143e-04  1.4456718988822791e-02 -2.3649051922286501e-03 -5.9770554945137960e-04  1.4318937173098536e-02 -4.5154387528746533e-03 -9.7389597390324951e-04  1.7060401380817453e-02 3.8262170202979372e-03 4.8733895834318782e-04  1.6897871223964880e-02 1.7284629275938724e-03 1.0180348518375336e-04  1.6745982126584139e-02 -3.7569555860571171e-04 -2.5306446949399907e-04  1.6609643443535257e-02 -2.5010109573507869e-03 -6.0204604331643666e-04  1.6475800857230095e-02 -4.6498624167192288e-03 -9.7684095191354157e-04  0.0000000000000000e+00 0.0000000000000000e+00 0.0000000000000000e+00  0.0000000000000000e+00 0.0000000000000000e+00 0.0000000000000000e+00  0.0000000000000000e+00 0.0000000000000000e+00 0.0000000000000000e+00  0.0000000000000000e+00 0.0000000000000000e+00 0.0000000000000000e+00  0.0000000000000000e+00 0.0000000000000000e+00 0.0000000000000000e+00  2.9440953568458128e-03 1.8466243705747365e-03 2.8574725952941184e-04  2.0243171241849426e-03 6.3400003357954498e-04 9.8577492480173478e-05  1.5788824237920527e-03 8.1841696307120921e-05 -7.5796619874655787e-05  1.5400975241174431e-03 -4.4769094695811066e-04 -2.6919516120907605e-04  1.9832101989342502e-03 -1.6152543434703305e-03 -4.6065862572730609e-04  4.9575548623976033e-03 2.8749657018753883e-03 4.1449548675073506e-04  4.2013038333813856e-03 1.2906890574620102e-03 1.3631965617672161e-04  3.7462142352800852e-03 1.3939192384270963e-04 -1.3922238125478722e-04  3.6543055532319512e-03 -1.0174968448572149e-03 -4.2333960838541714e-04  3.8696500545942585e-03 -2.7156517414559573e-03 -6.9684021483955294e-04  6.9860283486022556e-03 3.5046087002728894e-03 4.7346547366176233e-04  6.4208824569657787e-03 1.6983735645212327e-03 1.4077175950256418e-04  6.0406553332045176e-03 1.2797105116730414e-04 -1.7429713212607502e-04  5.9051911581440141e-03 -1.4759857311328394e-03 -4.9149266145235562e-04  5.9417607461877599e-03 -3.4367482380349840e-03 -8.0943988021648283e-04  9.0771132363121499e-03 3.8395121062386999e-03 5.0793895456427050e-04  8.6468581668890897e-03 1.8866978334667547e-03 1.4482443735172894e-04  8.3382448172741666e-03 5.8157875430229426e-05 -1.8988030091251977e-04  8.1807218829642037e-03 -1.8135648489731740e-03 -5.2203230065754613e-04  8.1156984093948593e-03 -3.9053778161071960e-03 -8.6321145335444937e-04  1.1168440745725062e-02 3.9772179208265729e-03 5.3151977738471210e-04  1.0852390740033090e-02 1.9428522038064213e-03 1.5043133394760990e-04  1.0601482931290060e-02 -4.1777357223824573e-05 -1.9879458298564234e-04  1.0438143112101979e-02 -2.0632512682314092e-03 -5.4285604475447918e-04  1.0322176592023278e-02 -4.2112563099742113e-03 -8.9988314413487339e-04  1.3270287042282137e-02 3.9915562605660673e-03 5.4253782483854691e-04  1.3029543430502310e-02 1.9079098868288241e-03 1.5020943179946966e-04  1.2824144670079276e-02 -1.5926790934767875e-04 -2.1025288288500839e-04  1.2663253991565059e-02 -2.2561465588132310e-03 -5.6477358513077908e-04  1.2525084764572827e-02 -4.4212333268663345e-03 -9.3526749864656028e-04  1.5387913973153785e-02 3.9341902088139390e-03 5.3651519871047700e-04  1.5191212395444024e-02 1.8255729784814176e-03 1.3619607690137445e-04  1.5012731102289248e-02 -2.8209683633378751e-04 -2.2809296851337074e-04  1.4856336869254328e-02 -2.4133873170873637e-03 -5.8678215342706586e-04  1.4711073831339334e-02 -4.5804009591096468e-03 -9.6852986338223017e-04  1.7501681634606948e-02 3.8388566943355512e-03 4.9461396698074610e-04  1.7328992038590840e-02 1.7211068380244415e-03 9.7784428222469051e-05  1.7169388308147366e-02 -4.0512883130566692e-04 -2.5336051159821339e-04  1.7025182797364143e-02 -2.5524615784866056e-03 -5.9929309584844386e-04  1.6883715906825362e-02 -4.7204737719110908e-03 -9.7968515466383263e-04  0.0000000000000000e+00 0.0000000000000000e+00 0.0000000000000000e+00  0.0000000000000000e+00 0.0000000000000000e+00 0.0000000000000000e+00  0.0000000000000000e+00 0.0000000000000000e+00 0.0000000000000000e+00  0.0000000000000000e+00 0.0000000000000000e+00 0.0000000000000000e+00  0.0000000000000000e+00 0.0000000000000000e+00 0.0000000000000000e+00  3.1279833546222512e-03 1.9083341895344578e-03 2.2359156244263758e-04  2.1532372867158430e-03 6.4330802995460389e-04 8.2701556900152668e-05  1.6787722256288711e-03 8.3181629916671737e-05 -4.3609854579275355e-05  1.6390260154298937e-03 -4.5224465309076813e-04 -1.7764510122113072e-04  2.1125156640320760e-03 -1.6769965344022785e-03 -3.1532759776825412e-04  5.2376757096334516e-03 2.9381600837017820e-03 3.5607514591205693e-04  4.4360678211832075e-03 1.3070432436103464e-03 1.3034263523981638e-04  3.9540763407720008e-03 1.4254793073437312e-04 -8.4569525070047198e-05  3.8622074500311776e-03 -1.0277989249239169e-03 -2.9796727519867234e-04  4.0963892583576623e-03 -2.7809828691870396e-03 -5.0576926681824023e-04  7.3335321095368182e-03 3.5597791106157044e-03 4.4034979827785900e-04  6.7356267315179007e-03 1.7153966419802655e-03 1.5146637078767419e-04  6.3325956508066637e-03 1.2662094772523551e-04 -1.1562154461230595e-04  6.1930098323689188e-03 -1.4960188599340975e-03 -3.7793607333739057e-04  6.2339956082663453e-03 -3.4961554073948287e-03 -6.4380156969394984e-04  9.4684039694422836e-03 3.8831974334136844e-03 4.9586129924694298e-04  9.0135448315296577e-03 1.9012127037641474e-03 1.6378091164666840e-04  8.6851908827600636e-03 5.0514961285174418e-05 -1.3948160328597196e-04  8.5191418187718984e-03 -1.8433910781850168e-03 -4.3650001084936544e-04  8.4491597745739999e-03 -3.9640080382673457e-03 -7.4396730653876236e-04  1.1578224695975256e-02 4.0103310118639775e-03 5.3158426357843532e-04  1.1247157522067130e-02 1.9543701573627166e-03 1.6976095204714219e-04  1.0980733739436609e-02 -5.4558152109725838e-05 -1.6130459169477019e-04  1.0807360266498950e-02 -2.1000357716417935e-03 -4.8570498923712721e-04  1.0682505148478589e-02 -4.2715368750699109e-03 -8.2417316384987278e-04  1.3691344336661112e-02 4.0187334368249530e-03 5.4796627068510030e-04  1.3440396391122664e-02 1.9157220384736376e-03 1.6574480959500340e-04  1.3223189041031022e-02 -1.7580961940578019e-04 -1.8557998129881156e-04  1.3052846714451449e-02 -2.2974477467120045e-03 -5.3060413594081530e-04  1.2905472316457329e-02 -4.4844104630040321e-03 -8.9308163961107775e-04  1.5823657636604902e-02 3.9622504633962871e-03 5.4236577170160231e-04  1.5617404627435631e-02 1.8321942642882656e-03 1.4560378409861542e-04  1.5428598701052072e-02 -3.0093215633984288e-04 -2.1444824143826934e-04  1.5263854424242766e-02 -2.4582637122888594e-03 -5.6897088222349448e-04  1.5110610867547667e-02 -4.6486477040604364e-03 -9.4929736295775596e-04  1.7960802555564464e-02 3.8723851678558459e-03 4.9281272667481518e-04  1.7776854342283627e-02 1.7275005554222699e-03 9.7530598845651530e-05  1.7607539128117425e-02 -4.2632596010137971e-04 -2.4919292402484521e-04  1.7455328174322323e-02 -2.6014020896862810e-03 -5.9056328399658678e-04  1.7306705878200084e-02 -4.7963940173578641e-03 -9.7106771830425575e-04  0.0000000000000000e+00 0.0000000000000000e+00 0.0000000000000000e+00  0.0000000000000000e+00 0.0000000000000000e+00 0.0000000000000000e+00  0.0000000000000000e+00 0.0000000000000000e+00 0.0000000000000000e+00  0.0000000000000000e+00 0.0000000000000000e+00 0.0000000000000000e+00  0.0000000000000000e+00 0.0000000000000000e+00 0.0000000000000000e+00  3.2662432898986158e-03 1.9713949392195121e-03 1.8871685490167326e-04  2.2555484102489988e-03 6.5924167329486504e-04 8.1912105397847321e-05  1.7638958571979592e-03 8.5578019981882129e-05 -9.2864706183268953e-06  1.7206917735890068e-03 -4.6164970020034081e-04 -1.0357637853048864e-04  2.2079759534091498e-03 -1.7359050137491924e-03 -2.0668832718195089e-04  5.4645372306343504e-03 3.0178062915362752e-03 3.2080571336677750e-04  4.6332364260663200e-03 1.3352368069710664e-03 1.3934577745317611e-04  4.1331498781948129e-03 1.4578634440785303e-04 -2.8007178411060198e-05  4.0364049196622226e-03 -1.0496998809690411e-03 -1.8871990820612839e-04  4.2734593163112735e-03 -2.8598947591669142e-03 -3.4989374069519907e-04  7.6296956252780573e-03 3.6362315961421137e-03 4.2072698093134826e-04  7.0102707750315726e-03 1.7458432168574738e-03 1.7342959799319005e-04  6.5911718302948379e-03 1.2708007499842106e-04 -5.2326769304909483e-05  6.4439347359715919e-03 -1.5267226562500980e-03 -2.6919913269867461e-04  6.4794702140985455e-03 -3.5762570414568334e-03 -4.9241673299169661e-04  9.8162353763695306e-03 3.9481373021512311e-03 4.9103410582164659e-04  9.3451671455711469e-03 1.9287479265031585e-03 1.9212469866453774e-04  9.0025192350073214e-03 4.7273976203791380e-05 -8.2437614770936466e-05  8.8269923731870009e-03 -1.8786532898092719e-03 -3.4803199482660868e-04  8.7476329589014981e-03 -4.0393208728237255e-03 -6.2367653498500138e-04  1.1958700448801211e-02 4.0628571985811901e-03 5.3481980849502534e-04  1.1616313956273799e-02 1.9777453875711427e-03 1.9654059669183232e-04  1.1338222705907019e-02 -6.0944611177385724e-05 -1.1708969127268317e-04  1.1155425097229638e-02 -2.1372431207375537e-03 -4.2274510362206897e-04  1.1020570649022048e-02 -4.3414409144594606e-03 -7.4033482239293331e-04  1.4094259081201469e-02 4.0629009100981040e-03 5.5235197368330182e-04  1.3834995102740395e-02 1.9348380648701758e-03 1.8607004243917014e-04  1.3608552900653543e-02 -1.8486121691223815e-04 -1.5549465361054551e-04  1.3429982592761279e-02 -2.3358749086220621e-03 -4.9050149737738338e-04  1.3273852179263983e-02 -4.5513490076903767e-03 -8.4039685819455652e-04  1.6248188075044617e-02 4.0038409512794465e-03 5.4312639847593357e-04  1.6033999728869312e-02 1.8488735239850108e-03 1.5778982335645019e-04  1.5836906456680875e-02 -3.1207780814650020e-04 -1.9691398353129214e-04  1.5665302771178165e-02 -2.4986052907906326e-03 -5.4635884893104324e-04  1.5505301054384499e-02 -4.7170412560613205e-03 -9.1923002005564437e-04  1.8411445008760807e-02 3.9147967056554376e-03 4.8821562750665651e-04  1.8218170864410962e-02 1.7423413839290059e-03 1.0252743111111168e-04  1.8041153652175314e-02 -4.4000259253197319e-04 -2.4101396211846188e-04  1.7883153130993878e-02 -2.6449245864354209e-03 -5.7910177817978119e-04  1.7729619428339803e-02 -4.8703274704635143e-03 -9.5410809625087777e-04  0.0000000000000000e+00 0.0000000000000000e+00 0.0000000000000000e+00  0.0000000000000000e+00 0.0000000000000000e+00 0.0000000000000000e+00  0.0000000000000000e+00 0.0000000000000000e+00 0.0000000000000000e+00  0.0000000000000000e+00 0.0000000000000000e+00 0.0000000000000000e+00  0.0000000000000000e+00 0.0000000000000000e+00 0.0000000000000000e+00  3.3773282847015785e-03 2.0329070673746640e-03 1.5507774959520380e-04  2.3427005235927647e-03 6.7867514247839638e-04 7.8143702953438623e-05  1.8413584390698536e-03 8.8918270728683766e-05 2.4940833144560417e-05  1.7925972712515492e-03 -4.7248715553338885e-04 -2.5814079947442401e-05  2.2792901820519523e-03 -1.7886604262522332e-03 -9.1288187449105850e-05  5.6568574845234903e-03 3.1056483713118280e-03 2.9311274830388332e-04  4.8042812469188331e-03 1.3703299583506915e-03 1.4956100410317078e-04  4.2921611462168130e-03 1.4894753836421177e-04 3.0005814021999212e-05  4.1866974400210626e-03 -1.0785878722816089e-03 -7.6503548853198251e-05  4.4130325027475379e-03 -2.9446960339803928e-03 -1.9054647081482998e-04  7.8910128817568283e-03 3.7251456217240850e-03 4.1336430165971619e-04  7.2532492263212298e-03 1.7843483505333828e-03 1.9978126897682394e-04  6.8217306253335469e-03 1.2794951626942362e-04 1.3050750447454045e-05  6.6641932169011660e-03 -1.5653059964449404e-03 -1.5940294354117738e-04  6.6856319349392762e-03 -3.6696333300001460e-03 -3.4104027744482008e-04  1.0131995847479472e-02 4.0258666426276849e-03 4.9919817291882559e-04  9.6453254388838422e-03 1.9642263129412666e-03 2.2615718136445782e-04  9.2910461055489054e-03 4.6554564011227833e-05 -2.3114397383404397e-05  9.1054860656384230e-03 -1.9179566054400314e-03 -2.5965893954743742e-04  9.0130233080500544e-03 -4.1261016391166451e-03 -5.0491638658540345e-04  1.2312589676408069e-02 4.1268794982764496e-03 5.4841245490496132e-04  1.1958578990250660e-02 2.0085046208189144e-03 2.2868068179897325e-04  1.1670950051185907e-02 -6.2390022223160734e-05 -7.0741924594438846e-05  1.1479661943475869e-02 -2.1731935054783609e-03 -3.6005345699709500e-04  1.1334380706070020e-02 -4.4163189811544665e-03 -6.5758997641898027e-04  1.4476737539848137e-02 4.1162114011329366e-03 5.6286852733416028e-04  1.4208364347785924e-02 1.9609645357558081e-03 2.1034692003190280e-04  1.3974376116296551e-02 -1.8704577748147945e-04 -1.2364535960380271e-04  1.3789173610093998e-02 -2.3685755878442281e-03 -4.5022251110629191e-04  1.3625560594550050e-02 -4.6163104901018152e-03 -7.8692406705203335e-04  1.6654245284863783e-02 4.0507580836330742e-03 5.4617940076622385e-04  1.6432410608287561e-02 1.8717631563788069e-03 1.7271002423875103e-04  1.6228991898176792e-02 -3.1535271774406652e-04 -1.7811556335738232e-04  1.6052504212396863e-02 -2.5302709054884631e-03 -5.2356221252569028e-04  1.5887859143076898e-02 -4.7780077652146971e-03 -8.8652506217142902e-04  1.8840121809740040e-02 3.9578350811273174e-03 4.8675852406234127e-04  1.8639921963283224e-02 1.7623411258340517e-03 1.1139555659007812e-04  1.8457985267398815e-02 -4.4512474375374075e-04 -2.3243670991819732e-04  1.8296963655392788e-02 -2.6776833253651005e-03 -5.7050542923692390e-04  1.8141745513648954e-02 -4.9328653851452332e-03 -9.3760585082785315e-04  0.0000000000000000e+00 0.0000000000000000e+00 0.0000000000000000e+00  0.0000000000000000e+00 0.0000000000000000e+00 0.0000000000000000e+00  0.0000000000000000e+00 0.0000000000000000e+00 0.0000000000000000e+00  0.0000000000000000e+00 0.0000000000000000e+00 0.0000000000000000e+00  0.0000000000000000e+00 0.0000000000000000e+00 0.0000000000000000e+00  3.4600607010357811e-03 2.0961287403430131e-03 9.6354628621211704e-05  2.4193647794726013e-03 7.0093997994906073e-04 5.4515235855218598e-05  1.9157371995943567e-03 9.1855314956465497e-05 5.9539669110276084e-05  1.8533806473906499e-03 -4.8535080396401039e-04 7.8694488717918635e-05  2.3164069209209658e-03 -1.8342743311017139e-03 7.7626747069008264e-05  5.816327304810