<?xml version="1.0"?>
<VTKFile type="UnstructuredGrid"  version="0.1"  >
<UnstructuredGrid>
<Piece  NumberOfPoints="405" NumberOfCells="1536">
<Points>
<DataArray  type="Float64"  NumberOfComponents="3"  format="ascii">0.45 0 -0.2  0.475 0 -0.2  0.5 0 -0.2  0.525 0 -0.2  0.55 0 -0.2  0.4536503928139302 0.02797266863139248 -0.1986367226557581  0.4772798339175649 0.02617873105653166 -0.1993206113562677  0.5016182731513739 0.02511303240578587 -0.2001288949058208  0.5264658659906517 0.02399905542110818 -0.2010510533889275  0.5518049727762914 0.02207388071972796 -0.2019850242681392  0.4568287502735305 0.05470728521893461 -0.1986275133568392  0.4805344211373557 0.05213807104659305 -0.1993664779390308  0.5047629056814712 0.05017029308384526 -0.20026016325672  0.5295005013809501 0.04815826953014076 -0.2012164065772296  0.5545806359365301 0.04535077949929192 -0.2021808908765736  0.4604102251034283 0.08073609743738105 -0.1987981480427794  0.4842771921374937 0.07766354320950875 -0.1995161588827284  0.5085377344615595 0.07501911333950986 -0.20033578797417  0.5331831904562753 0.0723078127006573 -0.2011811449459503  0.5580355283285234 0.06896513541925976 -0.2020171566407033  0.4642067258481119 0.106201874327664 -0.1989730628641585  0.4882252060595674 0.1028092151441221 -0.1996384957057422  0.512541821948221 0.09969329880486523 -0.200371003576952  0.53712164760333 0.09650278317121382 -0.2011075952305574  0.5618165909122882 0.0928646853042162 -0.2018291985549859  0.4679965165081629 0.1312763988593788 -0.1990762024997868  0.4922009652780402 0.1276960926360852 -0.1997209508633418  0.5165810655114 0.1242677843460598 -0.2003917858218527  0.5411216797174054 0.1207792991656096 -0.2010542324960393  0.565719370389888 0.1170040989741325 -0.2017038099697786  0.4717934851410803 0.1560829029311463 -0.1991484803669799  0.4961328995535809 0.1523945786759402 -0.1997824178519577  0.5205743517520158 0.1487922682980235 -0.2004159318657914  0.545095672475994 0.1451431855955506 -0.2010352602481548  0.5696381052277862 0.1413248190106011 -0.2016489295616045  0.4755967966761893 0.1807305162693904 -0.1992304175622749  0.5000202171056159 0.1769922714481214 -0.1998492301603377  0.52449969998327 0.1733066569427454 -0.2004517561144893  0.5490103907820374 0.1695884864564292 -0.2010421986180445  0.5735224803188017 0.165773567249127 -0.2016439358236385  0.4793763340209462 0.2053021204734407 -0.1993183709167623  0.5038178661984964 0.2015529937953186 -0.199928214319498  0.528319204021613 0.1978415180082833 -0.2004939455998968  0.5528482160701065 0.1940996534912171 -0.2010500884500805  0.5773620294223628 0.1902897811701277 -0.2016499912386805  0.45 0 -0.175  0.475 0 -0.175  0.5 0 -0.175  0.525 0 -0.175  0.55 0 -0.175  0.4540447377042492 0.02780916167577671 -0.1741390898161787  0.477768751946664 0.02607069434114048 -0.1745799423815232  0.5021487910962306 0.02512966564403272 -0.1750960177356148  0.5270810678919037 0.02420298691537285 -0.1756694689831855  0.5526817495808034 0.02233561661927678 -0.1762429267672469  0.4573791023486332 0.05463306533948863 -0.1739441147799161  0.4811817438146039 0.05206489962334904 -0.1745415909068508  0.5054679939215835 0.05011095233605941 -0.1752219193580966  0.5302574818255523 0.0481116750504055 -0.1759346660517351  0.5554427476466284 0.04525707788075568 -0.1766154197374224  0.4609949985329782 0.08068335400454542 -0.1739722154457418  0.4849622735529915 0.07759140348980791 -0.1746083463764817  0.5092588093332903 0.07490314461071468 -0.1752935318463958  0.5339165346506553 0.07213805985538323 -0.1759910037721253  0.558788419221646 0.06875024481004416 -0.1766752595754429  0.4647944368449999 0.1061426919248827 -0.1740435083290907  0.4888988548007645 0.1027235423709031 -0.1746809646538129  0.5132315639498151 0.09955647162074409 -0.1753338412328226  0.5378014840925855 0.09631025034888405 -0.1759876416164655  0.5624845850360763 0.09264419821786141 -0.1766412399356399  0.4686003163092698 0.1311990939878968 -0.1741007314110561  0.4928551947571029 0.1276004792691015 -0.1747369673811107  0.5172374980750092 0.1241327660752542 -0.1753645200416427  0.5417614329009586 0.120602441905637 -0.1759856496651553  0.5663402842526695 0.1168099849728166 -0.1766139449252726  0.4724127604226294 0.1560052392824368 -0.1741495430825391  0.4967753957486967 0.1523019158094295 -0.1747865209130786  0.5212086805077368 0.1486683164741082 -0.1753997930622686  0.5457139100998414 0.1449882419516007 -0.1760027819222979  0.5702410914784368 0.1411562364397332 -0.1766198107215107  0.4762228568375522 0.1806583544650672 -0.1742106874621856  0.5006542449987901 0.17690893249624 -0.1748467120217839  0.5251201504235136 0.1731947778083817 -0.1754455186290541  0.5496193908054534 0.1694467079253765 -0.1760340283736365  0.5741256617859483 0.1656157206181258 -0.176650097026969  0.4799959806702425 0.2052330308577858 -0.174302917439261  0.5044607001411209 0.201479446631274 -0.1749283679962222  0.5289449339375557 0.1977332115733104 -0.175498803514629  0.5534601290445996 0.1939542473325893 -0.176060184421475  0.5779740885461742 0.190127196464469 -0.1766694997563251  0.45 0 -0.15  0.475 0 -0.15  0.5 0 -0.15  0.525 0 -0.15  0.55 0 -0.15  0.4544639912974593 0.0278459133197254 -0.1494497299592386  0.4780364117747334 0.02604122894799464 -0.1497558486908321  0.5023702785355101 0.02512640194954206 -0.1500711445443713  0.527330473882814 0.02422055308559827 -0.150417766490164  0.5530454493610896 0.02223207212146515 -0.1507631770129854  0.4579426650381125 0.05462879278913343 -0.1492088577030891  0.4816437074753441 0.05202330031098028 -0.1496725716214416  0.5058995241811373 0.05008734711681432 -0.1501617770375505  0.5307302566395672 0.04809791799587842 -0.1506680205795777  0.555999255270996 0.04516487225355576 -0.1511475009404065  0.4616329262260234 0.08066339787565399 -0.1491373046793538  0.4855366430832716 0.07754038493351571 -0.1496854566211001  0.5098138363203355 0.07484644436462491 -0.1502334520049716  0.5344920069374977 0.07206795674181239 -0.1507890431365276  0.5594003545692412 0.06864502534961914 -0.1513358293479267  0.4654693527825259 0.106109686386721 -0.1491273411980993  0.4895314956778861 0.10266273516246 -0.1497188238782365  0.5138447054130323 0.09947334567131852 -0.1502861415941789  0.5384146960860281 0.09620136163314642 -0.1508541155510393  0.5631024219236295 0.09251635469749064 -0.1514289974152668  0.4692862829829527 0.1311597249294724 -0.1491356317165567  0.4935124794246679 0.1275347945136469 -0.149752979225996  0.517874702606503 0.1240364402081193 -0.1503318000899293  0.5423874584413027 0.1204755385355465 -0.150906286303762  0.5669556822526952 0.1166668590406958 -0.1514973694455432  0.4731004488335951 0.1559613130472749 -0.1491572521124529  0.4974427971145031 0.1522339370035092 -0.1497921384671552  0.5218576420233726 0.148566899316645 -0.1503808526805503  0.5463476840990412 0.1448540077809644 -0.1509619792006063  0.5708591766419655 0.1410023042437578 -0.1515680747366176  0.4769209771000458 0.1806188007245111 -0.1492005490538801  0.5013345838123103 0.1768407999629194 -0.1498493736015679  0.5257831780103009 0.1730905875351465 -0.1504382835396887  0.5502663099425464 0.1693069268537106 -0.1510184309920658  0.5747561320015953 0.1654495910096979 -0.1516390009997339  0.4807253205359022 0.205204033900086 -0.1493021834003536  0.5051702032292786 0.2014106865136444 -0.1499440268877168  0.5296385444675095 0.1976235228813124 -0.1505050915577612  0.5541348388119396 0.1938048632431625 -0.15105841840528  0.5786291303433764 0.1899453139787238 -0.1516744443741339  0.45 0 -0.125  0.475 0 -0.125  0.5 0 -0.125  0.525 0 -0.125  0.55 0 -0.125  0.4547380436954551 0.02792458401990205 -0.1246165415666316  0.4782254362524092 0.02605048051394352 -0.1248261181573131  0.5025227013004303 0.02512468908666188 -0.1250383490111103  0.5274889242787405 0.02420859356184426 -0.1252681066868527  0.5532525892106237 0.02211650755333526 -0.1255062620772561  0.4583779529630875 0.05469801924335052 -0.1243960033339994  0.482003230718331 0.05202701994254224 -0.1247436657635932  0.5062247740415476 0.05007524640743589 -0.125099725618595  0.5310651173391271 0.04806246382912764 -0.1254608457568907  0.5563644388270125 0.04503051202548321 -0.1258063808346566  0.4621769764555374 0.08070905892665567 -0.1242764182625859  0.4860269688548893 0.07753054466647548 -0.1247256121766266  0.5102746891479164 0.07481170359330297 -0.1251632013245428  0.5349532174678813 0.07200266945853628 -0.1255995580239791  0.5598703040152424 0.06851283923740087 -0.126033895788933  0.4660865718255416 0.1061333906819329 -0.1242124684317936  0.4901095229679303 0.1026389621256706 -0.12473335096537  0.5143949550600072 0.09941639816503831 -0.1252244925417028  0.5389544512093698 0.09610940528517506 -0.1257107232490623  0.5636354875712734 0.09237833587394426 -0.1262073635676162  0.4699425087271191 0.1311668236823903 -0.1241810047637519  0.4941429993397567 0.1275012658754252 -0.1247542192398811  0.5184798192732246 0.12396364978895 -0.1252861636982789  0.5429758639592561 0.1203643981550384 -0.1258107085954804  0.5675292041761956 0.1165186906184718 -0.1263541830881632  0.4737845462504183 0.1559589532244736 -0.1241782132596079  0.4981069104839417 0.1521928839355826 -0.1247898774238229  0.5224991540393308 0.1484835422233863 -0.1253521044445097  0.5469704433845123 0.1447295010292904 -0.1259054987142786  0.5714641014602605 0.1408421657274584 -0.1264867492627832  0.4776364616603145 0.1806161855072713 -0.1242100142518828  0.5020306349148256 0.1767957727834136 -0.1248502404832864  0.5264574011045996 0.1729995697678176 -0.1254244812173138  0.5509213958636332 0.1691710773611938 -0.1259893780814684  0.575392788480497 0.1652741504738073 -0.1265999571522686  0.4814865987029175 0.205205176599192 -0.1243213208409494  0.5059089188517117 0.2013609576616803 -0.1249580345137751  0.5303549452607516 0.1975235545912664 -0.1255048675931617  0.554830773230138 0.1936560245440918 -0.1260431346850468  0.5793054965660434 0.1897497919000742 -0.1266530583255748  0.45 0 -0.1  0.475 0 -0.1  0.5 0 -0.1
[...]
<PointData  Vectors="Displacement"> 
<DataArray  type="Float64"  Name="Displacement"  NumberOfComponents="3" format="ascii">0.0000000000000000e+00 0.0000000000000000e+00 0.0000000000000000e+00  0.0000000000000000e+00 0.0000000000000000e+00 0.0000000000000000e+00  0.0000000000000000e+00 0.0000000000000000e+00 0.0000000000000000e+00  0.0000000000000000e+00 0.0000000000000000e+00 0.0000000000000000e+00  0.0000000000000000e+00 0.0000000000000000e+00 0.0000000000000000e+00  3.6503928139301075e-03 2.9726686313924769e-03 1.3632773442419489e-03  2.2798339175648615e-03 1.1787310565316590e-03 6.7938864373228423e-04  1.6182731513738930e-03 1.1303240578586946e-04 -1.2889490582081642e-04  1.4658659906515040e-03 -1.0009445788918122e-03 -1.0510533889274542e-03  1.8049727762913671e-03 -2.9261192802720426e-03 -1.9850242681391976e-03  6.8287502735304307e-03 4.7072852189346008e-03 1.3724866431608584e-03  5.5344211373556723e-03 2.1380710465930429e-03 6.3352206096919884e-04  4.7629056814711881e-03 1.7029308384525208e-04 -2.6016325671994955e-04  4.5005013809501252e-03 -1.8417304698592415e-03 -1.2164065772296215e-03  4.5806359365300536e-03 -4.6492205007080869e-03 -2.1808908765736930e-03  1.0410225103428252e-02 5.7360974373810479e-03 1.2018519572205419e-03  9.2771921374935513e-03 2.6635432095087320e-03 4.8384111727157834e-04  8.5377344615593133e-03 1.9113339509855256e-05 -3.3578797416999564e-04  8.1831904562752866e-03 -2.6921872993427216e-03 -1.1811449459503440e-03  8.0355283285232625e-03 -6.0348645807402302e-03 -2.0171566407033120e-03  1.4206725848111904e-02 6.2018743276639910e-03 1.0269371358414740e-03  1.3225206059567351e-02 2.8092151441221351e-03 3.6150429425785377e-04  1.2541821948220932e-02 -3.0670119513478229e-04 -3.7100357695203087e-04  1.2121647603329932e-02 -3.4972168287861990e-03 -1.1075952305573615e-03  1.1816590912288268e-02 -7.1353146957838292e-03 -1.8291985549858459e-03  1.7996516508162985e-02 6.2763988593788249e-03 9.2379750021318876e-04  1.7200965278040093e-02 2.6960926360851695e-03 2.7904913665817167e-04  1.6581065511400008e-02 -7.3221565394023067e-04 -3.9178582185273297e-04  1.6121679717405524e-02 -4.2207008343903866e-03 -1.0542324960392761e-03  1.5719370389887809e-02 -7.9959010258674607e-03 -1.7038099697785651e-03  2.1793485141080288e-02 6.0829029311462628e-03 8.5151963302010044e-04  2.1132899553580966e-02 2.3945786759401694e-03 2.1758214804231348e-04  2.0574351752015618e-02 -1.2077317019764965e-03 -4.1593186579135606e-04  2.0095672475993843e-02 -4.8568144044494367e-03 -1.0352602481548212e-03  1.9638105227786119e-02 -8.6751809893989701e-03 -1.6489295616044625e-03  2.5596796676189238e-02 5.7305162693904134e-03 7.6958243772507731e-04  2.5020217105615989e-02 1.9922714481213446e-03 1.5076983966229898e-04  2.4499699983269965e-02 -1.6933430572546330e-03 -4.5175611448921562e-04  2.4010390782037209e-02 -5.4115135435707533e-03 -1.0421986180445130e-03  2.3522480318801688e-02 -9.2264327508730162e-03 -1.6439358236385200e-03  2.9376334020946145e-02 5.3021204734406491e-03 6.8162908323770547e-04  2.8817866198496522e-02 1.5529937953186500e-03 7.1785680501953498e-05  2.8319204021613083e-02 -2.1584819917167043e-03 -4.9394559989681698e-04  2.7848216070106357e-02 -5.9003465087829480e-03 -1.0500884500805195e-03  2.7362029422362804e-02 -9.7102188298722469e-03 -1.6499912386804820e-03  0.0000000000000000e+00 0.0000000000000000e+00 0.0000000000000000e+00  0.0000000000000000e+00 0.0000000000000000e+00 0.0000000000000000e+00  0.0000000000000000e+00 0.0000000000000000e+00 0.0000000000000000e+00  0.0000000000000000e+00 0.0000000000000000e+00 0.0000000000000000e+00  0.0000000000000000e+00 0.0000000000000000e+00 0.0000000000000000e+00  4.0447377042491890e-03 2.8091616757767099e-03 8.6091018382132871e-04  2.7687519466638422e-03 1.0706943411404740e-03 4.2005761847679760e-04  2.1487910962303637e-03 1.2966564403271152e-04 -9.6017735614784837e-05  2.0810678919035881e-03 -7.9701308462715799e-04 -6.6946898318548951e-04  2.6817495808034030e-03 -2.6643833807232270e-03 -1.2429267672468742e-03  7.3791023486331313e-03 4.6330653394886252e-03 1.0558852200839230e-03  6.1817438146038860e-03 2.0648996233490423e-03 4.5840909314922039e-04  5.4679939215835976e-03 1.1095233605941051e-04 -2.2191935809663232e-04  5.2574818255524628e-03 -1.8883249495945105e-03 -9.3466605173511837e-04  5.4427476466282964e-03 -4.7429221192443237e-03 -1.6154197374223440e-03  1.0994998532978219e-02 5.6833540045454073e-03 1.0277845542581994e-03  9.9622735529915057e-03 2.5914034898079021e-03 3.9165362351833543e-04  9.2588093332902615e-03 -9.6855389285321813e-05 -2.9353184639577929e-04  8.9165346506553163e-03 -2.8619401446167924e-03 -9.9100377212529519e-04  8.7884192216459052e-03 -6.2497551899558471e-03 -1.6752595754428925e-03  1.4794436844999889e-02 6.1426919248826909e-03 9.5649167090928783e-04  1.3898854800764473e-02 2.7235423709030490e-03 3.1903534618717388e-04  1.3231563949815190e-02 -4.4352837925588294e-04 -3.3384123282254464e-04  1.2801484092585460e-02 -3.6897496511159593e-03 -9.8764161646554423e-04  1.2484585036076414e-02 -7.3558017821386190e-03 -1.6412399356399065e-03  1.8600316309269713e-02 6.1990939878967611e-03 8.9926858894389414e-04  1.7855194757102833e-02 2.6004792691015177e-03 2.6303261888935433e-04  1.7237498075009322e-02 -8.6723392474579353e-04 -3.6452004164265874e-04  1.6761432900958519e-02 -4.3975580943629577e-03 -9.8564966515526540e-04  1.6340284252669399e-02 -8.1900150271833894e-03 -1.6139449252726100e-03  2.2412760422629321e-02 6.0052392824367362e-03 8.5045691746090920e-04  2.1775395748696660e-02 2.3019158094294283e-03 2.1347908692149085e-04  2.1208680507736742e-02 -1.3316835258918929e-03 -3.9979306226860223e-04  2.0713910099841217e-02 -5.0117580483993339e-03 -1.0027819222978736e-03  2.0241091478436519e-02 -8.8437635602667940e-03 -1.6198107215105954e-03  2.6222856837552152e-02 5.6583544650671619e-03 7.8931253781439319e-04  2.5654244998789988e-02 1.9089324962399709e-03 1.5328797821610331e-04  2.5120150423513465e-02 -1.8052221916183510e-03 -4.4551862905406502e-04  2.4619390805453292e-02 -5.5532920746234563e-03 -1.0340283736364375e-03  2.4125661785948240e-02 -9.3842793818742637e-03 -1.6500970269689920e-03  2.9995980670242423e-02 5.2330308577857882e-03 6.9708256073899866e-04  2.9460700141120913e-02 1.4794466312739957e-03 7.1632003777833957e-05  2.8944933937555716e-02 -2.2667884266896060e-03 -4.9880351462901922e-04  2.8460129044599620e-02 -6.0457526674107497e-03 -1.0601844214749748e-03  2.7974088546174083e-02 -9.8728035355309020e-03 -1.6694997563250784e-03  0.0000000000000000e+00 0.0000000000000000e+00 0.0000000000000000e+00  0.0000000000000000e+00 0.0000000000000000e+00 0.0000000000000000e+00  0.0000000000000000e+00 0.0000000000000000e+00 0.0000000000000000e+00  0.0000000000000000e+00 0.0000000000000000e+00 0.0000000000000000e+00  0.0000000000000000e+00 0.0000000000000000e+00 0.0000000000000000e+00  4.4639912974592799e-03 2.8459133197253879e-03 5.5027004076148756e-04  3.0364117747333358e-03 1.0412289479946439e-03 2.4415130916791063e-04  2.3702785355101427e-03 1.2640194954206219e-04 -7.1144544371270902e-05  2.3304738828139465e-03 -7.7944691440172398e-04 -4.1776649016402419e-04  3.0454493610893888e-03 -2.7679278785348489e-03 -7.6317701298539800e-04  7.9426650381125546e-03 4.6287927891334301e-03 7.9114229691092455e-04  6.6437074753440449e-03 2.0233003109802823e-03 3.2742837855841194e-04  5.8995241811373262e-03 8.7347116814308676e-05 -1.6177703755053765e-04  5.7302566395671453e-03 -1.9020820041215870e-03 -6.6802057957769667e-04  5.9992552709958675e-03 -4.8351277464442300e-03 -1.1475009404065223e-03  1.1632926226023344e-02 5.6633978756539952e-03 8.6269532064618595e-04  1.0536643083271525e-02 2.5403849335157332e-03 3.1454337889993110e-04  9.8138363203355491e-03 -1.5355563537508955e-04 -2.3345200497160853e-04  9.4920069374977364e-03 -2.9320432581876150e-03 -7.8904313652749852e-04  9.4003545692410775e-03 -6.3549746503808726e-03 -1.3358293479266946e-03  1.5469352782525895e-02 6.1096863867209691e-03 8.7265880190065602e-04  1.4531495677886022e-02 2.6627351624599629e-03 2.8117612176349133e-04  1.3844705413032454e-02 -5.2665432868147601e-04 -2.8614159417893642e-04  1.3414696086027942e-02 -3.7986383668535896e-03 -8.5411555103928627e-04  1.3102421923629304e-02 -7.4836453025093636e-03 -1.4289974152667522e-03  1.9286282982952596e-02 6.1597249294724089e-03 8.6436828344331571e-04  1.8512479424667799e-02 2.5347945136469517e-03 2.4702077400409766e-04  1.7874702606503104e-02 -9.6355979188067964e-04 -3.3180008992926579e-04  1.7387458441302604e-02 -4.5244614644534709e-03 -9.0628630376194438e-04  1.6955682252694951e-02 -8.3331409593041961e-03 -1.4973694455431613e-03  2.3100448833594946e-02 5.9613130472749021e-03 8.4274788754712295e-04  2.2442797114502994e-02 2.2339370035092494e-03 2.0786153284484487e-04  2.1857642023372530e-02 -1.4331006833549979e-03 -3.8085268055026658e-04  2.1347684099041218e-02 -5.1459922190356692e-03 -9.6197920060633749e-04  2.0859176641965516e-02 -8.9976957562422771e-03 -1.5680747366175615e-03  2.6920977100045731e-02 5.6188007245111058e-03 7.9945094611991955e-04  2.6334583812310332e-02 1.8407999629193696e-03 1.5062639843213115e-04  2.5783178010300806e-02 -1.9094124648535668e-03 -4.3828353968870137e-04  2.5266309942546559e-02 -5.6930731462894466e-03 -1.0184309920657419e-03  2.4756132001595224e-02 -9.5504089903020971e-03 -1.6390009997339033e-03  3.0725320535902236e-02 5.2040339000859826e-03 6.9781659964638970e-04  3.0170203229278485e-02 1.4106865136443839e-03 5.5973112283260185e-05  2.9638544467509353e-02 -2.3764771186875950e-03 -5.0509155776124923e-04  2.9134838811939606e-02 -6.1951367568375193e-03 -1.0584184052799619e-03  2.8629130343376479e-02 -1.0054686021276174e-02 -1.6744443741338025e-03  0.0000000000000000e+00 0.0000000000000000e+00 0.0000000000000000e+00  0.0000000000000000e+00 0.0000000000000000e+00 0.0000000000000000e+00  0.0000000000000000e+00 0.0000000000000000e+00 0.0000000000000000e+00  0.0000000000000000e+00 0.0000000000000000e+00 0.0000000000000000e+00  0.0000000000000000e+00 0.0000000000000000e+00 0.0000000000000000e+00  4.7380436954551006e-03 2.9245840199020510e-03 3.8345843336840614e-04  3.2254362524091560e-03 1.0504805139435270e-03 1.7388184268694041e-04  2.5227013004302454e-03 1.2468908666188422e-04 -3.8349011110272168e-05  2.4889242787406972e-03 -7.9140643815574750e-04 -2.6810668685271300e-04  3.2525892106238341e-03 -2.8834924466647452e-03 -5.0626207725609274e-04  8.3779529630874736e-03 4.6980192433505128e-03 6.0399666600061803e-04  7.0032307183310067e-03 2.0270199425422380e-03 2.5633423640678243e-04  6.2247740415476123e-03 7.5246407435892361e-05 -9.9725618595000647e-05  6.0651173391272671e-03 -1.9375361708723600e-03 -4.6084575689076635e-04  6.3644388270124013e-03 -4.9694879745167987e-03 -8.0638083465651707e-04  1.2176976455537369e-02 5.7090589266556666e-03 7.2358173741411983e-04  1.1026968854889328e-02 2.5305446664754725e-03 2.7438782337339557e-04  1.0274689147916304e-02 -1.8829640669705601e-04 -1.6320132454284138e-04  9.9532174678811404e-03 -2.9973305414637478e-03 -5.9955802397907321e-04  9.8703040152423056e-03 -6.4871607625991380e-03 -1.0338957889330510e-03  1.6086571825541626e-02 6.1333906819329214e-03 7.8753156820643303e-04  1.5109522967930222e-02 2.6389621256706227e-03 2.6664903462996951e-04  1.4394955060007283e-02 -5.8360183496169321e-04 -2.2449254170282178e-04  1.3954451209369769e-02 -3.8905947148249556e-03 -7.1072324906228048e-04  1.3635487571273303e-02 -7.6216641260557286e-03 -1.2073635676161474e-03  1.9942508727119078e-02 6.1668236823902538e-03 8.1899523624808922e-04  1.9142999339756703e-02 2.5012658754252071e-03 2.4578076011885124e-04  1.8479819273224771e-02 -1.0363502110500311e-03 -2.8616369827894511e-04  1.7975863959256221e-02 -4.6356018449615743e-03 -8.1070859548038304e-04  1.7529204176195481e-02 -8.4813093815282199e-03 -1.3541830881631562e-03  2.3784546250418283e-02 5.9589532244735980e-03 8.2178674039209325e-04  2.3106910483941624e-02 2.1928839355825664e-03 2.1012257617709115e-04  2.2499154039330664e-02 -1.5164577766137333e-03 -3.5210444450970200e-04  2.1970443384512216e-02 -5.2704989707096483e-03 -9.0549871427863529e-04  2.1464101460260399e-02 -9.1578342725416352e-03 -1.4867492627832146e-03  2.7636461660314554e-02 5.6161855072713275e-03 7.8998574811717833e-04  2.7030634914825453e-02 1.7957727834136401e-03 1.4975951671359502e-04  2.6457401104599779e-02 -2.0004302321824643e-03 -4.2448121731379271e-04  2.5921395863633286e-02 -5.8289226388061914e-03 -9.8937808146834635e-04  2.5392788480496968e-02 -9.7258495261926831e-03 -1.5999571522686076e-03  3.1486598702917395e-02 5.2051765991920265e-03 6.7867915905054288e-04  3.0908918851711688e-02 1.3609576616803066e-03 4.1965486224854964e-05  3.0354945260751547e-02 -2.4764454087335300e-03 -5.0486759316162593e-04  2.9830773230137973e-02 -6.3439754559081905e-03 -1.0431346850468210e-03  2.9305496566043376e-02 -1.0250208099925797e-02 -1.6530583255748373e-03  0.0000000000000000e+00 0.0000000000000000e+00 0.0000000000000000e+00  0.0000000000000000e+00 0.0000000000000000e+00 0.0000000000000000e+00  0.0000000000000000e+00 0.0000000000000000e+00 0.0000000000000000e+00  0.0000000000000000e+00 0.0000000000000000e+00 0.0000000000000000e+00  0.0000000000000000e+00 0.0000000000000000e+00 0.0000000000000000e+00  4.9342189927031382e-03 3.0057660003264697e-03 2.7508997094511745e-04  3.3686370034993213e-03 1.0727859278203290e-03 1.3227469361214237e-04  2.6446239835489702e-03 1.2681129706377479e-04 -3.0340553350113911e-06  2.6093798030651779e-03 -8.0836240690381768e-04 -1.4965330422060536e-04  3.3917231425169216e-03 -2.9831271200934264e-03 -3.1529595283328319e-04  8.7172773348610337e-03 4.8014338270692672e-03 4.6946179530391665e-04  7.2923327080692208e-03 2.0570966713927487e-03 2.1418697428127585e-04  6.4896315105380607e-03 6.8437218170407462e-05 -3.5635075602980494e-05  6.3262182229208560e-03 -1.9856198632449951e-03 -2.8420379670299558e-04  6.6252773145390291e-03 -5.1126323168795441e-03 -5.3201961846291120e-04  1.2630643368598283e-02 5.8019878101140494e-03 6.1401612293305403e-04  1.1440927089705380e-02 2.5519314862789185e-03 2.5464053736246490e-04  1.0664752012335871e-02 -2.1349823645029059e-04 -8.6592914376343983e-05  1.0332637473888155e-02 -3.0735129858420625e-03 -4.2119298460719474e-04  1.0236770693904799e-02 -6.6445055815749646e-03 -7.6283732587076802e-04  1.6628480096538556e-02 6.2039812906881523e-03 7.1508787477918441e-04  1.5620151316703806e-02 2.6451596767332708e-03 2.6701374527995084e-04  1.4881696587889102e-02 -6.2754488568735251e-04 -1.5296916521061809e-04  1.4424845108536243e-02 -3.9868857420625476e-03 -5.6380135061031948e-04  1.4086964830388161e-02 -7.7837486350580765e-03 -9.8761457062045989e-04  2.0547479763948402e-02 6.2150738644140635e-03 7.7616527351579041e-04  1.9724057018709433e-02 2.4933775895601539e-03 2.5505771558110120e-04  1.9037682516880240e-02 -1.0949403906773817e-03 -2.3005137965706441e-04  1.8514648360794313e-02 -4.7454185895159781e-03 -7.0521321672876970e-04  1.8047540132648997e-02 -8.6460524472668950e-03 -1.1977137412300311e-03  2.4440587501573123e-02 5.9913765747666315e-03 7.9608595957828335e-04  2.3740767520834084e-02 2.1739986928891778e-03 2.1918446338451623e-04  2.3110481101840063e-02 -1.5858573391660379e-03 -3.1428670302545317e-04  2.2562309875736618e-02 -5.3904139737179372e-03 -8.3772395978583606e-04  2.2036419952732818e-02 -9.3273096454082275e-03 -1.3857134229228794e-03  2.8338701828689236e-02 5.6417209560317063e-03 7.6949725827034636e-04  2.7710395176867672e-02 1.7698494104189273e-03 1.5275463881579611e-04  2.7114480975292465e-02 -2.0784096193842585e-03 -4.0344468262607815e-04  2.6559525336688226e-02 -5.9587797921139855e-03 -9.5005340575851681e-04  2.6013179680165019e-02 -9.9057420191089110e-03 -1.5390059288349117e-03  3.2241449430297262e-02 5.2276408971487819e-03 6.5280036496764002e-04  3.1639191947673791e-02 1.3275362145210802e-03 3.5674190814210879e-05  3.1061367614139437e-02 -2.5641241820108574e-03 -4.9646831668901466e-04  3.0518204002135577e-02 -6.4858829037017125e-03 -1.0198672227258098e-03  2.9976778416708448e-02 -1.0447132109345718e-02 -1.6123630474498812e-03  0.0000000000000000e+00 0.0000000000000000e+00 0.0000000000000000e+00  0.0000000000000000e+00 0.0000000000000000e+00 0.0000000000000000e+00  0.0000000000000000e+00 0.0000000000000000e+00 0.0000000000000000e+00  0.0000000000000000e+00 0.0000000000000000e+00 0.0000000000000000e+00  0.0000000000000000e+00 0.0000000000000000e+00 0.0000000000000000e+00  5.0807532071141786e-03 3.0834823177496619e-03 1.6534138454529749e-04  3.4860156527089852e-03 1.1010755310464600e-03 8.3939692260109327e-05  2.7507660157025937e-03 1.3130336768484260e-04 3.0734856805837238e-05  2.7078402574697582e-03 -8.2599038924237214e-04 -2.6178515880978431e-05  3.4830815522183529e-03 -3.0642846440367671e-03 -1.1373432584059313e-04  8.9878046368588281e-03 4.9224091518278446e-03 3.4137379439500270e-04  7.5314029004094098e-03 2.1036070310074054e-03 1.7124718479781965e-04  6.7122048388861934e-03 6.5031380582810812e-05 2.9388480757646675e-05  6.5345112754126083e-03 -2.0406462854180791e-03 -1.0320499366403141e-04  6.8079092266638596e-03 -5.2544617518445278e-03 -2.5165319705651370e-04  1.3011141429731423e-02 5.9250269876764535e-03 5.1791318729893369e-04  1.1791194886361074e-02 2.5948548368509082e-03 2.3934096308660046e-04  1.0995551315687996e-02 -2.3269151319904843e-04 -7.6815934824897961e-06  1.0644416261657302e-02 -3.1577017397294810e-03 -2.4091588302141079e-04  1.0517225672801877e-02 -6.8160140964899805e-03 -4.9070986214260924e-04  1.7103833040459173e-02 6.3067015702365911e-03 6.5830557841774142e-04  1.6067157558095884e-02 2.6725311872657239e-03 2.7463516532909022e-04  1.5307630194003259e-02 -6.6225723765708636e-04 -7.8165442441517120e-05  1.4830162948280295e-02 -4.0864767754513467e-03 -4.1624392357974643e-04  1.4462972131576775e-02 -7.9618911889464457e-03 -7.6869560107662663e-04  2.1102382853139229e-02 6.2915893007380276e-03 7.4672754906668891e-04  2.0251534539965341e-02 2.5041234729344104e-03 2.7248668791242061e-04  1.9543190257868950e-02 -1.1416641160595139e-03 -1.6999159115178256e-04  1.9000108463653752e-02 -4.8517874814880922e-03 -5.9889026956384253e-04  1.8508480514263740e-02 -8.8198358054756079e-03 -1.0409635653652093e-03  2.5056467110518035e-02 6.0453102116947537e-03 7.7768829834027069e-04  2.4331786827916341e-02 2.1711723391452920e-03 2.3568004855552781e-04  2.3680130743449657e-02 -1.6417359131587338e-03 -2.7216782969752783e-04  2.3113604848480459e-02 -5.5009434545091156e-03 -7.6802347816112598e-04  2.2568300661489536e-02 -9.4961939354757906e-03 -1.2809760297130778e-03  2.9007117328069765e-02 5.6814063412557536e-03 7.5067855667715572e-04  2.8354132259145064e-02 1.7568269422828435e-03 1.6291517473520698e-04  2.7737019487412341e-02 -2.1421707266361949e-03 -3.7793634462074155e-04  2.7165572542584022e-02 -6.0749187222192361e-03 -9.0845707430918152e-04  2.6604489265768260e-02 -1.0076421409351086e-02 -1.4709262195143351e-03  3.2966173550970763e-02 5.2594133336562867e-03 6.3428448377345699e-04  3.2333564781780080e-02 1.3054201491576939e-03 4.1969329036673536e-05  3.1733357028705840e-02 -2.6362468173372648e-03 -4.8343516962794076e-04  3.1175544153314919e-02 -6.6101445371942302e-03 -9.9906059968180158e-04  3.0624223139299456e-02 -1.0627850257566461e-02 -1.5697087256292047e-03  0.0000000000000000e+00 0.0000000000000000e+00 0.0000000000000000e+00  0.0000000000000000e+00 0.0000000000000000e+00 0.0000000000000000e+00  0.0000000000000000e+00 0.0000000000000000e+00 0.0000000000000000e+00  0.0000000000000000e+00 0.0000000000000000e+00 0.0000000000000000e+00  0.0000000000000000e+00 0.0000000000000000e+00 0.0000000000000000e+00  5.1716374478831652e-03 3.1626960164596327e-03 -6.4824832282542640e-06  3.5794868155263259e-03 1.1344917167015473e-03 -4.1986989225577579e-06  2.8433713443730209e-03 1.3605151745755452e-04 6.3471242875393018e-05  2.7785193302404176e-03 -8.4488680738701541e-04 1.4185162277637311e-04  3.5073498217110515e-03 -3.1229327065335839e-03 1.8078807337448022e-04 