<?xml version="1.0"?>
<VTKFile type="UnstructuredGrid"  version="0.1"  >
<UnstructuredGrid>
<Piece  NumberOfPoints="405" NumberOfCells="1536">
<Points>
<DataArray  type="Float64"  NumberOfComponents="3"  format="ascii">0.45 0 -0.2  0.475 0 -0.2  0.5 0 -0.2  0.525 0 -0.2  0.55 0 -0.2  0.4513073490873402 0.02584108770565486 -0.199840269935525  0.4758401377334192 0.02527699186977964 -0.1999393281985735  0.5006141966759373 0.0250033364175163 -0.2001031950635457  0.5255596158807394 0.02473559280547701 -0.2003040317172859  0.5506704311754281 0.02424103894899032 -0.2005059281592859  0.4520757105320956 0.05125229215596499 -0.1998460719025394  0.4767244935460755 0.05058094444612864 -0.1999715257614393  0.5015016319136005 0.05007704274316236 -0.2001525244505612  0.526434576809982 0.04958102266175544 -0.200350506090027  0.5514953081870776 0.04888396970493965 -0.2005490988783483  0.4528379050849822 0.07651682585108573 -0.1998351902159687  0.4775960708234058 0.07578956768251692 -0.1999860641651563  0.5024326112448078 0.07513732102756158 -0.200161548689215  0.5273737622744896 0.0744778668228222 -0.2003400327649858  0.5523951551377145 0.07368310171529456 -0.2005163180302511  0.4536167062128166 0.1016694842202013 -0.1998123822927489  0.4784514796259883 0.1009045902930299 -0.1999762448027209  0.5033425441496523 0.1001652996410998 -0.2001501943209995  0.5282967978650549 0.09940864266774047 -0.2003194900744885  0.5532960850071973 0.09857365669507583 -0.200485999037379  0.4543919779591863 0.1267493385818232 -0.1997787647849492  0.4792903062279134 0.1259612107355376 -0.1999565860377208  0.5042200198492558 0.1251701454155065 -0.2001341127234711  0.5291847701176524 0.1243619435489167 -0.2003046078325505  0.5541726396101796 0.1235156284828694 -0.2004734460609887  0.4551778666161629 0.1517808053793641 -0.199749819878992  0.4801162456199351 0.1509758480420456 -0.1999380831917902  0.5050722293879643 0.1501608095832483 -0.200121305246819  0.5300438958255121 0.1493300333843656 -0.2002979880319719  0.5550259814438147 0.1484832559658254 -0.2004752797158827  0.4559855673169513 0.1767864783862982 -0.199737860327348  0.4809439587764434 0.1759712612451954 -0.1999285659892697  0.5059130142600973 0.1751465608512754 -0.2001142823906835  0.530888236478511 0.1743084816652086 -0.2002961086049478  0.555867480560148 0.1734626610819466 -0.2004820860242695  0.4568034050050048 0.2017802798208858 -0.1997367605537911  0.4817696209875672 0.2009594390382669 -0.1999267674003465  0.5067493430712785 0.2001318077000285 -0.2001110360927494  0.5317305580823607 0.1992928204609556 -0.2002932624823129  0.5567096509392033 0.1984462226272969 -0.2004837507126488  0.45 0 -0.175  0.475 0 -0.175  0.5 0 -0.175  0.525 0 -0.175  0.55 0 -0.175  0.4513283593291477 0.02584586946511215 -0.1748699534253755  0.4759365875576709 0.02528741026939399 -0.1749629485246162  0.5007281580813597 0.02503872293446969 -0.1750714353293361  0.5256927173846062 0.02480735737767387 -0.1751991172646772  0.5508556797302343 0.02431817042766269 -0.1753280478335978  0.4521598866483856 0.05126480956030807 -0.1748392364857148  0.4768590284811827 0.05059002913242468 -0.1749732482023261  0.5016581237151037 0.05009323376800019 -0.1751205556882161  0.5266028270049782 0.04960051873326726 -0.1752768672310617  0.5516835701354443 0.04889197177710997 -0.1754312142212881  0.452961002772311 0.07651812779734056 -0.1748171485040329  0.4777542777073274 0.07578733132702685 -0.1749754488580616  0.5026025190420657 0.07513422167407396 -0.1751341360034323  0.5275472516529239 0.07446877309244619 -0.1752935657434906  0.552571528125573 0.07366426139882824 -0.1754557918667794  0.453766539918035 0.1016627621003752 -0.1747898641898968  0.4786243615118911 0.1008937329613549 -0.1749634480376891  0.5035188376869626 0.100153025003544 -0.1751293782637873  0.5284712671708374 0.09939225118085472 -0.1752918021441185  0.5534676623827186 0.09855149549142542 -0.1754589006250862  0.4545623388627955 0.1267367838401587 -0.174759978635757  0.4794723636921538 0.1259471689965257 -0.1749449922402193  0.5044015010593761 0.1251563750504697 -0.1751195504091733  0.5293629561199578 0.1243470238389164 -0.1752889861839731  0.5543475712709237 0.123497466113817 -0.1754632546225404  0.4553636475154116 0.1517706358760076 -0.1747362023955927  0.4803058024845798 0.1509642092436185 -0.1749294923463864  0.5052591522331515 0.1501490190194044 -0.1751121426862862  0.5302280337473967 0.149318121197378 -0.175289944222465  0.5552088028921403 0.1484691825345348 -0.1754728229177606  0.4561777136209983 0.1767799846415337 -0.1747255240869945  0.4811375218283039 0.175963753651465 -0.1749228761704343  0.5061039705183512 0.1751373925593896 -0.1751096821733103  0.5310779961992387 0.1742978978381282 -0.1752929692748665  0.5560584645336393 0.1734499467978415 -0.1754832577267806  0.4569932691784759 0.2017738984771045 -0.1747303574656936  0.4819657627680208 0.2009548594644588 -0.1749270245290397  0.506943287557825 0.200123945494888 -0.1751115970567887  0.5319239208620768 0.1992812304222911 -0.1752931843771841  0.5569059180957115 0.1984327965991431 -0.1754851683988071  0.45 0 -0.15  0.475 0 -0.15  0.5 0 -0.15  0.525 0 -0.15  0.55 0 -0.15  0.4514635432501181 0.0258739314671163 -0.1498887354410753  0.4760191069441966 0.0252871776007836 -0.1499785001677053  0.500789996599508 0.02504361331965092 -0.1500513598914734  0.5257562525320101 0.02481746648741402 -0.1501330491984343  0.5509471248382536 0.02430537589016627 -0.150215753774688  0.4523360347912595 0.05129252928861142 -0.1498342221169917  0.4769982219842952 0.05059758982204424 -0.1499684497211026  0.5017788473721325 0.05010107652300535 -0.1500873222845942  0.5267270879731067 0.04961114851521441 -0.1502094044019634  0.551824824662861 0.04888583181259933 -0.1503316667389892  0.4531583926339024 0.07654432689776761 -0.1497976951960049  0.4779265552133415 0.07579813123795399 -0.149960456582956  0.5027613003829654 0.07513987587404762 -0.1501024106193119  0.5277057277601555 0.07447036167578182 -0.150243835285663  0.5527343082314992 0.07365455205629558 -0.1503906763025516  0.4539763106651979 0.101683136196663 -0.1497662461817056  0.4788155192627851 0.1009032750745184 -0.1499463067449071  0.5036990607981995 0.1001548115843909 -0.15010436043174  0.5286482196255757 0.09938646107577867 -0.1502595059636354  0.5536421726558759 0.09853600120850117 -0.1504227151404283  0.4547747763484327 0.1267525664281969 -0.1497384070465002  0.4796726531863703 0.1259550863766428 -0.149930362242654  0.5045934442452472 0.1251556780987477 -0.1501019494670156  0.5295507791431167 0.124337687707968 -0.1502697582486677  0.5545310483409162 0.1234789430396645 -0.1504459877632138  0.4555769761312676 0.1517828774924045 -0.1497186927885939  0.4805108648085717 0.1509704568093563 -0.1499186459217806  0.5054582149651654 0.1501471686782058 -0.1501009893952918  0.5304234751146704 0.1493076263805239 -0.1502796736600401  0.5554005393716898 0.1484498143360612 -0.1504668625512298  0.4563933480937448 0.1767918117936793 -0.1497106783588278  0.481346858485443 0.1759697560302581 -0.1499159862752453  0.5063088227192485 0.1751353411334103 -0.150103848343166  0.5312801254210172 0.1742871628436036 -0.1502886456131497  0.5562583155387466 0.1734304518050781 -0.1504842323557992  0.4572131532245848 0.2017878214537952 -0.1497231960687041  0.4821809015254311 0.200961283522129 -0.1499276541506283  0.5071553145279816 0.2001218643695178 -0.1501113333937342  0.5321337452244777 0.1992702020716658 -0.1502920398102507  0.5571141871246972 0.198413103715448 -0.1504882147933371  0.45 0 -0.125  0.475 0 -0.125  0.5 0 -0.125  0.525 0 -0.125  0.55 0 -0.125  0.451562317781241 0.02591082362488098 -0.1248954048037509  0.4760908451542649 0.02529304307579197 -0.1249700568784334  0.5008442358257111 0.02504499919483294 -0.1250301861893151  0.5258071187702443 0.0248158634028101 -0.1250925045782571  0.5510112142425455 0.02427772622491264 -0.1251571218933477  0.4524891401568967 0.0513339919767507 -0.1248301061549836  0.4771259303211753 0.05061222852296426 -0.1249488815414512  0.5018885035627215 0.05010685070879351 -0.1250528284665772  0.5268327418711416 0.0496093495645231 -0.1251539997548149  0.5519376892182132 0.04885775075688359 -0.1252555922578153  0.4533418552119124 0.07658378717906146 -0.1247823510137372  0.4780926745986951 0.07581778226869514 -0.1249338406121948  0.5029128772140603 0.07514740232100278 -0.125066060070917  0.5278522636328097 0.074466761771821 -0.1251939928820783  0.5528811958254806 0.07363028940736924 -0.125327034197719  0.4541785647281582 0.1017179082580055 -0.1247458360294725  0.4790055403875773 0.1009232260366649 -0.1249196663947485  0.5038779240493817 0.1001617056571192 -0.1250733706250197  0.528821380707671 0.0993803936906289 -0.1252223324077166  0.5538118244910873 0.09851354495219185 -0.125379150301868  0.4549867757056936 0.1267822156555038 -0.1247182755988513  0.4798762689845981 0.1259739003263189 -0.1249081544682767  0.5047886772787822 0.1251613168025011 -0.1250789404436508  0.5297406705286286 0.1243298910320129 -0.1252452804151088  0.5547163548554064 0.1234574222095486 -0.1254203522050245  0.4557942292993017 0.1518090522612885 -0.1247014722580239  0.480722312546242 0.1509873893162555 -0.1249023790162411  0.5056636567647826 0.1501516234923299 -0.1250858243277605  0.530624584888164 0.1492989237671498 -0.1252654907676815  0.5555976805690706 0.148428781667122 -0.1254546642798787  0.4566168145323756 0.1768178099291125 -0.124697297129716  0.4815653462536883 0.1759860834623644 -0.1249057475863071  0.5065225422511767 0.1751392808873491 -0.1250953985026999  0.5314906078642702 0.1742779664433779 -0.1252819503562767  0.5564661333007908 0.1734089763941746 -0.125481363302198  0.4574464897820443 0.2018162038085659 -0.1247164450767907  0.4824089248325124 0.2009777008283396 -0.1249244390542157  0.5073793939242736 0.2001254523053001 -0.1251086037052642  0.5323552787888867 0.1992604556342998 -0.1252896238571058  0.5573341148558963 0.198390050610811 -0.1254896039910521  0.45 0 -0.1  0.475 0 -0.1  0.5 0 -0.1  0
[...]
<PointData  Vectors="Displacement"> 
<DataArray  type="Float64"  Name="Displacement"  NumberOfComponents="3" format="ascii">0.0000000000000000e+00 0.0000000000000000e+00 0.0000000000000000e+00  0.0000000000000000e+00 0.0000000000000000e+00 0.0000000000000000e+00  0.0000000000000000e+00 0.0000000000000000e+00 0.0000000000000000e+00  0.0000000000000000e+00 0.0000000000000000e+00 0.0000000000000000e+00  0.0000000000000000e+00 0.0000000000000000e+00 0.0000000000000000e+00  1.3073490873401279e-03 8.4108770565486063e-04 1.5973006447510000e-04  8.4013773341913979e-04 2.7699186977963447e-04 6.0671801426504128e-05  6.1419667593732002e-04 3.3364175162988823e-06 -1.0319506354564585e-04  5.5961588073932507e-04 -2.6440719452299003e-04 -3.0403171728589872e-04  6.7043117542806821e-04 -7.5896105100967961e-04 -5.0592815928585458e-04  2.0757105320955475e-03 1.2522921559649837e-03 1.5392809746065587e-04  1.7244935460755883e-03 5.8094444612863763e-04 2.8474238560770959e-05  1.5016319136004581e-03 7.7042743162350084e-05 -1.5252445056119712e-04  1.4345768099819764e-03 -4.1897733824455938e-04 -3.5050609002703400e-04  1.4953081870775510e-03 -1.1160302950603553e-03 -5.4909887834833507e-04  2.8379050849821541e-03 1.5168258510857124e-03 1.6480978403121479e-04  2.5960708234056759e-03 7.8956768251691660e-04 1.3935834843699232e-05  2.4326112448076575e-03 1.3732102756158245e-04 -1.6154868921490769e-04  2.3737622744895146e-03 -5.2213317717782356e-04 -3.4003276498579377e-04  2.3951551377143425e-03 -1.3168982847054330e-03 -5.1631803025114055e-04  3.6167062128165898e-03 1.6694842202013066e-03 1.8761770725103663e-04  3.4514796259882585e-03 9.0459029302990528e-04 2.3755197279108416e-05  3.3425441496523554e-03 1.6529964109977487e-04 -1.5019432099942613e-04  3.2967978650549506e-03 -5.9135733225953958e-04 -3.1949007448844424e-04  3.2960850071972773e-03 -1.4263433049241897e-03 -4.8599903737901588e-04  4.3919779591864074e-03 1.7493385818232346e-03 2.2123521505078164e-04  4.2903062279132731e-03 9.6121073553756152e-04 4.3413962279244398e-05  4.2200198492558108e-03 1.7014541550645958e-04 -1.3411272347117135e-04  4.1847701176524563e-03 -6.3805645108332002e-04 -3.0460783255046637e-04  4.1726396101794639e-03 -1.4843715171305391e-03 -4.7344606098872425e-04  5.1778666161629034e-03 1.7808053793640412e-03 2.5018012100808053e-04  5.1162456199350748e-03 9.7584804204558779e-04 6.1916808209861972e-05  5.0722293879640673e-03 1.6080958324827548e-04 -1.2130524681900256e-04  5.0438958255120542e-03 -6.6996661563442823e-04 -2.9798803197189270e-04  5.0259814438145655e-03 -1.5167440341746087e-03 -4.7527971588263361e-04  5.9855673169512654e-03 1.7864783862982295e-03 2.6213967265200912e-04  5.9439587764434200e-03 9.7126124519537568e-04 7.1434010730335234e-05  5.9130142600972912e-03 1.4656085127540922e-04 -1.1428239068350574e-04  5.8882364785108627e-03 -6.9151833479138387e-04 -2.9610860494783391e-04  5.8674805601479718e-03 -1.5373389180533955e-03 -4.8208602426950969e-04  6.8034050050047590e-03 1.7802798208857097e-03 2.6323944620896162e-04  6.7696209875672221e-03 9.5943903826695013e-04 7.3232599653459367e-05  6.7493430712786033e-03 1.3180770002849853e-04 -1.1103609274936812e-04  6.7305580823605899e-03 -7.0717953904446081e-04 -2.9326248231290530e-04  6.7096509392033125e-03 -1.5537773727030565e-03 -4.8375071264871973e-04  0.0000000000000000e+00 0.0000000000000000e+00 0.0000000000000000e+00  0.0000000000000000e+00 0.0000000000000000e+00 0.0000000000000000e+00  0.0000000000000000e+00 0.0000000000000000e+00 0.0000000000000000e+00  0.0000000000000000e+00 0.0000000000000000e+00 0.0000000000000000e+00  0.0000000000000000e+00 0.0000000000000000e+00 0.0000000000000000e+00  1.3283593291476554e-03 8.4586946511215535e-04 1.3004657462450768e-04  9.3658755767084452e-04 2.8741026939398774e-04 3.7051475383790826e-05  7.2815808135967834e-04 3.8722934469683436e-05 -7.1435329336080444e-05  6.9271738460609819e-04 -1.9264262232613475e-04 -1.9911726467721015e-04  8.5567973023430567e-04 -6.8182957233731795e-04 -3.2804783359773379e-04  2.1598866483855824e-03 1.2648095603080569e-03 1.6076351428521911e-04  1.8590284811826371e-03 5.9002913242467967e-04 2.6751797673943962e-05  1.6581237151037040e-03 9.3233768000180832e-05 -1.2055568821609010e-04  1.6028270049782893e-03 -3.9948126673275695e-04 -2.7686723106169916e-04  1.6835701354443965e-03 -1.1080282228900311e-03 -4.3121422128810424e-04  2.9610027723110358e-03 1.5181277973405358e-03 1.8285149596712245e-04  2.7542777073273875e-03 7.8733132702684468e-04 2.4551141938389918e-05  2.6025190420656944e-03 1.3422167407396460e-04 -1.3413600343232729e-04  2.5472516529238933e-03 -5.3122690755383285e-04 -2.9356574349058846e-04  2.5715281255728624e-03 -1.3357386011717740e-03 -4.5579186677940014e-04  3.7665399180349503e-03 1.6627621003751703e-03 2.1013581010315957e-04  3.6243615118910126e-03 8.9373296135486795e-04 3.6551962310933849e-05  3.5188376869626564e-03 1.5302500354397777e-04 -1.2937826378729388e-04  3.4712671708372815e-03 -6.0774881914529247e-04 -2.9180214411852557e-04  3.4676623827186782e-03 -1.4485045085745982e-03 -4.5890062508619487e-04  4.5623388627954705e-03 1.7367838401586703e-03 2.4002136424303871e-04  4.4723636921537475e-03 9.4716899652566187e-04 5.5007759780750125e-05  4.4015010593761892e-03 1.5637505046970038e-04 -1.1955040917333792e-04  4.3629561199576951e-03 -6.5297616108357334e-04 -2.8898618397304581e-04  4.3475712709236313e-03 -1.5025338861830047e-03 -4.6325462254042244e-04  5.3636475154115442e-03 1.7706358760075660e-03 2.6379760440731361e-04  5.3058024845797913e-03 9.6420924361844643e-04 7.0507653613689642e-05  5.2591522331514630e-03 1.4901901940438155e-04 -1.1214268628625719e-04  5.2280337473966584e-03 -6.8187880262198300e-04 -2.8994422246499878e-04  5.2088028921400444e-03 -1.5308174654652099e-03 -4.7282291776059096e-04  6.1777136209983279e-03 1.7799846415336852e-03 2.7447591300546701e-04  6.1375218283038213e-03 9.6375365146506107e-04 7.7123829565745321e-05  6.1039705183511869e-03 1.3739255938959570e-04 -1.0968217331025499e-04  6.0779961992386555e-03 -7.0210216187185297e-04 -2.9296927486650263e-04  6.0584645336392989e-03 -1.5500532021585601e-03 -4.8325772678063048e-04  6.9932691784759353e-03 1.7738984771044567e-03 2.6964253430640501e-04  6.9657627680208669e-03 9.5485946445874714e-04 7.2975470960315178e-05  6.9432875578250199e-03 1.2394549488797354e-04 -1.1159705678874905e-04  6.9239208620767738e-03 -7.1876957770895995e-04 -2.9318437718407720e-04  6.9059180957115416e-03 -1.5672034008568996e-03 -4.8516839880709918e-04  0.0000000000000000e+00 0.0000000000000000e+00 0.0000000000000000e+00  0.0000000000000000e+00 0.0000000000000000e+00 0.0000000000000000e+00  0.0000000000000000e+00 0.0000000000000000e+00 0.0000000000000000e+00  0.0000000000000000e+00 0.0000000000000000e+00 0.0000000000000000e+00  0.0000000000000000e+00 0.0000000000000000e+00 0.0000000000000000e+00  1.4635432501180605e-03 8.7393146711628987e-04 1.1126455892477517e-04  1.0191069441965355e-03 2.8717760078360261e-04 2.1499832294722401e-05  7.8999659950798845e-04 4.3613319650914398e-05 -5.1359891473355192e-05  7.5625253201002025e-04 -1.8253351258598114e-04 -1.3304919843431311e-04  9.4712483825348803e-04 -6.9462410983372460e-04 -2.1575377468801180e-04  2.3360347912595009e-03 1.2925292886114060e-03 1.6577788300836197e-04  1.9982219842951533e-03 5.9758982204424088e-04 3.1550278897391707e-05  1.7788473721325612e-03 1.0107652300533925e-04 -8.7322284594186503e-05  1.7270879731066929e-03 -3.8885148478560229e-04 -2.0940440196341690e-04  1.8248246628608173e-03 -1.1141681874006627e-03 -3.3166673898921682e-04  3.1583926339023636e-03 1.5443268977676089e-03 2.0230480399509394e-04  2.9265552133414673e-03 7.9813123795399851e-04 3.9543417043989082e-05  2.7613003829654323e-03 1.3987587404760759e-04 -1.0241061931190615e-04  2.7057277601554765e-03 -5.2963832421820125e-04 -2.4383528566296491e-04  2.7343082314990773e-03 -1.3454479437044337e-03 -3.9067630255157143e-04  3.9763106651979439e-03 1.6831361966630114e-03 2.3375381829439723e-04  3.8155192627850588e-03 9.0327507451837101e-04 5.3693255092884291e-05  3.6990607981996567e-03 1.5481158439090143e-04 -1.0436043173994311e-04  3.6482196255755582e-03 -6.1353892422132995e-04 -2.5950596363541760e-04  3.6421726558758124e-03 -1.4639987914988313e-03 -4.2271514042823240e-04  4.7747763484326930e-03 1.7525664281969528e-03 2.6159295349986625e-04  4.6726531863701933e-03 9.5508637664278159e-04 6.9637757346028729e-05  4.5934442452473202e-03 1.5567809874767632e-04 -1.0194946701554613e-04  4.5507791431166154e-03 -6.6231229203198309e-04 -2.6975824866765010e-04  4.5310483409159606e-03 -1.5210569603354908e-03 -4.4598776321375561e-04  5.5769761312674899e-03 1.7828774924044419e-03 2.8130721140610075e-04  5.5108648085716548e-03 9.7045680935627370e-04 8.1354078219415205e-05  5.4582149651653282e-03 1.4716867820573735e-04 -1.0098939529178553e-04  5.4234751146703328e-03 -6.9237361947617644e-04 -2.7967366004009303e-04  5.4005393716897625e-03 -1.5501856639388680e-03 -4.6686255122978232e-04  6.3933480937447716e-03 1.7918117936793528e-03 2.8932164117220831e-04  6.3468584854429527e-03 9.6975603025805941e-04 8.4013724754733668e-05  6.3088227192485170e-03 1.3534113341024577e-04 -1.0384834316597423e-04  6.2801254210172871e-03 -7.1283715639642925e-04 -2.8864561314965710e-04  6.2583155387465547e-03 -1.5695481949218615e-03 -4.8423235579919904e-04  7.2131532245848602e-03 1.7878214537951958e-03 2.7680393129588513e-04  7.1809015254309765e-03 9.6128352212896165e-04 7.2345849371763962e-05  7.1553145279814497e-03 1.2186436951782287e-04 -1.1133339373416665e-04  7.1337452244775931e-03 -7.2979792833424641e-04 -2.9203981025073376e-04  7.1141871246971798e-03 -1.5868962845520386e-03 -4.8821479333702986e-04  0.0000000000000000e+00 0.0000000000000000e+00 0.0000000000000000e+00  0.0000000000000000e+00 0.0000000000000000e+00 0.0000000000000000e+00  0.0000000000000000e+00 0.0000000000000000e+00 0.0000000000000000e+00  0.0000000000000000e+00 0.0000000000000000e+00 0.0000000000000000e+00  0.0000000000000000e+00 0.0000000000000000e+00 0.0000000000000000e+00  1.5623177812409455e-03 9.1082362488098642e-04 1.0459519624915248e-04  1.0908451542648505e-03 2.9304307579196834e-04 2.9943121566607598e-05  8.4423582571107030e-04 4.4999194832938737e-05 -3.0186189315052105e-05  8.0711877024439854e-04 -1.8413659718990164e-04 -9.2504578257109020e-05  1.0112142425456254e-03 -7.2227377508736305e-04 -1.5712189334765594e-04  2.4891401568966462e-03 1.3339919767506982e-03 1.6989384501644089e-04  2.1259303211752251e-03 6.1222852296426156e-04 5.1118458548779304e-05  1.8885035627214588e-03 1.0685070879351373e-04 -5.2828466577176949e-05  1.8327418711417077e-03 -3.9065043547690848e-04 -1.5399975481488964e-04  1.9376892182131769e-03 -1.1422492431164201e-03 -2.5559225781529479e-04  3.3418552119123955e-03 1.5837871790614544e-03 2.1764898626274471e-04  3.0926745986950910e-03 8.1778226869512515e-04 6.6159387805264316e-05  2.9128772140603375e-03 1.4740232100276312e-04 -6.6060070916997658e-05  2.8522636328095416e-03 -5.3323822817901258e-04 -1.9399288207829448e-04  2.8811958254804713e-03 -1.3697105926307792e-03 -3.2703419771907291e-04  4.1785647281581961e-03 1.7179082580055475e-03 2.5416397052746516e-04  4.0055403875772291e-03 9.2322603666485938e-04 8.0333605251486386e-05  3.8779240493816941e-03 1.6170565711917168e-04 -7.3370625019737271e-05  3.8213807076710416e-03 -6.1960630937111930e-04 -2.2233240771661234e-04  3.8118244910874044e-03 -1.4864550478081401e-03 -3.7915030186797737e-04  4.9867757056936274e-03 1.7822156555037999e-03 2.8172440114870536e-04  4.8762689845980173e-03 9.7390032631890059e-04 9.1845531723272115e-05  4.7886772787822463e-03 1.6131680250106107e-04 -7.8940443650759006e-05  4.7406705286285895e-03 -6.7010896798706885e-04 -2.4528041510873277e-04  4.7163548554062795e-03 -1.5425777904514069e-03 -4.2035220502445312e-04  5.7942292993017263e-03 1.8090522612884820e-03 2.9852774197605567e-04  5.7223125462419078e-03 9.8738931625542157e-04 9.7620983758941608e-05  5.6636567647825814e-03 1.5162349232991396e-04 -8.5824327760484101e-05  5.6245848881638855e-03 -7.0107623285027175e-04 -2.6549076768153765e-04  5.5976805690704599e-03 -1.5712183328780035e-03 -4.5466427987873393e-04  6.6168145323756049e-03 1.8178099291124743e-03 3.0270287028401626e-04  6.5653462536882081e-03 9.8608346236442107e-04 9.4252413692893301e-05  6.5225422511767314e-03 1.3928088734909859e-04 -9.5398502699893821e-05  6.4906078642700876e-03 -7.2203355662212878e-04 -2.8195035627663362e-04  6.4661333007907003e-03 -1.5910236058254504e-03 -4.8136330219800198e-04  7.4464897820442130e-03 1.8162038085658861e-03 2.8355492320926667e-04  7.4089248325123255e-03 9.7770082833957420e-04 7.5560945784277869e-05  7.3793939242735532e-03 1.2545230530009496e-04 -1.0860370526420884e-04  7.3552787888867006e-03 -7.3954436570021931e-04 -2.8962385710582065e-04  7.3341148558963938e-03 -1.6099493891890428e-03 -4.8960399105206747e-04  0.0000000000000000e+00 0.0000000000000000e+00 0.0000000000000000e+00  0.0000000000000000e+00 0.0000000000000000e+00 0.0000000000000000e+00  0.0000000000000000e+00 0.0000000000000000e+00 0.0000000000000000e+00  0.0000000000000000e+00 0.0000000000000000e+00 0.0000000000000000e+00  0.0000000000000000e+00 0.0000000000000000e+00 0.0000000000000000e+00  1.6382449264800846e-03 9.4862654524070062e-04 1.0605898454531019e-04  1.1487985596521394e-03 3.0216115630228189e-04 4.3602172507651264e-05  8.9237434363293952e-04 4.6666946407912634e-05 -7.6359723751018791e-06  8.5237660109082779e-04 -1.8867521504712848e-04 -5.8595914204909519e-05  1.0636897639463966e-03 -7.5158931208319771e-04 -1.1250342369749871e-04  2.6135079501646060e-03 1.3820310152843080e-03 1.7999997436813099e-04  2.2357549807507085e-03 6.3108397729292590e-04 7.6296883349875373e-05  1.9876168582193248e-03 1.1168625810519125e-04 -1.6768624422743617e-05  1.9279231754269690e-03 -3.9917726607559251e-04 -1.0409504270964310e-04  2.0346718886448093e-03 -1.1798058894901997e-03 -1.9178664785552069e-04  3.5020539745188608e-03 1.6315960738412182e-03 2.3672984440220837e-04  3.2424437458460856e-03 8.4137396379226537e-04 9.7933613909524615e-05  3.0536694852337002e-03 1.5432446618528214e-04 -2.6646030785389797e-05  2.9883532344368580e-03 -5.4314440378157823e-04 -1.4475122752638216e-04  3.0148875617043071e-03 -1.4054789166469141e-03 -2.6663209226990053e-04  4.3645457090518442e-03 1.7612112639365397e-03 2.7735559290538605e-04  4.1836519797327906e-03 9.4751327100759189e-04 1.1212198967086503e-04  4.0487181659756904e-03 1.6947140509669035e-04 -3.8333130219358626e-05  3.9873373775027327e-03 -6.2907085227100997e-04 -1.8278472338453632e-04  3.9735339353589236e-03 -1.5172258431473983e-03 -3.3308531676790872e-04  5.1893856279004802e-03 1.8202112974367861e-03 3.0392316272628584e-04  5.0730797544866514e-03 9.9740348880875867e-04 1.1878662216357984e-04  4.9796981767746152e-03 1.6937243854271177e-04 -5.1952477218077934e-05  4.9273541209298027e-03 -6.7838185257092156e-04 -2.1769753973641007e-04  4.8986646022131392e-03 -1.5682233500194731e-03 -3.9027988537337753e-04  6.0079402271790480e-03 1.8434930997859728e-03 3.1653497046052676e-04  5.9315854496719295e-03 1.0097256637810466e-03 1.1750290004973667e-04  5.8685122654701704e-03 1.5967444396372733e-04 -6.7509179860343829e-05  5.8259670707473728e-03 -7.0827388020363842e-04 -2.4863772263805081e-04  5.7955342330693179e-03 -1.5933220457209577e-03 -4.3800415271812144e-04  6.8403973225899346e-03 1.8516466098388452e-03 3.1524993567214477e-04  6.7849747881420508e-03 1.0081323141655964e-03 1.0696510564869024e-04  6.7385021326607569e-03 1.4741727319945552e-04 -8.4775801509504926e-05  6.7040454024194299e-03 -7.2877200303882509e-04 -2.7350680738862841e-04  6.6773500993614673e-03 -1.6121142315230872e-03 -4.7460113203499655e-04  7.6817903541080233e-03 1.8513252134580019e-03 2.9098172779613689e-04  7.6401726707070348e-03 9.9979243638384984e-04 8.2546567297786403e-05  7.6076448986998431e-03 1.3348692897709462e-04 -1.0375826037880577e-04  7.5818102538351183e-03 -7.4644807737073789e-04 -2.8690494324720364e-04  7.5596848778692119e-03 -1.6321490893842097e-03 -4.8902013006025960e-04  0.0000000000000000e+00 0.0000000000000000e+00 0.0000000000000000e+00  0.0000000000000000e+00 0.0000000000000000e+00 0.0000000000000000e+00  0.0000000000000000e+00 0.0000000000000000e+00 0.0000000000000000e+00  0.0000000000000000e+00 0.0000000000000000e+00 0.0000000000000000e+00  0.0000000000000000e+00 0.0000000000000000e+00 0.0000000000000000e+00  1.7034689039940351e-03 9.8652538364282002e-04 1.0947175048074275e-04  1.1996574327258010e-03 3.1342280989502734e-04 5.5580588428588326e-05  9.3739335815574444e-04 4.8850437975682849e-05 1.4857034898489753e-05  8.9453943892041962e-04 -1.9428454836228665e-04 -2.2608616928262763e-05  1.1077164975677235e-03 -7.8034368638522326e-04 -6.4387073216014406e-05  2.7230515669970094e-03 1.4332760982036829e-03 1.9597794885835968e-04  2.3340555245162193e-03 6.5247683099013058e-04 1.0195274140728565e-04  2.0794333289350301e-03 1.1596593490313485e-04 1.9981867138058455e-05  2.0156917438985738e-03 -4.1177612484183043e-04 -5.2593194432634533e-05  2.1195539667271069e-03 -1.2226054793509327e-03 -1.2628433256820881e-04  3.6481584881483094e-03 1.6833682193281704e-03 2.6387554934470487e-04  3.3796929758571730e-03 8.6677300031598090e-04 1.3218460599464146e-04  3.1850413917403507e-03 1.6035677594848164e-04 1.3866679881432204e-05  3.1154024999385196e-03 -5.5742247500676365e-04 -9.5014441951169721e-05  3.1371604023256697e-03 -1.4487426809185831e-03 -2.0646940064376022e-04  4.5387305647384508e-03 1.8082764312255617e-03 3.0825370875174043e-04  4.3507324357220422e-03 9.7344214435899094e-04 1.4718759496926676e-04  4.2108037070552927e-03 1.7736430003105041e-04 -2.0645132455072389e-06  4.1454932600556715e-03 -6.4065222960211273e-04 -1.4340613610206216e-04  4.1270293429829926e-03 -1.5533132894875188e-03 -2.8809634882598356e-04  5.3831887480023299e-03 1.8619180996880945e-03 3.3191441685295986e-04  5.2617268105375967e-03 1.0228917665174781e-03 1.4869550096187486e-04  5.1643922701367770e-03 1.7910894349907792e-04 -2.3832486776157239e-05  5.1088432933671648e-03 -6.8582089226706651e-04 -1.9038157307166385e-04  5.0763958489787615e-03 -1.5952862772900063e-03 -3.6101363441432677e-04  6.2160856965782591e-03 1.8816047950395039e-03 3.3782024864016885e-04  6.1358132356445078e-03 1.0347248132007633e-03 1.3954571159100688e-04  6.0696727404372730e-03 1.7082813598347905e-04 -4.8261564924626370e-05  6.0247021936719611e-03 -7.1226214908600978e-04 -2.3179623001769447e-04  5.9916270716390326e-03 -1.6133409761457781e-03 -4.2110422250429277e-04  7.0603678268407371e-03 1.8884693220345443e-03 3.2891025226954994e-04  7.0015822762945950e-03 1.0331667161873068e-03 1.2117544477973571e-04  6.9525760626293152e-03 1.5948419495456816e-04 -7.3491417165967506e-05  6.9164901671740367e-03 -7.3090346733672030e-04 -2.6505409178434838e-04  6.8883871239294537e-03 -1.6288211388662346e-03 -4.6659532166101031e-04  7.9133735668085303e-03 1.8883951127523781e-03 2.9996581469137287e-04  7.8684581831236777e-03 1.0250069008928971e-03 9.1586059727927276e-05  7.8341047336028466e-03 1.4597094731471147e-04 -9.8755051505009973e-05  7.8075774257600544e-03 -7.4796603554981112e-04 -2.8579727316410214e-04  7.7854826736244191e-03 -1.6486392768490365e-03 -4.8883145188771075e-04  0.0000000000000000e+00 0.0000000000000000e+00 0.0000000000000000e+00  0.0000000000000000e+00 0.0000000000000000e+00 0.0000000000000000e+00  0.0000000000000000e+00 0.0000000000000000e+00 0.0000000000000000e+00  0.0000000000000000e+00 0.0000000000000000e+00 0.0000000000000000e+00  0.0000000000000000e+00 0.0000000000000000e+00 0.0000000000000000e+00  1.7615683336069895e-03 1.0267204595206172e-03 1.0851581137437813e-04  1.2491877169161433e-03 3.2612350139412278e-04 6.0271314545805119e-05  9.8417102661689558e-04 5.0868668618269517e-05 3.7613868815992227e-05  9.3480949534115317e-04 -2.0114329563392157e-04 2.5332135863207987e-05  1.1399456709799422e-03 -8.0852251982687859e-04 6.6482763444478722e-06  2.8249172056312600e-03 1.485736849031