<?xml version="1.0"?>
<VTKFile type="UnstructuredGrid"  version="0.1"  >
<UnstructuredGrid>
<Piece  NumberOfPoints="405" NumberOfCells="1536">
<Points>
<DataArray  type="Float64"  NumberOfComponents="3"  format="ascii">0.45 0 -0.2  0.475 0 -0.2  0.5 0 -0.2  0.525 0 -0.2  0.55 0 -0.2  0.4537216647460619 0.02825680678092751 -0.1981900046428564  0.4772970717154698 0.02646182487407232 -0.1990212827667389  0.5015651520204276 0.0252494927343017 -0.1999868503734431  0.5263534539596685 0.02393286147782458 -0.2010975906369786  0.5516337823006523 0.02172993094956548 -0.202237426033217  0.4573506940910678 0.05529567812363803 -0.1980633843900875  0.4809090231060109 0.05249533900506989 -0.1990094617154526  0.5050272692529401 0.05023961665182798 -0.2000983788661597  0.5296514169090221 0.04789251477710622 -0.2012680139889798  0.5545619771806999 0.04464530625108264 -0.2024715978489245  0.4617476006686651 0.08137833169133672 -0.1983199655016736  0.4853220072686401 0.07786101229438218 -0.1992085848924084  0.5093834283815026 0.07481394248469553 -0.2001998161674869  0.5338362652650271 0.07165973445735101 -0.2012250251997407  0.5584191236547856 0.06774099901933153 -0.2022480473845389  0.4665219054867045 0.1066817128307119 -0.1986691076497615  0.4901293679930779 0.1026930169003234 -0.1994357241233588  0.5141391370235598 0.09907746428577885 -0.2002816226635675  0.538434137216152 0.09535570059785232 -0.2011384837272917  0.5627746993138992 0.09104944675135596 -0.2019773630596102  0.4713370287609781 0.1314546390326582 -0.1989645738767908  0.495035873223174 0.1271876844541316 -0.1996322695914343  0.5190136923979252 0.1231802480372232 -0.2003527937886675  0.5431873801760525 0.1190896941167075 -0.2010734725637617  0.5673707957385554 0.114595851535223 -0.2017754663227379  0.4760549376508053 0.1558818156967041 -0.1991710748918117  0.4998675878911424 0.1514729077942783 -0.1997844684895368  0.5238523989306874 0.147221900233699 -0.2004203002096364  0.5479520725038641 0.1429158309127083 -0.201048259531969  0.5720467711085327 0.1383602779710909 -0.201665671416129  0.4806460825465199 0.1801065208435557 -0.199315438884806  0.5045725114518559 0.1756386091122091 -0.1999097133858519  0.528587656186882 0.1712591088509376 -0.2004893968178416  0.5526523911498475 0.1668509531578837 -0.2010559779004933  0.5767033853656928 0.1623012566810885 -0.2016333212161369  0.4851687255073476 0.2042297435885375 -0.1994413856370359  0.5091273699919698 0.1997557035039186 -0.2000321952240053  0.5331641635543748 0.1953381950782851 -0.2005582177316341  0.5572446234252189 0.1908893552357565 -0.201066709317797  0.5812999417297313 0.1863452782120782 -0.2016320742674196  0.45 0 -0.175  0.475 0 -0.175  0.5 0 -0.175  0.525 0 -0.175  0.55 0 -0.175  0.4542270140623924 0.02797716306432192 -0.1739031481848399  0.4778687114759197 0.02625499924016074 -0.1744043134621922  0.5021876078097331 0.02518840165177834 -0.1750127255191952  0.5270941987150051 0.02410444444609965 -0.1756918109940253  0.5527305828683616 0.02198771612261009 -0.1763767247124795  0.4580508112228667 0.05509302611519105 -0.1736216590390011  0.4816687509912279 0.05230836713267876 -0.1743144653666819  0.5058414928141789 0.05007156416874434 -0.1751168325601353  0.5305366125285187 0.04773996497943321 -0.1759634367625713  0.5556053601131221 0.04443748888792951 -0.1767711298931635  0.4624556635886246 0.08122857148735219 -0.1736909935299978  0.4861057906117895 0.07769416579314449 -0.1744072707029917  0.5101899793167587 0.07458643723098969 -0.1751991488619676  0.5346522275958085 0.07135794390525596 -0.1760121509801872  0.5592724495480059 0.06738370104362736 -0.1768022508925248  0.4671780922133486 0.1065611824939973 -0.1738652982532582  0.4908630521744172 0.1025384510526838 -0.174546955824194  0.5148759960596012 0.09884249885229313 -0.1752684807129559  0.5391486475145258 0.09503809234289139 -0.1759984127304585  0.5634790434610292 0.09069851840629121 -0.1767187937541078  0.4719441560982061 0.1313374631422575 -0.1740371850654575  0.495707456422603 0.1270384397093131 -0.1746813001092225  0.5196802917332547 0.1229618509930165 -0.1753352763675405  0.5438238277802279 0.1188050856360722 -0.1759895569612485  0.5679828570263026 0.1142917568766033 -0.1766451756325398  0.476644168314187 0.1557612313570274 -0.1741747351329044  0.5004974826793721 0.1513266012961109 -0.174797943174134  0.5244696206280024 0.147024257299279 -0.1754049006444064  0.5485410850225061 0.142669313283328 -0.1760057137418228  0.5726118527173212 0.138098612541829 -0.1766196842457075  0.481245826045797 0.1799820275727666 -0.174289061690498  0.5051840352193038 0.1754981894546412 -0.174906274890142  0.5291763962256988 0.1710791002516477 -0.1754795199532866  0.5532172966300226 0.166627997697293 -0.1760419993264001  0.5772533285976643 0.1620587041095236 -0.1766368634925643  0.4857670722513566 0.2041074797121861 -0.1744227984130074  0.5097524732179399 0.1996235835178062 -0.1750257628286125  0.5337579619073696 0.1951612197411719 -0.1755565860264386  0.5578077291675151 0.1906630889105114 -0.1760765440210639  0.5818538841223647 0.1860963882613201 -0.1766561981430524  0.45 0 -0.15  0.475 0 -0.15  0.5 0 -0.15  0.525 0 -0.15  0.55 0 -0.15  0.4546387617170237 0.0279753708429593 -0.1493527638084743  0.4781387045099185 0.02620019714677137 -0.1496590906786836  0.5024217570076308 0.02516693742537052 -0.1500155969666231  0.5273717339255664 0.02410745492085862 -0.1504110215043648  0.5531390334248126 0.02183502484598461 -0.1508056212117893  0.4586140905306789 0.05501714875149703 -0.1490689008769341  0.482136613896948 0.05221396502031948 -0.1495420722084289  0.5062925451057059 0.05000564485021469 -0.1500869600396658  0.5310491261579608 0.04768442654997019 -0.1506579989908441  0.5562252528085349 0.04428483241316541 -0.1511877138215619  0.4630873196801418 0.08111977046046155 -0.1490212809419347  0.4866793717284003 0.07757507695664877 -0.149570537418749  0.5107552559911135 0.07446927542054847 -0.1501649216722239  0.5352523907806425 0.071226957704856 -0.1507752421708788  0.5599323841537817 0.06721707186357766 -0.1513605735259516  0.4678325503713505 0.1064378461224546 -0.1490676266770498  0.4914813080137436 0.1024033677199154 -0.1496462816501234  0.5154822776466126 0.09868914368079988 -0.1502377338538834  0.5397626186829906 0.0948590786673863 -0.1508372503867847  0.5641141234212951 0.09050848190165561 -0.1514298107395573  0.4726047755112067 0.1312135131942555 -0.1491380010584079  0.4963409192575995 0.1268959299555817 -0.1497318603259686  0.5202961771119208 0.1227905682465781 -0.1503099249944853  0.5444299517655616 0.1186040205938937 -0.1508895091847107  0.5685862346225012 0.1140842129167117 -0.1514770890596441  0.477314720034506 0.1556437044759124 -0.1492094067422564  0.5011408733069289 0.1511820109317995 -0.1498180241014075  0.5250898322933144 0.1468452823189095 -0.1503860973236288  0.5491416749525716 0.1424578447788535 -0.1509496572269942  0.5731962772087172 0.1378751761904429 -0.1515361715670782  0.4819403683055521 0.1798771939603085 -0.1492880132368642  0.505846438330525 0.1753539032434139 -0.1499133281937388  0.5298101467872055 0.1708941198854174 -0.1504683901355728  0.5538251767678988 0.1664060070375783 -0.1510145292086867  0.5778370964460258 0.1618144274465867 -0.1516059812551488  0.4865099514033632 0.2040116806832358 -0.1494268894892296  0.5104556663465986 0.1994743032034932 -0.1500423855881876  0.5344285730925262 0.1949634534071417 -0.1505569843025604  0.5584440764433048 0.190422366456409 -0.1510653758727605  0.5824565883800431 0.1858240859298847 -0.1516475449401351  0.45 0 -0.125  0.475 0 -0.125  0.5 0 -0.125  0.525 0 -0.125  0.55 0 -0.125  0.4548795471947529 0.02802758098517049 -0.1246058751279639  0.4783012239512857 0.02620293460157033 -0.1247878711316255  0.50255764197159 0.0251610336912121 -0.1250032706613038  0.5275235275594458 0.02409101948470233 -0.125244590026975  0.5533430497921463 0.02170452710783367 -0.1254945807717028  0.459001110707521 0.05503959354939757 -0.1243844864629745  0.4824546745198163 0.05219167343175669 -0.1246941189245651  0.5065904516945552 0.0499751919582656 -0.1250514785520677  0.5313706208899759 0.04763088603212924 -0.1254244057617363  0.5565822020893617 0.04412510583360308 -0.1257695374111751  0.4635731100641413 0.08110295337130663 -0.1242879059238737  0.4871174075463349 0.07752080556010045 -0.1246872800620344  0.5111776551263649 0.07439929240881528 -0.1251173625360807  0.5356877338800302 0.07112943626139968 -0.1255559149294809  0.5603848938370325 0.06705328244938959 -0.1259778590259339  0.4683855079970512 0.106391330694729 -0.1242559974656274  0.4920007187244859 0.1023210601646467 -0.1247198207825681  0.5159845910216168 0.09858212726744048 -0.1251908769751723  0.540263189965111 0.09472249327484671 -0.1256652324471237  0.5646157617942925 0.0903307580833439 -0.1261366952221454  0.4732067980766372 0.1311484485880079 -0.1242548758224534  0.4969157602183613 0.1267932167471755 -0.1247707423090348  0.5208494592225719 0.1226553792567059 -0.1252703370705582  0.5449696798650812 0.1184365314188745 -0.1257684727462514  0.5691145284453354 0.1138852144582208 -0.1262761418030164  0.4779615142084908 0.1555707607376695 -0.1242746931984157  0.5017597522504855 0.1510656844521496 -0.1248351502559998  0.5256818841472684 0.1466895003087074 -0.1253560766876136  0.5497117836890633 0.1422655447119999 -0.125870852443785  0.5737460965346693 0.137651504945278 -0.1264095689517399  0.4826395272592559 0.1798051504512365 -0.124324435567518  0.5065112906543168 0.1752276604546336 -0.1249221562293911  0.5304416978242739 0.1707210982501351 -0.1254482658181888  0.5544281821956276 0.1661908227321695 -0.1259648788369005  0.5784131267588335 0.1615625042549647 -0.1265296182487788  0.4872825974597231 0.2039383378524222 -0.1244635717966255  0.511179350345248 0.1993350492582646 -0.1250576362566259  0.5351098692145888 0.1947711855412387 -0.1255463531700766  0.5590896861618151 0.1901820186549993 -0.1260287713501247  0.5830688546331767 0.1855385966520067 -0.1265909447480542  0.45 0 -0.1  0.475 0 -0.
[...]
<PointData  Vectors="Displacement"> 
<DataArray  type="Float64"  Name="Displacement"  NumberOfComponents="3" format="ascii">0.0000000000000000e+00 0.0000000000000000e+00 0.0000000000000000e+00  0.0000000000000000e+00 0.0000000000000000e+00 0.0000000000000000e+00  0.0000000000000000e+00 0.0000000000000000e+00 0.0000000000000000e+00  0.0000000000000000e+00 0.0000000000000000e+00 0.0000000000000000e+00  0.0000000000000000e+00 0.0000000000000000e+00 0.0000000000000000e+00  3.7216647460618351e-03 3.2568067809275081e-03 1.8099953571436677e-03  2.2970717154696691e-03 1.4618248740723198e-03 9.7871723326111251e-04  1.5651520204277060e-03 2.4949273430169598e-04 1.3149626556921981e-05  1.3534539596683421e-03 -1.0671385221754177e-03 -1.0975906369786075e-03  1.6337823006521012e-03 -3.2700690504345225e-03 -2.2374260332170093e-03  7.3506940910677190e-03 5.2956781236380189e-03 1.9366156099125151e-03  5.9090231060108991e-03 2.4953390050698895e-03 9.9053828454749452e-04  5.0272692529400127e-03 2.3961665182797395e-04 -9.8378866159667196e-05  4.6514169090220983e-03 -2.1074852228937747e-03 -1.2680139889798508e-03  4.5619771806999039e-03 -5.3546937489173671e-03 -2.4715978489246019e-03  1.1747600668665059e-02 6.3783316913367119e-03 1.6800344983263281e-03  1.0322007268640002e-02 2.8610122943821684e-03 7.9141510759157330e-04  9.3834283815025458e-03 -1.8605751530448728e-04 -1.9981616748684204e-04  8.8362652650271871e-03 -3.3402655426490258e-03 -1.2250251997407576e-03  8.4191236547854122e-03 -7.2590009806684525e-03 -2.2480473845389688e-03  1.6521905486704402e-02 6.6817128307118919e-03 1.3308923502384797e-03  1.5129367993077927e-02 2.6930169003234103e-03 5.6427587664121257e-04  1.4139137023559826e-02 -9.2253571422117107e-04 -2.8162266356748892e-04  1.3434137216151736e-02 -4.6442994021476842e-03 -1.1384837272916599e-03  1.2774699313899263e-02 -8.9505532486440654e-03 -1.9773630596101985e-03  2.1337028760978129e-02 6.4546390326581972e-03 1.0354261232092417e-03  2.0035873223173913e-02 2.1876844541316334e-03 3.6773040856568121e-04  1.9013692397925285e-02 -1.8197519627767785e-03 -3.5279378866750154e-04  1.8187380176052509e-02 -5.9103058832924741e-03 -1.0734725637615956e-03  1.7370795738555378e-02 -1.0404148464776938e-02 -1.7754663227378463e-03  2.6054937650805295e-02 5.8818156967041218e-03 8.2892510818829567e-04  2.4867587891142535e-02 1.4729077942782175e-03 2.1553151046328848e-04  2.3852398930687253e-02 -2.7780997663010335e-03 -4.2030020963639605e-04  2.2952072503864045e-02 -7.0841690872916882e-03 -1.0482595319689955e-03  2.2046771108532662e-02 -1.1639722028909146e-02 -1.6656714161289491e-03  3.0646082546519886e-02 5.1065208435556505e-03 6.8456111519402715e-04  2.9572511451855962e-02 6.3860911220910198e-04 9.0286614148051177e-05  2.8587656186882020e-02 -3.7408911490624040e-03 -4.8939681784151664e-04  2.7652391149847314e-02 -8.1490468421162830e-03 -1.0559779004932915e-03  2.6703385365692788e-02 -1.2698743318911548e-02 -1.6333212161369433e-03  3.5168725507347565e-02 4.2297435885375019e-03 5.5861436296409121e-04  3.4127369991970004e-02 -2.4429649608139018e-04 -3.2195224005261103e-05  3.3164163554374924e-02 -4.6618049217149122e-03 -5.5821773163412607e-04  3.2244623425218659e-02 -9.1106447642435306e-03 -1.0667093177970152e-03  3.1299941729731308e-02 -1.3654721787921782e-02 -1.6320742674195783e-03  0.0000000000000000e+00 0.0000000000000000e+00 0.0000000000000000e+00  0.0000000000000000e+00 0.0000000000000000e+00 0.0000000000000000e+00  0.0000000000000000e+00 0.0000000000000000e+00 0.0000000000000000e+00  0.0000000000000000e+00 0.0000000000000000e+00 0.0000000000000000e+00  0.0000000000000000e+00 0.0000000000000000e+00 0.0000000000000000e+00  4.2270140623922453e-03 2.9771630643219242e-03 1.0968518151601404e-03  2.8687114759195949e-03 1.2549992401607410e-03 5.9568653780785034e-04  2.1876078097329667e-03 1.8840165177833330e-04 -1.2725519195155248e-05  2.0941987150050437e-03 -8.9555555390035465e-04 -6.9181099402526158e-04  2.7305828683616769e-03 -3.0122838773899200e-03 -1.3767247124795519e-03  8.0508112228666797e-03 5.0930261151910534e-03 1.3783409609989478e-03  6.6687509912278483e-03 2.3083671326787560e-03 6.8553463331819022e-04  5.8414928141791601e-03 7.1564168744335028e-05 -1.1683256013533338e-04  5.5366125285187372e-03 -2.2600350205667905e-03 -9.6343676257133878e-04  5.6053601131220649e-03 -5.5625111120704883e-03 -1.7711298931635251e-03  1.2455663588624636e-02 6.2285714873521513e-03 1.3090064700022801e-03  1.1105790611789554e-02 2.6941657931444747e-03 5.9272929700835851e-04  1.0189979316758649e-02 -4.1356276901031059e-04 -1.9914886196762264e-04  9.6522275958085182e-03 -3.6420560947440571e-03 -1.0121509801871873e-03  9.2724495480058632e-03 -7.6162989563726500e-03 -1.8022508925247599e-03  1.7178092213348529e-02 6.5611824939973444e-03 1.1347017467417209e-03  1.5863052174416997e-02 2.5384510526837820e-03 4.5304417580601303e-04  1.4875996059601267e-02 -1.1575011477068526e-03 -2.6848071295590913e-04  1.4148647514525737e-02 -4.9619076571086095e-03 -9.9841273045853216e-04  1.3479043461029251e-02 -9.3014815937088151e-03 -1.7187937541077868e-03  2.1944156098205950e-02 6.3374631422574764e-03 9.6281493454247768e-04  2.0707456422602966e-02 2.0384397093130661e-03 3.1869989077752854e-04  1.9680291733254664e-02 -2.0381490069835122e-03 -3.3527636754044520e-04  1.8823827780227897e-02 -6.1949143639277969e-03 -9.8955696124845816e-04  1.7982857026302507e-02 -1.0708243123396691e-02 -1.6451756325398649e-03  2.6644168314187009e-02 5.7612313570274140e-03 8.2526486709563469e-04  2.5497482679372144e-02 1.3266012961108545e-03 2.0205682586605308e-04  2.4469620628002380e-02 -2.9757427007210701e-03 -4.0490064440647445e-04  2.3541085022505966e-02 -7.3306867166720571e-03 -1.0057137418227335e-03  2.2611852717320777e-02 -1.1901387458171089e-02 -1.6196842457074099e-03  3.1245826045796895e-02 4.9820275727665607e-03 7.1093830950190830e-04  3.0184035219303604e-02 4.9818945464126193e-04 9.3725109858015671e-05  2.9176396225698661e-02 -3.9208997483524029e-03 -4.7951995328659075e-04  2.8217296630022447e-02 -8.3720023027069844e-03 -1.0419993264000982e-03  2.7253328597664432e-02 -1.2941295890476465e-02 -1.6368634925642894e-03  3.5767072251356571e-02 4.1074797121860964e-03 5.7720158699255564e-04  3.4752473217939998e-02 -3.7641648219380135e-04 -2.5762828612491916e-05  3.3757961907369453e-02 -4.8387802588281343e-03 -5.5658602643860020e-04  3.2807729167515016e-02 -9.3369110894886056e-03 -1.0765440210639321e-03  3.1853884122364652e-02 -1.3903611738679843e-02 -1.6561981430523686e-03  0.0000000000000000e+00 0.0000000000000000e+00 0.0000000000000000e+00  0.0000000000000000e+00 0.0000000000000000e+00 0.0000000000000000e+00  0.0000000000000000e+00 0.0000000000000000e+00 0.0000000000000000e+00  0.0000000000000000e+00 0.0000000000000000e+00 0.0000000000000000e+00  0.0000000000000000e+00 0.0000000000000000e+00 0.0000000000000000e+00  4.6387617170236392e-03 2.9753708429592902e-03 6.4723619152576512e-04  3.1387045099185345e-03 1.2001971467713757e-03 3.4090932131637560e-04  2.4217570076308335e-03 1.6693742537051900e-04 -1.5596966623080750e-05  2.3717339255663935e-03 -8.9254507914137673e-04 -4.1102150436478932e-04  3.1390334248123969e-03 -3.1649751540153820e-03 -8.0562121178926914e-04  8.6140905306789518e-03 5.0171487514970208e-03 9.3109912306596845e-04  7.1366138969479985e-03 2.2139650203194801e-03 4.5792779157110869e-04  6.2925451057058374e-03 5.6448502146876222e-06 -8.6960039665751404e-05  6.0491261579608390e-03 -2.3155734500298147e-03 -6.5799899084414710e-04  6.2252528085347579e-03 -5.7151675868345872e-03 -1.1877138215619395e-03  1.3087319680141745e-02 6.1197704604615492e-03 9.7871905806531522e-04  1.1679371728400277e-02 2.5750769566488013e-03 4.2946258125110495e-04  1.0755255991113466e-02 -5.3072457945153547e-04 -1.6492167222396952e-04  1.0252390780642542e-02 -3.7730422951440194e-03 -7.7524217087870126e-04  9.9323841537814657e-03 -7.7829281364223341e-03 -1.3605735259516684e-03  1.7832550371350606e-02 6.4378461224545635e-03 9.3237332295018256e-04  1.6481308013743496e-02 2.4033677199153734e-03 3.5371834987662560e-04  1.5482277646612844e-02 -1.3108563192001047e-03 -2.3773385388338453e-04  1.4762618682990471e-02 -5.1409213326137184e-03 -8.3725038678468999e-04  1.4114123421294943e-02 -9.4915180983444029e-03 -1.4298107395572012e-03  2.2604775511206609e-02 6.2135131942554845e-03 8.6199894159209173e-04  2.1340919257599504e-02 1.8959299555817762e-03 2.6813967403150376e-04  2.0296177111920891e-02 -2.2094317534219299e-03 -3.0992499448525087e-04  1.9429951765561591e-02 -6.3959794061062836e-03 -8.8950918471068308e-04  1.8586234622501068e-02 -1.0915787083288251e-02 -1.4770890596441104e-03  2.7314720034505847e-02 5.6437044759123445e-03 7.9059325774363993e-04  2.6140873306928891e-02 1.1820109317995668e-03 1.8197589859250427e-04  2.5089832293314553e-02 -3.1547176810905278e-03 -3.8609732362879706e-04  2.4141674952571680e-02 -7.5421552211464866e-03 -9.4965722699417890e-04  2.3196277208717375e-02 -1.2124823809557147e-02 -1.5361715670781262e-03  3.1940368305552053e-02 4.8771939603085559e-03 7.1198676313590447e-04  3.0846438330524875e-02 3.5390324341383236e-04 8.6671806261140924e-05  2.9810146787205422e-02 -4.1058801145825979e-03 -4.6839013557270465e-04  2.8825176767898978e-02 -8.5939929624217464e-03 -1.0145292086866655e-03  2.7837096446025736e-02 -1.3185572553413226e-02 -1.6059812551488877e-03  3.6509951403363175e-02 4.0116806832358439e-03 5.7311051077038209e-04  3.5455666346598309e-02 -5.2569679650681415e-04 -4.2385588187567914e-05  3.4428573092526130e-02 -5.0365465928582601e-03 -5.5698430256041786e-04  3.3444076443304910e-02 -9.5776335435910007e-03 -1.0653758727605014e-03  3.2456588380043221e-02 -1.4175914070115352e-02 -1.6475449401351047e-03  0.0000000000000000e+00 0.0000000000000000e+00 0.0000000000000000e+00  0.0000000000000000e+00 0.0000000000000000e+00 0.0000000000000000e+00  0.0000000000000000e+00 0.0000000000000000e+00 0.0000000000000000e+00  0.0000000000000000e+00 0.0000000000000000e+00 0.0000000000000000e+00  0.0000000000000000e+00 0.0000000000000000e+00 0.0000000000000000e+00  4.8795471947528975e-03 3.0275809851704979e-03 3.9412487203611583e-04  3.3012239512856373e-03 1.2029346015703421e-03 2.1212886837451795e-04  2.5576419715900097e-03 1.6103369121210105e-04 -3.2706613038170588e-06  2.5235275594459724e-03 -9.0898051529767908e-04 -2.4459002697504848e-04  3.3430497921463076e-03 -3.2954728921663302e-03 -4.9458077170276083e-04  9.0011107075209096e-03 5.0395935493975650e-03 6.1551353702546645e-04  7.4546745198163103e-03 2.1916734317566915e-03 3.0588107543489702e-04  6.5904516945551224e-03 -2.4808041734400539e-05 -5.1478552067619637e-05  6.3706208899759736e-03 -2.3691139678707622e-03 -4.2440576173634277e-04  6.5822020893617104e-03 -5.8748941663969243e-03 -7.6953741117502669e-04  1.3573110064141239e-02 6.1029533713066074e-03 7.1209407612627567e-04  1.2117407546334965e-02 2.5208055601004349e-03 3.1271993796567430e-04  1.1177655126364781e-02 -6.0070759118476132e-04 -1.1736253608070135e-04  1.0687733880030085e-02 -3.8705637386003485e-03 -5.5591492948088605e-04  1.0384893837032370e-02 -7.9467175506104278e-03 -9.7785902593398432e-04  1.8385507997051128e-02 6.3913306947290588e-03 7.4400253437263870e-04  1.7000718724485869e-02 2.3210601646466863e-03 2.8017921743191181e-04  1.5984591021616805e-02 -1.4178727325594978e-03 -1.9087697517226348e-04  1.5263189965110923e-02 -5.2775067251533015e-03 -6.6523244712372680e-04  1.4615761794292541e-02 -9.6692419166560847e-03 -1.1366952221453874e-03  2.3206798076637232e-02 6.1484485880078854e-03 7.4512417754664384e-04  2.1915760218361183e-02 1.7932167471754995e-03 2.2925769096520193e-04  2.0849459222572007e-02 -2.3446207432940829e-03 -2.7033707055815594e-04  1.9969679865081209e-02 -6.5634685811254700e-03 -7.6847274625138065e-04  1.9114528445335087e-02 -1.1114785541779155e-02 -1.2761418030163610e-03  2.7961514208490711e-02 5.5707607376694179e-03 7.2530680158428755e-04  2.6759752250485422e-02 1.0656844521495933e-03 1.6484974400018807e-04  2.5681884147268397e-02 -3.3104996912926392e-03 -3.5607668761363014e-04  2.4711783689063252e-02 -7.7344552880001978e-03 -8.7085244378502227e-04  2.3746096534669234e-02 -1.2348495054721994e-02 -1.4095689517398488e-03  3.2639527259255910e-02 4.8051504512364824e-03 6.7556443248197582e-04  3.1511290654316564e-02 2.2766045463364662e-04 7.7843770608923955e-05  3.0441697824274000e-02 -4.2789017498649140e-03 -4.4826581818884653e-04  2.9428182195627584e-02 -8.8091772678305733e-03 -9.6487883690049082e-04  2.8413126758833465e-02 -1.3437495745035269e-02 -1.5296182487787857e-03  3.7282597459723017e-02 3.9383378524222466e-03 5.3642820337450575e-04  3.6179350345248010e-02 -6.6495074173541808e-04 -5.7636256625906399e-05  3.5109869214588751e-02 -5.2288144587613033e-03 -5.4635317007653236e-04  3.4089686161815187e-02 -9.8179813450006911e-03 -1.0287713501247924e-03  3.3068854633176756e-02 -1.4461403347993364e-02 -1.5909447480542140e-03  0.0000000000000000e+00 0.0000000000000000e+00 0.0000000000000000e+00  0.0000000000000000e+00 0.0000000000000000e+00 0.0000000000000000e+00  0.0000000000000000e+00 0.0000000000000000e+00 0.0000000000000000e+00  0.0000000000000000e+00 0.0000000000000000e+00 0.0000000000000000e+00  0.0000000000000000e+00 0.0000000000000000e+00 0.0000000000000000e+00  5.0331854347333005e-03 3.0833181561804013e-03 2.1862519640300984e-04  3.4119920356280838e-03 1.2217110557932221e-03 1.1832793815106140e-04  2.6532218749573283e-03 1.6266072625998592e-04 1.0156782244190888e-05  2.6219460383713816e-03 -9.2549719593157560e-04 -1.1629768524801263e-04  3.4582363246111439e-03 -3.3906423206055366e-03 -2.6477324665140519e-04  9.2739027706466928e-03 5.1068324470783842e-03 3.7604348854278273e-04  7.6859524520280628e-03 2.2074279829356089e-03 1.8878260921936584e-04  6.8062706104764876e-03 -3.9585063296536213e-05 -1.5944537284595106e-05  6.5885288489987356e-03 -2.4226088318416742e-03 -2.3002134781377915e-04  6.7983066553731972e-03 -6.0182288461271913e-03 -4.3795837571785566e-04  1.3948397676598912e-02 6.1520258951986749e-03 4.9205210434157042e-04  1.2457120816806411e-02 2.5152232057534087e-03 2.1855105933907336e-04  1.1501207122184012e-02 -6.4581414964345744e-04 -6.5447663498097378e-05  1.1005664067596942e-02 -3.9628048544924884e-03 -3.5349278999309797e-04  1.0689671244084350e-02 -8.1145991886203816e-03 -6.4040383552958259e-04  1.8844655009246598e-02 6.4130499321566172e-03 5.7533520046392720e-04  1.7429392848890619e-02 2.2879377006642726e-03 2.1996237256526285e-04  1.6394424427726335e-02 -1.4955288735369774e-03 -1.3543585231883741e-04  1.5659603217572895e-02 -5.4033110501853065e-03 -4.9095398386000608e-04  1.4992880295441794e-02 -9.8564568011941800e-03 -8.5080088394612547e-04  2.3736318570014528e-02 6.1432315754723381e-03 6.2845475055813146e-04  2.2416860817336549e-02 1.7334575769583729e-03 1.9710356052705699e-04  2.1328088228636827e-02 -2.4514741504940412e-03 -2.2071977120471605e-04  2.0428907571929788e-02 -6.7178131515892433e-03 -6.3515966528706583e-04  1.9550858374699755e-02 -1.1321616854265113e-02 -1.0595364499665705e-03  2.8554855887895726e-02 5.5443949533045093e-03 6.4739086226100800e-04  2.7323257361155800e-02 9.8334350433655453e-04 1.5011684187872960e-04  2.6218629350364491e-02 -3.4423004778742789e-03 -3.1640181433143291e-04  2.5224604211673766e-02 -7.9140384297598336e-03 -7.7607993894309086e-04  2.4233676204860131e-02 -1.2576808457981542e-02 -1.2557175707386908e-03  3.3297692420580324e-02 4.7651133716522121e-03 6.1945009841827116e-04  3.2134707792216152e-02 1.2609190413339762e-04 7.0487270145213617e-05  3.1032762670351939e-02 -4.4328755650408719e-03 -4.1864129977096194e-04  2.9991183614619457e-02 -9.0129088168970032e-03 -8.9860876625829787e-04  2.8948973471506240e-02 -1.3690903485915036e-02 -1.4206859374423196e-03  3.8018843722826969e-02 3.8843543700332931e-03 4.8635483045025358e-04  3.6868191161301293e-02 -7.8621955243008649e-04 -6.4332534383483895e-05  3.5757535868342551e-02 -5.4047243727987082e-03 -5.2304851214470547e-04  3.4704911443335922e-02 -1.0046819574969043e-02 -9.7532357273871447e-04  3.3655351206391418e-02 -1.4745077500497807e-02 -1.5010523259427347e-03  0.0000000000000000e+00 0.0000000000000000e+00 0.0000000000000000e+00  0.0000000000000000e+00 0.0000000000000000e+00 0.0000000000000000e+00  0.0000000000000000e+00 0.0000000000000000e+00 0.0000000000000000e+00  0.0000000000000000e+00 0.0000000000000000e+00 0.0000000000000000e+00  0.0000000000000000e+00 0.0000000000000000e+00 0.0000000000000000e+00  5.1275991812647082e-03 3.1347548072060247e-03 3.9775788721203919e-05  3.4935327416073547e-03 1.2456215954309486e-03 1.6542887776954173e-05  2.7277545550998660e-03 1.6762671609679971e-04 2.0536808805219167e-05  2.6884842727668791e-03 -9.3977715452917704e-04 1.5631328059888621e-05  3.5119422059479324e-03 -3.4526849377925386e-03 -2.5355775746794659e-05  9.4642588170784671e-03 5.1986142661181265e-03 1.3762473873413998e-04  7.8576354202844409e-03 2.2461811103444335e-03 6.7462131115870615e-05  6.9653669859022528e-03 -4.4539763544321155e-05 1.8362158562181388e-05  6.7318178646708247e-03 -2.4739117588786718e-03 -3.2078037551908266e-05  6.9100821318620106e-03 -6.1397666269119074e-03 -1.0038688267494431e-04  1.4236352633000165e-02 6.2474247731426008e-03 2.7805095885907760e-04  1.2719108219396761e-02 2.5455096406703796e-03 1.2393674417740614e-04  1.1744764595765447e-02 -6.7295853077602261e-04 -1.3627577810129147e-05  1.1227405697256497e-02 -4.0505891549122994e-03 -1.4907856766824650e-04  1.0873422185474898e-02 -8.2785277536207205e-03 -3.0062526716344447e-04  1.9222914877687975e-02 6.4873892143537002e-03 4.1513442566591896e-04  1.7776933288969041e-02 2.2946789763473273e-03 1.6226048010093902e-04  1.6719672609203821e-02 -1.5494585483161231e-03 -7.8715451999403829e-05  1.5960542667091078e-02 -5.5202956016660665e-03 -3.1517164355584121e-04  1.5256952229668899e-02 -1.0046977421074592e-02 -5.6351847823471598e-04  2.4195680684374141e-02 6.1854313941974420e-03 5.1985799808739722e-04  2.2843032901536772e-02 1.7105823777061426e-03 1.6917634382961042e-04  2.1729532905414149e-02 -2.5326027076447784e-03 -1.6846304914050581e-04  2.0805640452819900e-02 -6.8586284323809595e-03 -4.9964367632786267e-04  1.9894819331690405e-02 -1.1529595524339445e-02 -8.4000901470201647e-04  2.9086190918525160e-02 5.5535402919106658e-03 5.7472612934289144e-04  2.7820143990674617e-02 9.3130783411221683e-04 1.4045287531142849e-04  2.6688690284030783e-02 -3.5490575795920341e-03 -2.7274628149202845e-04  2.5670006901964124e-02 -8.0761402997319275e-03 -6.7768701336959878e-04  2.4650752759698358e-02 -1.2799536625029627e-02 -1.0954869143356110e-03  3.3895436460351619e-02 4.7469032367047862e-03 5.6568718373874443e-04  3.2695706372065161e-02 4.7944332475940104e-05 7.0194598170700119e-05  3.1563826541745360e-02 -4.5629878037168128e-03 -3.8353129477961711e-04  3.0497126351215896e-02 -9.1956273403111938e-03 -8.2805941779736194e-04  2.9430403148200585e-02 -1.3930835357811835e-02 -1.3020201598831151e-03  3.8689661788877644e-02 3.8423065027192011e-03 4.4641970451434924e-04  3.7490963087180730e-02 -8.8788799503119380e-04 -5.6637144616724920e-05  3.6344355527239691e-02 -5.5558281274849675e-03 -4.9296871387256999e-04  3.5266360028358992e-02 -1.0249967250423949e-02 -9.2182247262198201e-04  3.4196428224692578e-02 -1.5007230984511677e-02 -1.4062927507538187e-03  0.0000000000000000e+00 0.0000000000000000e+00 0.0000000000000000e+00  0.0000000000000000e+00 0.0000000000000000e+00 0.0000000000000000e+00  0.0000000000000000e+00 0.0000000000000000e+00 0.0000000000000000e+00  0.0000000000000000e+00 0.0000000000000000e+00 0.0000000000000000e+00  0.0000000000000000e+00 0.0000000000000000e+00 0.0000000000000000e+00  5.1489996106508671e-03 3.1872422683158811e-03 -2.2385963052974525e-04  3.5399305333758862e-03 1.2765059336140006e-03 -1.3391919722841513e-04  2.7762049924449422e-03 1.7546850639372518e-04 2.8508043522216442e-05  2.7115551195690856e-03 -9.5143893962365751e-04 1.9634003776737281e-04  3.4795513259436124e-03 -3.4746673992666500e-03 3.20580719