<?xml version="1.0"?>
<VTKFile type="UnstructuredGrid"  version="0.1"  >
<UnstructuredGrid>
<Piece  NumberOfPoints="405" NumberOfCells="1536">
<Points>
<DataArray  type="Float64"  NumberOfComponents="3"  format="ascii">0.45 0 -0.2  0.475 0 -0.2  0.5 0 -0.2  0.525 0 -0.2  0.55 0 -0.2  0.4514805601433835 0.02622349887962714 -0.1994827532924296  0.4759471958533965 0.02546058597956431 -0.1997533841081811  0.5007014031035997 0.02502516944097474 -0.2000742994868404  0.5256685660215525 0.0245877482567469 -0.2004346196722248  0.5508536433808747 0.02384360134019067 -0.2007889869368782  0.4526315451311028 0.05190624123965836 -0.1994488828527  0.477217236431611 0.05087433582651947 -0.1997596272880915  0.5019707197064531 0.05008717105039438 -0.2001210363118803  0.5269223909303349 0.04929779664386493 -0.2004975652053826  0.5520343468948268 0.04821059730994797 -0.2008681930609505  0.4539427404592138 0.0773598696961976 -0.1994817308351616  0.4786407752667277 0.07615832351455784 -0.1997975478761436  0.5034475675539692 0.07512088324327797 -0.2001380504309928  0.5283931461181756 0.07406822962007384 -0.2004795198962127  0.5534399783541697 0.07278506270456105 -0.2008121304777902  0.4553480016959001 0.1026288774408167 -0.1995213819193234  0.480129713918188 0.1013206734517978 -0.199824210251006  0.5049862779451968 0.1001182395653867 -0.2001387344482882  0.5299308550921299 0.09889367371933712 -0.2004472781017756  0.5549338694831111 0.09750884220387557 -0.2007472859260801  0.4567772074634783 0.127765458013452 -0.1995469384989537  0.4816288762508627 0.1263986951325909 -0.1998406223131931  0.5065218697706989 0.1250921026992514 -0.200136147536103  0.5314662309687219 0.1237655651407596 -0.2004239407032244  0.5564412017095992 0.1223379678137382 -0.2007057496694775  0.4582106341418038 0.1528087595977944 -0.1995648384609402  0.4831087754827766 0.1514140049206274 -0.1998526783738012  0.5080282947955327 0.1500519652433639 -0.2001368955221959  0.5329724265721247 0.1486728357122729 -0.2004142158221452  0.5579297471715048 0.1472349082231469 -0.2006895839362463  0.4596409455573192 0.1777951932879768 -0.1995854616649633  0.484565730450034 0.1763922983523377 -0.1998674882231712  0.509500697777035 0.1750059141103011 -0.2001426739400104  0.5344440287456556 0.1736055345188346 -0.2004136325337704  0.5593906379417284 0.1721713085348997 -0.2006894932294821  0.4610548180972318 0.2027541375085459 -0.1996082968676349  0.485986282619271 0.2013511410487834 -0.1998872263334469  0.5109310283786122 0.1999579760174474 -0.2001511398008942  0.535882915149828 0.198552580357051 -0.2004125069487058  0.5608304135562013 0.1971220726380489 -0.2006901777572182  0.45 0 -0.175  0.475 0 -0.175  0.5 0 -0.175  0.525 0 -0.175  0.55 0 -0.175  0.4516466615117334 0.02617976464300547 -0.1746623651727982  0.4761463281756486 0.02543068084063157 -0.1748459872729373  0.5009111716251515 0.0250523961937724 -0.1750520648197322  0.525902807515764 0.02468609722968585 -0.1752792449037575  0.5511708165392375 0.02395538303588839 -0.1754999472811504  0.4528817256394699 0.05190750564600852 -0.1745674532254887  0.4774885410343566 0.05087077905282614 -0.1748238303387569  0.5022564728333089 0.05009579269926125 -0.1751009557202558  0.5272215538679088 0.04931530145999983 -0.1753858587557406  0.552366132732922 0.04821257251622085 -0.1756549045237933  0.4542167489620257 0.07737202614345225 -0.1745529907255704  0.4789356463150977 0.07616135867812886 -0.1748337429888984  0.5037493169421183 0.07511269239664761 -0.1751208096702872  0.5286971989978305 0.07404437150737475 -0.1754070329803392  0.5537492329445133 0.07274572162416343 -0.1756858584358483  0.4556285321525067 0.1026388136207314 -0.1745571766074912  0.4804267890513728 0.1013205549596958 -0.1748437351582059  0.50528434283608 0.100102632997779 -0.1751260368057426  0.5302248916594845 0.09886062340523451 -0.175403737944079  0.5552231822764735 0.0974649324341879 -0.1756799409472105  0.4570599670940867 0.1277682146674675 -0.1745619965723624  0.4819213564427834 0.1263948865137314 -0.1748496263618734  0.5068127270721051 0.1250758071579279 -0.1751278970030419  0.5317517463623505 0.1237359976560492 -0.1754004243651459  0.5567203386179717 0.1223009085858465 -0.1756749106797144  0.4584960418598003 0.152809715209357 -0.1745679492841381  0.4833978123084384 0.1514097161134021 -0.1748559591632787  0.5083141722391763 0.1500377141478182 -0.1751324816207315  0.5332541002722622 0.1486488607273843 -0.1754038008301097  0.5582072323218396 0.1472050827169219 -0.1756800603995025  0.4599269116136354 0.1777968599222155 -0.1745800714926518  0.4848521977397606 0.1763898031473705 -0.1748677093664986  0.5097835234303204 0.1749939684954517 -0.1751414082978874  0.5347251428064841 0.1735842282465886 -0.175411300026411  0.5596717084902783 0.1721441878836769 -0.1756911616559421  0.4613387217964496 0.202756404586968 -0.1746034190934695  0.4862749333442613 0.2013517437541347 -0.1748878956907087  0.5112160790048247 0.1999467293599225 -0.1751531602723505  0.5361664893824666 0.1985291898792686 -0.175415107202352  0.5611165797196739 0.1970933440543314 -0.175694149561916  0.45 0 -0.15  0.475 0 -0.15  0.5 0 -0.15  0.525 0 -0.15  0.55 0 -0.15  0.451836986331026 0.02621607349254241 -0.1497708702507518  0.47626758589371 0.02542512607533495 -0.1499092658323845  0.5010060189431697 0.02505602566977183 -0.1500398944611135  0.5260030657340597 0.02469842548998185 -0.1501810105080524  0.5513162989501248 0.02392796642741615 -0.1503161304129178  0.4531409980319985 0.05193309369123256 -0.1496611913531879  0.477697935599907 0.0508710863456413 -0.1498694126726953  0.5024427390601929 0.05010053719543453 -0.1500756001894933  0.5274161557035851 0.04932548250166699 -0.150284725923527  0.5525908337918983 0.04819576573574282 -0.1504815191349894  0.4545079551600382 0.07739368204070864 -0.1496125298377407  0.4791947442101158 0.07616668516065518 -0.1498598606291117  0.5039921591593808 0.07511343535264962 -0.1500965882144913  0.5289419999565486 0.0740403281728093 -0.1503321325416484  0.5540046336730344 0.07272671591647882 -0.1505634174943888  0.4559332234724095 0.102655544328477 -0.1495888412680808  0.4807107448923892 0.1013267265539182 -0.1498562537545388  0.5055560177367503 0.1000987439036611 -0.15010757544728  0.5304934996762751 0.09884609536587206 -0.1503554257007911  0.5554909814493062 0.09743953873985728 -0.150605617994328  0.4573658808522746 0.1277817736765661 -0.1495753780733925  0.4822153204709909 0.1264005884949402 -0.149854549882508  0.5070977505028911 0.1250692286799226 -0.150115633226178  0.5320318065146287 0.1237166624279707 -0.1503725459111643  0.5569952308016259 0.1222715876062597 -0.1506356552767472  0.4588011681341502 0.1528213799513345 -0.1495704387023243  0.4836958720704742 0.1514143398459399 -0.1498570780772722  0.5086060502547207 0.1500298725989526 -0.1501254849211745  0.5335412088648507 0.1486277515630858 -0.1503899614130597  0.5584888414062138 0.1471734735715002 -0.1506637011528012  0.4602344187772364 0.1778097989315338 -0.1495759848100197  0.4851548364010461 0.1763944403979699 -0.1498678736270592  0.5100817069128397 0.1749856537255992 -0.1501386840797023  0.5350194644815932 0.1735621054472538 -0.1504062346562052  0.5599617770925578 0.1721101999716554 -0.1506885835072088  0.4616530148760022 0.2027729785735508 -0.1496028149862068  0.4865866847974971 0.2013572173035533 -0.149892759434002  0.5115253307713993 0.1999379954828284 -0.1501549952917812  0.5364720047253255 0.1985055684210009 -0.1504139881590872  0.5614179683216096 0.1970565336141835 -0.1506957448527769  0.45 0 -0.125  0.475 0 -0.125  0.5 0 -0.125  0.525 0 -0.125  0.55 0 -0.125  0.4519639133551029 0.02626339642292701 -0.1248276310865707  0.4763572397810363 0.02543265394560217 -0.1249294993359266  0.5010763806007927 0.02505744267392465 -0.1250238000591889  0.5260725856928836 0.02469514686640409 -0.1251223130742802  0.5514078778980331 0.02388488628797612 -0.1252196267562101  0.4533431829955593 0.05198231903037875 -0.1247242375829008  0.4778664489050441 0.05088508465730192 -0.1248886546339664  0.5025912833075141 0.05010467790074977 -0.1250479086805405  0.5275638990969393 0.04931961889361022 -0.1252052460466555  0.5527525896514905 0.04815098667287432 -0.1253550833468599  0.4547560700841187 0.07743685347257821 -0.1246587844526426  0.4794204861665863 0.07618383429850024 -0.1248687599975459  0.5042019178038734 0.07511690985538624 -0.1250669770721912  0.5291484856530247 0.07402999672735749 -0.1252612632611806  0.55421497055143 0.07268756432141697 -0.1254545453109241  0.4562099012249264 0.1026917996903728 -0.1246162963560856  0.4809729706726621 0.1013435264904478 -0.1248573600086426  0.5058061327751651 0.1000999240089355 -0.1250825515459809  0.5307382147290917 0.09883115266117107 -0.1253031647478061  0.5557331082732622 0.09740286888973639 -0.1255281556432489  0.4576584346343386 0.1278122314312753 -0.1245888388399769  0.4824990388527812 0.1264162394954551 -0.1248520655311827  0.5073724384761542 0.1250682834371763 -0.1250975804403278  0.5323005795763008 0.1236985361080065 -0.1253387098955591  0.557258774948759 0.1222355575653412 -0.1255875730985184  0.4591033757064277 0.1528486164475267 -0.1245752686114841  0.4839926409836389 0.1514284287438615 -0.1248540612104519  0.5088963780309238 0.1500272839355176 -0.1251143015379909  0.533826278759829 0.1486076195110049 -0.1253707617037075  0.5587685501943466 0.147136888236978 -0.1256381111113937  0.4605469734659358 0.1778374498519207 -0.1245770750452731  0.4854631163481364 0.1764080963467726 -0.1248666922154295  0.5103849468154494 0.1749820870935102 -0.1251334738051761  0.535318460841507 0.1735403595166876 -0.1253971472931588  0.5602564360852327 0.1720714103593845 -0.125678126948342  0.4619800763354772 0.2028035574099581 -0.1246081935987279  0.4869095239409099 0.201370950207253 -0.1248972913239219  0.5118442102932949 0.1999334555623609 -0.1251552159091572  0.5367873124109289 0.1984819681568891 -0.1254098908844281  0.5617298640796761 0.1970138926465986 -0.1256913497823662  0.45 0 -0.1  0.475 0 -0.1  0.5 0 -
[...]
<PointData  Vectors="Displacement"> 
<DataArray  type="Float64"  Name="Displacement"  NumberOfComponents="3" format="ascii">0.0000000000000000e+00 0.0000000000000000e+00 0.0000000000000000e+00  0.0000000000000000e+00 0.0000000000000000e+00 0.0000000000000000e+00  0.0000000000000000e+00 0.0000000000000000e+00 0.0000000000000000e+00  0.0000000000000000e+00 0.0000000000000000e+00 0.0000000000000000e+00  0.0000000000000000e+00 0.0000000000000000e+00 0.0000000000000000e+00  1.4805601433834192e-03 1.2234988796271352e-03 5.1724670757044046e-04  9.4719585339646001e-04 4.6058597956431118e-04 2.4661589181886561e-04  7.0140310359969791e-04 2.5169440974738230e-05 -7.4299486840345843e-05  6.6856602155240894e-04 -4.1225174325309550e-04 -4.3461967222477137e-04  8.5364338087471063e-04 -1.1563986598093331e-03 -7.8898693687814525e-04  2.6315451311027700e-03 1.9062412396583554e-03 5.5111714730001057e-04  2.2172364316110390e-03 8.7433582651946697e-04 2.4037271190851381e-04  1.9707197064530823e-03 8.7171050394369690e-05 -1.2103631188027429e-04  1.9223909303349408e-03 -7.0220335613507519e-04 -4.9756520538256994e-04  2.0343468948267451e-03 -1.7894026900520377e-03 -8.6819306095056324e-04  3.9427404592138433e-03 2.3598696961975780e-03 5.1826916483838255e-04  3.6407752667276020e-03 1.1583235145578329e-03 2.0245212385642354e-04  3.4475675539691352e-03 1.2088324327796310e-04 -1.3805043099269701e-04  3.3931461181755025e-03 -9.3177037992618692e-04 -4.7951989621271393e-04  3.4399783541695043e-03 -2.2149372954389460e-03 -8.1213047779019878e-04  5.3480016959000986e-03 2.6288774408166930e-03 4.7861808067658595e-04  5.1297139181879867e-03 1.3206734517978156e-03 1.7578974899405526e-04  4.9862779451968252e-03 1.1823956538668383e-04 -1.3873444828819381e-04  4.9308550921299170e-03 -1.1063262806628917e-03 -4.4727810177556509e-04  4.9338694831111132e-03 -2.4911577961244545e-03 -7.4728592608008077e-04  6.7772074634783732e-03 2.7654580134519832e-03 4.5306150104633549e-04  6.6288762508626134e-03 1.3986951325908460e-03 1.5937768680697096e-04  6.5218697706989123e-03 9.2102699251435122e-05 -1.3614753610299713e-04  6.4662309687219975e-03 -1.2344348592404166e-03 -4.2394070322435216e-04  6.4412017095990285e-03 -2.6620321862617304e-03 -7.0574966947745132e-04  8.2106341418038218e-03 2.8087595977944213e-03 4.3516153905983192e-04  8.1087754827766385e-03 1.4140049206273490e-03 1.4732162619886824e-04  8.0282947955324507e-03 5.1965243363926892e-05 -1.3689552219586212e-04  7.9724265721245902e-03 -1.3271642877271807e-03 -4.1421582214516429e-04  7.9297471715046620e-03 -2.7650917768531195e-03 -6.8958393624623344e-04  9.6409455573190847e-03 2.7951932879767948e-03 4.1453833503671977e-04  9.5657304500340410e-03 1.3922983523377403e-03 1.3251177682883873e-04  9.5006977770350637e-03 5.9141103011255022e-06 -1.4267394001038004e-04  9.4440287456553397e-03 -1.3944654811653980e-03 -4.1363253377044558e-04  9.3906379417283761e-03 -2.8286914651003210e-03 -6.8949322948211561e-04  1.1054818097231790e-02 2.7541375085458411e-03 3.9170313236511846e-04  1.0986282619270966e-02 1.3511410487834607e-03 1.1277366655308574e-04  1.0931028378612219e-02 -4.2023982552562831e-05 -1.5113980089425234e-04  1.0882915149827924e-02 -1.4474196429490121e-03 -4.1250694870577164e-04  1.0830413556201273e-02 -2.8779273619510483e-03 -6.9017775721815606e-04  0.0000000000000000e+00 0.0000000000000000e+00 0.0000000000000000e+00  0.0000000000000000e+00 0.0000000000000000e+00 0.0000000000000000e+00  0.0000000000000000e+00 0.0000000000000000e+00 0.0000000000000000e+00  0.0000000000000000e+00 0.0000000000000000e+00 0.0000000000000000e+00  0.0000000000000000e+00 0.0000000000000000e+00 0.0000000000000000e+00  1.6466615117333770e-03 1.1797646430054662e-03 3.3763482720181563e-04  1.1463281756485270e-03 4.3068084063156562e-04 1.5401272706266900e-04  9.1117162515142705e-04 5.2396193772397553e-05 -5.2064819732104043e-05  9.0280751576391177e-04 -3.1390277031415048e-04 -2.7924490375754238e-04  1.1708165392374996e-03 -1.0446169641116169e-03 -4.9994728115037765e-04  2.8817256394698238e-03 1.9075056460085113e-03 4.3254677451133692e-04  2.4885410343565327e-03 8.7077905282614539e-04 1.7616966124310679e-04  2.2564728333089755e-03 9.5792699261242843e-05 -1.0095572025577032e-04  2.2215538679089025e-03 -6.8469854000018397e-04 -3.8585875574065315e-04  2.3661327329220190e-03 -1.7874274837791613e-03 -6.5490452379329161e-04  4.2167489620257171e-03 2.3720261434522247e-03 4.4700927442964860e-04  3.9356463150976902e-03 1.1613586781288512e-03 1.6625701110160076e-04  3.7493169421184093e-03 1.1269239664761265e-04 -1.2080967028718324e-04  3.6971989978305353e-03 -9.5562849262527676e-04 -4.0703298033917886e-04  3.7492329445131503e-03 -2.2542783758365895e-03 -6.8585843584829877e-04  5.6285321525067012e-03 2.6388136207313858e-03 4.4282339250879187e-04  5.4267890513726895e-03 1.3205549596957554e-03 1.5626484179415856e-04  5.2843428360801392e-03 1.0263299777899444e-04 -1.2603680574255980e-04  5.2248916594844434e-03 -1.1393765947654993e-03 -4.0373794407898305e-04  5.2231822764735323e-03 -2.5350675658121213e-03 -6.7994094721051074e-04  7.0599670940866876e-03 2.7682146674675285e-03 4.3800342763765875e-04  6.9213564427833890e-03 1.3948865137313618e-03 1.5037363812661424e-04  6.8127270721052291e-03 7.5807157927944527e-05 -1.2789700304186006e-04  6.7517463623504251e-03 -1.2640023439508155e-03 -4.0042436514592633e-04  6.7203386179715821e-03 -2.6990914141535025e-03 -6.7491067971438615e-04  8.4960418598002598e-03 2.8097152093570052e-03 4.3205071586192178e-04  8.3978123084383714e-03 1.4097161134021315e-03 1.4404083672135776e-04  8.3141722391762551e-03 3.7714147818126647e-05 -1.3248162073150363e-04  8.2541002722620969e-03 -1.3511392726156626e-03 -4.0380083010964655e-04  8.2072323218393417e-03 -2.7949172830781435e-03 -6.8006039950241110e-04  9.9269116136354064e-03 2.7968599222154876e-03 4.1992850734813537e-04  9.8521977397605463e-03 1.3898031473705622e-03 1.3229063350138370e-04  9.7835234303203407e-03 -6.0315045483535073e-06 -1.4140829788738881e-04  9.7251428064840540e-03 -1.4157717534114080e-03 -4.1130002641096036e-04  9.6717084902782479e-03 -2.8558121163231075e-03 -6.9116165594204084e-04  1.1338721796449611e-02 2.7564045869680051e-03 3.9658090653046962e-04  1.1274933344261258e-02 1.3517437541346611e-03 1.1210430929130728e-04  1.1216079004824631e-02 -5.3270640077460174e-05 -1.5316027235050134e-04  1.1166489382466518e-02 -1.4708101207314497e-03 -4.1510720235195351e-04  1.1116579719673869e-02 -2.9066559456685640e-03 -6.9414956191595769e-04  0.0000000000000000e+00 0.0000000000000000e+00 0.0000000000000000e+00  0.0000000000000000e+00 0.0000000000000000e+00 0.0000000000000000e+00  0.0000000000000000e+00 0.0000000000000000e+00 0.0000000000000000e+00  0.0000000000000000e+00 0.0000000000000000e+00 0.0000000000000000e+00  0.0000000000000000e+00 0.0000000000000000e+00 0.0000000000000000e+00  1.8369863310260196e-03 1.2160734925424029e-03 2.2912974924824161e-04  1.2675858937099421e-03 4.2512607533495123e-04 9.0734167615497452e-05  1.0060189431697075e-03 5.6025669771826969e-05 -3.9894461113513646e-05  1.0030657340597095e-03 -3.0157451001815356e-04 -1.8101050805238288e-04  1.3162989501246639e-03 -1.0720335725838469e-03 -3.1613041291781449e-04  3.1409980319985343e-03 1.9330936912325572e-03 3.3880864681215165e-04  2.6979355999069308e-03 8.7108634564129583e-04 1.3058732730472354e-04  2.4427390601928669e-03 1.0053719543451964e-04 -7.5600189493308693e-05  2.4161557035850341e-03 -6.7451749833301799e-04 -2.8472592352700758e-04  2.5908337918981754e-03 -1.8042342642571711e-03 -4.8151913498940802e-04  4.5079551600381781e-03 2.3936820407086342e-03 3.8747016225928045e-04  4.1947442101157462e-03 1.1666851606551868e-03 1.4013937088837154e-04  3.9921591593808127e-03 1.1343535264961414e-04 -9.6588214491280088e-05  3.9419999565486388e-03 -9.5967182719071875e-04 -3.3213254164839379e-04  4.0046336730343414e-03 -2.2732840835211930e-03 -5.6341749438873869e-04  5.9332234724094827e-03 2.6555443284769806e-03 4.1115873191916656e-04  5.7107448923891316e-03 1.3267265539181792e-03 1.4374624546124008e-04  5.5560177367504496e-03 9.8743903661055693e-05 -1.0757544727996616e-04  5.4934996762749525e-03 -1.1539046341279371e-03 -3.5542570079104713e-04  5.4909814493060592e-03 -2.5604612601427207e-03 -6.0561799432791333e-04  7.3658808522746172e-03 2.7817736765660852e-03 4.2462192660752224e-04  7.2153204709907897e-03 1.4005884949402365e-03 1.4545011749204106e-04  7.0977505028911375e-03 6.9228679922619517e-05 -1.1563322617793145e-04  7.0318065146286555e-03 -1.2833375720293261e-03 -3.7254591116424058e-04  6.9952308016256945e-03 -2.7284123937402526e-03 -6.3565527674722805e-04  8.8011681341501544e-03 2.8213799513345200e-03 4.2956129767573081e-04  8.6958720704741668e-03 1.4143398459399196e-03 1.4292192272779097e-04  8.6060502547206687e-03 2.9872598952509817e-05 -1.2548492117449303e-04  8.5412088648506891e-03 -1.3722484369142033e-03 -3.8996141305972339e-04  8.4888414062137766e-03 -2.8265264284998387e-03 -6.6370115280113768e-04  1.0234418777236291e-02 2.8097989315337790e-03 4.2401518998037401e-04  1.0154836401046039e-02 1.3944403979698223e-03 1.3212637294080849e-04  1.0081706912839722e-02 -1.4346274400769420e-05 -1.3868407970223383e-04  1.0019464481593302e-02 -1.4378945527462525e-03 -4.0623465620516556e-04  9.9617770925577026e-03 -2.8898000283445373e-03 -6.8858350720885997e-04  1.1653014876002191e-02 2.7729785735507479e-03 3.9718501379320414e-04  1.1586684797496942e-02 1.3572173035532873e-03 1.0724056599804861e-04  1.1525330771399172e-02 -6.2004517171660272e-05 -1.5499529178122183e-04  1.1472004725325514e-02 -1.4944315789991078e-03 -4.1398815908720072e-04  1.1417968321609654e-02 -2.9434663858165450e-03 -6.9574485277682646e-04  0.0000000000000000e+00 0.0000000000000000e+00 0.0000000000000000e+00  0.0000000000000000e+00 0.0000000000000000e+00 0.0000000000000000e+00  0.0000000000000000e+00 0.0000000000000000e+00 0.0000000000000000e+00  0.0000000000000000e+00 0.0000000000000000e+00 0.0000000000000000e+00  0.0000000000000000e+00 0.0000000000000000e+00 0.0000000000000000e+00  1.9639133551028580e-03 1.2633964229270182e-03 1.7236891342935372e-04  1.3572397810362863e-03 4.3265394560216679e-04 7.0500664073403559e-05  1.0763806007926839e-03 5.7442673924651134e-05 -2.3800059188906132e-05  1.0725856928837062e-03 -3.0485313359591526e-04 -1.2231307428021737e-04  1.4078778980332468e-03 -1.1151137120238885e-03 -2.1962675621008178e-04  3.3431829955592619e-03 1.9823190303787405e-03 2.7576241709914996e-04  2.8664489050440997e-03 8.8508465730191912e-04 1.1134536603358243e-04  2.5912833075141047e-03 1.0467790074977708e-04 -4.7908680540479218e-05  2.5638990969394878e-03 -6.8038110638978726e-04 -2.0524604665551205e-04  2.7525896514905318e-03 -1.8490133271256903e-03 -3.5508334685987200e-04  4.7560700841186125e-03 2.4368534725782058e-03 3.4121554735735721e-04  4.4204861665862799e-03 1.1838342985002401e-03 1.3124000245414526e-04  4.2019178038733406e-03 1.1690985538622218e-04 -6.6977072191184487e-05  4.1484856530246217e-03 -9.7000327264252725e-04 -2.6126326118058489e-04  4.2149705514299089e-03 -2.3124356785830373e-03 -4.5454531092416146e-04  6.2099012249264536e-03 2.6917996903728487e-03 3.8370364391439207e-04  5.9729706726621033e-03 1.3435264904478029e-03 1.4263999135741558e-04  5.8061327751651069e-03 9.9924008935501591e-05 -8.2551545980924293e-05  5.7382147290916622e-03 -1.1688473388289469e-03 -3.0316474780616354e-04  5.7331082732622078e-03 -2.5971311102636011e-03 -5.2815564324891961e-04  7.6584346343385665e-03 2.8122314312752595e-03 4.1116116002310528e-04  7.4990388527811204e-03 1.4162394954550569e-03 1.4793446881725483e-04  7.3724384761543055e-03 6.8283437176260332e-05 -9.7580440327754196e-05  7.3005795763008505e-03 -1.3014638919934558e-03 -3.3870989555908872e-04  7.2587749487588336e-03 -2.7644424346587914e-03 -5.8757309851843417e-04  9.1033757064276667e-03 2.8486164475266958e-03 4.2473138851587390e-04  8.9926409836387240e-03 1.4284287438614779e-03 1.4593878954816280e-04  8.8963780309237010e-03 2.7283935517630115e-05 -1.1430153799092495e-04  8.8262787598289601e-03 -1.3923804889950941e-03 -3.7076170370753240e-04  8.7685501943464712e-03 -2.8631117630220351e-03 -6.3811111139369604e-04  1.0546973465935802e-02 2.8374498519207264e-03 4.2292495472689225e-04  1.0463116348136330e-02 1.4080963467725787e-03 1.3330778457051938e-04  1.0384946815449547e-02 -1.7912906489881467e-05 -1.3347380517608003e-04  1.0318460841507004e-02 -1.4596404833124347e-03 -3.9714729315883432e-04  1.0256436085232625e-02 -2.9285896406155264e-03 -6.7812694834192737e-04  1.1980076335477078e-02 2.8035574099580900e-03 3.9180640127205922e-04  1.1909523940909831e-02 1.3709502072530410e-03 1.0270867607804785e-04  1.1844210293294893e-02 -6.6544437639117700e-05 -1.5521590915720126e-04  1.1787312410928954e-02 -1.5180318431108786e-03 -4.0989088442814654e-04  1.1729864079676144e-02 -2.9861073534014084e-03 -6.9134978236616118e-04  0.0000000000000000e+00 0.0000000000000000e+00 0.0000000000000000e+00  0.0000000000000000e+00 0.0000000000000000e+00 0.0000000000000000e+00  0.0000000000000000e+00 0.0000000000000000e+00 0.0000000000000000e+00  0.0000000000000000e+00 0.0000000000000000e+00 0.0000000000000000e+00  0.0000000000000000e+00 0.0000000000000000e+00 0.0000000000000000e+00  2.0574033276466717e-03 1.3094392360177519e-03 1.3750499137717858e-04  1.4270801076471319e-03 4.4458251981730054e-04 6.1550380839068796e-05  1.1355320722407779e-03 5.9528701874839332e-05 -5.7427972030329094e-06  1.1299753289691495e-03 -3.1158759362249827e-04 -7.5071237440893688e-05  1.4763459145382318e-03 -1.1567783503479720e-03 -1.4828484283935711e-04  3.5009634983210768e-03 2.0419269543210470e-03 2.3390737968777414e-04  3.0051068946811144e-03 9.0699509847093904e-04 1.0429418485066777e-04  2.7181956962223828e-03 1.0853383695466843e-04 -1.8170769087801163e-05  2.6880980533670307e-03 -6.9486247931450310e-04 -1.3644509797252943e-04  2.8805528385806092e-03 -1.9042587005963034e-03 -2.5333515196113691e-04  4.9643749959199816e-03 2.4957153272632941e-03 3.0859209195988085e-04  4.6155713337542297e-03 1.2095749206212194e-03 1.3140151157276542e-04  4.3869993595141328e-03 1.2078343210520313e-04 -3.3976196618055287e-05  4.3291847681586806e-03 -9.8888122760133236e-04 -1.9394706108095619e-04  4.3935213230306084e-03 -2.3674238135990085e-03 -3.5679257139295762e-04  6.4559978676770559e-03 2.7442989269538722e-03 3.6369571144643088e-04  6.2099294751498425e-03 1.3688541659121181e-03 1.4830163974698565e-04  6.0348492749504080e-03 1.0296968789340292e-04 -5.3279633595145482e-05  5.9616221065272035e-03 -1.1891315007932978e-03 -2.4956554027836468e-04  5.9514632347533727e-03 -2.6472704628096679e-03 -4.5164307918822856e-04  7.9306657552083888e-03 2.8575517085903494e-03 4.0081059825581076e-04  7.7651292211867650e-03 1.4398270774566393e-03 1.5532141021811906e-04  7.6319184460051353e-03 7.0525798344119836e-05 -7.5450545394825213e-05  7.5548321865250290e-03 -1.3215858817917777e-03 -3.0165343752931452e-04  7.5073332063892925e-03 -2.8092060016966097e-03 -5.3545342832587604e-04  9.3943431601772650e-03 2.8889274256530813e-03 4.1952179865883856e-04  9.2791869522526015e-03 1.4501631514704221e-03 1.5192111216562383e-04  9.1777722440797484e-03 2.8798671667080909e-05 -9.9969697976332050e-05  9.1031983237800391e-03 -1.4121226763659388e-03 -3.4819739338854067e-04  9.0404789047868681e-03 -2.9042899829123921e-03 -6.0659503803816455e-04  1.0854442757436527e-02 2.8762368508102546e-03 4.1858370472951963e-04  1.0766606383418359e-02 1.4289598214234278e-03 1.3585742882503898e-04  1.0684066517487415e-02 -1.6975571400976091e-05 -1.2626078373479329e-04  1.0614105230831929e-02 -1.4797020201291961e-03 -3.8549817453400743e-04  1.0548491811091690e-02 -2.9693918989217925e-03 -6.6139045047467675e-04  1.2305652224960422e-02 2.8430434207583660e-03 3.8395600551485487e-04  1.2230837605426110e-02 1.3911768372324726e-03 1.0033823806529706e-04  1.2161811675583846e-02 -6.6557502668053998e-05 -1.5390980199316034e-04  1.2102390275236912e-02 -1.5393184630236164e-03 -4.0506666734786538e-04  1.2042916087603694e-02 -3.0294349778836106e-03 -6.8272549144817135e-04  0.0000000000000000e+00 0.0000000000000000e+00 0.0000000000000000e+00  0.0000000000000000e+00 0.0000000000000000e+00 0.0000000000000000e+00  0.0000000000000000e+00 0.0000000000000000e+00 0.0000000000000000e+00  0.0000000000000000e+00 0.0000000000000000e+00 0.0000000000000000e+00  0.0000000000000000e+00 0.0000000000000000e+00 0.0000000000000000e+00  2.1313378825958212e-03 1.3526953917458371e-03 1.0266849286856850e-04  1.4866515713802468e-03 4.5863621621133085e-04 4.9790690455484930e-05  1.1896819461192289e-03 6.2215630267527309e-05 1.1868744636666025e-05  1.1810772502561726e-03 -3.1926305443831022e-04 -2.5308593938782568e-05  1.5285034434197517e-03 -1.1945480646225895e-03 -7.2253055044882214e-05  3.6309063259176116e-03 2.1061519859590203e-03 1.9591583326367443e-04  3.1242558744573636e-03 9.3363510899395030e-04 9.6777403445093412e-05  2.8311046677972989e-03 1.1235183548403202e-04 1.1874068921903524e-05  2.7964295420927175e-03 -7.1428375364328994e-04 -6.5859983292318127e-05  2.9833997872353432e-03 -1.9641620107532054e-03 -1.4937237812150488e-04  5.1441316579781292e-03 2.5637573997185250e-03 2.8268045324394031e-04  4.7870674667548196e-03 1.2409119626490238e-03 1.3343200404421102e-04  4.5524340809428342e-03 1.2476170872355750e-04 -2.9090284969218400e-07  4.4893181518202161e-03 -1.0136192594720661e-03 -1.2635249930708026e-04  4.5458696011594669e-03 -2.4323473148662655e-03 -2.5941917523529588e-04  6.6769713147004969e-03 2.8070945872054431e-03 3.5070137875731135e-04  6.4242563883810631e-03 1.3998529763197176e-03 1.5698143833324472e-04  6.2436578302771844e-03 1.0735030240177651e-04 -2.3107287811053823e-05  6.1653399519241139e-03 -1.2129405767705151e-03 -1.9655006330400002e-04  6.1478628476035876e-03 -2.7063428231199164e-03 -3.7663124059016405e-04  8.1831367875347220e-03 2.9125059175371883e-03 3.9586403602666386e-04  8.0125946145094031e-03 1.4688116728907440e-03 1.6563111465231977e-04  7.8746869047661948e-03 7.5627123745864399e-05 -5.2406027718321100e-05  7.7932724417501343e-03 -1.3417882493043409e-03 -2.6526674961936756e-04  7.7399306115809516e-03 -2.8586129106605387e-03 -4.8448391786100185e-04  9.6710593396040264e-03 2.9373067944052427e-03 4.1710026338834418e-04  9.5518125515868853e-03 1.4770498828381954e-03 1.6004630515909304e-04  9.4464769892610885e-03 3.4462966284198824e-05 -8.4840116976566055e-05  9.3685020245288676e-03 -1.4289442380216637e-03 -3.2591281072945170e-04  9.3016211045631042e-03 -2.9453924735799537e-03 -5.7481024330694255e-04  1.1151195566842536e-02 2.9209004263004057e-03 4.1469085029272615e-04  1.1059339306817876e-02 1.4545182224968429e-03 1.3994904715549072e-04  1.0973275020555761e-02 -1.1159768830859013e-05 -1.1846817902695792e-04  1.0900887572606596e-02 -1.4948584119023639e-03 -3.7406475747087028e-04  1.0832906611836854e-02 -3.0064470952086662e-03 -6.4298806186177736e-04  1.2621491390418297e-02 2.8862319957516582e-03 3.7778574356762018e-04  1.2541947514161158e-02 1.4156057310816645e-03 1.0072279639779736e-04  1.2469803216368236e-02 -6.1264473953322933e-05 -1.5248485502081566e-04  1.2409128811898729e-02 -1.5544422821631447e-03 -4.0267624052408104e-04  1.2349469434220228e-02 -3.0666016022049768e-03 -6.7476400536939276e-04  0.0000000000000000e+00 0.0000000000000000e+00 0.0000000000000000e+00  0.0000000000000000e+00 0.0000000000000000e+00 0.0000000000000000e+00  0.0000000000000000e+00 0.0000000000000000e+00 0.0000000000000000e+00  0.0000000000000000e+00 0.0000000000000000e+00 0.0000000000000000e+00  0.0000000000000000e+00 0.0000000000000000e+00 0.0000000000000000e+00  2.1842395128926859e-03 1.3945312097216514e-03 4.5096803238802067e-05  1.5385134760495819e-03 4.7422310217228378e-04 2.1951965442654048e-05  1.2414564985030923e-03 6.4751161741724401e-05 2.8467287597933648e-05  1.2246693911738733e-03 -3.2807669102047761e-04 4.2293092373330193e-05  1.5571160640537908e-03 -1.2275811770850408e-03 4.0681170303679503e-05  3.7340637342419374e-03 2.