<?xml version="1.0"?>
<VTKFile type="UnstructuredGrid"  version="0.1"  >
<UnstructuredGrid>
<Piece  NumberOfPoints="405" NumberOfCells="1536">
<Points>
<DataArray  type="Float64"  NumberOfComponents="3"  format="ascii">0.45 0 -0.2  0.475 0 -0.2  0.5 0 -0.2  0.525 0 -0.2  0.55 0 -0.2  0.453543323792572 0.02805894121885691 -0.1983948773908364  0.4771945395992045 0.02632499731931936 -0.1991494173960815  0.5015145135969067 0.02519820222254428 -0.2000281271337742  0.5263326321052045 0.02399095689437021 -0.201035141780976  0.5516279143124951 0.02195699115006606 -0.2020597514562682  0.4569196297607978 0.05495264499923973 -0.1983215698193156  0.4805759537030846 0.05230303703580513 -0.1991614383201146  0.5047628251775366 0.05020731828073748 -0.2001385857567306  0.5294373978488559 0.04804366976732803 -0.2011863996792457  0.5544061661393401 0.04503825082749399 -0.2022601561394387  0.4609739965368603 0.08099656923315268 -0.1985719854504008  0.4846682253618487 0.07770120087208465 -0.1993505411399586  0.5088184618020467 0.07487272910669505 -0.200227805643535  0.5333481853410567 0.07195779532891992 -0.2011348069484435  0.558027558634865 0.06833069645806876 -0.2020379635357293  0.4653707025833991 0.1063445045486176 -0.19889123565464  0.4891127240375689 0.1026295120306858 -0.1995526818757304  0.5132321898765982 0.09927543940841832 -0.2002920538618455  0.5376309793001858 0.0958312723289499 -0.2010411130966046  0.5620967930918729 0.09184601708853198 -0.2017737017236503  0.4697889827291575 0.1312081120017681 -0.1991446561775638  0.4936372440749899 0.1272560549057435 -0.1997182300098662  0.5177458726549747 0.1235406610218005 -0.200342882991401  0.5420462488327318 0.1197523326409126 -0.2009673516687605  0.5663737846741027 0.1155940445260564 -0.2015753279324446  0.4741143738023468 0.1557597660988361 -0.1993091976443824  0.4980886690271539 0.1516884446331726 -0.1998392190999395  0.522219557433215 0.1477516085823818 -0.2003893442594295  0.5464617351507783 0.1437627858731345 -0.2009314876262044  0.5707112053209065 0.1395470887080319 -0.2014646020198639  0.4783407511421492 0.1801391851012693 -0.1994210044675575  0.5024295134817119 0.1760120877134107 -0.1999364440015765  0.5265963486884762 0.1719576584099328 -0.2004382997895633  0.5508119299032036 0.1678733706455755 -0.2009275518020134  0.5750224795518571 0.1636608436901054 -0.201426871354631  0.4825181078239183 0.2044275036812734 -0.1995201793808146  0.5066395351083784 0.2002879699201082 -0.2000333219302013  0.530830880544345 0.1961966906722345 -0.2004890617530612  0.5550631001924737 0.1920747777917359 -0.2009281610277668  0.5792771316616468 0.1878656821885635 -0.2014181034153066  0.45 0 -0.175  0.475 0 -0.175  0.5 0 -0.175  0.525 0 -0.175  0.55 0 -0.175  0.4539891855546224 0.02782489509521469 -0.1740289145898782  0.477711783206828 0.02615850742736862 -0.1744857545969674  0.5020766980048579 0.02516212157922709 -0.1750360316587643  0.5269974352874048 0.02416133239044834 -0.175648506514374  0.552605338586275 0.02220209736858189 -0.1762613021684303  0.4575322836526035 0.05479724026272917 -0.1738012965270111  0.4812550698545185 0.05216205531970372 -0.174421118202624  0.5054938773995846 0.05007819591455082 -0.1751389281963169  0.5302304973617186 0.04792328669521201 -0.175894859835783  0.5553377896692568 0.04486880012725909 -0.1766142408944622  0.4615872053027031 0.08088893999163939 -0.1738779495778611  0.4853632393000719 0.07757811596809766 -0.1745114463498644  0.5095382897093093 0.07468923773208756 -0.1752120961748564  0.5340770297493754 0.07170217465189815 -0.1759306033782369  0.5587883382448867 0.06802513729515328 -0.176628794894737  0.46593167393322 0.1062593382997586 -0.174038212296716  0.4897578565081484 0.1025135929772778 -0.1746353844848704  0.5138849045236789 0.09908300386561228 -0.175267418894462  0.5382648771495651 0.09556046425807582 -0.1759063596283527  0.562720551137291 0.09154456723728333 -0.1765379876210155  0.4703091788144279 0.1311229300664461 -0.1741863924265475  0.4942245421805483 0.1271408059159985 -0.1747479906631116  0.5183321234647639 0.1233612454170503 -0.1753170745078366  0.5426065429889191 0.1195110873097907 -0.1758858901379364  0.5669114813005885 0.1153345355797459 -0.176457374498118  0.4746242623981808 0.1556708298452917 -0.1742976170920391  0.4986384258483665 0.1515742082300181 -0.1748411028957705  0.5227598189372569 0.1475899965796199 -0.1753681122195671  0.5469775500301994 0.1435562662776283 -0.1758889147660639  0.5712053900358455 0.1393264394719852 -0.1764226777303316  0.4788609160716599 0.1800439794798729 -0.1743872921467118  0.5029622211736787 0.1759022228065542 -0.1749262624184863  0.5271102740761388 0.1718115259518204 -0.1754241734905673  0.5513056801839906 0.167688417143586 -0.175911605106917  0.5755035131416323 0.1634581864817726 -0.1764287761198126  0.4830342544595529 0.2043310187638266 -0.1744967950167434  0.5071838025988837 0.2001852883157604 -0.1750234651349753  0.5313492462303055 0.1960536438679084 -0.1754842310984245  0.5555557145627827 0.1918872314207097 -0.1759341833883594  0.5797628188209689 0.1876580559112438 -0.1764381144715766  0.45 0 -0.15  0.475 0 -0.15  0.5 0 -0.15  0.525 0 -0.15  0.55 0 -0.15  0.4543707342130565 0.02782997572734799 -0.149428637223056  0.4779578990741115 0.02611298079633426 -0.149710936222031  0.5022862006932147 0.02514706265540784 -0.1500304850669574  0.5272447538555635 0.0241690169254254 -0.1503837583202964  0.552974581847626 0.02207593963069985 -0.15073349794965  0.4580448845707323 0.05473903571267046 -0.1491876543925577  0.4816769331616685 0.05208701654302705 -0.1496152521901302  0.5058967722178657 0.05002865546195625 -0.1501007338544305  0.53068726067348 0.04788479093314998 -0.1506079841741914  0.5558930968984593 0.04474991280872974 -0.1510780318290449  0.4621545931422705 0.08080548124327756 -0.1491526870605617  0.4858760012677855 0.07748552895470286 -0.1496441847376542  0.5100414038701029 0.07459772881232409 -0.1501694235087961  0.5346106839688483 0.07159910477863815 -0.1507076975349157  0.5593756100964944 0.06789521161091366 -0.151224731240579  0.4665146749483776 0.1061667311243154 -0.149195802396658  0.490307184232207 0.1024094472978294 -0.1497097777987161  0.5144223915440942 0.09896125064790499 -0.1502287927930789  0.5388089303706114 0.09541559545029397 -0.1507540046811572  0.563282737479423 0.09139291112584476 -0.151274831282517  0.4708959967927362 0.1310334541320482 -0.1492551853582622  0.4947853652823243 0.1270318109741132 -0.1497800883870403  0.5188761576572665 0.1232247121614345 -0.1502849975634666  0.5431416666631469 0.1193470785928539 -0.1507904591435152  0.5674433607730758 0.1151660650863383 -0.1513050454547297  0.4752198480121093 0.1555875884678907 -0.1493119212280268  0.4992067426977431 0.1514644848177116 -0.1498484529044248  0.5233061923768199 0.1474475232741105 -0.1503437598987946  0.5475063888774132 0.143383460046277 -0.1508343486526349  0.5717194263429771 0.1391429454486486 -0.1513471407989808  0.4794758184424477 0.1799705282169715 -0.1493734658612322  0.5035460201625557 0.1757931910815974 -0.1499242135147554  0.5276678607849354 0.1716644744756107 -0.1504082431896094  0.5518405782269272 0.1675068586369122 -0.1508835049628413  0.5760172277488524 0.1632558869824449 -0.1514005622265228  0.4836915466046997 0.2042657839374531 -0.1494904750439397  0.5078038681437647 0.200072219610798 -0.1500322342359638  0.5319402236507801 0.19589631382694 -0.1504800616042373  0.5561167569344621 0.1916900712067835 -0.1509213989630817  0.5802946130745967 0.1874313354445569 -0.1514300134266592  0.45 0 -0.125  0.475 0 -0.125  0.5 0 -0.125  0.525 0 -0.125  0.55 0 -0.125  0.4545917017930197 0.02788077716532363 -0.1246530559245167  0.4781066760303683 0.02611576312135492 -0.1248210792437014  0.5024082903785663 0.02514254582837911 -0.1250131677230147  0.5273799916226097 0.02415617384038396 -0.1252266013933943  0.5531592297362522 0.02196423438342308 -0.1254460473447421  0.4583953376753636 0.05476427496095907 -0.1244614194570135  0.4819637468787557 0.05207105884259126 -0.124741582392121  0.5061627161670389 0.0500060632163116 -0.1250591086920263  0.5309731327283018 0.04784382022702547 -0.1253880867341274  0.5562138034443571 0.04461841079222476 -0.1256922840058305  0.4625895796603992 0.08079904513233674 -0.1243773823578812  0.4862675273207528 0.07744544077037771 -0.1247358102170494  0.5104170003889235 0.07454407701759307 -0.1251159001417974  0.534997185012024 0.07152286459814594 -0.1255014960255683  0.5597793286641628 0.06776347261942572 -0.125873222711669  0.4670067395341394 0.1061385426999412 -0.1243476563729609  0.4907691467387097 0.1023484826804975 -0.1247615600258901  0.5148678710625471 0.09887795328156443 -0.1251762483734813  0.5392524832936829 0.09530687490597504 -0.1255920868486582  0.5637280900198383 0.09124988023458368 -0.1260067545043297  0.4714312424542234 0.130993428996717 -0.1243427789184861  0.4952955928909392 0.1269562043931277 -0.1248013479654027  0.5193660070390892 0.1231189191012966 -0.125240083214487  0.5436191627787961 0.1192123281746666 -0.1256760279398975  0.5679110404630295 0.1150043000572192 -0.1261220438613261  0.4757953839122484 0.1555432998952792 -0.1243548944752385  0.499755551048557 0.1513794860270093 -0.1248518177082922  0.5238298423806224 0.1473254767263752 -0.12530880191048  0.5480104007000851 0.1432278086363991 -0.1257591205068851  0.5722057380124523 0.1389592895924206 -0.1262322982446239  0.4800971370323412 0.1799278805671746 -0.1243927540928439  0.5041349157603542 0.1757012510048916 -0.1249219592018383  0.5282263539228396 0.1715287869471326 -0.1253833989388832  0.5523739618139657 0.1673320252970873 -0.1258352891630173  0.5765272814624156 0.1630474186909575 -0.1263315304489773  0.4843786518558862 0.2042229993290476 -0.1245113462397041  0.5084459073584731 0.1999699773173745 -0.1250368643628518  0.5325441300131932 0.1957451400418482 -0.1254645317241315  0.5566892344928314 0.1914943269266028 -0.1258854449323049  0.5808382644769682 0.1871938159520236 -0.1263791875389247  0.45 0 -0.1  0.475 0 -0.1  0.5 
[...]
<PointData  Tensors="Piola Kirchhoff sec Stress"> 
<DataArray  type="Float64"  Name="Piola Kirchhoff sec Stress"  NumberOfComponents="9" format="ascii">1.9812807707684795e+04 1.0255046523669105e+04 1.8261539551624373e+03 1.0255046523669107e+04 3.9753521743704667e+04 6.6980347759412698e+03 1.8261539551624373e+03 6.6980347759412707e+03 2.0908453271412665e+04  7.4021256419322472e+03 3.7817260490309486e+03 2.5955920963424956e+02 3.7817260490309491e+03 1.4457907937723419e+04 3.6452115607595620e+03 2.5955920963424944e+02 3.6452115607595629e+03 6.8418034537856329e+03  6.6725889048774616e+02 1.6597012966093710e+03 -1.5456039992824282e+02 1.6597012966093707e+03 1.9418729332793766e+03 -2.3094890973822299e+02 -1.5456039992824282e+02 -2.3094890973822342e+02 9.2759620927546609e+02  -5.4682188786119341e+03 1.5216276365143183e+03 -4.9561904358008809e+02 1.5216276365143183e+03 -9.4080704057826097e+03 -4.1902597785908220e+03 -4.9561904358008792e+02 -4.1902597785908220e+03 -2.5018487878110741e+03  -2.5925343743493188e+04 7.5321276976994986e+03 2.0057137478626514e+03 7.5321276976994995e+03 -4.2243917622855624e+04 -9.0301360989645964e+03 2.0057137478626512e+03 -9.0301360989645964e+03 -1.5987094423281638e+04  9.3925842262292292e+02 2.9687889034146610e+03 4.8553497693200427e+02 2.9687889034146638e+03 2.2575116574622527e+04 4.5363466683263260e+02 4.8553497693200427e+02 4.5363466683263238e+02 4.6774322072717514e+03  5.8393843681077396e+02 5.1233358192392252e+03 -4.5390328868559031e+01 5.1233358192392307e+03 1.2246083352285805e+04 -4.2213699870020730e+02 -4.5390328868558974e+01 -4.2213699870020730e+02 3.1419720403638585e+03  1.7705753620353082e+03 4.7171374943059991e+03 -3.7562325297608157e+02 4.7171374943059991e+03 3.8261353681489436e+03 -1.7391675407054348e+02 -3.7562325297608163e+02 -1.7391675407054339e+02 2.5626824739231120e+03  3.6848873811257940e+03 3.1921004870773522e+03 -4.8461123597420283e+02 3.1921004870773509e+03 -3.3908165986040417e+03 7.3261889911313551e+02 -4.8461123597420288e+02 7.3261889911313540e+02 3.1969194714786190e+03  6.2682588646307058e+03 -2.0492868982314317e+03 -2.2232900758733251e+02 -2.0492868982314308e+03 -8.5862328429635963e+03 1.8606532176886431e+03 -2.2232900758733248e+02 1.8606532176886431e+03 5.3052912205983994e+03  3.8242221815603871e+03 3.4254439843091118e+03 2.2473158874148655e+02 3.4254439843091118e+03 2.0282802530939283e+04 1.5813502201925605e+01 2.2473158874148655e+02 1.5813502201925573e+01 6.3662196472745754e+03  3.6694048438947825e+03 5.1377099896360914e+03 4.4379430018663548e+01 5.1377099896360914e+03 1.2310383740920934e+04 -4.7400039774944723e+01 4.4379430018663740e+01 -4.7400039774944766e+01 4.8736196301284381e+03  5.0182470291439631e+03 5.2216492238912315e+03 -6.4782905233970624e+01 5.2216492238912324e+03 5.4377766611321968e+03 4.9827919922863508e+01 -6.4782905233970610e+01 4.9827919922863522e+01 4.5184725549334544e+03  6.6484193500406845e+03 3.1271741798805774e+03 -1.8361979075911677e+01 3.1271741798805774e+03 -4.4284466187548293e+02 3.4535554901815584e+02 -1.8361979075911698e+01 3.4535554901815573e+02 4.8662122826099894e+03  8.0719642763377879e+03 -2.1856263970727900e+03 1.6718445494479039e+02 -2.1856263970727905e+03 -2.6306497844301502e+03 7.6164336533497988e+02 1.6718445494479039e+02 7.6164336533497999e+02 7.1146367064599654e+03  5.9944969580539082e+03 2.9009962105360687e+03 6.7201404152503414e+01 2.9009962105360664e+03 1.7729365660971042e+04 2.6119038150843726e-01 6.7201404152503514e+01 2.6119038150852303e-01 7.5923867309593152e+03  6.2008186111198520e+03 4.5431787517757220e+03 2.8648920607882307e+01 4.5431787517757211e+03 1.1634662503232843e+04 9.3483530134499148e+01 2.8648920607882300e+01 9.3483530134499091e+01 6.3313823767052172e+03  7.4627146532169972e+03 4.4880840981497113e+03 4.1324089229994883e+01 4.4880840981497086e+03 6.5084887707278513e+03 1.4534171332664900e+02 4.1324089229994996e+01 1.4534171332664900e+02 6.0509196471186269e+03  8.7888993358437601e+03 2.4602418237978627e+03 1.3033414482737632e+02 2.4602418237978627e+03 2.6953182356614147e+03 2.1539365692437167e+02 1.3033414482737632e+02 2.1539365692437156e+02 6.4179265018361748e+03  9.8172720023802340e+03 -1.6215363002049630e+03 2.1768186757538760e+02 -1.6215363002049635e+03 2.6233894180859265e+03 5.4677340524980070e+02 2.1768186757538757e+02 5.4677340524980070e+02 8.1896328296497104e+03  7.1173333842645088e+03 2.2294736990120300e+03 6.8380366875855199e+00 2.2294736990120296e+03 1.5203091455609894e+04 3.9073961409906943e+01 6.8380366875855474e+00 3.9073961409906900e+01 8.2418862728018848e+03  7.6868360157786392e+03 3.6058491306104638e+03 2.1010238179669869e+01 3.6058491306104647e+03 1.1068312962949880e+04 1.5237774594643685e+02 2.1010238179669887e+01 1.5237774594643685e+02 7.2301922325573923e+03  8.8397664124528383e+03 3.4301070189250463e+03 6.6162423913146938e+01 3.4301070189250445e+03 7.5382925070333322e+03 1.7480186308337437e+02 6.6162423913146952e+01 1.7480186308337429e+02 7.0363002825152316e+03  9.8933096647624916e+03 1.7801882091238642e+03 1.3510376406695855e+02 1.7801882091238645e+03 5.3159550962467038e+03 1.8047110142943680e+02 1.3510376406695855e+02 1.8047110142943689e+02 7.3825970158612236e+03  1.0652713215866232e+04 -1.0651471425005950e+03 1.9644093690580050e+02 -1.0651471425005957e+03 6.2254549878626267e+03 4.2982684226353990e+02 1.9644093690580047e+02 4.2982684226353985e+02 8.7158996230647299e+03  7.5171881642502740e+03 1.1891487239181497e+03 1.9977156744660093e+01 1.1891487239181492e+03 1.2592045247314565e+04 1.6579043130328802e+02 1.9977156744660071e+01 1.6579043130328802e+02 8.0532037876708691e+03  8.3210765120083597e+03 2.4219837048292288e+03 3.1719655388039673e+01 2.4219837048292288e+03 1.0501934913491350e+04 1.9611641847688949e+02 3.1719655388039719e+01 1.9611641847688949e+02 7.5786733591835309e+03  9.4003083984261102e+03 2.3482690633251232e+03 6.5994543829512594e+01 2.3482690633251232e+03 8.3597064495081231e+03 1.8673086521209089e+02 6.5994543829512580e+01 1.8673086521209081e+02 7.5336928028706143e+03  1.0229917353211984e+04 1.1993119692694293e+03 1.0608050699537141e+02 1.1993119692694293e+03 7.2242199127849308e+03 1.7540138696092347e+02 1.0608050699537139e+02 1.7540138696092342e+02 7.8274041138406337e+03  1.0774147008247019e+04 -5.8619367001627381e+02 1.3255920836458279e+02 -5.8619367001627359e+02 8.3655669878180870e+03 3.3671846647470568e+02 1.3255920836458279e+02 3.3671846647470568e+02 8.7132407175020380e+03  8.1005639503076336e+03 6.8717065743192290e+02 -9.0784853013876177e+00 6.8717065743192313e+02 1.0906257739717888e+04 1.9621013038229771e+02 -9.0784853013875964e+00 1.9621013038229773e+02 7.9716812341893128e+03  8.7373298396113132e+03 1.4514199806529887e+03 1.5985433918980206e+01 1.4514199806529889e+03 9.9451622092380730e+03 2.0938475878951132e+02 1.5985433918980194e+01 2.0938475878951127e+02 7.6833377358655780e+03  9.5316072721790770e+03 1.4550636953266865e+03 5.4162261533864132e+01 1.4550636953266862e+03 8.8725716380136982e+03 1.8440399099037523e+02 5.4162261533864033e+01 1.8440399099037509e+02 7.7027251400900750e+03  1.0117283077756287e+04 7.4458413883090384e+02 7.4018103730391871e+01 7.4458413883090350e+02 8.4586472425978391e+03 1.7159053502843815e+02 7.4018103730391758e+01 1.7159053502843821e+02 7.9279705464935914e+03  1.0509603762525370e+04 -2.4485128291776073e+02 6.6995772972272732e+01 -2.4485128291776087e+02 9.4773233889215899e+03 2.5778379131648694e+02 6.6995772972272704e+01 2.5778379131648694e+02 8.4445831940159733e+03  8.3608180237618708e+03 5.8756701168436450e+01 -1.2639606924884303e+01 5.8756701168436479e+01 9.6849142347657435e+03 2.5346884359308262e+02 -1.2639606924884278e+01 2.5346884359308262e+02 7.6787664697175142e+03  8.8637455563436542e+03 6.7440285919655923e+02 -8.7488218969487210e+00 6.7440285919655901e+02 9.4644256866539727e+03 2.1186962080244712e+02 -8.7488218969486695e+00 2.1186962080244706e+02 7.5964803557921750e+03  9.3631485974388943e+03 8.0606612681877971e+02 3.5114852419931168e+01 8.0606612681877948e+02 9.0812069261496508e+03 1.6942532183502581e+02 3.5114852419931175e+01 1.6942532183502576e+02 7.6189806837270025e+03  9.7512695448921204e+03 4.0407571632962095e+02 5.0699366640191478e+01 4.0407571632962095e+02 9.1831180525034124e+03 1.6288497111445335e+02 5.0699366640191514e+01 1.6288497111445344e+02 7.8262193603799942e+03  1.0077772074678136e+04 -7.6710220168238294e+01 1.8389475477718499e+01 -7.6710220168238322e+01 9.8965008301503549e+03 1.9352477121723976e+02 1.8389475477718506e+01 1.9352477121723976e+02 8.0929078003801014e+03  8.6237149652744447e+03 1.1952926496367544e+02 -5.9143328460884810e+01 1.1952926496367550e+02 9.5430658731132426e+03 2.1017445281153377e+02 -5.9143328460884796e+01 2.1017445281153377e+02 7.7249786071448998e+03  8.6062010194765935e+03 2.1865153246886752e+02 5.4350880730509303e+01 2.1865153246886752e+02 9.1772187958785780e+03 1.8330948020487807e+02 5.4350880730509353e+01 1.8330948020487807e+02 7.4120485443335865e+03  8.9280621884961402e+03 1.9497210220825971e+02 1.2861477866101507e+02 1.9497210220825960e+02 9.0211119830927946e+03 1.2517056030047031e+02 1.2861477866101507e+02 1.2517056030047034e+02 7.3199201694774547e+03  9.5161229920696496e+03 4.3690223911241809e+01 9.7806849695817036e+01 4.3690223911241823e+01 9.4150622955053095e+03 1.6681364129941790e+02 9.7806849695817164e+01 1.6681364129941792e+02 7.6204302308454580e+03  9.8451598335165581e+03 -8.6845103527353814e+01 2.1589417121171859e+01 -8.6845103527353700e+01 9.9198913701630245e+03 2.3067166870600096e+02 2.1589417121171888e+01 2.3067166870600093e+02 7.8729382855171598e+03  2.1589519448662297e+04 1.2562783683376094e+04 7.9625923380797292e+02 1.2562783683376096e+04 3.9445928615761637e+04 3.5490600265888620e+03 7.9625923380797292e+02 3.5490600265888620e+03 2.3791828657218841e+04  6.6835806372903007e+03 5.6645752192573118e+03 2.4207436547841829e+02 5.6645752192573136e+03 1.2334610924540844e+04 1.9750092003427801e+03 2.4207436547841826e+02 1.9750092003427801e+03 7.0464973529961435e+03  8.4703482203658530e+02 3.5364447247050120e+03 -1.3615082769925112e+02 3.5364447247050116e+03 1.7778486354135766e+03 -1.1023428934575732e+02 -1.3615082769925135e+02 -1.1023428934575725e+02 8.9806683226714404e+02  -4.3086747360587387e+03 3.7010506805512168e+03 -4.1693271630685939e+02 3.7010506805512164e+03 -6.4387991115882887e+03 -2.1519640140791989e+03 -4.1693271630685945e+02 -2.1519640140791994e+03 -3.6873532535401619e+03  -2.8427404234707665e+04 1.0501809979202359e+04 2.2752396580145526e+02 1.0501809979202359e+04 -4.2277217949796679e+04 -4.9498168024400347e+03 2.2752396580145535e+02 -4.9498168024400338e+03 -2.5256488131890124e+04  2.6421741159385106e+03 2.8843381802746976e+03 5.4594270995396721e+02 2.8843381802746976e+03 2.3995787411041769e+04 1.5339768307803956e+03 5.4594270995396721e+02 1.5339768307803947e+03 6.2804830045188246e+03  1.8653614981578689e+03 6.5455008369046855e+03 -4.1722868492309226e+02 6.5455008369046855e+03 1.4870111688230125e+04 5.9331842467323838e+02 -4.1722868492309209e+02 5.9331842467323850e+02 3.9752453210794702e+03  1.6311386585602131e+03 6.2645456099963421e+03 -9.3237539735706207e+02 6.2645456099963421e+03 3.6200230269769727e+03 -1.0690625371105955e+02 -9.3237539735706196e+02 -1.0690625371105928e+02 2.1066795833834694e+03  2.5904973668652128e+03 4.7343825435095287e+03 -9.8703628014743072e+02 4.7343825435095277e+03 -6.8943425600199762e+03 -8.1008612234069290e+02 -9.8703628014743094e+02 -8.1008612234069312e+02 1.2926364931964974e+03  8.5746272545262691e+03 -1.4501723250253626e+03 -1.0604989151135305e+03 -1.4501723250253635e+03 -1.6043159718200824e+04 -1.9184669833840255e+03 -1.0604989151135305e+03 -1.9184669833840271e+03 3.7855061914910675e+03  4.9886893778792046e+03 3.4739351292161987e+03 2.6637571533944049e+02 3.4739351292161987e+03 2.1669029304185900e+04 4.0268951938845623e+02 2.6637571533944049e+02 4.0268951938845612e+02 7.2157948293822619e+03  4.0595732364954074e+03 5.2933318043075915e+03 -4.7481489981765731e+02 5.2933318043075906e+03 1.2736636910558294e+04 8.5685220375589665e+01 -4.7481489981765725e+02 8.5685220375589665e+01 4.9691347902843991e+03  4.7819395898993080e+03 5.5178867450447797e+03 -7.5389134109968552e+02 5.5178867450447815e+03 4.7602440170454411e+03 1.0256778932590716e+02 -7.5389134109968552e+02 1.0256778932590720e+02 4.2750066846488889e+03  6.1473395326611899e+03 3.1584890167328231e+03 -6.1009646211565484e+02 3.1584890167328231e+03 -2.4915807117489417e+03 2.5277177625633846e+02 -6.1009646211565484e+02 2.5277177625633846e+02 4.4045940629717379e+03  8.3934126291234152e+03 -2.4376367305892509e+03 -1.6683226968142861e+02 -2.4376367305892513e+03 -5.3643426439040768e+03 2.4497869807110402e+02 -1.6683226968142864e+02 2.4497869807110399e+02 6.8514356912987241e+03  6.7650924413257862e+03 2.7561877107291461e+03 1.3988280481078019e+02 2.7561877107291430e+03 1.8314778534619818e+04 1.1184026867003189e+02 1.3988280481078019e+02 1.1184026867003186e+02 7.8217931889633865e+03  6.3677277133305779e+03 4.2869219367785081e+03 -2.7025299960030355e+02 4.2869219367785081e+03 1.1843312002540002e+04 1.3742047416174432e+02 -2.7025299960030355e+02 1.3742047416174429e+02 6.2313701104266274e+03  7.1195446539904997e+03 4.2145852499335851e+03 -3.4215015279215407e+02 4.2145852499335861e+03 6.1623912956580771e+03 2.4793077700025833e+02 -3.4215015279215396e+02 2.4793077700025822e+02 5.8401363248067828e+03  8.3211921548435821e+03 2.0890738296301161e+03 -1.7139947715051605e+02 2.0890738296301161e+03 1.9941647932742176e+03 4.5982071512597497e+02 -1.7139947715051605e+02 4.5982071512597508e+02 6.2243806272851671e+03  9.6079018096601903e+03 -2.0233508416771076e+03 1.4363976795441968e+02 -2.0233508416771081e+03 1.5520213585811937e+03 7.0427287358362332e+02 1.4363976795441965e+02 7.0427287358362355e+02 8.1639087988268893e+03  7.7177739720638829e+03 1.9754242796542208e+03 1.3192754245632665e+02 1.9754242796542203e+03 1.5419135099413037e+04 9.9266896078693847e+01 1.3192754245632665e+02 9.9266896078693890e+01 8.1544520625037321e+03  7.7336427934445755e+03 3.2052434161088227e+03 -8.2618910406501413e+01 3.2052434161088236e+03 1.1150564416134785e+04 1.6223542078465925e+02 -8.2618910406501485e+01 1.6223542078465925e+02 7.0399125034300951e+03  8.5473055576934876e+03 3.0540611904319680e+03 -6.4853619980897108e+01 3.0540611904319694e+03 7.5192443890255663e+03 2.5036064941938307e+02 -6.4853619980897122e+01 2.5036064941938295e+02 6.8912901151237693e+03  9.5384196149553300e+03 1.4228729632454390e+03 4.4679188408349575e+01 1.4228729632454404e+03 5.2919633394586344e+03 4.0381960372614100e+02 4.4679188408349525e+01 4.0381960372614100e+02 7.3083376225106440e+03  1.0440384210976585e+04 -1.3099464224929281e+03 1.9758990780930762e+02 -1.3099464224929284e+03 5.9828212108526377e+03 6.7784213262647472e+02 1.9758990780930748e+02 6.7784213262647461e+02 8.7753401975965317e+03  8.0709994895286636e+03 1.0314113621905537e+03 1.2852292436800076e+02 1.0314113621905544e+03 1.2729290474685993e+04 2.1525911116044500e+02 1.2852292436800082e+02 2.1525911116044526e+02 7.9968388335698946e+03  8.3385130631317643e+03 2.0967730915780098e+03 4.1140167487813869e+01 2.0967730915780103e+03 1.0547961252469593e+04 2.0372211681077161e+02 4.1140167487813869e+01 2.0372211681077158e+02 7.4109114126875929e+03  9.1867113584218514e+03 2.0401724537498192e+03 8.6709005079694208e+01 2.0401724537498194e+03 8.4651138815124577e+03 2.1743943171394747e+02 8.6709005079694194e+01 2.1743943171394753e+02 7.4529164820794167e+03  1.0024741790637334e+04 9.5017724244257454e+02 1.3120621931355154e+02 9.5017724244257545e+02 7.4492248917413735e+03 2.9799808933248886e+02 1.3120621931355154e+02 2.9799808933248886e+02 7.8440390490379696e+03  1.0676545464002545e+04 -7.1691831451195799e+02 1.6095755553137326e+02 -7.1691831451195731e+02 8.4945550701106476e+03 4.9861139389308670e+02 1.6095755553137323e+02 4.9861139389308670e+02 8.8618185844922646e+03  8.5138897694867883e+03 5.7782243565208262e+02 1.2650141747995877e+02 5.7782243565208262e+02 1.1091796753343328e+04 3.1425438411437665e+02 1.2650141747995883e+02 3.1425438411437688e+02 7.9692663627314450e+03  8.7264149929184186e+03 1.2327568193265984e+03 1.0494759470786893e+02 1.2327568193265986e+03 9.9943192218845234e+03 2.3098365107556171e+02 1.0494759470786893e+02 2.3098365107556180e+02 7.5516729188495019e+03  9.3965290867975473e+03 1.2441756025152640e+03 1.6460906671266358e+02 1.2441756025152645e+03 9.0142688315268006e+03 1.8199706334699599e+02 1.6460906671266352e+02 1.8199706334699599e+02 7.6791617636825904e+03  1.0046933291407604e+04 5.8890719924959535e+02 1.6209766045609433e+02 5.8890719924959558e+02 8.7153232053843276e+03 2.0338957997614824e+02 1.6209766045609439e+02 2.0338957997614818e+02 8.0044112170357885e+03  1.0520238180294116e+04 -3.1587222922743683e+02 9.8355650860748185e+01 -3.1587222922743683e+02 9.7117849902631824e+03 3.0972347005970425e+02 9.8355650860748142e+01 3.0972347005970420e+02 8.6419128126711439e+03  8.6567157578201568e+03 7.4871615670910103e+01 7.7418902016785069e+01 7.4871615670910188e+01 9.8762610466484621e+03 3.7858028880121157e+02 7.7418902016785054e+01 3.7858028880121162e+02 7.7765654862689080e+03  8.8243259902753616e+03 5.6473810404968754e+02 1.4663381883348697e+02 5.6473810404968754e+02 9.5656418305122043e+03 2.2603916852671375e+02 1.4663381883348703e+02 2.2603916852671375e+02 7.5124935705177504e+03  9.3085519284888851e+03 6.5029533801547632e+02 2.3746728830645924e+02 6.5029533801547655e+02 9.2323327642198619e+03 1.4321290210262910e+02 2.3746728830645924e+02 1.4321290210262910e+02 7.6528369973031176e+03  9.8094793521618740e+03 2.9100642072254408e+02 2.0371326873260759e+02 2.9100642072254414e+02 9.3678560802426036e+03 1.4113754983996768e+02 2.0371326873260756e+02 1.4113754983996768e+02 7.9439134182860644e+03  1.0164928956316106e+04 -1.2691445155330423e+02 5.0747936287199458e+01 -1.2691445155330427e+02 1.0075907146095791e+04 1.8059666121030114e+02 5.0747936287199430e+01 1.8059666121030119e+02 8.2789740512400713e+03  8.9059828566417254e+03 7.2980563103012997e+01 9.2197704019899163e+01 7.2980563103013054e+01 9.5891190154978503e+03 2.5151851402474466e+02 9.2197704019899106e+01 2.5151851402474469e+02 7.7041489612362375e+03  8.6762497501408343e+03 1.8358490131241953e+02 2.4959556351853598e+02 1.8358490131241965e+02 9.2646434677103716e+03 1.4922560150043120e+02 2.4959556351853615e+02 1.4922560150043120e+02 7.2679708851110981e+03  9.0006073615942696e+03 1.4293910792750668e+02 4.1092563710123210e+02 1.4293910792750657e+02 9.2516582020826136e+03 8.7202352937568492e+01 4.1092563710123210e+02 8.7202352937568492e+01 7.4545316587789112e+03  9.6521880376534027e+03 -4.5587570048589626e+01 3.5071630745796602e+02 -4.5587570048589676e+01 9.5873690854589549e+03 1.2351051025347211e+02 3.5071630745796614e+02 1.2351051025347215e+02 7.8206288402858800e+03  9.9511257313066308e+03 -1.4124131703506959e+02 1.0457841189707192e+02 -1.4124131703506956e+02 9.9907805219286092e+03 2.0667637055754119e+02 1.0457841189707192e+02 2.0667637055754116e+02 7.9999349184511475e+03  2.3940102968553536e+04 1.4077962665077042e+04 3.9772147403107033e+02 1.4077962665077046e+04 4.2329140881216779e+04 2.0068352461929546e+03 3.9772147403107050e+02 2.0068352461929546e+03 2.6185936906515064e+04  7.1486161259952523e+03 6.3768976608694138e+03 1.4826238963774605e+02 6.3768976608694102e+03 1.2561992708259748e+04 1.1616321603263748e+03 1.4826238963774617e+02 1.1616321603263748e+03 7.8060437750888486e+03  9.1282383824205783e+02 4.1076578702698253e+03 -1.1917055469497778e+02 4.1076578702698243e+03 1.6183102944431616e+03 -5.7603703299607304e+01 -1.1917055469497777e+02 -5.7603703299607240e+01 9.8716220461257774e+02  -4.4837358333155125e+03 4.3559979708588098e+03 -3.6388922548384801e+02 4.3559979708588098e+03 -6.5164409175625551e+03 -1.2001527470713388e+03 -3.6388922548384807e+02 -1.2001527470713377e+03 -4.2957544241451369e+03  -3.1611886136685855e+04 1.1974885956612035e+04 3.7562512173829646e+02 1.1974885956612035e+04 -4.6077084783616039e+04 -3.3246061852815551e+03 3.7562512173