<?xml version="1.0"?>
<VTKFile type="UnstructuredGrid"  version="0.1"  >
<UnstructuredGrid>
<Piece  NumberOfPoints="405" NumberOfCells="1536">
<Points>
<DataArray  type="Float64"  NumberOfComponents="3"  format="ascii">0.45 0 -0.2  0.475 0 -0.2  0.5 0 -0.2  0.525 0 -0.2  0.55 0 -0.2  0.4543327963063769 0.02878347916893266 -0.1978970290858448  0.477652809920701 0.02667989218726086 -0.1988782788716234  0.5017975214283236 0.02526821237971204 -0.2000131675788639  0.5265526479172773 0.02373618049696621 -0.2013161457862884  0.5518770312200483 0.02116191411761494 -0.2026666505433398  0.4585272069679289 0.05614448772357721 -0.1977441784772486  0.4818245540266899 0.05287002837380022 -0.1988692467703252  0.5057930129256089 0.05024772017525641 -0.2001603319541775  0.5303603051747695 0.04751512477138194 -0.2015447450372087  0.5552689425117291 0.04373321518739209 -0.2029670828512637  0.463595165194865 0.08241737637078943 -0.198029168663271  0.4869269710047168 0.07831308195653434 -0.1991004404861667  0.5108307960764971 0.07476570717637364 -0.2002905219279833  0.5351997512368872 0.07108901416407672 -0.201520897586896  0.559735037619936 0.06653122175115254 -0.2027507070985621  0.46907956804386 0.107805549817777 -0.1984069701464381  0.4924731494537865 0.1031660131755517 -0.1993542242446842  0.5163293145920627 0.09894589604807696 -0.2003929759115507  0.5405225381142722 0.09460166998471127 -0.2014456837015716  0.5647848483299377 0.08959547310172167 -0.2024822598523558  0.4745493979271685 0.132587668091832 -0.1986905915582309  0.4981074421104741 0.1276340479809263 -0.1995631747862953  0.5219588516108993 0.1229485190140041 -0.2004806110002549  0.5460280539865285 0.1181719170789551 -0.2013949194906993  0.5701160749317498 0.1129472915399603 -0.2022919236797511  0.4799549243896113 0.1569606792357536 -0.1988959372856446  0.5036676503315649 0.151833279996616 -0.1997298290599977  0.5275542804091304 0.1468730222008074 -0.2005674684197626  0.5515530757664872 0.1418520950534438 -0.2013895188033877  0.5755433223156458 0.1365552563829291 -0.2022019555313382  0.4853113045385412 0.1810924950752555 -0.199086053619309  0.5091322404538531 0.1758842203428774 -0.1998882307382739  0.5330509038706368 0.170788263022102 -0.2006636010716743  0.5570128673854662 0.1656583434222127 -0.2014210312882179  0.5809531847103481 0.1603690286038227 -0.2021930196586499  0.4906024196957312 0.2051116947063903 -0.1992696713550195  0.5144373812478331 0.1998931343521551 -0.2000553734064726  0.5383704799826078 0.1947572837929448 -0.2007630933671843  0.5623501795264243 0.1895853272273214 -0.2014540984029652  0.586294924199672 0.1843050014959836 -0.2022132927503112  0.45 0 -0.175  0.475 0 -0.175  0.5 0 -0.175  0.525 0 -0.175  0.55 0 -0.175  0.4549359426259668 0.028460040712722 -0.1737076641690509  0.4783369117628326 0.02644249266192344 -0.1743114064562254  0.5025431191984416 0.02520669389939834 -0.1750341361099674  0.5274370799996116 0.02395109564268797 -0.1758402533517513  0.5531758019487961 0.02147842169832745 -0.1766615946983717  0.4593801187643427 0.0559157137383131 -0.1733649818825808  0.4827512310982606 0.05265589031505025 -0.1742094238100018  0.5067850769995274 0.05005944208287555 -0.1751742862754155  0.5314354962814111 0.04735030342405208 -0.1761898734402635  0.5565192390159467 0.04350087370777425 -0.1771646290284383  0.4644736929117446 0.08224349097035183 -0.1734290436668035  0.4879000981375629 0.07811527901862135 -0.1743187914067432  0.5118335061435535 0.07450027868775465 -0.175286120183574  0.5362158524788673 0.07074256711047318 -0.1762764164641458  0.5607896923595103 0.06611867111275359 -0.1772462265818042  0.4699121579108029 0.1076481922571879 -0.1736108166655928  0.4934030761201726 0.1029687122663423 -0.1744784117712036  0.5172663271624515 0.09866172360433521 -0.1753795161632622  0.5414372807719658 0.09422756411059574 -0.1762886641958443  0.5656861909577808 0.08918198986595414 -0.1771937441036317  0.4753602452935054 0.1324180133925068 -0.1737852031377704  0.4989824731738358 0.1274327416453788 -0.1746279968594844  0.5228268687737353 0.1226760421875547 -0.175467860925958  0.5468637033777781 0.1178280384327997 -0.1763050488738779  0.5709236055802445 0.1125801964103174 -0.1771492472059109  0.4807649224490694 0.1567906063225149 -0.1739338309600113  0.5045067553978124 0.1516381479444129 -0.1747623400392261  0.5283731615149321 0.1466223780066458 -0.1755610771934616  0.5523401460831474 0.1415471143098539 -0.1763488620005611  0.5763035103685674 0.1362317135891197 -0.177154812186082  0.4861237694218253 0.1809297644377979 -0.1740804615034906  0.5099496401426155 0.1757033233350201 -0.1749002448708091  0.5338382547918613 0.1705593129173503 -0.1756643187460354  0.5577737088351976 0.1653781953882468 -0.1764142098955296  0.5816980526796457 0.1600646114583243 -0.1772032462596713  0.4914047600411505 0.204956463684845 -0.1742591309800104  0.5152679430218862 0.1997259294039309 -0.1750593097026078  0.5391629109365719 0.1945330488816313 -0.1757734623556189  0.5631089981273957 0.1893004162016828 -0.1764751214802867  0.587045068763309 0.1839921297848941 -0.1772478439421887  0.45 0 -0.15  0.475 0 -0.15  0.5 0 -0.15  0.525 0 -0.15  0.55 0 -0.15  0.4554548715769486 0.02846862290052369 -0.1492162051991274  0.4786799905030535 0.02638147524742699 -0.1495981288474858  0.5028408965012692 0.02518325136023115 -0.1500319610599076  0.5277834478404413 0.02395554924890011 -0.150513036603989  0.5536727060911707 0.02129081454042188 -0.1510005811645468  0.4601016111638746 0.05584108211382668 -0.1488640031621757  0.4833506913490582 0.05254822473559231 -0.1494624067325129  0.5073608698512067 0.04998261830373031 -0.1501333726902166  0.5320811725685145 0.04728263820191524 -0.1508351459951139  0.5572839838403034 0.04330696372828016 -0.1514957544355749  0.4652960565578382 0.08212637715235319 -0.1487910641258428  0.4886452492719767 0.07797390654219696 -0.1494986624310884  0.5125643614500919 0.07435764109321009 -0.1502428202529688  0.5369842835666773 0.07057986906947004 -0.1510041561553594  0.5616187590534708 0.06590417911454567 -0.1517448017357986  0.4707758361695775 0.1075081117850849 -0.1488314899720176  0.4942172803701982 0.1028029614473746 -0.1495902486652429  0.5180612910423671 0.09847076630690181 -0.1503451024028337  0.5422368807386263 0.09400287501606486 -0.1511071836086345  0.5665014156241599 0.08893728918334165 -0.1518698909680765  0.4762393087453918 0.1322720900956282 -0.1489062709622528  0.4998246207154523 0.127255655846939 -0.1496932669563421  0.5236427432210179 0.1224611414471341 -0.1504453559457044  0.5476637347280791 0.1175745099622744 -0.1511969237018641  0.5717134427497259 0.1123140662032058 -0.1519648179733155  0.4816484256801655 0.1566440674411416 -0.1489937144211045  0.5053605446099697 0.1514582728713773 -0.1497997760180853  0.5291970941855482 0.1463981042585903 -0.1505502444121527  0.5531382637683556 0.1412807286601074 -0.1512936026627164  0.5770786402802358 0.1359475628221554 -0.152067831238204  0.4870256132062956 0.1807921945410089 -0.1491000327170095  0.5108202898405922 0.175522752925417 -0.1499230206667611  0.534676884461771 0.1703282965119918 -0.1506636241906818  0.5585817240087521 0.1650998765912451 -0.1513932645483732  0.5824765332502383 0.1597569226152313 -0.1521775642550244  0.4923581481259876 0.2048314018375802 -0.1492797709948766  0.5161827296887576 0.1995397801929097 -0.1500906375765438  0.540044214141421 0.1942874267928128 -0.1507861944716139  0.5639518652229983 0.1890005552852577 -0.1514734569810998  0.5878489470583738 0.1836519931790404 -0.152247927544299  0.45 0 -0.125  0.475 0 -0.125  0.5 0 -0.125  0.525 0 -0.125  0.55 0 -0.125  0.4557742665401626 0.02854091468434605 -0.1245014969965388  0.4788990286523909 0.02638749798732797 -0.1247390309709989  0.5030248105057523 0.02517644547604898 -0.125012773012184  0.5279840110942986 0.02393398703508607 -0.1253186475096877  0.5539320580517935 0.02112207587533865 -0.1256411461730113  0.460621475556024 0.05588225262079251 -0.124217116907637  0.4837787482534546 0.05252386524448346 -0.1246273485183247  0.5077601899043217 0.0499434925951648 -0.1250856781784717  0.5325053468771558 0.0472102579506082 -0.1255624474633638  0.557743410015203 0.04309402205025287 -0.1260129632943148  0.4659543368112214 0.08211735954452559 -0.1240873145405724  0.4892374545587541 0.07790699241280272 -0.1246241342434584  0.5131317956312289 0.07426581250089208 -0.1251831698045908  0.5375621995454617 0.07044834730532915 -0.1257504997594674  0.5622083794144903 0.06568256735124417 -0.1263061612525753  0.4715283289336228 0.1074573315633596 -0.1240418708055192  0.494922013809404 0.1026980318150797 -0.1246710932379767  0.5187383850037411 0.09833031354281731 -0.1252909178571204  0.5429057399652893 0.09382081102978823 -0.1259121895530565  0.5671630774014517 0.08869870940711867 -0.1265382444213408  0.477054840497951 0.1321934624803866 -0.1240429800291885  0.5006025684090176 0.1271248223924508 -0.1247419341426797  0.5243880778366634 0.1222859658025255 -0.1254051951250198  0.5483871596371848 0.1173550576576879 -0.1260647695583933  0.5724167362734471 0.1120523436224414 -0.1267424329495646  0.4825077298702972 0.1565488692065946 -0.1240795299987799  0.5061871788764203 0.1513112348165048 -0.1248300609798037  0.5299888658521168 0.1461996206223916 -0.1255257333593915  0.5539006542998549 0.1410334688782024 -0.1262133490791309  0.5778132527396234 0.1356597652151194 -0.1269334220267882  0.487930763323637 0.1806921879688696 -0.1241576467503001  0.5116918405007678 0.1753637789347749 -0.1249465554970515  0.5355115718653803 0.1701109087656708 -0.1256529585881485  0.5593828767605833 0.1648275870730636 -0.1263487813641342  0.5832449069942717 0.1594379996423711 -0.1271028777415306  0.4933361316964474 0.2047296710977178 -0.1243374972518544  0.5171153240971351 0.1993650146383788 -0.1251214387291104  0.5409350893075026 0.1940475933996857 -0.1257876430854642  0.5648041231415522 0.1886994636015019 -0.1264453482185573  0.5886628200520578 0.1832940778006244 -0.1271972402983354  0.45 0 -0.1  0.47
[...]
<PointData  Tensors="Piola Kirchhoff sec Stress"> 
<DataArray  type="Float64"  Name="Piola Kirchhoff sec Stress"  NumberOfComponents="9" format="ascii">2.7240761584509342e+04 1.2785937617517691e+04 2.5989375760929743e+03 1.2785937617517689e+04 5.1142212169910854e+04 8.6188574530940514e+03 2.5989375760929743e+03 8.6188574530940514e+03 2.8013243069688429e+04  1.0428493682758583e+04 4.5875919504105450e+03 4.1594562879494049e+02 4.5875919504105450e+03 1.9363359591833025e+04 4.7617495379337824e+03 4.1594562879494043e+02 4.7617495379337815e+03 9.5946681223199230e+03  1.4343781579898186e+03 1.8181585331666456e+03 -1.8234086622948317e+02 1.8181585331666442e+03 3.1421089240121319e+03 -1.8415416030304957e+02 -1.8234086622948317e+02 -1.8415416030304974e+02 1.6174588209546764e+03  -6.3223125410326666e+03 1.5326628973278878e+03 -6.3552223804379184e+02 1.5326628973278907e+03 -1.1162030702259415e+04 -5.2396946286158018e+03 -6.3552223804379230e+02 -5.2396946286158036e+03 -2.3883767811929756e+03  -2.8989213341629889e+04 8.9560583269053368e+03 2.2640328194342751e+03 8.9560583269053386e+03 -5.0013134971818661e+04 -1.1233298238769004e+04 2.2640328194342751e+03 -1.1233298238769010e+04 -1.5617673736367611e+04  4.5652994279503282e+03 4.3564200483759832e+03 7.3201366402349424e+02 4.3564200483759842e+03 3.1353892386220203e+04 8.6922765757663581e+02 7.3201366402349424e+02 8.6922765757663569e+02 8.3820804667303928e+03  3.1408517478540793e+03 6.4008862275904030e+03 3.1402281746793733e+01 6.4008862275903984e+03 1.7330434089380153e+04 -3.5889683321326561e+02 3.1402281746793786e+01 -3.5889683321326555e+02 5.6569270016664113e+03  4.3474136317113771e+03 5.7088368630752439e+03 -4.3978336568737200e+02 5.7088368630752457e+03 6.5834936693151794e+03 -1.1616755647315090e+02 -4.3978336568737211e+02 -1.1616755647315102e+02 4.8133925344738636e+03  6.7001353560055959e+03 3.6821563007857362e+03 -6.1497871776293050e+02 3.6821563007857367e+03 -2.4746052555095430e+03 1.0579346734876751e+03 -6.1497871776293073e+02 1.0579346734876758e+03 5.6237601171711822e+03  1.0663634710169816e+04 -3.1249182888369874e+03 -3.6903648057250416e+02 -3.1249182888369864e+03 -7.5462776010189928e+03 2.7422405277889629e+03 -3.6903648057250416e+02 2.7422405277889634e+03 9.3078593696393818e+03  1.0477471316759589e+04 4.9312903398743911e+03 3.8269604569986564e+02 4.9312903398743874e+03 3.0721778953149984e+04 3.4991683533948179e+02 3.8269604569986564e+02 3.4991683533948208e+02 1.2382045153800227e+04  9.4949319546348725e+03 6.5991007404098682e+03 1.4229843459132800e+02 6.5991007404098727e+03 1.9578335631441336e+04 1.9042190036043428e+02 1.4229843459132809e+02 1.9042190036043431e+02 9.7751331813899014e+03  1.1042233573190470e+04 6.4027676079531939e+03 -1.8052718688250394e+01 6.4027676079531930e+03 1.0744636609735799e+04 2.8233850664047196e+02 -1.8052718688250426e+01 2.8233850664047196e+02 9.2129379801071882e+03  1.3150979686437406e+04 3.5311179743193711e+03 2.5999196784843232e+01 3.5311179743193720e+03 3.5820754487976997e+03 6.8759359671636093e+02 2.5999196784843299e+01 6.8759359671636093e+02 9.7886417188417017e+03  1.5491037513664744e+04 -3.2750647209133085e+03 2.6091165975854676e+02 -3.2750647209133067e+03 2.2603745367828419e+03 1.2917118540943666e+03 2.6091165975854665e+02 1.2917118540943673e+03 1.3442903431436143e+04  1.5235173776644571e+04 4.1389629401018892e+03 1.5671275558648463e+02 4.1389629401018901e+03 2.9529595213483779e+04 3.8104361894853520e+02 1.5671275558648458e+02 3.8104361894853548e+02 1.5580821808063671e+04  1.4814442390039669e+04 5.8433172394538051e+03 1.1966736762390501e+02 5.8433172394538042e+03 2.0858879243077252e+04 4.1693327326974418e+02 1.1966736762390502e+02 4.1693327326974406e+02 1.3311004493112263e+04  1.6221885928661086e+04 5.4676587513406557e+03 1.3183099203895290e+02 5.4676587513406557e+03 1.4144989760677638e+04 4.5938387727965528e+02 1.3183099203895293e+02 4.5938387727965539e+02 1.2794997484184969e+04  1.8008355580534109e+04 2.6871483687249370e+03 2.5068653744041183e+02 2.6871483687249374e+03 9.7191385202351685e+03 5.7160565688773590e+02 2.5068653744041180e+02 5.7160565688773590e+02 1.3478646976256648e+04  1.9917224096343365e+04 -2.4475716819888244e+03 3.8261963391989690e+02 -2.4475716819888248e+03 1.1004303420749780e+04 1.0338512430987405e+03 3.8261963391989690e+02 1.0338512430987405e+03 1.6530545621500078e+04  1.7785420959032541e+04 3.1223216233795342e+03 7.7391067660790313e+01 3.1223216233795351e+03 2.7480807377871959e+04 4.4068791226952260e+02 7.7391067660790270e+01 4.4068791226952277e+02 1.7253393673566123e+04  1.8069456258220594e+04 4.5483038964551724e+03 1.0397777014513473e+02 4.5483038964551752e+03 2.1635143078251516e+04 5.0681547048586367e+02 1.0397777014513464e+02 5.0681547048586367e+02 1.5539113245356801e+04  1.9352727432231746e+04 4.1018944247032487e+03 1.6076198327055707e+02 4.1018944247032478e+03 1.6974706731625251e+04 5.1593654526142564e+02 1.6076198327055698e+02 5.1593654526142564e+02 1.5172823606523754e+04  2.0810358095483116e+04 1.8873678875060166e+03 2.5869381992227886e+02 1.8873678875060157e+03 1.4576159751765414e+04 5.3665204361948554e+02 2.5869381992227875e+02 5.3665204361948543e+02 1.5862486889909869e+04  2.2315208564558579e+04 -1.6070974572479877e+03 3.6285730851904879e+02 -1.6070974572479870e+03 1.6799398426299198e+04 8.7720498377651325e+02 3.6285730851904884e+02 8.7720498377651325e+02 1.8236209343184069e+04  1.8822375484628014e+04 1.5426638765647226e+03 8.4573261276137529e+01 1.5426638765647224e+03 2.4605215146515988e+04 6.0828217703850692e+02 8.4573261276137529e+01 6.0828217703850714e+02 1.7173936233869648e+04  1.9654928807933717e+04 2.9222215020946392e+03 1.0433836513309437e+02 2.9222215020946392e+03 2.1678030116357233e+04 5.6868302723230443e+02 1.0433836513309447e+02 5.6868302723230443e+02 1.6522311099580074e+04  2.0870802594381235e+04 2.7400881957196107e+03 1.4755460420458365e+02 2.7400881957196107e+03 1.8905596616332914e+04 5.3316295502899675e+02 1.4755460420458363e+02 5.3316295502899663e+02 1.6450417852195595e+04  2.1997819831960718e+04 1.2501039244615745e+03 2.0820643342885043e+02 1.2501039244615745e+03 1.7840913298870470e+04 5.2412785394438515e+02 2.0820643342885035e+02 5.2412785394438515e+02 1.7056122353522973e+04  2.3077985408372526e+04 -8.9074281578009413e+02 2.6254801659185637e+02 -8.9074281578009436e+02 2.0023435851742957e+04 7.4772705933285658e+02 2.6254801659185631e+02 7.4772705933285658e+02 1.8689335724544188e+04  2.0304950964318512e+04 9.6570330729512091e+02 1.8438277975756927e+00 9.6570330729512068e+02 2.3200642951375990e+04 5.9409992487197917e+02 1.8438277975756927e+00 5.9409992487197940e+02 1.7604101420818748e+04  2.0674963238157856e+04 1.7573744697973691e+03 5.0034216716359566e+01 1.7573744697973691e+03 2.1353563975646230e+04 5.7626970537216062e+02 5.0034216716359552e+01 5.7626970537216084e+02 1.6988471057687817e+04  2.1401809154830469e+04 1.7016571679517235e+03 1.1351885458742441e+02 1.7016571679517235e+03 1.9946352417048212e+04 5.2254201679368202e+02 1.1351885458742431e+02 5.2254201679368225e+02 1.6956943031439772e+04  2.2129815112899003e+04 7.9480277658092120e+02 1.5164987983972796e+02 7.9480277658092075e+02 1.9713067077691761e+04 5.0930057565738264e+02 1.5164987983972802e+02 5.0930057565738258e+02 1.7407733588780444e+04  2.2844837036777979e+04 -3.7361449038629519e+02 1.5695982697863718e+02 -3.7361449038629542e+02 2.1477869371416207e+04 6.3877508176365302e+02 1.5695982697863727e+02 6.3877508176365302e+02 1.8402142460263523e+04  2.0348927113182257e+04 1.8730886510980184e+02 -2.6601087241663588e+01 1.8730886510980170e+02 2.1647331255026926e+04 6.4243977245362885e+02 -2.6601087241663588e+01 6.4243977245362930e+02 1.7267398804547058e+04  2.0716445069265013e+04 8.8369712088631150e+02 -9.4139942026138151e-02 8.8369712088631172e+02 2.0870173687353388e+04 5.6776869996314360e+02 -9.4139942026202988e-02 5.6776869996314383e+02 1.6925678130851036e+04  2.1102305195483314e+04 9.8582126453429589e+02 7.6484006516463495e+01 9.8582126453429566e+02 2.0274886239876603e+04 4.9400120719735554e+02 7.6484006516463438e+01 4.9400120719735560e+02 1.6851519791055536e+04  2.1575948917787304e+04 4.6725733876450863e+02 1.1459829733796134e+02 4.6725733876450835e+02 2.0612960404292593e+04 4.9168369180694850e+02 1.1459829733796136e+02 4.9168369180694845e+02 1.7228869052180340e+04  2.2073816880707698e+04 -1.0252780445696044e+02 7.8975426023963848e+01 -1.0252780445696051e+02 2.1792260360088047e+04 5.5113146598341643e+02 7.8975426023963848e+01 5.5113146598341621e+02 1.7759255081020656e+04  2.0271252883566751e+04 1.5252556652982076e+02 -6.6084509191367260e+01 1.5252556652982065e+02 2.1298451744055175e+04 6.0156281557915941e+02 -6.6084509191367260e+01 6.0156281557915941e+02 1.7227209554018969e+04  1.9876659647127533e+04 2.8727233371897512e+02 9.0439504031379002e+01 2.8727233371897512e+02 2.0395361563028157e+04 5.1754521760486421e+02 9.0439504031379016e+01 5.1754521760486443e+02 1.6492631377963524e+04  2.0076237690628230e+04 2.2240535305336485e+02 1.9092244353288586e+02 2.2240535305336459e+02 2.0009410690886918e+04 4.2403102261900739e+02 1.9092244353288586e+02 4.2403102261900744e+02 1.6207710067256370e+04  2.0982763776029111e+04 3.0350604429972972e+01 1.7366529729727969e+02 3.0350604429972933e+01 2.0757112918435312e+04 4.9048582956891204e+02 1.7366529729727969e+02 4.9048582956891204e+02 1.6782031959586267e+04  2.1558878826127428e+04 -1.0301585949829700e+02 8.8418775824271833e+01 -1.0301585949829693e+02 2.1649664194596968e+04 5.9387992209392212e+02 8.8418775824271819e+01 5.9387992209392200e+02 1.7311018022350570e+04  2.9355433155844756e+04 1.5761338273116473e+04 1.2373450778088024e+03 1.5761338273116469e+04 5.0205697396604512e+04 4.6562062459803528e+03 1.2373450778088022e+03 4.6562062459803528e+03 3.1148112610883054e+04  9.3711113473852492e+03 7.0427428346518864e+03 3.8103215580222326e+02 7.0427428346518873e+03 1.6220959958472522e+04 2.6155080673647103e+03 3.8103215580222297e+02 2.6155080673647094e+03 9.5716513206486288e+03  1.6547669385178813e+03 4.2882667347539982e+03 -1.6201708789780244e+02 4.2882667347539982e+03 2.7856000251370397e+03 -8.0396661923349498e+01 -1.6201708789780238e+02 -8.0396661923349882e+01 1.5794677696570989e+03  -4.9529408105188650e+03 4.4574288641511275e+03 -5.6762389972863195e+02 4.4574288641511275e+03 -7.5764626181539234e+03 -2.7563192345318271e+03 -5.6762389972863207e+02 -2.7563192345318257e+03 -4.1884876257614660e+03  -3.3757740675963447e+04 1.2889683728165568e+04 -2.9107824342687646e+01 1.2889683728165568e+04 -5.2179686334052829e+04 -6.3875353120522232e+03 -2.9107824342687728e+01 -6.3875353120522241e+03 -3.0120761467067794e+04  6.3783220353882962e+03 4.3950666930250663e+03 8.4574702298296631e+02 4.3950666930250645e+03 3.2897731842283523e+04 2.2934354444956589e+03 8.4574702298296620e+02 2.2934354444956584e+03 1.0231566261017588e+04  4.5509485080411405e+03 8.3145078872714967e+03 -4.1819294653551850e+02 8.3145078872715003e+03 2.0288155409883671e+04 9.6383199679872951e+02 -4.1819294653551856e+02 9.6383199679872916e+02 6.5556750925998977e+03  3.9517043734098179e+03 7.7627573349720915e+03 -1.1397799395821980e+03 7.7627573349720906e+03 6.0011170263780004e+03 -4.3774535312673606e+01 -1.1397799395821983e+03 -4.3774535312673713e+01 3.9993477001185679e+03  5.2485970630742804e+03 5.6468084173710631e+03 -1.3173280270352416e+03 5.6468084173710604e+03 -7.1368394905241285e+03 -1.0034344987309444e+03 -1.3173280270352418e+03 -1.0034344987309445e+03 3.0600313965727164e+03  1.3529562024659941e+04 -2.6430759171557206e+03 -1.6412598710734046e+03 -2.6430759171557206e+03 -1.7331988647601182e+04 -2.3669732373555184e+03 -1.6412598710734051e+03 -2.3669732373555194e+03 7.1692165484405732e+03  1.1622350160571441e+04 5.0533549899803547e+03 4.6122441094040079e+02 5.0533549899803556e+03 3.2240879259142690e+04 9.1212566314573030e+02 4.6122441094040079e+02 9.1212566314573098e+02 1.3199875330400368e+04  9.4379838891749678e+03 6.8613383197828443e+03 -5.1257131856994090e+02 6.8613383197828507e+03 1.9576016057998175e+04 3.8493177577528149e+02 -5.1257131856994113e+02 3.8493177577528149e+02 9.4464541725118670e+03  1.0163749742681650e+04 6.8376090054139049e+03 -8.9638373357054695e+02 6.8376090054139040e+03 9.3119451086918252e+03 3.0980708168668787e+02 -8.9638373357054718e+02 3.0980708168668804e+02 8.4256860443350706e+03  1.2046331031762711e+04 3.5822509437496710e+03 -7.5800178085228720e+02 3.5822509437496697e+03 5.2551788331932255e+02 4.5242841296698992e+02 -7.5800178085228720e+02 4.5242841296698992e+02 8.8035410552601606e+03  1.5399976574498876e+04 -3.7265137449184103e+03 -2.5430848512075661e+02 -3.7265137449184085e+03 -1.5825926043336963e+03 4.2603652382936588e+02 -2.5430848512075684e+02 4.2603652382936582e+02 1.2720732139712032e+04  1.5883417973112684e+04 3.9681990642276428e+03 2.7085806536301430e+02 3.9681990642276455e+03 3.0032838981203880e+04 5.8753178345551487e+02 2.7085806536301430e+02 5.8753178345551521e+02 1.5596529581073903e+04  1.4506163152775032e+04 5.5506521174392919e+03 -2.4744574212985256e+02 5.5506521174392919e+03 2.0676453166233470e+04 4.8792749249772555e+02 -2.4744574212985259e+02 4.8792749249772555e+02 1.2793130817914733e+04  1.5247284074745721e+04 5.1861455896384923e+03 -3.4731710901530687e+02 5.1861455896384923e+03 1.3244154963927587e+04 5.5139289290761189e+02 -3.4731710901530687e+02 5.5139289290761189e+02 1.2117293049308797e+04  1.6932463080184083e+04 2.2781310529780371e+03 -1.4624296041600812e+02 2.2781310529780371e+03 8.4232702418838326e+03 7.7429278688825241e+02 -1.4624296041600815e+02 7.7429278688825252e+02 1.2854969229323249e+04  1.9021669564953863e+04 -2.9586259158823959e+03 2.2631493075805326e+02 -2.9586259158823973e+03 9.1953215453974644e+03 1.0496472383244140e+03 2.2631493075805329e+02 1.0496472383244143e+03 1.6021298504269645e+04  1.8340793346577862e+04 2.8038185921650243e+03 2.4432847044995839e+02 2.8038185921650229e+03 2.7620791976090179e+04 5.9582213954461292e+02 2.4432847044995833e+02 5.9582213954461292e+02 1.6977041483864828e+04  1.7791087691460682e+04 4.0882229600473602e+03 -8.6079258776263430e+00 4.0882229600473602e+03 2.1513600195674895e+04 5.4576380804357188e+02 -8.6079258776263909e+00 5.4576380804357211e+02 1.5092185551748613e+04  1.8628434245284774e+04 3.6984695314602468e+03 1.2228421902101250e+01 3.6984695314602482e+03 1.6695924534837366e+04 5.8622422723795682e+02 1.2228421902101198e+01 5.8622422723795671e+02 1.4748457869052761e+04  2.0019118845015655e+04 1.5178651407928298e+03 1.3991511688527601e+02 1.5178651407928303e+03 1.4272791315722379e+04 7.3711533478233321e+02 1.3991511688527595e+02 7.3711533478233332e+02 1.5510452627966526e+04  2.1567337650572958e+04 -1.8653673619572735e+03 3.1399460589915867e+02 -1.8653673619572737e+03 1.6121368508979051e+04 1.0536100281561480e+03 3.1399460589915867e+02 1.0536100281561480e+03 1.7937458489129211e+04  1.9357155518074342e+04 1.3887993063778897e+03 2.0768525132137046e+02 1.3887993063778906e+03 2.4757785723438385e+04 7.2155090151086358e+02 2.0768525132137026e+02 7.2155090151086347e+02 1.7102430023461682e+04  1.9486059403574491e+04 2.5720742029094445e+03 1.3235240393712820e+02 2.5720742029094454e+03 2.1717670319150631e+04 6.0948713358114503e+02 1.3235240393712814e+02 6.0948713358114526e+02 1.6263204065987598e+04  2.0423666084914872e+04 2.4106849385523869e+03 1.8894704074029954e+02 2.4106849385523878e+03 1.8970887389582898e+04 5.6463164190976613e+02 1.8894704074029946e+02 5.6463164190976636e+02 1.6255509048687214e+04  2.1558257635214220e+04 1.0051712949479383e+03 2.3699252815460648e+02 1.0051712949479385e+03 1.7997059402158040e+04 6.2732026801680138e+02 2.3699252815460633e+02 6.2732026801680138e+02 1.6947810077674945e+04  2.2681621807648127e+04 -9.9881226478224141e+02 2.6209225286781140e+02 -9.9881226478224107e+02 1.9961064202418507e+04 8.6359390359323982e+02 2.6209225286781140e+02 8.6359390359323959e+02 1.8656257703468982e+04  2.0641202504984056e+04 8.4532391660574717e+02 1.5885036839232407e+02 8.4532391660574729e+02 2.3444032604742766e+04 7.7449421060177667e+02 1.5885036839232413e+02 7.7449421060177667e+02 1.7594913251587706e+04  2.0556820285203681e+04 1.5008462360900146e+03 1.7405650561092671e+02 1.5008462360900146e+03 2.1493780809523832e+04 6.2981145581468093e+02 1.7405650561092676e+02 6.2981145581468115e+02 1.6836277372517747e+04  2.1192134738696124e+04 1.4646686025961640e+03 2.5880435663144607e+02 1.4646686025961633e+03 2.0193846812993830e+04 5.2357422251235846e+02 2.5880435663144607e+02 5.2357422251235846e+02 1.6938201067848982e+04  2.1992355177398837e+04 6.3785156487349059e+02 2.5667821728330046e+02 6.3785156487349082e+02 2.0033980430294378e+04 5.2451723807322003e+02 2.5667821728330063e+02 5.2451723807322003e+02 1.7478616627743817e+04  2.2761196206247816e+04 -4.2274823438637065e+02 1.7219099643966132e+02 -4.2274823438637048e+02 2.1694633283327559e+04 6.5712428525335167e+02 1.7219099643966132e+02 6.5712428525335156e+02 1.8570346437861808e+04  2.0652023187784027e+04 1.8354452006804451e+02 8.8942435964789766e+01 1.8354452006804456e+02 2.1931506079325733e+04 8.0406909485094718e+02 8.8942435964789794e+01 8.0406909485094718e+02 1.7367965226715231e+04  2.0673315862461535e+04 7.3831067733988812e+02 2.0454793539522950e+02 7.3831067733988812e+02 2.1115732778406957e+04 5.9564627929694848e+02 2.0454793539522956e+02 5.9564627929694848e+02 1.6879214934365409e+04  2.1096390494471740e+04 7.8924087520565206e+02 3.3391401601873815e+02 7.8924087520565206e+02 2.0604647643424058e+04 4.6633738067074268e+02 3.3391401601873810e+02 4.6633738067074285e+02 1.6968665169184809e+04  2.1695118451191378e+04 3.3136209849953974e+02 3.0059513869907983e+02 3.3136209849953985e+02 2.0928631954543929e+04 4.5555390552923944e+02 3.0059513869907983e+02 4.5555390552923950e+02 1.7422678333791850e+04  2.2213308846512125e+04 -1.4811398811778824e+02 1.0732232723262253e+02 -1.4811398811778835e+02 2.2059515952457768e+04 5.1869476689197904e+02 1.0732232723262257e+02 5.1869476689197893e+02 1.8022924177639099e+04  2.0601839545839535e+04 7.3671220302178767e+01 9.8318822843800490e+01 7.3671220302178710e+01 2.1389547969999418e+04 6.4579909849514058e+02 9.8318822843800589e+01 6.4579909849514081e+02 1.7152402126524783e+04  2.0076326503871391e+04 2.4508190260407088e+02 3.3287612092830670e+02 2.4508190260407054e+02 2.0677223505796086e+04 4.8215945357339524e+02 3.3287612092830670e+02 4.8215945357339552e+02 1.6435425261320008e+04  2.0377836629334379e+04 1.5497336782205744e+02 5.5577978699448875e+02 1.5497336782205733e+02 2.0536733220009926e+04 3.8261058177533113e+02 5.5577978699448909e+02 3.8261058177533141e+02 1.6557770656544963e+04  2.1268788632056287e+04 -8.4201196984077427e+01 4.9480945110533804e+02 -8.4201196984077370e+01 2.1111234434185313e+04 4.3415301917960960e+02 4.9480945110533804e+02 4.3415301917960971e+02 1.7131245422019303e+04  2.1748513681205117e+04 -1.6656856821994572e+02 1.9059590975193134e+02 -1.6656856821994569e+02 2.1811975748010609e+04 5.6705353076969527e+02 1.9059590975193132e+02 5.6705353076969539e+02 1.7529422159919697e+04  3.2994952661429044e+04 1.7856614641073182e+04 6.8194374070746551e+02 1.7856614641073185e+04 5.4368347863469513e+04 2.7312372603366821e+03 6.8194374070746585e+02 2.7312372603366812e+03 3.4586677753840479e+04  1.0093206139177284e+04 8.0441912600632968e+03 2.4034274079989927e+02 8.0441912600632977e+03 1.6569779832739157e+04 1.5976267742962009e+03 2.4034274079989930e+02 1.5976267742962009e+03 1.0580291314746748e+04  1.8271908237436771e+03 5.1024371857504102e+03 -1.4864584049233463e+02 5.1024371857504084e+03 2.6193836674498998e+03 -2.8247873444917783e+01 -1.4864584049233477e+02 -2.8247873444917921e+01 1.7483537580163277e+03  -5.1279921481647971e+03 5.3810659426847569e+03 -5.0243123279353222e+02 5.3810659426847569e+03 -7.6508409489101850e+03 -1.5884674936722540e+03 -5.0243123279353233e+02 -1.5884674936722538e+03 -4.9626586996708002e+03  -3.7916583170152939e+04 1.4805888397030891e+04 2.3986173444215302e+02 1.4805888397030894e+04 -5.7556329182671499e+04 -4.4570187786815359e+03 2.3986173444215294e+02 