<?xml version="1.0"?>
<VTKFile type="UnstructuredGrid"  version="0.1"  >
<UnstructuredGrid>
<Piece  NumberOfPoints="405" NumberOfCells="1536">
<Points>
<DataArray  type="Float64"  NumberOfComponents="3"  format="ascii">0.45 0 -0.2  0.475 0 -0.2  0.5 0 -0.2  0.525 0 -0.2  0.55 0 -0.2  0.4543305569647124 0.02879295731971743 -0.1978115211041757  0.477657545771291 0.02675200877824335 -0.1988025179712544  0.5017776679804955 0.0253256277993798 -0.1999569627281431  0.5264947361985924 0.02375123871859142 -0.2012952619331944  0.5517595232550484 0.02111571159685032 -0.2026950115227394  0.4586544634271398 0.05620353811217176 -0.1976304672964619  0.4819125520324782 0.05294149909374062 -0.1987791624554444  0.5058377263134906 0.05027264366417872 -0.2000940209142713  0.5303426548702441 0.04747146161296517 -0.2015126491473312  0.5551419586717181 0.04359620380306107 -0.2029849431200227  0.463940012554583 0.08241322017832282 -0.1979410249539283  0.4871707173738848 0.07826533502834704 -0.1990260807852748  0.5109973388270811 0.0746485408882759 -0.2002299339952104  0.5352729462296866 0.07088514722564498 -0.2014776006447829  0.5596547050834441 0.06620514509295554 -0.202729883462963  0.4696855290104491 0.1076405784187512 -0.1983818778268319  0.4929213031900264 0.1029074241819932 -0.1993186208294171  0.5166553370532443 0.09860522855956867 -0.2003466339862444  0.5407162690280529 0.09416356412970288 -0.2013891569627572  0.5647882188838843 0.0890184477237075 -0.2024136759857149  0.475460972860879 0.1322050430534341 -0.1987584728356326  0.4987916788795289 0.1271237761152449 -0.1995764415808393  0.5224667413169456 0.1223460215203021 -0.2004507107378065  0.5463632209746556 0.1174632216907448 -0.2013244830995803  0.570235493406075 0.1120936358780381 -0.2021769945799528  0.4811040497739599 0.1563385752203841 -0.1990281723587467  0.5045693145305195 0.1510763205998966 -0.1997810681479602  0.5282423745069841 0.1460046607929371 -0.2005498034136826  0.5520384272339617 0.1408662300443953 -0.2013063549703679  0.5758002290103397 0.1354253438991888 -0.2020496755984412  0.4866234386912542 0.1802254201884326 -0.1992413714222624  0.5102043200242488 0.1748831758659583 -0.1999573368265937  0.53390002206571 0.1696617231085614 -0.2006512302342192  0.5576454456920389 0.1644057683415362 -0.2013280826578353  0.581354687617626 0.1589771636098752 -0.2020171313371002  0.4920566612863974 0.2040015082018795 -0.1994310299285411  0.5156554497372166 0.1986543047720361 -0.2001313907275433  0.539363210592535 0.1933903605467936 -0.2007517571243085  0.5631228885926337 0.1880862023130499 -0.2013538726707742  0.5868383843619742 0.1826670817750261 -0.2020262500449855  0.45 0 -0.175  0.475 0 -0.175  0.5 0 -0.175  0.525 0 -0.175  0.55 0 -0.175  0.4549359019478625 0.02843734425043257 -0.1736768988694618  0.4783414917343765 0.02648485078413133 -0.1742739642175486  0.502528487294939 0.02522976803869374 -0.1750032970417524  0.5274001604738593 0.02393777982517239 -0.1758218966017487  0.5531233832508688 0.02141258245351584 -0.1766611097348185  0.4595031033450072 0.05591876425066881 -0.173327520649444  0.4828290232034897 0.05267832567287996 -0.1741634237720282  0.5068207561389531 0.05003372669988418 -0.1751317117543861  0.5314174305329294 0.04725130646223262 -0.1761569739231671  0.5564181874100393 0.04330457092297928 -0.1771423063809117  0.4648034545767781 0.08218674492562908 -0.1734157182176681  0.4881185832194626 0.07802078413437059 -0.1742838941426897  0.5119685653674368 0.0743325661311957 -0.1752423435150816  0.5362545189889985 0.07047940619168216 -0.1762279890858701  0.5606850606206362 0.06573029365389348 -0.1771905828234814  0.4704863166541851 0.1074522947704775 -0.1736423215095939  0.4938079358296546 0.1026799189080723 -0.1744692722176149  0.5175389040018417 0.09828194407137252 -0.1753414960119329  0.5415686455919507 0.09374078933472861 -0.1762243718866318  0.5656296453457563 0.08855629819405507 -0.1770985175124507  0.4762042670529303 0.1320257311577391 -0.1738710271340361  0.499601984977252 0.1269076899638439 -0.1746517577641154  0.5232623320040826 0.1220477600590767 -0.1754389195031552  0.5471170118518585 0.1170852456370171 -0.1762261827016735  0.5709599493212486 0.1116941466933888 -0.1770164856802244  0.4818264628680645 0.1561619909839666 -0.1740625719659745  0.5053266338498764 0.1508715776033874 -0.1748133628464248  0.52897497745526 0.1457378543117685 -0.1755397148691087  0.5527314604327935 0.1405398800675047 -0.1762579070915887  0.5764632837691247 0.1350826701577353 -0.176992152861375  0.4873425291061093 0.1800523777077437 -0.1742310545733093  0.5109319724907395 0.1746932719354344 -0.1749650756386951  0.5345938363784936 0.1694220675627785 -0.1756464598414872  0.5583060222171569 0.1641128160149865 -0.1763147610784771  0.5819952487016656 0.1586616046287787 -0.1770213314397344  0.4927646539699866 0.2038350768456196 -0.1744161900781868  0.5163942712520848 0.1984755013930017 -0.1751282691878064  0.5400601595190369 0.1931555219366052 -0.1757562686955915  0.5637786537751386 0.1877911508736084 -0.1763717838268224  0.5874810638867916 0.1823452126455925 -0.1770583789711956  0.45 0 -0.15  0.475 0 -0.15  0.5 0 -0.15  0.525 0 -0.15  0.55 0 -0.15  0.4554238245323343 0.0284231822368069 -0.1492240619886378  0.478665645539346 0.02641327638511257 -0.149584560372713  0.5028140469338946 0.02519818362900634 -0.1500117445397198  0.5277408903894955 0.0239351219065444 -0.1504880786545559  0.5536174937517233 0.02121106247918131 -0.150972116864827  0.4601745358520587 0.05580832416733298 -0.1488830119529232  0.48339025774654 0.05254899328949669 -0.14944769402133  0.5073674320044818 0.0499394705925946 -0.150102421434358  0.5320426086957887 0.04716679682498467 -0.1507911194322668  0.5571721027612474 0.04309351319452155 -0.1514346738730231  0.4655575895254316 0.08202895185092056 -0.148835792806732  0.4888058429500417 0.07785289178627672 -0.1494937342157619  0.5126495802631638 0.07416824400340358 -0.1502085007462338  0.5369803066830334 0.07029707931439502 -0.1509434932230725  0.5614850927359567 0.06550185189071296 -0.1516514652686247  0.4712667291185489 0.107273655757543 -0.1489087648544853  0.4945469728367839 0.1024879709840464 -0.1496026934722215  0.518264688284318 0.09806983770942376 -0.1503119368740174  0.5423041312426536 0.09349872574404225 -0.1510309793813384  0.5663934084198771 0.0883025728075774 -0.151743594745463  0.4769932897771051 0.1318473444975468 -0.1490155396569137  0.5003580594343815 0.1267065587823981 -0.149726763687611  0.5239952460281285 0.1218142929957833 -0.1504160253789412  0.5478366092906419 0.1168181445460971 -0.1511069080214904  0.5716783676693949 0.1114231682099452 -0.1518085628313017  0.4826231213742884 0.1559921137897007 -0.1491279874564745  0.5060906844406928 0.1506717280037506 -0.1498517693830687  0.5297078798971773 0.1454982890822711 -0.1505247984348814  0.5534383323612241 0.1402632046212328 -0.1511924570259127  0.5771516653281313 0.1347960144547836 -0.1518879301855083  0.4881514914693676 0.1798945287944055 -0.149250412018102  0.5117090796360959 0.1744966218324105 -0.1499855930454779  0.5353365203132645 0.1691778892116027 -0.1506402920224049  0.5590158921506106 0.1638256183802878 -0.1512846930003487  0.5826759291856269 0.1583515751919533 -0.1519822409208542  0.4936169302813004 0.2036836544707585 -0.1494356889093418  0.5172111243843042 0.1982706774601673 -0.1501562023082691  0.5408422733968343 0.1928945230339426 -0.1507635577294352  0.5645184608072634 0.187480650833714 -0.1513631200706945  0.5881788018815336 0.1820008440210504 -0.152048577837126  0.45 0 -0.125  0.475 0 -0.125  0.5 0 -0.125  0.525 0 -0.125  0.55 0 -0.125  0.4557104921961057 0.02847763211704649 -0.1245342830490214  0.4788601362762721 0.02641482462611392 -0.1247452449385259  0.5029786148784446 0.02518978634009951 -0.1250007479057182  0.5279258477182537 0.0239137292947062 -0.125289696296753  0.5538599325999337 0.02104804009882771 -0.1255952241045877  0.4606361043232988 0.05582199790293299 -0.1242758358255463  0.4837695783640963 0.05251391101595721 -0.1246403083683593  0.5077257870329939 0.04989568446558618 -0.1250651097549201  0.53243159209097 0.04709362848555731 -0.1255110976573432  0.5575983446661894 0.04288797441894063 -0.1259266725544635  0.4661357829030108 0.08198917783149634 -0.1241742794365104  0.4893265054116712 0.07777162150100383 -0.1246461371118571  0.5131542071063602 0.07406975130957888 -0.1251570139344731  0.537502245395538 0.07016490856821622 -0.1256792838321495  0.562025287238721 0.06528922504473406 -0.1261835020075233  0.471922621683959 0.1071936566642797 -0.1241550332441487  0.495162378954432 0.1023671764332043 -0.1247039933587637  0.5188608200111312 0.09792183769050272 -0.1252615478123378  0.5428988226451654 0.09331681465209124 -0.1258233489105469  0.5669891328595861 0.08807371597700758 -0.126382925954421  0.4777071908145953 0.1317437399191574 -0.1241760706681998  0.501037858488472 0.1265587797310189 -0.1247865081157007  0.5246480974319429 0.1216308036022556 -0.1253747638190469  0.5484724764092295 0.1165989020464576 -0.1259611917329881  0.5723008956576918 0.1111702105560024 -0.1265598438699494  0.4833865936386567 0.1558778428898686 -0.1242254625631651  0.5068192834580036 0.1505087085459799 -0.1248852843492326  0.5304020522950748 0.1452912083137538 -0.1254955186288767  0.5541047329342407 0.1400153549454451 -0.1260985686912075  0.5777939332176526 0.134514994751215 -0.1267303943110361  0.4889636602412386 0.1797779743771729 -0.1243114684397384  0.5124835624803191 0.1743233677342645 -0.1250086909720009  0.5360714153423753 0.1689514682264812 -0.1256231917393204  0.5597158164497906 0.1635512269947236 -0.1262268871074599  0.5833432803856579 0.158037386569653 -0.126886794675133  0.494499140115379 0.2035609083339303 -0.1244957159742147  0.5180454349459507 0.1980797928058637 -0.1251862563673199  0.5416309120241063 0.1926435468157967 -0.1257579031469918  0.5652645421656018 0.1871750546112807 -0.1263217702595969  0.5888836906450604 0.181645798939435 -0.1269780778716653  0.45 0 -0.1  0.475 0 -0.1  0.5 0 -
[...]
<PointData  Tensors="Piola Kirchhoff sec Stress"> 
<DataArray  type="Float64"  Name="Piola Kirchhoff sec Stress"  NumberOfComponents="9" format="ascii">2.6749438188395849e+04 1.2493862621946289e+04 2.5901295851771674e+03 1.2493862621946295e+04 5.0417228346452233e+04 8.8339598001713857e+03 2.5901295851771674e+03 8.8339598001713875e+03 2.7543225620609748e+04  1.0628642247410766e+04 4.4595650506388865e+03 4.2638315738096236e+02 4.4595650506388874e+03 2.0053292019015578e+04 5.0077324097875062e+03 4.2638315738096207e+02 5.0077324097875062e+03 9.8561407958406762e+03  1.4121621692010024e+03 1.6007839363604339e+03 -1.6328982926249677e+02 1.6007839363604355e+03 3.6183488249674888e+03 -5.5225480775006986e+01 -1.6328982926249699e+02 -5.5225480775006858e+01 1.6394413284514776e+03  -6.4851179354524311e+03 1.2465541670059827e+03 -5.7108980128139615e+02 1.2465541670059843e+03 -1.1025812845805225e+04 -5.2088651732180488e+03 -5.7108980128139603e+02 -5.2088651732180488e+03 -2.4159568859065012e+03  -3.0009745906452543e+04 8.9490220816654019e+03 2.5045816258258365e+03 8.9490220816654019e+03 -5.1056363141082191e+04 -1.1263698637580470e+04 2.5045816258258374e+03 -1.1263698637580470e+04 -1.6019363423689418e+04  4.1309116102524249e+03 4.6890866745779213e+03 7.5488410901016880e+02 4.6890866745779222e+03 3.1006888680860742e+04 8.9004432501517988e+02 7.5488410901016880e+02 8.9004432501517965e+02 7.5157026624994078e+03  2.6014627677709195e+03 6.4402616945024192e+03 6.3441971354826300e+01 6.4402616945024192e+03 1.7188123275829948e+04 -4.0840199669510463e+02 6.3441971354826322e+01 -4.0840199669510463e+02 4.9909372246845714e+03  3.5550169165799930e+03 5.6521858807811395e+03 -4.4158450775136129e+02 5.6521858807811368e+03 6.1621967552534543e+03 -2.1828990463270824e+02 -4.4158450775136157e+02 -2.1828990463270807e+02 4.0877678610952289e+03  5.8795116525058720e+03 3.5186175197329103e+03 -6.2684227716776877e+02 3.5186175197329103e+03 -3.0166125262310834e+03 1.0039974860842851e+03 -6.2684227716776877e+02 1.0039974860842851e+03 5.0084127766820156e+03  9.9813678262187768e+03 -3.4651033920102850e+03 -3.1466755152136921e+02 -3.4651033920102841e+03 -8.3375003375927499e+03 2.8631564030772856e+03 -3.1466755152136864e+02 2.8631564030772856e+03 8.8976211173202410e+03  9.3699619629667668e+03 5.4601698787400319e+03 3.7682717365778893e+02 5.4601698787400328e+03 2.9552314755928030e+04 2.0347572529735814e+02 3.7682717365778893e+02 2.0347572529735794e+02 1.0771443326404435e+04  8.3666052014015786e+03 6.8101756313405795e+03 1.3455500006158192e+02 6.8101756313405758e+03 1.8244165406025411e+04 5.7044440864561267e+01 1.3455500006158201e+02 5.7044440864561118e+01 8.3862900087615908e+03  9.6910849918123877e+03 6.4537985254587029e+03 -3.3808781134305882e+01 6.4537985254587038e+03 9.1898680722802328e+03 1.4550081361294943e+02 -3.3808781134305868e+01 1.4550081361294943e+02 7.8385449521022747e+03  1.1601525445685455e+04 3.4502847696591512e+03 1.3523590246880447e+01 3.4502847696591516e+03 1.8508094394376524e+03 5.5130093160471165e+02 1.3523590246880397e+01 5.5130093160471154e+02 8.4431764583975946e+03  1.3694576083971322e+04 -3.6564966376200082e+03 2.9925386073189890e+02 -3.6564966376200091e+03 2.8372931265630694e+02 1.2210771668481509e+03 2.9925386073189890e+02 1.2210771668481511e+03 1.2172101097279692e+04  1.3680550125584850e+04 4.7400883755613713e+03 1.1271171688758821e+02 4.7400883755613731e+03 2.7809819812284852e+04 1.7465077723508418e+02 1.1271171688758815e+02 1.7465077723508438e+02 1.3629319481670598e+04  1.3199163678765555e+04 6.1506941190528278e+03 7.9831922728265496e+01 6.1506941190528296e+03 1.8603758191455785e+04 2.5389848879944469e+02 7.9831922728265454e+01 2.5389848879944452e+02 1.1424206178374046e+04  1.4389911212835199e+04 5.5944477634381083e+03 9.7088033683542875e+01 5.5944477634381064e+03 1.1641059672077456e+04 3.0664938444258667e+02 9.7088033683542847e+01 3.0664938444258661e+02 1.0915591313930723e+04  1.5890402198087295e+04 2.6330054336211369e+03 2.2872381662211203e+02 2.6330054336211360e+03 7.0435704964672104e+03 4.0941746860494942e+02 2.2872381662211203e+02 4.0941746860494965e+02 1.1580555997593463e+04  1.7430516567883329e+04 -2.8305269496216915e+03 4.0595332667679872e+02 -2.8305269496216920e+03 8.3123005098325339e+03 9.2070096931883018e+02 4.0595332667679872e+02 9.2070096931883018e+02 1.4689069790802643e+04  1.6034542879652960e+04 3.5896072666360833e+03 -2.3730540969193625e+00 3.5896072666360833e+03 2.5570843419540255e+04 2.3502144113224946e+02 -2.3730540969193710e+00 2.3502144113224952e+02 1.5314242987829581e+04  1.6104096906179893e+04 4.9183561547709332e+03 4.6883552010789401e+01 4.9183561547709323e+03 1.8887531822739122e+04 3.4573388263186837e+02 4.6883552010789380e+01 3.4573388263186825e+02 1.3422514194189436e+04  1.7133054788910500e+04 4.2981578271356648e+03 1.1705924041579640e+02 4.2981578271356657e+03 1.3910570516645270e+04 3.6362079855508432e+02 1.1705924041579634e+02 3.6362079855508426e+02 1.2975696389137107e+04  1.8285205930300323e+04 1.8734530401624074e+03 2.3137791973206802e+02 1.8734530401624063e+03 1.1361332626035190e+04 3.7660358439871504e+02 2.3137791973206819e+02 3.7660358439871567e+02 1.3604001343486916e+04  1.9430263768336885e+04 -1.9095513680240726e+03 3.7671185498523920e+02 -1.9095513680240726e+03 1.3733323663652818e+04 7.6062597802543667e+02 3.7671185498523931e+02 7.6062597802543667e+02 1.6026847920177292e+04  1.6517240777094321e+04 1.9480858939446839e+03 1.5559249002119694e+01 1.9480858939446844e+03 2.2397883944445741e+04 3.9564539622301572e+02 1.5559249002119740e+01 3.9564539622301572e+02 1.5218434494639105e+04  1.7260892893782471e+04 3.3376881628833430e+03 5.1284170292073853e+01 3.3376881628833435e+03 1.8751411481355866e+04 4.0569091914497926e+02 5.1284170292073853e+01 4.0569091914497932e+02 1.4278270734518585e+04  1.8282084756167100e+04 2.9692002633606694e+03 1.0611172409723379e+02 2.9692002633606703e+03 1.5613241309497478e+04 3.8450339060756289e+02 1.0611172409723375e+02 3.8450339060756312e+02 1.4057031968626745e+04  1.9179765147930982e+04 1.2763369307694968e+03 1.8141322891362867e+02 1.2763369307694968e+03 1.4415366947850329e+04 3.7313332837197180e+02 1.8141322891362873e+02 3.7313332837197174e+02 1.4588360261378995e+04  1.9991296680661882e+04 -1.0777971732469384e+03 2.6752835332098772e+02 -1.0777971732469384e+03 1.6812629371715557e+04 6.3227571461195964e+02 2.6752835332098778e+02 6.3227571461195964e+02 1.6259898614615930e+04  1.7202245916996351e+04 1.0675776941646784e+03 -3.1094147252332053e+01 1.0675776941646780e+03 2.0214327198495503e+04 4.3126136799993520e+02 -3.1094147252332071e+01 4.3126136799993520e+02 1.5142487954302296e+04  1.7732580264203367e+04 2.0074222650472436e+03 2.2172045868337566e+01 2.0074222650472436e+03 1.8236834054745319e+04 4.2523626662507132e+02 2.2172045868337602e+01 4.2523626662507144e+02 1.4510684777541439e+04  1.8469638768162451e+04 1.8701721711704031e+03 8.2542557688632044e+01 1.8701721711704029e+03 1.6587926633741983e+04 3.8030823740064545e+02 8.2542557688632058e+01 3.8030823740064545e+02 1.4419608026006621e+04  1.9091529029732705e+04 8.2931526616197550e+02 1.2692535142194815e+02 8.2931526616197527e+02 1.6265845171680121e+04 3.6615366666723764e+02 1.2692535142194816e+02 3.6615366666723793e+02 1.4824261114363253e+04  1.9645273319011929e+04 -4.5982574653255267e+02 1.5100663638025648e+02 -4.5982574653255256e+02 1.8219821044500368e+04 5.1678497628250534e+02 1.5100663638025651e+02 5.1678497628250545e+02 1.5836793598041731e+04  1.7061810550644484e+04 1.9083183141129686e+02 -4.0142756872298030e+01 1.9083183141129666e+02 1.8416001738573370e+04 4.9250649523058081e+02 -4.0142756872297980e+01 4.9250649523058092e+02 1.4628513728097645e+04  1.7516169877135660e+04 9.7789646440721356e+02 -1.8817770414500306e+01 9.7789646440721378e+02 1.7591828579093839e+04 4.2917999762970027e+02 -1.8817770414500377e+01 4.2917999762970021e+02 1.4306363033314461e+04  1.7964776034520095e+04 1.0737444451150100e+03 5.1185313856566303e+01 1.0737444451150102e+03 1.6917398839736448e+04 3.5609882257645177e+02 5.1185313856566239e+01 3.5609882257645177e+02 1.4237468305397719e+04  1.8390937161581238e+04 4.9264504242685132e+02 8.8789225694888955e+01 4.9264504242685138e+02 1.7234480870185340e+04 3.5084584067947497e+02 8.8789225694888955e+01 3.5084584067947497e+02 1.4595209185538051e+04  1.8812286919308102e+04 -1.2782888858177610e+02 6.2161776350286353e+01 -1.2782888858177610e+02 1.8531968188334271e+04 4.1569571172029032e+02 6.2161776350286331e+01 4.1569571172029021e+02 1.5127870440969185e+04  1.7017383312309816e+04 1.7756343071562856e+02 -7.9450509120192237e+01 1.7756343071562856e+02 1.8037310298439897e+04 4.5950513877405075e+02 -7.9450509120192223e+01 4.5950513877405075e+02 1.4595066486416126e+04  1.6574991731331171e+04 3.3851634483246016e+02 7.8731335295236747e+01 3.3851634483246028e+02 1.7103230790554542e+04 3.7733270123322723e+02 7.8731335295236747e+01 3.7733270123322728e+02 1.3854269828892691e+04  1.6825585757070283e+04 2.4606242636087060e+02 1.7900969111158977e+02 2.4606242636087072e+02 1.6729654391312601e+04 2.7568136977944908e+02 1.7900969111158977e+02 2.7568136977944903e+02 1.3580044335333490e+04  1.7735494551501710e+04 1.9780432736228267e+01 1.5234178762557011e+02 1.9780432736228274e+01 1.7476256564374617e+04 3.4392859925286439e+02 1.5234178762556996e+02 3.4392859925286439e+02 1.4130728755914570e+04  1.8267753748308376e+04 -1.1981327586898949e+02 6.5886647185364907e+01 -1.1981327586898946e+02 1.8397977534713449e+04 4.5123627899646306e+02 6.5886647185364907e+01 4.5123627899646306e+02 1.4644405707049445e+04  2.8521125813486567e+04 1.5520187188745687e+04 1.2251273649562484e+03 1.5520187188745680e+04 4.8979545905423445e+04 4.7138567514689230e+03 1.2251273649562486e+03 4.7138567514689212e+03 3.0307460996996924e+04  9.3625664900387583e+03 6.9680256733492388e+03 3.8119086517175401e+02 6.9680256733492415e+03 1.6492953773040601e+04 2.7299324978934515e+03 3.8119086517175430e+02 2.7299324978934524e+03 9.6524015237241911e+03  1.4849554141495087e+03 4.1265606616583045e+03 -1.5438992390993448e+02 4.1265606616583036e+03 2.9518111801681498e+03 -1.0814375633045330e+00 -1.5438992390993440e+02 -1.0814375633042215e+00 1.5435511783062082e+03  -5.2313963863345998e+03 4.2417519070514827e+03 -5.4228118479618456e+02 4.2417519070514827e+03 -7.5830036309592415e+03 -2.6954136274352054e+03 -5.4228118479618456e+02 -2.6954136274352054e+03 -4.3246272380778664e+03  -3.5447062981544608e+04 1.2954514145081002e+04 8.5392622775745323e+01 1.2954514145080999e+04 -5.4124025379286570e+04 -6.4317163052897367e+03 8.5392622775745679e+01 -6.4317163052897367e+03 -3.1446689543325621e+04  5.8996710654516828e+03 4.8312689299712729e+03 8.2341702670444181e+02 4.8312689299712711e+03 3.2397313217300456e+04 2.2519248942701515e+03 8.2341702670444170e+02 2.2519248942701506e+03 9.4608499700370285e+03  4.1911393428676001e+03 8.3590491765041006e+03 -4.3211595537971272e+02 8.3590491765040988e+03 2.0253798997000642e+04 9.7111650877243278e+02 -4.3211595537971277e+02 9.7111650877243301e+02 6.1576519175524663e+03  3.3751404862634281e+03 7.7368165274304865e+03 -1.1683492755862810e+03 7.7368165274304811e+03 5.6833156172621148e+03 -2.4694940031284876e+01 -1.1683492755862812e+03 -2.4694940031284712e+01 3.5100967628879271e+03  4.5877625632873587e+03 5.5383582951988219e+03 -1.3389008447417752e+03 5.5383582951988219e+03 -7.8366232778305630e+03 -9.8999976922855626e+02 -1.3389008447417757e+03 -9.8999976922855603e+02 2.5696234389989736e+03  1.3242644111198846e+04 -2.9604973057459779e+03 -1.6947947833690755e+03 -2.9604973057459774e+03 -1.8419771438194311e+04 -2.4453347285650857e+03 -1.6947947833690750e+03 -2.4453347285650852e+03 6.9066230448487158e+03  1.0423637242418354e+04 5.6558916131902324e+03 4.0362435256770306e+02 5.6558916131902351e+03 3.0976306791441082e+04 7.5042391975851660e+02 4.0362435256770300e+02 7.5042391975851660e+02 1.1670262555971492e+04  8.5046560649684561e+03 7.1220586487631726e+03 -5.6743070421244136e+02 7.1220586487631745e+03 1.8441264247420124e+04 3.1314208153530046e+02 -5.6743070421244113e+02 3.1314208153530058e+02 8.3413501137438743e+03  9.0531733970295245e+03 6.8853134817796090e+03 -9.5694309686915824e+02 6.8853134817796090e+03 7.9069167697074981e+03 2.7391975182635599e+02 -9.5694309686915847e+02 2.7391975182635633e+02 7.3048512143119060e+03  1.0723305013717949e+04 3.4455884625112317e+03 -7.9606258369565296e+02 3.4455884625112326e+03 -1.1950517208339440e+03 4.4611418240817295e+02 -7.9606258369565285e+02 4.4611418240817295e+02 7.6934278961064492e+03  1.3977255322815374e+04 -4.2219527336283227e+03 -2.4243702032288550e+02 -4.2219527336283227e+03 -3.6914813464503154e+03 4.4947381873080809e+02 -2.4243702032288550e+02 4.4947381873080826e+02 1.1734893648879581e+04  1.4155456073849409e+04 4.6079524991638737e+03 1.8658395120998884e+02 4.6079524991638737e+03 2.8268045544721601e+04 3.4773893529728753e+02 1.8658395120998884e+02 3.4773893529728753e+02 1.3647189584034657e+04  1.2989316357797832e+04 5.8818817620462996e+03 -3.3058152205072315e+02 5.8818817620462978e+03 1.8637508151152524e+04 3.5178577498766384e+02 -3.3058152205072309e+02 3.5178577498766379e+02 1.1098884789974552e+04  1.3584173129216410e+04 5.2867666012467407e+03 -4.2708076229315299e+02 5.2867666012467371e+03 1.0931809305779478e+04 4.7510288667250524e+02 -4.2708076229315293e+02 4.7510288667250478e+02 1.0423696040583705e+04  1.4950467645195120e+04 2.1517782255748148e+03 -1.8894321854522889e+02 2.1517782255748152e+03 5.8521092868030537e+03 7.4744245944279066e+02 -1.8894321854522889e+02 7.4744245944279066e+02 1.1122306881000801e+04  1.6760103449782095e+04 -3.4321918733260873e+03 2.6523166037201952e+02 -3.4321918733260873e+03 6.4815920163155060e+03 1.0980862815389939e+03 2.6523166037201946e+02 1.0980862815389942e+03 1.4365584185604241e+04  1.6359002317901692e+04 3.2806172403366918e+03 1.4027842863688980e+02 3.2806172403366922e+03 2.5643394897171096e+04 3.1093410023806268e+02 1.4027842863688986e+02 3.1093410023806274e+02 1.4963360651003415e+04  1.5826131811414001e+04 4.4308436815172090e+03 -1.0202622733526844e+02 4.4308436815172099e+03 1.8924283645127962e+04 3.6650182725133521e+02 -1.0202622733526850e+02 3.6650182725133521e+02 1.3059321094156878e+04  1.6483983199019720e+04 3.8495841822216753e+03 -6.8409130211125671e+01 3.8495841822216744e+03 1.3799118616202208e+04 4.7198356044368302e+02 -6.8409130211125657e+01 4.7198356044368342e+02 1.2654247091542811e+04  1.7550834893825853e+04 1.4412081943597079e+03 1.0092690715414410e+02 1.4412081943597091e+03 1.1187494707536822e+04 6.8340267637982424e+02 1.0092690715414410e+02 6.8340267637982413e+02 1.3348651838867529e+04  1.8802365051781115e+04 -2.2266375518706645e+03 3.5507318129440654e+02 -2.2266375518706645e+03 1.3085102211128233e+04 1.0843913301921675e+03 3.5507318129440637e+02 1.0843913301921675e+03 1.5836850335956311e+04  1.6936424252469209e+04 1.7417982503817616e+03 1.3449319908614709e+02 1.7417982503817623e+03 2.2477782556826358e+04 4.3681834729797447e+02 1.3449319908614711e+02 4.3681834729797453e+02 1.5005158901459950e+04  1.7072771684941999e+04 2.9247562357423622e+03 5.9576108800651255e+01 2.9247562357423640e+03 1.8866328606799962e+04 4.0489965086755467e+02 5.9576108800651269e+01 4.0489965086755467e+02 1.4038764494110334e+04  1.7851510757174816e+04 2.5935323677817678e+03 1.2828429670455017e+02 2.5935323677817678e+03 1.5790406646271440e+04 4.2097899778727100e+02 1.2828429670455012e+02 4.2097899778727106e+02 1.3909951761623752e+04  1.8743771936774818e+04 9.8454478097300046e+02 2.0894410503870034e+02 9.8454478097300080e+02 1.4677542310877539e+04 5.4520707991611675e+02 2.0894410503870040e+02 5.4520707991611653e+02 1.4528980347433670e+04  1.9638592495114157e+04 -1.2229339796185702e+03 2.9367395600316070e+02 -1.2229339796185702e+03 1.6786755221179330e+04 8.5721034263010358e+02 2.9367395600316058e+02 8.5721034263010370e+02 1.6290752169876972e+04  1.7482457761551843e+04 9.1561268420735485e+02 1.3143200324788910e+02 9.1561268420735405e+02 2.0354076226884034e+04 5.4698840152667890e+02 1.3143200324788918e+02 5.4698840152667913e+02 1.5027191770577909e+04  1.7606506063319332e+04 1.7139161273717541e+03 1.4387372681632601e+02 1.7139161273717539e+03 1.8422453808254759e+04 4.3666409419147720e+02 1.4387372681632607e+02 4.3666409419147720e+02 1.4373540404894071e+04  1.8243550482207531e+04 1.5983800404888405e+03 2.2746274406573517e+02 1.5983800404888405e+03 1.6891541559059329e+04 3.7121536399082544e+02 2.2746274406573522e+02 3.7121536399082549e+02 1.4415818494849647e+04  1.8927500855566708e+04 6.4170744916114847e+02 2.4026085616510599e+02 6.4170744916114813e+02 1.6650631183496112e+04 4.1801511498181941e+02 2.4026085616510599e+02 4.1801511498181941e+02 1.4913001589442738e+04  1.9562203435234416e+04 -5.3156188893033334e+02 1.8789139347951425e+02 -5.3156188893033323e+02 1.8470461580570522e+04 6.0650281503222732e+02 1.8789139347951436e+02 6.0650281503222720e+02 1.6047895874591408e+04  1.7314958203449965e+04 1.7710469765084775e+02 7.1372731972086157e+01 1.7710469765084750e+02 1.8589490279558984e+04 6.2120212684931994e+02 7.1372731972086200e+01 6.2120212684931982e+02 1.4646817517684705e+04  1.7434707801432967e+04 8.1385334243895147e+02 1.9274519139336522e+02 8.1385334243895113e+02 1.7829085649297576e+04 4.3126471951463679e+02 1.9274519139336522e+02 4.3126471951463679e+02 1.4234647974117284e+04  1.7918117126561308e+04 8.5496055506421658e+02 3.1866703679297791e+02 8.5496055506421681e+02 1.7261305597266626e+04 3.1353193616662446e+02 3.1866703679297791e+02 3.1353193616662440e+02 1.4344226124788958e+04  1.8478348281975294e+04 3.3710744479572566e+02 2.8769840697693354e+02 3.3710744479572571e+02 1.7574940743240906e+04 3.2610871427587239e+02 2.8769840697693343e+02 3.2610871427587239e+02 1.4791328932585306e+04  1.8934309850770296e+04 -1.8796012921499042e+02 1.0415764057515541e+02 -1.8796012921499027e+02 1.8818328758417290e+04 4.2210758231704949e+02 1.0415764057515547e+02 4.2210758231704972e+02 1.5417362421876333e+04  1.7283979035121582e+04 9.6078926341584392e+01 8.3083314245272192e+01 9.6078926341584392e+01 1.8033192727199712e+04 4.7931456200991477e+02 8.3083314245272206e+01 4.7931456200991454e+02 1.4438763529983260e+04  1.6744421267721089e+04 2.9137731858158196e+02 3.2288415401954865e+02 2.9137731858158202e+02 1.7336337636044991e+04 3.2460037745090312e+02 3.2288415401954865e+02 3.2460037745090295e+02 1.3747986872423309e+04  1.7073654747672001e+04 1.7766178943309779e+02 5.4777791586556611e+02 1.7766178943309771e+02 1.7221915158882661e+04 2.1828520419226203e+02 5.4777791586556611e+02 2.1828520419226189e+02 1.3896329381592326e+04  1.7990501180256066e+04 -1.0579756626792499e+02 4.7940037386917248e+02 -1.0579756626792513e+02 1.7829878655265042e+04 2.7771874804221062e+02 4.7940037386917248e+02 2.7771874804221068e+02 1.4482419159222636e+04  1.8438868524177458e+04 -1.9664118109149035e+02 1.7235103600201157e+02 -1.9664118109149030e+02 1.8560357740569438e+04 4.2714236217342972e+02 1.7235103600201151e+02 4.2714236217342972e+02 1.4871485176179491e+04  3.1823524440649624e+04 1.7483276955648555e+04 6.5574872684641196e+02 1.7483276955648558e+04 5.2728916466489340e+04 2.6756364368606364e+03 6.5574872684641230e+02 2.6756364368606364e+03 3.3444220033475474e+04  1.0003806326231337e+04 7.9207732538474993e+03 2.3185719970374791e+02 7.9207732538474966e+03 1.6746108372635630e+04 1.6348901710796517e+03 2.3185719970374797e+02 1.6348901710796515e+03 1.0596414563655642e+04  1.5866944999432578e+03 4.9047215140104709e+03 -1.4639297740332768e+02 4.9047215140104690e+03 2.7043930877559251e+03 3.1595272402256604e+01 -1.4639297740332768e+02 3.1595272402256654e+01 1.6777790465303135e+03  -5.4644511485419462e+03 5.1396268126273490e+03 -4.9111657626549515e+02 5.1396268126273480e+03 -7.6882412988458300e+03 -1.4957416475192924e+03 -4.9111657626549515e+02 -1.4957416475192927e+03 -5.1236786699824106e+03  -3.9886923621816793e+04 1.4890360239536349e+04 3.3362099919774369e+02 1.4890360239536352e+04 -5.9779053575863953e+04 -4.4074356175340745e+03 3.3362099919774369e+