<?xml version="1.0"?>
<VTKFile type="UnstructuredGrid"  version="0.1"  >
<UnstructuredGrid>
<Piece  NumberOfPoints="405" NumberOfCells="1536">
<Points>
<DataArray  type="Float64"  NumberOfComponents="3"  format="ascii">0.45 0 -0.2  0.475 0 -0.2  0.5 0 -0.2  0.525 0 -0.2  0.55 0 -0.2  0.4527128459205056 0.02739087591812122 -0.1987967915852156  0.4766889268759769 0.02599527985099138 -0.1993756731133943  0.5011944925569045 0.02511648668028251 -0.2000475140739816  0.5260952460929507 0.02419074836343968 -0.2008096441588206  0.5513904126028111 0.02262830065118636 -0.2015629720212287  0.4552777697335686 0.05385580057730392 -0.1987694166871891  0.4793022429309972 0.05176281236288911 -0.1993945366783882  0.5037292589711723 0.05013623823848105 -0.2001273389794458  0.5285431288797461 0.04846944753134749 -0.2009084377366671  0.5536135093148623 0.04614629800337901 -0.2016982429438947  0.4583729208583957 0.07972734253262657 -0.1989721360014596  0.4824671977978582 0.07714402754167479 -0.1995389072487038  0.5068934642626034 0.07494815580810013 -0.2001822507374945  0.5316181824404963 0.07269617154597319 -0.2008455043981462  0.5564867065517544 0.06988354613222929 -0.2015002174181888  0.4617558816152581 0.1051050233052805 -0.1992170516738129  0.4859158526007302 0.1021985764499016 -0.1996864951894666  0.5103439686238324 0.09959316539536846 -0.2002144550572461  0.5349885748408414 0.09692671696827697 -0.2007476541520447  0.5597064861594805 0.09382742204759201 -0.2012648410958674  0.4651954354529572 0.1301284164372138 -0.199414687368232  0.4894466116813428 0.1270346233109655 -0.1998060292243715  0.5138816133497285 0.1241478507999389 -0.2002359002173948  0.5384644477921285 0.1212107110670343 -0.2006641995899263  0.5630820912873856 0.117970632615999 -0.2010772367904345  0.4685966976147677 0.1549123650172206 -0.1995504161753825  0.492937363578426 0.1517253762617955 -0.199892969896398  0.5173928841561125 0.1486662243172011 -0.2002547001755829  0.5419366527876889 0.1455702610770846 -0.2006107006440889  0.5664947588931831 0.1422832784605461 -0.2009573028088459  0.471922406352933 0.1795579557255314 -0.1996382820091268  0.496343139432916 0.1763335620476161 -0.1999591662187723  0.520823781952689 0.1731827332027707 -0.2002754685339142  0.5453466619672951 0.1700097197554159 -0.2005842654970704  0.5698723507475408 0.1667260773200601 -0.2008984963277436  0.4751930924423247 0.2041331170327021 -0.1997050009557589  0.4996322754010205 0.2009040812360423 -0.2000203336988894  0.5241267553470979 0.1977235627369144 -0.2002970381713045  0.5486623107306031 0.1945197771929269 -0.2005643863394649  0.5731908451980049 0.1912406887517206 -0.2008698229195452  0.45 0 -0.175  0.475 0 -0.175  0.5 0 -0.175  0.525 0 -0.175  0.55 0 -0.175  0.4530562488728053 0.02723008889095648 -0.1742825767182009  0.4770791778842516 0.02588508219789437 -0.1746256358970413  0.5016143595553021 0.02510926888520898 -0.1750391466047398  0.526583378583161 0.02433601359753964 -0.1754967271428361  0.552093753901401 0.02282481638358361 -0.1759436333987081  0.4557374645742204 0.05377771147748025 -0.1741326294442584  0.479806929332573 0.0516920914969605 -0.1745856197572359  0.5042708722255519 0.05007054312633005 -0.1751150586393297  0.5291260744295941 0.04840544772237718 -0.1756705106250478  0.5542931549815903 0.04604790491138788 -0.1761915048910661  0.4588209893907198 0.07969263938130697 -0.1742051691439891  0.4829730632613354 0.07709446041616344 -0.1746564667695901  0.5074187832284265 0.07484678926792426 -0.1751609374639883  0.5321497670979319 0.07253388333311422 -0.17567745755971  0.5570402006456209 0.06968467481648662 -0.1761737439509768  0.4621536967317343 0.1050869386985115 -0.1743348461515876  0.4863730965178055 0.1021554555479959 -0.1747475650292731  0.5108087302234501 0.09948591998797818 -0.1751892517777317  0.5354403502274514 0.09675305997042805 -0.1756354062424017  0.5601500166660174 0.09363004190147019 -0.1760724943487872  0.4655484264013421 0.130108151964121 -0.1744536843253853  0.4898483717867857 0.1269914629917632 -0.1748277372523857  0.5142850457806257 0.1240500560230181 -0.1752113848145578  0.5388498635063946 0.12105933185421 -0.1755947575350363  0.5634501346955615 0.1178044002045709 -0.1759772832627785  0.4689248988681853 0.154887980672459 -0.1745430818703268  0.493298885075904 0.151681566293006 -0.174891753663087  0.5177509052630878 0.1485813785141568 -0.1752339262331958  0.5422781394906093 0.1454461681836187 -0.1755724035113714  0.566819581406841 0.142147836716154 -0.1759179219295578  0.4722474034941518 0.1795278911118259 -0.174608892484625  0.4966825482331863 0.1762908255652819 -0.1749462299587214  0.5211536073498921 0.1731089044013213 -0.175259695861813  0.545664045704904 0.1699034859307504 -0.1755673327110383  0.5701803787836381 0.1666066162050917 -0.1758940888183827  0.4755131042503829 0.2041011416272378 -0.1746765464589145  0.4999766780086381 0.2008658666084396 -0.1750029281670425  0.5244563617768783 0.1976519851206493 -0.1752871924788326  0.5489760276403203 0.1944129257635817 -0.1755659884720996  0.573500257050381 0.1911194187364714 -0.1758811368817555  0.45 0 -0.15  0.475 0 -0.15  0.5 0 -0.15  0.525 0 -0.15  0.55 0 -0.15  0.453334207238656 0.02723950256024004 -0.1495895648478889  0.4772545893470481 0.02585506660367624 -0.1497975406401301  0.5017603508251811 0.02510321175287389 -0.150030539161871  0.5267567630322978 0.02434847252009017 -0.1502869084310283  0.5523643558448245 0.02274946968492008 -0.1505338687501336  0.4561043935277973 0.05374282751577176 -0.1494274849424254  0.4801065166124788 0.05164780187315715 -0.1497325392759888  0.5045538820051605 0.05004694982703201 -0.1500812727972056  0.5294476221558293 0.04839439506522934 -0.1504442686826042  0.5546918292424904 0.04598981898100239 -0.1507748773974938  0.4592182525415085 0.07964399604316283 -0.1494146636288892  0.4833315296691256 0.07704486463927734 -0.1497559888765169  0.5077692538626988 0.07479989964054817 -0.1501240040428145  0.5325224792250891 0.07248234314252407 -0.1505006124131018  0.5574546259155531 0.06962356381196529 -0.1508575336082581  0.4625503962405203 0.1050351366493627 -0.1494571813387946  0.4867483862448192 0.1021031855987278 -0.1498030450273416  0.5111764477186508 0.09942256118649891 -0.15015587214491  0.5358139590058725 0.09667541610112496 -0.1505129045777906  0.5605386616983108 0.09355557037137407 -0.1508635941424967  0.4659338497576723 0.1300609258926693 -0.1495090990687795  0.4902204902251994 0.1269392756962369 -0.1498508431849984  0.5146482249672576 0.1239797650646887 -0.1501831710632329  0.5392088075649374 0.1209709999523838 -0.1505162648124159  0.5638086251914627 0.1177194755188595 -0.1508533513917097  0.4693033764870999 0.1548484929099041 -0.1495553149691894  0.4936653673459266 0.1516310712441334 -0.1498946809103258  0.5181066050766089 0.1485093853457346 -0.1502112443813414  0.5426243619346561 0.1453541033654257 -0.1505255449055131  0.5671573226004631 0.1420533326887783 -0.1508530788358189  0.4726323917477959 0.1795002188864085 -0.1495974755937183  0.4970525043788824 0.1762424534729552 -0.1499397099328529  0.5215101779830401 0.1730357382694967 -0.1502426124358735  0.5460080270470504 0.1698074538789736 -0.1505410848465829  0.5705117521379003 0.1664994676994501 -0.1508654565643904  0.4759296824414822 0.204085659834593 -0.149664013322212  0.5003692718191699 0.2008177279452166 -0.1499993245233055  0.5248328414325178 0.1975742621891488 -0.1502775350102464  0.5493347712397427 0.1943082770434762 -0.1505529674956796  0.5738406774432918 0.1909960870064316 -0.1508701304645173  0.45 0 -0.125  0.475 0 -0.125  0.5 0 -0.125  0.525 0 -0.125  0.55 0 -0.125  0.4534871922950701 0.02727708829995307 -0.124761330825768  0.4773550232074963 0.02585660961920422 -0.1248814457041292  0.5018409968426166 0.02510125553421228 -0.1250152555286596  0.5268472998441617 0.02434270634332427 -0.1251626371598609  0.5524958998973801 0.02267917213375302 -0.1253101462107834  0.4563433252876227 0.05376106016014912 -0.1246359568092395  0.4803004664665109 0.05163912139219745 -0.1248287495066367  0.5047320237105101 0.0500373889185848 -0.125046997814053  0.5296407488306373 0.04837730046948729 -0.1252713892110069  0.5549169496717425 0.04591738568111617 -0.1254750180883578  0.4595088312175699 0.07964174275905311 -0.1245859147006301  0.4835935385422561 0.0770246199329362 -0.1248259428963958  0.5080202660073262 0.07477511848185446 -0.1250810609654789  0.5327827321567534 0.07244810613561781 -0.1253389236440265  0.5577326793278023 0.06955895387804785 -0.1255844845931225  0.4628713733864214 0.1050209348947794 -0.124573666449575  0.4870520593294665 0.1020740533398819 -0.1248428113930269  0.5114705762307267 0.09938312500512909 -0.1251139273486429  0.5361090688214429 0.09662401307511852 -0.1253855214445522  0.5608393429641005 0.09348802323881819 -0.1256543704033012  0.4662733039258203 0.1300421710071186 -0.1245770228055309  0.4905484179254022 0.1269049647714175 -0.1248670256483441  0.5149659643949721 0.1239296226146447 -0.1251468970425768  0.5395211833955944 0.1209057261441173 -0.1254252612320069  0.5641178994723004 0.1176423045579813 -0.1257088596675584  0.4696595186377822 0.1548309865666657 -0.1245889046810022  0.4940106632847644 0.1515941271397498 -0.1248961638746633  0.5184402120003649 0.1484518763250297 -0.1251819709410893  0.5429484610211311 0.1452778527386946 -0.1254643605171865  0.567472795151878 0.141963546217141 -0.1257601619437148  0.4730114909315039 0.1794886153507675 -0.1246123688037379  0.4974180187817365 0.17620414621333 -0.1249349560279403  0.5218613489946087 0.1729722342889521 -0.1252201688691414  0.546346532638489 0.1697211997892229 -0.1255005816963604  0.57083788682601 0.1663948916597236 -0.125807101674118  0.4763469485456893 0.204079459481275 -0.1246765028736171  0.5007652432073688 0.2007767510630656 -0.124996258436946  0.5252099794036281 0.1975038913362558 -0.1252614933517626  0.5496953660560839 0.1942110743452282 -0.1255232895519095  0.5741851697108245 0.1908745555294825 -0.1258275410599094  0.45 0 -0.1  0.475 0 -0.1  
[...]
<PointData  Tensors="Piola Kirchhoff sec Stress"> 
<DataArray  type="Float64"  Name="Piola Kirchhoff sec Stress"  NumberOfComponents="9" format="ascii">1.3983556413430388e+04 7.7554333522177094e+03 1.2053691310336083e+03 7.7554333522177067e+03 3.0123951390377810e+04 5.0476934964060783e+03 1.2053691310336080e+03 5.0476934964060783e+03 1.5162067381984431e+04  5.2909372822561563e+03 2.9031815443868486e+03 1.3698048521665422e+02 2.9031815443868486e+03 1.0651107342550849e+04 2.7009493024355766e+03 1.3698048521665419e+02 2.7009493024355761e+03 4.8851718023857666e+03  3.2809209994200171e+02 1.3860135514830058e+03 -1.3379380978084424e+02 1.3860135514830047e+03 1.0825430634459840e+03 -2.5743564881601219e+02 -1.3379380978084427e+02 -2.5743564881601225e+02 5.6219010574946185e+02  -4.4641570188535870e+03 1.3980897812816490e+03 -3.8545910480396259e+02 1.3980897812816490e+03 -7.7490859473450291e+03 -3.3045557002298983e+03 -3.8545910480396230e+02 -3.3045557002298983e+03 -2.3132886234681755e+03  -2.1572312796165130e+04 6.0700942943360014e+03 1.6268767534281899e+03 6.0700942943360005e+03 -3.4102163274858882e+04 -7.0833560029588098e+03 1.6268767534281899e+03 -7.0833560029588098e+03 -1.4412249124991056e+04  -4.5445173603313566e+02 1.7682355775187784e+03 3.1762854169422332e+02 1.7682355775187780e+03 1.6225778270384175e+04 1.9902570511411434e+02 3.1762854169422332e+02 1.9902570511411417e+02 2.6898595008765210e+03  -3.8512878832165728e+02 3.8314734286573744e+03 -9.6737505406202388e+01 3.8314734286573766e+03 8.5619664568319004e+03 -3.8358727707678224e+02 -9.6737505406202388e+01 -3.8358727707678179e+02 1.8326367583859883e+03  7.9006197410428592e+02 3.6958995243510603e+03 -3.1461040953607500e+02 3.6958995243510603e+03 2.2492570985749662e+03 -1.2755222925353321e+02 -3.1461040953607511e+02 -1.2755222925353320e+02 1.5585165755300420e+03  2.2976665020536902e+03 2.6549579770387977e+03 -3.7304224621746096e+02 2.6549579770387977e+03 -3.4010238977022973e+03 5.4038324464148752e+02 -3.7304224621746096e+02 5.4038324464148764e+02 2.0150145182310621e+03  3.8424587707587189e+03 -1.2280745453629279e+03 -1.3458634614186437e+02 -1.2280745453629277e+03 -8.1540475100193835e+03 1.2107277740701932e+03 -1.3458634614186442e+02 1.2107277740701923e+03 3.0531379082325211e+03  1.4066088643632127e+03 2.1368041630346452e+03 1.3860206183642612e+02 2.1368041630346456e+03 1.4114122500432977e+04 -6.3962133602016280e+01 1.3860206183642612e+02 -6.3962133602016280e+01 3.6915419377273361e+03  1.4702933003199323e+03 3.8019946189503958e+03 -5.6325226748626127e+00 3.8019946189503958e+03 8.3554063866159995e+03 -7.2217072055032475e+01 -5.6325226748626687e+00 -7.2217072055032475e+01 2.7927734991689454e+03  2.6391017374445410e+03 4.0873615619429743e+03 -7.7689581842339251e+01 4.0873615619429752e+03 3.1712198647770547e+03 2.4771069829974998e+01 -7.7689581842339351e+01 2.4771069829975012e+01 2.6297120128748602e+03  3.8970664071848851e+03 2.6297442069876838e+03 -3.0912754854710286e+01 2.6297442069876838e+03 -1.5175188740068879e+03 2.3385283586452783e+02 -3.0912754854710172e+01 2.3385283586452772e+02 2.8387403189611214e+03  4.7546211007891707e+03 -1.3458852067078478e+03 1.0677297249087739e+02 -1.3458852067078474e+03 -3.9477970359556648e+03 4.9126486719904949e+02 1.0677297249087741e+02 4.9126486719904943e+02 4.1563039361090878e+03  2.8364192745318501e+03 1.7817957184072227e+03 3.9996879690732158e+01 1.7817957184072231e+03 1.1875124439237121e+04 -4.4555106488014886e+01 3.9996879690732150e+01 -4.4555106488014893e+01 4.3587021642332465e+03  3.0636207210749581e+03 3.3573995077206910e+03 -3.6155871096824521e+00 3.3573995077206914e+03 7.5750071883780820e+03 4.3064814998882582e+01 -3.6155871096824592e+00 4.3064814998882582e+01 3.6200050321202825e+03  4.0927060377919147e+03 3.5417050572002140e+03 7.5313034929434659e+00 3.5417050572002122e+03 3.7080425155732705e+03 8.9077541749224295e+01 7.5313034929435245e+00 8.9077541749224295e+01 3.4833989175220722e+03  5.1011132328920148e+03 2.1358853113742766e+03 7.7041323336836115e+01 2.1358853113742757e+03 5.6944113455683657e+02 1.2962991371919102e+02 7.7041323336836143e+01 1.2962991371919108e+02 3.6939112477218796e+03  5.7095901752489945e+03 -9.6189562023099927e+02 1.3348686257710054e+02 -9.6189562023099927e+02 -1.9457034475867366e+02 3.5916406977136518e+02 1.3348686257710057e+02 3.5916406977136523e+02 4.7142264343858815e+03  3.6581524211721271e+03 1.4183975996096185e+03 -3.6960103983128794e+00 1.4183975996096192e+03 9.8536299694038044e+03 -1.7431606100486018e+01 -3.6960103983128691e+00 -1.7431606100486018e+01 4.7475239847751291e+03  4.0717012773964861e+03 2.6958004821524123e+03 -5.3322414708610486e+00 2.6958004821524123e+03 6.9255220027729165e+03 8.4373501666043879e+01 -5.3322414708610451e+00 8.4373501666043865e+01 4.1399458766344815e+03  4.9514000563583504e+03 2.7488949912883199e+03 3.1296781921771426e+01 2.7488949912883195e+03 4.2486709497060865e+03 1.0358642746206357e+02 3.1296781921771426e+01 1.0358642746206365e+02 4.0389129908816158e+03  5.7377806244631583e+03 1.5962701077369413e+03 8.4544843025617467e+01 1.5962701077369406e+03 2.3445193912753102e+03 9.8105170715229562e+01 8.4544843025617553e+01 9.8105170715229647e+01 4.2393570629325277e+03  6.1937907009599503e+03 -6.2222819306860572e+02 1.2282806508237174e+02 -6.2222819306860572e+02 2.5177428288088445e+03 2.8164188281289148e+02 1.2282806508237172e+02 2.8164188281289142e+02 5.0262971605418243e+03  4.1160457451983802e+03 7.8619234163199565e+02 -5.1881460371795152e+00 7.8619234163199621e+02 7.9519424622237702e+03 6.4408671640570603e+01 -5.1881460371795152e+00 6.4408671640570589e+01 4.7037207923235919e+03  4.5703594718131526e+03 1.8653477041560279e+03 3.1312652186867553e+00 1.8653477041560282e+03 6.3727070147770119e+03 1.0834283857388471e+02 3.1312652186867673e+00 1.0834283857388472e+02 4.3614861965754972e+03  5.3230048058572520e+03 1.9313661629006829e+03 3.5221428746253956e+01 1.9313661629006835e+03 4.7036312929281012e+03 1.0486625608421271e+02 3.5221428746253920e+01 1.0486625608421271e+02 4.3214726155995213e+03  5.9261200620951713e+03 1.1089182805115527e+03 6.8239473954604208e+01 1.1089182805115524e+03 3.6716431094112240e+03 8.9682630745828291e+01 6.8239473954604208e+01 8.9682630745828334e+01 4.4895114908661444e+03  6.2585520783546554e+03 -3.3427862135720915e+02 8.4856724691044363e+01 -3.3427862135720915e+02 4.2375014345271620e+03 2.1539790055809772e+02 8.4856724691044363e+01 2.1539790055809772e+02 5.0319008913643811e+03  4.4714335927812153e+03 4.8713622010549699e+02 -2.0843530010937563e+01 4.8713622010549699e+02 6.6266109188526070e+03 7.9358583853710897e+01 -2.0843530010937542e+01 7.9358583853710897e+01 4.6493233147572273e+03  4.8582383371872138e+03 1.1758120604109506e+03 -3.0618863724048198e+00 1.1758120604109504e+03 5.8786723810703888e+03 1.0909480669493803e+02 -3.0618863724048389e+00 1.0909480669493803e+02 4.4206191515712399e+03  5.3997358144829868e+03 1.2371886362005623e+03 3.0587859335625190e+01 1.2371886362005621e+03 4.9987214581037679e+03 9.6973324199035844e+01 3.0587859335625172e+01 9.6973324199035872e+01 4.4064404712686137e+03  5.8273009668313198e+03 7.0238671235724780e+02 4.8553335089036551e+01 7.0238671235724792e+02 4.5627990358879988e+03 8.3634218701695787e+01 4.8553335089036516e+01 8.3634218701695772e+01 4.5337619303517813e+03  6.0771033615094575e+03 -1.3091433759166472e+02 4.4728875103745182e+01 -1.3091433759166469e+02 5.2056751466824408e+03 1.5346566849449957e+02 4.4728875103745182e+01 1.5346566849449957e+02 4.8638492022598039e+03  4.6396546289562239e+03 5.1200580688705173e+01 -1.8678285504827109e+01 5.1200580688705038e+01 5.6613776255702387e+03 1.2687670019616310e+02 -1.8678285504827098e+01 1.2687670019616310e+02 4.4478058519981696e+03  4.9148925424193658e+03 5.7922141045839953e+02 -1.4859681803212604e+01 5.7922141045839930e+02 5.4655104395704820e+03 1.0675338940863692e+02 -1.4859681803212588e+01 1.0675338940863698e+02 4.3434316870025405e+03  5.2549478767195824e+03 6.9993965261935944e+02 2.0084667935437100e+01 6.9993965261935898e+02 5.1259099227933521e+03 8.2879971965422115e+01 2.0084667935437057e+01 8.2879971965422087e+01 4.3304026571517488e+03  5.5508064288542864e+03 3.6931102200774814e+02 3.1835046316587732e+01 3.6931102200774808e+02 5.1228121693697649e+03 7.4508406352339492e+01 3.1835046316587672e+01 7.4508406352339520e+01 4.4546971695775646e+03  5.7754589630597193e+03 -4.5803756070033465e+01 1.4309257002541370e+01 -4.5803756070033550e+01 5.6166850281834213e+03 9.5368238023107537e+01 1.4309257002541353e+01 9.5368238023107466e+01 4.6306350419945247e+03  4.6876739398449636e+03 5.8762449376290256e+01 -4.4098339760257240e+01 5.8762449376290256e+01 5.4724047792001984e+03 1.0007247088912702e+02 -4.4098339760257247e+01 1.0007247088912698e+02 4.4349753453435569e+03  4.6551174054440007e+03 1.6969590000428067e+02 4.0652673723441850e+01 1.6969590000428067e+02 5.2168046423632422e+03 8.8047301830720500e+01 4.0652673723441872e+01 8.8047301830720428e+01 4.2008704668382607e+03  4.9513857112317855e+03 1.5963507913043026e+02 9.5160897643130994e+01 1.5963507913043023e+02 5.0814928747633166e+03 5.1152173343247199e+01 9.5160897643130966e+01 5.1152173343247199e+01 4.1248124432836175e+03  5.4159451925418944e+03 3.5664124865253790e+01 6.4429406116178342e+01 3.5664124865253797e+01 5.3264428809881683e+03 7.7805953050341600e+01 6.4429406116178299e+01 7.7805953050341614e+01 4.3137847941474556e+03  5.6164542115753065e+03 -7.6894912368825729e+01 1.0959570903181643e+01 -7.6894912368825715e+01 5.6645244950916513e+03 1.1429171763446701e+02 1.0959570903181632e+01 1.1429171763446698e+02 4.4676224710506895e+03  1.5147371979608648e+04 9.4265557418102962e+03 4.7617591210638523e+02 9.4265557418102962e+03 2.9867001270602104e+04 2.6438213897766714e+03 4.7617591210638545e+02 2.6438213897766727e+03 1.7473561881140780e+04  4.6875000291037195e+03 4.2746968639116367e+03 1.4532862117115198e+02 4.2746968639116367e+03 9.1397555230885591e+03 1.4490537596497024e+03 1.4532862117115189e+02 1.4490537596497029e+03 5.0824853505174042e+03  4.6912936929192426e+02 2.7624123893329693e+03 -1.1124395048061842e+02 2.7624123893329693e+03 1.0903527991405058e+03 -1.2467745183381217e+02 -1.1124395048061822e+02 -1.2467745183381217e+02 5.1873936025480964e+02  -3.5186663048544888e+03 2.9814821878661860e+03 -3.0601299711305103e+02 2.9814821878661860e+03 -5.3450844576046748e+03 -1.6647267236429263e+03 -3.0601299711305086e+02 -1.6647267236429270e+03 -3.0875962909832501e+03  -2.2572696115166244e+04 8.2546470630303265e+03 2.8380596017440917e+02 8.2546470630303265e+03 -3.2842001686112642e+04 -3.7400159613251963e+03 2.8380596017440905e+02 -3.7400159613251976e+03 -2.0046085934214996e+04  9.5316996470037770e+02 1.6269911005051576e+03 3.4072461257239445e+02 1.6269911005051558e+03 1.7507174782576574e+04 1.0501978024429120e+03 3.4072461257239434e+02 1.0501978024429120e+03 3.9946786459210934e+03  5.8345621186983328e+02 4.9034508091740308e+03 -3.7579303157756664e+02 4.9034508091740299e+03 1.0710616943214345e+04 3.7617399399207073e+02 -3.7579303157756658e+02 3.7617399399207073e+02 2.4235847775241464e+03  6.6623662145260278e+02 4.8456576070738574e+03 -7.4103291722629558e+02 4.8456576070738574e+03 2.1723728232974076e+03 -1.1863461652439989e+02 -7.4103291722629558e+02 -1.1863461652439990e+02 1.1745010494474604e+03  1.3630808250189484e+03 3.8138114074087484e+03 -7.3302176053888877e+02 3.8138114074087484e+03 -5.9944400421206738e+03 -6.3124202505918777e+02 -7.3302176053888854e+02 -6.3124202505918754e+02 5.0174225488765245e+02  5.4369971814384417e+03 -6.6745791228558448e+02 -6.6447981492740826e+02 -6.6745791228558198e+02 -1.3714851130603693e+04 -1.4510215638799266e+03 -6.6447981492740780e+02 -1.4510215638799268e+03 1.8637395684416570e+03  2.3077217101854276e+03 2.1231711743608257e+03 1.5401686618320150e+02 2.1231711743608257e+03 1.5274608297417695e+04 1.6794140651755342e+02 1.5401686618320153e+02 1.6794140651755342e+02 4.3691059554373969e+03  1.8199217793927214e+03 3.8749222012329892e+03 -3.9414664520221243e+02 3.8749222012329892e+03 8.7814125753375065e+03 -3.1018898169778495e+01 -3.9414664520221237e+02 -3.1018898169778453e+01 2.8781392147324532e+03  2.5024667790096310e+03 4.2755879632397173e+03 -6.0294123104387018e+02 4.2755879632397191e+03 2.7503614810891845e+03 2.6443199098998427e+01 -6.0294123104387029e+02 2.6443199098998438e+01 2.4497856900450024e+03  3.5359495615992996e+03 2.6496692441047526e+03 -4.7475793318168479e+02 2.6496692441047530e+03 -2.9883149971411362e+03 1.6454489274056493e+02 -4.7475793318168462e+02 1.6454489274056490e+02 2.4807581048072557e+03  4.9661583425579083e+03 -1.4480808807991741e+03 -1.0667249891683463e+02 -1.4480808807991739e+03 -5.9191739518664208e+03 1.7523095182826455e+02 -1.0667249891683444e+02 1.7523095182826455e+02 3.9130248654812845e+03  3.4322318025633526e+03 1.6612674043177633e+03 7.4939032968830972e+01 1.6612674043177633e+03 1.2364486850358371e+04 -5.6437207993179086e+01 7.4939032968830972e+01 -5.6437207993179058e+01 4.5898110484488316e+03  3.2431713606669537e+03 3.1247532739569747e+03 -2.2960948781488082e+02 3.1247532739569756e+03 7.7713270183885534e+03 1.2938633355048612e+01 -2.2960948781488091e+02 1.2938633355048623e+01 3.5731280107944399e+03  3.8847669350892406e+03 3.2895203604121079e+03 -2.8814359542879180e+02 3.2895203604121079e+03 3.4851654676713265e+03 1.3413691205644878e+02 -2.8814359542879191e+02 1.3413691205644866e+02 3.3416317774667464e+03  4.7920067607630572e+03 1.8227860785821476e+03 -1.5392912117377631e+02 1.8227860785821476e+03 7.3548886795836239e+01 3.1918376635086730e+02 -1.5392912117377637e+02 3.1918376635086724e+02 3.5582680466373163e+03  5.6043543438081288e+03 -1.2472623643571671e+03 9.2935079125357234e+01 -1.2472623643571676e+03 -9.4084621481857721e+02 5.2203400792106788e+02 9.2935079125357234e+01 5.2203400792106788e+02 4.7094316460249638e+03  4.0960648746902216e+03 1.2238630893719157e+03 7.1491133094624956e+01 1.2238630893719167e+03 1.0024710134178611e+04 -7.1387950516917854e+01 7.1491133094624885e+01 -7.1387950516917840e+01 4.7355908310610330e+03  4.1442998760463915e+03 2.3567976513613057e+03 -8.5225770806457760e+01 2.3567976513613048e+03 6.9932276505561749e+03 3.5769694703050213e+01 -8.5225770806457732e+01 3.5769694703050213e+01 4.0265658900707072e+03  4.7655893907341124e+03 2.4142180243275643e+03 -7.6479503426781136e+01 2.4142180243275652e+03 4.2402601363514486e+03 1.3976411178395082e+02 -7.6479503426781108e+01 1.3976411178395071e+02 3.9435739789399227e+03  5.4975610609668174e+03 1.2769460288343603e+03 1.0253789996135430e+01 1.2769460288343600e+03 2.3324900496349678e+03 2.7986980789891231e+02 1.0253789996135437e+01 2.7986980789891231e+02 4.1914797907822849e+03  6.0652865587903889e+03 -8.2177755678720246e+02 1.3156121270790740e+02 -8.2177755678720246e+02 2.3553037826273371e+03 5.1026553382310971e+02 1.3156121270790740e+02 5.1026553382310971e+02 5.0830360214992097e+03  4.4797565487149950e+03 6.5346310842118703e+02 6.2957585730601089e+01 6.5346310842118692e+02 8.0251337009826948e+03 9.1610415866405805e+00 6.2957585730601103e+01 9.1610415866405521e+00 4.6749685240909657e+03  4.6008349976920408e+03 1.5783899745831991e+03 5.1852044763823919e+00 1.5783899745831991e+03 6.3985429029367388e+03 6.6921272230657209e+01 5.1852044763823857e+00 6.6921272230657195e+01 4.2544520127361411e+03  5.1774745171987279e+03 1.6484039987458821e+03 3.9361981271993677e+01 1.6484039987458816e+03 4.7762397372083251e+03 1.1594612563040410e+02 3.9361981271993677e+01 1.1594612563040410e+02 4.2666115909379942e+03  5.7744538834513778e+03 8.7116803445868049e+02 8.0303649952070501e+01 8.7116803445868084e+02 3.8387989236960129e+03 2.0068503762408483e+02 8.0303649952070501e+01 2.0068503762408491e+02 4.5018643557686682e+03  6.1821905347979027e+03 -4.5734537015490270e+02 1.1236205268747351e+02 -4.5734537015490270e+02 4.3300779668213954e+03 3.7823958512161613e+02 1.1236205268747351e+02 3.7823958512161613e+02 5.1410058722433641e+03  4.7589185678865460e+03 3.8141195700412788e+02 6.2489278260612764e+01 3.8141195700412788e+02 6.7215490256687663e+03 8.7946212278540060e+01 6.2489278260612799e+01 8.7946212278540060e+01 4.6270747881130465e+03  4.8704862360442421e+03 9.6936142840164416e+02 5.3116192042637614e+01 9.6936142840164382e+02 5.9027331005603437e+03 8.8210927849885962e+01 5.3116192042637600e+01 8.8210927849885948e+01 4.3341164744813432e+03  5.3053349453373676e+03 1.0352619016133765e+03 9.9940857318847819e+01 1.0352619016133765e+03 5.0941679532967064e+03 8.8185073671609445e+01 9.9940857318847819e+01 8.8185073671609544e+01 4.3894088248321550e+03  5.7615111994676790e+03 5.4785495493390067e+02 1.0715865368711728e+02 5.4785495493390067e+02 4.7518431801062616e+03 1.2551583576790487e+02 1.0715865368711729e+02 1.2551583576790487e+02 4.5852197777089032e+03  6.0616377277025886e+03 -2.0534560557170843e+02 7.4136203346132234e+01 -2.0534560557170840e+02 5.3711958401967868e+03 2.2769326064596865e+02 7.4136203346132220e+01 2.2769326064596868e+02 5.0048754109289175e+03  4.8480168480222919e+03 4.8063520183999735e+01 4.3307960964216285e+01 4.8063520183999650e+01 5.7747168047620471e+03 1.6231464404063567e+02 4.3307960964216285e+01 1.6231464404063556e+02 4.4862038351796937e+03  4.9019831827619973e+03 4.6701676331538437e+02 9.1038699659242113e+01 4.6701676331538448e+02 5.5243563975697925e+03 9.2511069643176398e+01 9.1038699659242212e+01 9.2511069643176370e+01 4.2831394403479662e+03  5.2162617230356627e+03 5.5366996109070067e+02 1.5563342910106351e+02 5.5366996109070067e+02 5.2183099204796736e+03 6.1374959096707627e+01 1.5563342910106351e+02 6.1374959096707634e+01 4.3505083360625476e+03  5.5747431754686422e+03 2.6737568344165129e+02 1.3593540115946948e+02 2.6737568344165146e+02 5.2459865385818803e+03 7.1937778568010245e+01 1.3593540115946942e+02 7.1937778568010231e+01 4.5306487303927997e+03  5.8107967426015248e+03 -9.1975686298184044e+01 4.1562973394889333e+01 -9.1975686298183930e+01 5.7394902213376899e+03 1.1003305789438227e+02 4.1562973394889354e+01 1.1003305789438227e+02 4.7622021675421111e+03  4.8998935997001063e+03 1.9243682951730392e+01 8.4873087981925607e+01 1.9243682951730438e+01 5.4972400791100008e+03 1.1967930162651646e+02 8.4873087981925607e+01 1.1967930162651643e+02 4.4131033379800438e+03  4.7167227503587637e+03 1.3564982395464267e+02 1.7875691351038699e+02 1.3564982395464273e+02 5.2761383113043321e+03 6.1275734465215912e+01 1.7875691351038708e+02 6.1275734465215884e+01 4.0971052849503021e+03  4.9831406492792885e+03 1.0746506308205642e+02 2.8101129298247724e+02 1.0746506308205632e+02 5.2219655740695935e+03 3.0988603308457403e+01 2.8101129298247724e+02 3.0988603308457392e+01 4.2097216575384518e+03  5.4851804196987259e+03 -3.5132138983338315e+01 2.3215574432678864e+02 -3.5132138983338251e+01 5.4242759183181261e+03 5.5456307868234823e+01 2.3215574432678858e+02 5.5456307868234809e+01 4.4428972618605449e+03  5.6626181488206548e+03 -1.1556079150724236e+02 6.8597172967849346e+01 -1.1556079150724233e+02 5.6973835858618268e+03 1.0268687911948683e+02 6.8597172967849374e+01 1.0268687911948683e+02 4.5443696327539910e+03  1.6603225975523190e+04 1.0476724541242535e+04 2.0863523467207270e+02 1.0476724541242538e+04 3.1840905069217821e+04 1.4527475193215141e+03 2.0863523467207284e+02 1.4527475193215141e+03 1.9108948690087283e+04  4.9834294380423671e+03 4.7632950896522516e+03 8.7435224440543848e+01 4.7632950896522516e+03 9.2912098593036462e+03 8.2653481137237350e+02 8.7435224440543863e+01 8.2653481137237327e+02 5.6467395034827941e+03  5.0269409816193007e+02 3.1560755566822513e+03 -9.2692568559532276e+01 3.1560755566822513e+03 9.7897971826460514e+02 -7.3731672915337469e+01 -9.2692568559532234e+01 -7.3731672915337555e+01 5.7351890858033892e+02  -3.6535672929632524e+03 3.4431003987318772e+03 -2.6028562804880346e+02 3.4431003987318782e+03 -5.4047883015355210e+03 -9.0851697916601006e+02 -2.6028562804880346e+02 -9.0851697916601040e+02 -3.5475745248269209e+03  -2.4807088887881830e+04 9.3389993360085118e+03 3.6161933269083175e+02 9.3389993360085100e+03 -3.5333727278224200e+04 -2.42807