<?xml version="1.0"?>
<VTKFile type="UnstructuredGrid"  version="0.1"  >
<UnstructuredGrid>
<Piece  NumberOfPoints="405" NumberOfCells="1536">
<Points>
<DataArray  type="Float64"  NumberOfComponents="3"  format="ascii">0.45 0 -0.2  0.475 0 -0.2  0.5 0 -0.2  0.525 0 -0.2  0.55 0 -0.2  0.4529424492813992 0.02758452724198016 -0.1986951081977174  0.4768235535566541 0.02608245670941915 -0.1993211576057665  0.5012779602765922 0.02513094090572271 -0.2000503022785164  0.5261603960951141 0.02412451807333789 -0.2008801574749358  0.5514663016796586 0.02243008464696438 -0.2017077702820885  0.4557316820880364 0.05417716050062656 -0.1986590371132367  0.4796511534132578 0.05191308134472992 -0.1993400224310853  0.5040132113172471 0.05014721320241067 -0.2001386352718608  0.5287945085010662 0.04833568090996647 -0.2009924516840012  0.5538489783889279 0.04581474452892215 -0.2018620969584852  0.45910455658241 0.08011333381296305 -0.1988776538682049  0.4830863758191635 0.07730851038129119 -0.1994973016306567  0.5074393885949332 0.07492208790488192 -0.200201179061246  0.5321175783599792 0.07247360495515456 -0.2009285721820958  0.5569465893135026 0.06941718342136112 -0.2016507889472534  0.4627959366206894 0.1055013172952959 -0.1991472157604187  0.486838431632267 0.1023381821448285 -0.1996606657168191  0.5111850681836012 0.09950381566073555 -0.2002395993980373  0.5357699279718229 0.09660268953198008 -0.2008256543908211  0.5604300793951047 0.09323093005702417 -0.2013967069810992  0.4665474135186896 0.130494875805161 -0.1993661381413598  0.4906834923545505 0.1271243019748406 -0.19979408320518  0.5150317565075141 0.123980921532371 -0.2002661237307838  0.5395444624457254 0.1207829376322496 -0.2007375193194648  0.5640919598513792 0.1172552741906971 -0.2011939695731792  0.4702504384078289 0.1552225779511309 -0.1995149559635023  0.4944849744603384 0.1517497441751441 -0.1998911364620179  0.5188533883011377 0.1484161380959303 -0.2002892149285213  0.5433207996559082 0.1450431890003077 -0.200681428141802  0.5678018750254322 0.1414627385805161 -0.201064615950954  0.4738658363714313 0.179798290177425 -0.1996095695303907  0.498192715454068 0.1762847069711857 -0.1999649214902496  0.5225895565659763 0.1728494911015017 -0.2003141352320077  0.5470334988160374 0.1693914759089042 -0.2006545841134753  0.5714790387900771 0.1658138597630726 -0.2010020113189304  0.4774219242144694 0.2042975651280698 -0.1996822880220572  0.5017750203737508 0.2007795237774571 -0.2000337852839723  0.5261887576313392 0.1973123241198846 -0.2003401300489104  0.5506462752156739 0.1938202501400476 -0.2006346957622121  0.5750948247109994 0.1902466721226668 -0.2009721959821911  0.45 0 -0.175  0.475 0 -0.175  0.5 0 -0.175  0.525 0 -0.175  0.55 0 -0.175  0.4533099401937593 0.02740596855089128 -0.1742196435264867  0.4772475782471842 0.02595983114800124 -0.1745929440102526  0.5017364879194107 0.02511893961705244 -0.1750428728254362  0.5266964153983514 0.02427966996733816 -0.1755418473774723  0.5522432650863214 0.02264266866159349 -0.1760329377794174  0.4562281710934404 0.05408104145439126 -0.1740530365892347  0.4802013216933938 0.05182701980073545 -0.1745481485660837  0.5046056473586136 0.05006732879726947 -0.1751263179954473  0.5294346892782829 0.04825846025205643 -0.175734228295478  0.5545987483824488 0.04569941206713041 -0.1763078794245541  0.4595907782241183 0.08006218537284683 -0.1741302442113886  0.4836398839559958 0.07724326173533626 -0.1746252013745915  0.5080151198625655 0.0748011990045558 -0.1751780423084263  0.5327012099661348 0.07228674169077262 -0.1757451080450685  0.557556254921128 0.06918982480825545 -0.1762927391222071  0.4632282435392046 0.1054687919386614 -0.1742724067698  0.4873400338091241 0.1022801736396322 -0.1747260714971134  0.5116953516165018 0.09937631384228965 -0.1752113224834836  0.5362661015030917 0.09640301586909138 -0.1757022366537822  0.5609181883764198 0.09300533513326206 -0.1761851981267751  0.4669319192372344 0.1304616216772541 -0.1744037907742014  0.4911253898388163 0.1270671569190904 -0.1748159285590966  0.5154755891760151 0.1238643935700212 -0.1752381542772385  0.5399682094945655 0.1206081160140451 -0.1756605748876854  0.5644971316499491 0.1170644499925296 -0.1760836567309662  0.4706104552965845 0.1551865634256419 -0.1745024182290442  0.4948840270295642 0.1516929075846342 -0.1748881208001922  0.5192481773002319 0.1483146948873174 -0.1752654023432113  0.543696789241499 0.1448989591255224 -0.1756386467719404  0.5681596777657847 0.1413062916255158 -0.1760210156109997  0.4742265672247025 0.1797577353637681 -0.1745748497349007  0.4985692491455064 0.1762302009408438 -0.1749500300123938  0.5229541848065311 0.1727611500820407 -0.1752962417198599  0.5473833973420124 0.1692674688835339 -0.1756355011698195  0.571818468458576 0.1656752536990238 -0.1759972082086407  0.4777807470084322 0.2042562175046685 -0.174652628698346  0.5021588027187316 0.2007311126389422 -0.1750160580017574  0.5265539124739348 0.1972271222314633 -0.1753294954282618  0.5509923657411888 0.1936957089629958 -0.1756363925146057  0.5754358222811555 0.1901058475673968 -0.175985099217805  0.45 0 -0.15  0.475 0 -0.15  0.5 0 -0.15  0.525 0 -0.15  0.55 0 -0.15  0.4536143786395727 0.02741451371328535 -0.1495522063998197  0.4774407386416948 0.02592588811141624 -0.1497789992029096  0.5018983165546739 0.02511095403156268 -0.1500332810828796  0.5268886168152677 0.02429166104867016 -0.1503135573840398  0.5525406483982785 0.02255573061366001 -0.150585719702878  0.4566304816042533 0.05404005034494989 -0.1493735865665842  0.4805306559145927 0.05177541179650653 -0.1497077743873273  0.5049180291305981 0.05003815550163344 -0.1500892058750311  0.529790162412463 0.04824218971343823 -0.1504869492602625  0.5550385072721944 0.04562900586721019 -0.1508512650407063  0.4600271471206703 0.08000458363155956 -0.149358656977275  0.4840342631368023 0.07718389770465937 -0.149733739943147  0.5084016303652305 0.0747446342704009 -0.1501373649601604  0.5331128708957121 0.07222445815662754 -0.1505509994680299  0.5580141115665898 0.06911557816301865 -0.150944838775019  0.4636651522714542 0.1054070291718529 -0.1494052029503427  0.4877536734719362 0.1022166255661813 -0.1497864715388002  0.5121010673404988 0.09930045771471242 -0.1501743095206202  0.5366786521161639 0.0963112148349419 -0.1505671769137961  0.5613477386483258 0.09291636938893832 -0.1509545517948163  0.4673583340502666 0.1304052191559417 -0.1494627038526725  0.4915367628087171 0.1270033590560153 -0.1498407183561663  0.5158768582554363 0.1237803966975052 -0.1502066435764104  0.5403647237101972 0.120504195887547 -0.1505735817069745  0.5648933556718769 0.1169640524074032 -0.1509462029903308  0.4710316280649023 0.1551397616133292 -0.1495140161243549  0.4952907215886531 0.1516313417612275 -0.1498908825312377  0.5196420049417426 0.1482287702797387 -0.1502399845689029  0.54407959074076 0.1447907721200134 -0.1505863983350046  0.5685329354838958 0.1411953195617283 -0.1509486626567154  0.4746576293516462 0.1797254476800255 -0.1495612312719472  0.4989815084504001 0.1761716095703165 -0.1499428633311709  0.5233499420914824 0.1726740294636371 -0.1502771643629699  0.5477641523872968 0.1691547183248296 -0.1506060076455195  0.5721846423729621 0.1655500593425948 -0.1509649244124561  0.4782509886526595 0.2042386044143748 -0.1496392685897443  0.5025984283713851 0.2006732007417786 -0.1500130768541325  0.526972822761179 0.1971348802304535 -0.1503188829184489  0.5513899815242201 0.1935729837808815 -0.1506215088360307  0.5758120959910841 0.1899620842901245 -0.1509722861315697  0.45 0 -0.125  0.475 0 -0.125  0.5 0 -0.125  0.525 0 -0.125  0.55 0 -0.125  0.4537824307127052 0.02745485162904097 -0.124739475462485  0.4775518349860796 0.02592722346510781 -0.1248702079747999  0.5019880125745102 0.02510829400043771 -0.125016454315787  0.5269891933032497 0.02428460768316627 -0.1251778997266197  0.5526852606228256 0.02247663303347152 -0.1253407232135495  0.4568930672347449 0.05405857345750917 -0.1246017966664147  0.480744390310887 0.05176451804821067 -0.1248126700959785  0.5051150508849125 0.0500259497940697 -0.125051590103733  0.5300038818789734 0.04822099375926481 -0.1252977104429274  0.5552863468744533 0.04554546048184984 -0.1255221580199936  0.4603470180604012 0.07999976105725759 -0.1245469298955823  0.484322909508154 0.07715887191897933 -0.1248102507874301  0.5086786835111535 0.07471421180321938 -0.125090108520114  0.5334003203800983 0.07218290968198729 -0.1253733062202314  0.5583205694649429 0.06903953323075764 -0.1256439502634845  0.4640192797624781 0.1053884168704517 -0.1245337467848212  0.4880886505218943 0.102180557956643 -0.1248299930173534  0.5124256420848836 0.09925259865742297 -0.1251279472579127  0.5370043388085538 0.09624971620375425 -0.1254265583351107  0.5616792475706995 0.09283647473818854 -0.1257229440551247  0.4677345419095254 0.1303815023624032 -0.1245379307452225  0.4918995210970004 0.1269607774237806 -0.1248583101359097  0.5162278701556778 0.1237198132378975 -0.1251663246274088  0.5407094921300626 0.1204266474814736 -0.1254725837173321  0.5652343599526742 0.1168730472687285 -0.1257853395557914  0.4714285019754281 0.1551179211711158 -0.1245515816452317  0.4956740561869512 0.1515856867744709 -0.1248923296155301  0.520011233899995 0.1481595148789254 -0.1252072499733574  0.5444375606595117 0.1447005064533103 -0.1255180114528638  0.5688808178456208 0.1410898692409047 -0.1258443785869382  0.4750820625454967 0.1797111324665432 -0.1245784812171112  0.4993887257531558 0.1761245859679064 -0.1249374734708387  0.5237394765357357 0.1725977988657008 -0.1252518254821314  0.5481384562278786 0.1690528243282461 -0.1255602285117918  0.5725444003635121 0.1654276219290312 -0.1258985797303209  0.4787218660068564 0.204231629869857 -0.1246533335995843  0.5030416259453843 0.2006234159528143 -0.125009044517626  0.5273921987663414 0.1970507771823218 -0.1253001815162976  0.5517892608817353 0.1934583510469354 -0.1255873083895121  0.5761924051995507 0.1898199702760284 -0.1259230315989494  0.45 0 -0.1  0.475 0 -0.
[...]
<PointData  Tensors="Piola Kirchhoff sec Stress"> 
<DataArray  type="Float64"  Name="Piola Kirchhoff sec Stress"  NumberOfComponents="9" format="ascii">1.5540273416979669e+04 8.4315212133757705e+03 1.3649109532775528e+03 8.4315212133757705e+03 3.2816563543801763e+04 5.4816001367552644e+03 1.3649109532775533e+03 5.4816001367552626e+03 1.6735700248912031e+04  5.8099490369491623e+03 3.1180106257670031e+03 1.6415491320772281e+02 3.1180106257670041e+03 1.1602444819785373e+04 2.9294578904688337e+03 1.6415491320772315e+02 2.9294578904688333e+03 5.3689184821225817e+03  3.7845809310088464e+02 1.4418582421253291e+03 -1.4276873031394834e+02 1.4418582421253288e+03 1.2167156560311707e+03 -2.8340892103730550e+02 -1.4276873031394845e+02 -2.8340892103730539e+02 6.2937377780978170e+02  -4.7992888250035166e+03 1.4315356215503098e+03 -4.1959051696920352e+02 1.4315356215503102e+03 -8.3437160866187969e+03 -3.5859532372772442e+03 -4.1959051696920352e+02 -3.5859532372772442e+03 -2.4189522283054257e+03  -2.2859025825644960e+04 6.4968240064956508e+03 1.7284332258289235e+03 6.4968240064956526e+03 -3.6483551402842313e+04 -7.6638603052493108e+03 1.7284332258289237e+03 -7.6638603052493108e+03 -1.4953708016394176e+04  -1.1315507374732371e+02 2.0423210955890406e+03 3.5805251493260005e+02 2.0423210955890409e+03 1.8033431532604311e+04 2.6535714541443048e+02 3.5805251493259988e+02 2.6535714541443048e+02 3.2683818531490924e+03  -1.3241190196224065e+02 4.1737638127026648e+03 -8.8430826120277260e+01 4.1737638127026630e+03 9.5925154629049466e+03 -3.9184110375436001e+02 -8.8430826120277217e+01 -3.9184110375435984e+02 2.2172306665479950e+03  1.0707361943749029e+03 3.9684085203687159e+03 -3.3448616548480430e+02 3.9684085203687164e+03 2.6619847315075026e+03 -1.3206066942892085e+02 -3.3448616548480442e+02 -1.3206066942892076e+02 1.8600498148554743e+03  2.7015898628382483e+03 2.7988313348545198e+03 -4.0321720943384975e+02 2.7988313348545189e+03 -3.4578001489898274e+03 5.9940735418401584e+02 -4.0321720943384935e+02 5.9940735418401573e+02 2.3629860915864283e+03  4.5500120471304717e+03 -1.4452845523835290e+03 -1.5629252735373134e+02 -1.4452845523835290e+03 -8.3816943539397507e+03 1.3763408244180137e+03 -1.5629252735373115e+02 1.3763408244180134e+03 3.6908243500318022e+03  2.0926098333959103e+03 2.4563260618070585e+03 1.5647351688377518e+02 2.4563260618070581e+03 1.5972488017035612e+04 -4.2073755440802685e+01 1.5647351688377501e+02 -4.2073755440802692e+01 4.5173205891352909e+03  2.1024076541511436e+03 4.1624588393766535e+03 3.7799129602945909e+00 4.1624588393766526e+03 9.5341273631396689e+03 -6.0658478256935048e+01 3.7799129602946175e+00 -6.0658478256935133e+01 3.4301956663984861e+03  3.3395768598795858e+03 4.4072806846600388e+03 -7.5769456375816375e+01 4.4072806846600388e+03 3.8361794265861736e+03 3.8307308743236057e+01 -7.5769456375816475e+01 3.8307308743236099e+01 3.2115950860406351e+03  4.7175436093038752e+03 2.7771340671809371e+03 -2.6186170180701346e+01 2.7771340671809362e+03 -1.2227649897644869e+03 2.6851293276145060e+02 -2.6186170180701339e+01 2.6851293276145066e+02 3.4617827941838718e+03  5.7720942872587457e+03 -1.5781537164878932e+03 1.1890121080550826e+02 -1.5781537164878937e+03 -3.6400904225114500e+03 5.6951148654279746e+02 1.1890121080550828e+02 5.6951148654279757e+02 5.0636641891326090e+03  3.8043416075197265e+03 2.0780029580284540e+03 4.1420484841274714e+01 2.0780029580284536e+03 1.3738149089506982e+04 -3.5293619684051301e+01 4.1420484841274643e+01 -3.5293619684051308e+01 5.3998184249282331e+03  4.0272393212446573e+03 3.6980008405703556e+03 1.5193329942608897e+00 3.6980008405703579e+03 8.8524435610533292e+03 6.0309867570012443e+01 1.5193329942608809e+00 6.0309867570012393e+01 4.4850345735803166e+03  5.1329276818664639e+03 3.8319131012538014e+03 1.6938531025696548e+01 3.8319131012538041e+03 4.5822733050307907e+03 1.0902903421546138e+02 1.6938531025696463e+01 1.0902903421546148e+02 4.3016520841669435e+03  6.2500958934458213e+03 2.2528817483252205e+03 9.4840686490263110e+01 2.2528817483252201e+03 1.2139417096118909e+03 1.5502100426639947e+02 9.4840686490263153e+01 1.5502100426639953e+02 4.5605606616193945e+03  7.0187214655563721e+03 -1.1505674755406062e+03 1.5786059804446921e+02 -1.1505674755406062e+03 6.0318329079441344e+02 4.1989017289666629e+02 1.5786059804446921e+02 4.1989017289666612e+02 5.8156990023974840e+03  4.7865403637502204e+03 1.6455681495196534e+03 -7.8436740957619602e+00 1.6455681495196532e+03 1.1643217472251643e+04 -9.0466583149607498e+00 -7.8436740957619628e+00 -9.0466583149607569e+00 5.9178808923337519e+03  5.2401546490830879e+03 2.9798805872123899e+03 -1.5777462517784810e+00 2.9798805872123899e+03 8.2816685748869804e+03 1.0350112632009157e+02 -1.5777462517784777e+00 1.0350112632009159e+02 5.1602718304068458e+03  6.2034469582112379e+03 2.9829019793017837e+03 4.2077210226283661e+01 2.9829019793017828e+03 5.3084718413128003e+03 1.2485697822216892e+02 4.2077210226283661e+01 1.2485697822216899e+02 5.0216104967977490e+03  7.0837861302681158e+03 1.6834954603105245e+03 1.0319781812186383e+02 1.6834954603105243e+03 3.2770064894530683e+03 1.2008640434213085e+02 1.0319781812186386e+02 1.2008640434213082e+02 5.2663950647387555e+03  7.6629765637851224e+03 -7.5603345875911054e+02 1.4974905169757781e+02 -7.5603345875911123e+02 3.6454074047510726e+03 3.2782837992954688e+02 1.4974905169757781e+02 3.2782837992954671e+02 6.2337786796858409e+03  5.2666211107773452e+03 9.1162764072407253e+02 -5.4354212456771176e+00 9.1162764072407174e+02 9.5633293876208554e+03 8.1663168537032675e+01 -5.4354212456771274e+00 8.1663168537032675e+01 5.8674990338291836e+03  5.8212673477148264e+03 2.0635536533513095e+03 7.7064363793590509e+00 2.0635536533513086e+03 7.7580906562914379e+03 1.2958590864611975e+02 7.7064363793590642e+00 1.2958590864611975e+02 5.4504056045281150e+03  6.6743056519578549e+03 2.0987075435701804e+03 4.5353845225567810e+01 2.0987075435701790e+03 5.9029852328674760e+03 1.2624863775772234e+02 4.5353845225567831e+01 1.2624863775772239e+02 5.3955208022876677e+03  7.3587684520343137e+03 1.1713228367262222e+03 8.3784577225044316e+01 1.1713228367262222e+03 4.8123280245940605e+03 1.1063722613031563e+02 8.3784577225044302e+01 1.1063722613031567e+02 5.6007175453151722e+03  7.7797165908410825e+03 -4.1282562808224367e+02 1.0530952497867432e+02 -4.1282562808224367e+02 5.5546019178291745e+03 2.5293105567280128e+02 1.0530952497867436e+02 2.5293105567280122e+02 6.2647784346878143e+03  5.6740967977026712e+03 5.5344628812049245e+02 -2.2333794773043490e+01 5.5344628812049257e+02 8.1027942630182897e+03 1.0226008021756428e+02 -2.2333794773043493e+01 1.0226008021756434e+02 5.7998063146822460e+03  6.1508520576322353e+03 1.2908838907241166e+03 8.4330300418290108e-02 1.2908838907241170e+03 7.2574105426594761e+03 1.3208919210188603e+02 8.4330300418296991e-02 1.3208919210188614e+02 5.5307319939642466e+03  6.7833244015959071e+03 1.3418351237263444e+03 3.8961600778289338e+01 1.3418351237263450e+03 6.2853767261010153e+03 1.1798969400927530e+02 3.8961600778289323e+01 1.1798969400927537e+02 5.5183751115013456e+03  7.2738680782056199e+03 7.4397194910558119e+02 6.0143971827181822e+01 7.4397194910558119e+02 5.8368610432055502e+03 1.0392407044455162e+02 6.0143971827181787e+01 1.0392407044455157e+02 5.6748247722661572e+03  7.5841161761929197e+03 -1.6681169593964032e+02 5.7089572215116107e+01 -1.6681169593964023e+02 6.6111293585667572e+03 1.8307688327052091e+02 5.7089572215116029e+01 1.8307688327052091e+02 6.0753751131499648e+03  5.8473161422175544e+03 4.1537826618166157e+01 -1.8296168820670328e+01 4.1537826618166143e+01 7.0046217280656829e+03 1.6016495321541652e+02 -1.8296168820670360e+01 1.6016495321541652e+02 5.5331143373189816e+03  6.2187942491557815e+03 6.2120708680584835e+02 -1.4217943656212109e+01 6.2120708680584835e+02 6.8170753215668919e+03 1.3142722163468503e+02 -1.4217943656212075e+01 1.3142722163468500e+02 5.4415411749858595e+03  6.6297567594271668e+03 7.5621545764617201e+02 2.5875270706560752e+01 7.5621545764617213e+02 6.4528466238007341e+03 1.0250635209604422e+02 2.5875270706560762e+01 1.0250635209604425e+02 5.4420409355057409e+03  6.9681140189277794e+03 3.9530984989238283e+02 4.0419035781632282e+01 3.9530984989238294e+02 6.4738102317422199e+03 9.3714062363350777e+01 4.0419035781632267e+01 9.3714062363350791e+01 5.5921256287871383e+03  7.2370958409979612e+03 -5.7599678603249508e+01 1.9624789560942311e+01 -5.7599678603249394e+01 7.0510280567068094e+03 1.1878536605450674e+02 1.9624789560942300e+01 1.1878536605450678e+02 5.8041025652031158e+03  5.9939795155685551e+03 6.7427514114939058e+01 -5.0739334082434446e+01 6.7427514114939086e+01 6.8417527568848391e+03 1.2508946921208694e+02 -5.0739334082434446e+01 1.2508946921208694e+02 5.5393995345123603e+03  5.9552135901255424e+03 1.8525764309296824e+02 4.6000383660251053e+01 1.8525764309296818e+02 6.5561531435441475e+03 1.0930475944574150e+02 4.6000383660251039e+01 1.0930475944574144e+02 5.2812191776115069e+03  6.2733869534308024e+03 1.7568870377459791e+02 1.0891019043524489e+02 1.7568870377459803e+02 6.4121893501303439e+03 6.5039171099771323e+01 1.0891019043524496e+02 6.5039171099771352e+01 5.2026958290231232e+03  6.7989367893910121e+03 3.8996377585826231e+01 7.7166242714350759e+01 3.8996377585826181e+01 6.7061922901475273e+03 9.5550483464662989e+01 7.7166242714350773e+01 9.5550483464662989e+01 5.4279041316764224e+03  7.0510762176567796e+03 -8.5089751485160207e+01 1.6342670081650326e+01 -8.5089751485160207e+01 7.1063961097465317e+03 1.4015196193162259e+02 1.6342670081650297e+01 1.4015196193162259e+02 5.6178803477514275e+03  1.6900328809473958e+04 1.0273745869609096e+04 5.5362212487725299e+02 1.0273745869609096e+04 3.2602542071530006e+04 2.8740679095987120e+03 5.5362212487725287e+02 2.8740679095987116e+03 1.9240061101246363e+04  5.1915327747978581e+03 4.6260138676150491e+03 1.6770861018992727e+02 4.6260138676150518e+03 9.9699884359038570e+03 1.5723125345165804e+03 1.6770861018992721e+02 1.5723125345165804e+03 5.5855160725689848e+03  5.3560421360460282e+02 2.9534062960713186e+03 -1.2000956985768150e+02 2.9534062960713177e+03 1.2057402570183024e+03 -1.3922826717414441e+02 -1.2000956985768177e+02 -1.3922826717414412e+02 5.8288319636274423e+02  -3.7946053302640494e+03 3.1772336046789510e+03 -3.3751248154796701e+02 3.1772336046789510e+03 -5.7638004892671815e+03 -1.8148373883854961e+03 -3.3751248154796684e+02 -1.8148373883854954e+03 -3.3181352214549138e+03  -2.4211661840406108e+04 8.9015757928886760e+03 2.6943691890656589e+02 8.9015757928886760e+03 -3.5476617849713613e+04 -4.0792111702614066e+03 2.6943691890656612e+02 -4.0792111702614066e+03 -2.1511421640800785e+04  1.3860581517238027e+03 1.8999263221972628e+03 3.8949142396841791e+02 1.8999263221972624e+03 1.9341895264503110e+04 1.1626016032976813e+03 3.8949142396841791e+02 1.1626016032976809e+03 4.6310110183832558e+03  9.0333304465756100e+02 5.3344669873822386e+03 -3.9238080740984429e+02 5.3344669873822377e+03 1.1858175746398254e+04 4.2409240013379724e+02 -3.9238080740984429e+02 4.2409240013379758e+02 2.8431970102277501e+03  9.1712931560149275e+02 5.2214483261355454e+03 -7.9596782477130193e+02 5.2214483261355463e+03 2.5264438972371240e+03 -1.2112700816818997e+02 -7.9596782477130193e+02 -1.2112700816818986e+02 1.4265883013430835e+03  1.6987063804418142e+03 4.0595877863089850e+03 -8.0087575222314751e+02 4.0595877863089872e+03 -6.3234961257483810e+03 -6.8289193713871998e+02 -8.0087575222314751e+02 -6.8289193713871998e+02 7.1709083065336142e+02  6.3172758902365813e+03 -8.6843970616607942e+02 -7.6196944841769255e+02 -8.6843970616607896e+02 -1.4475742451134083e+04 -1.5779774909916455e+03 -7.6196944841769255e+02 -1.5779774909916459e+03 2.3906333331377723e+03  3.0800489578010156e+03 2.4482084746700198e+03 1.8041018220062927e+02 2.4482084746700216e+03 1.7191911698806405e+04 2.1576545378812429e+02 1.8041018220062921e+02 2.1576545378812440e+02 5.2258018854731981e+03  2.4591241881919523e+03 4.2445140392326257e+03 -4.1987146141584731e+02 4.2445140392326275e+03 9.9537831419405902e+03 -6.9761365250037821e+00 -4.1987146141584731e+02 -6.9761365250038860e+00 3.4965923420374261e+03  3.1624073456575547e+03 4.6131650933191986e+03 -6.4556839336580765e+02 4.6131650933191977e+03 3.3333570273571213e+03 4.7489535117409240e+01 -6.4556839336580742e+02 4.7489535117409304e+01 2.9933487050696049e+03  4.3027146024390013e+03 2.7919698882306893e+03 -5.1073005473857165e+02 2.7919698882306893e+03 -2.8698990855883085e+03 1.9380644213639150e+02 -5.1073005473857165e+02 1.9380644213639150e+02 3.0557606401074158e+03  5.9881153150523514e+03 -1.7163531588049184e+03 -1.2133918702308738e+02 -1.7163531588049182e+03 -5.8480665399940754e+03 2.0689558356636795e+02 -1.2133918702308740e+02 2.0689558356636795e+02 4.7771907257433477e+03  4.4626671315987151e+03 1.9395745110199380e+03 8.7907933451776060e+01 1.9395745110199384e+03 1.4250453760213350e+04 -3.1306851942839099e+01 8.7907933451776046e+01 -3.1306851942839106e+01 5.6140451706005142e+03  4.2008082629272276e+03 3.4410809583779151e+03 -2.4421391010464205e+02 3.4410809583779160e+03 9.0466205810541578e+03 3.9269654160931161e+01 -2.4421391010464214e+02 3.9269654160931161e+01 4.4019728110654232e+03  4.8753168127940980e+03 3.5554545622630953e+03 -3.0315989754656584e+02 3.5554545622630949e+03 4.3162132316531088e+03 1.6627040781575539e+02 -3.0315989754656584e+02 1.6627040781575556e+02 4.1212172465168678e+03  5.8817627499200962e+03 1.9073919800276869e+03 -1.5614617233093733e+02 1.9073919800276869e+03 6.4757951759491914e+02 3.6608850693285478e+02 -1.5614617233093733e+02 3.6608850693285473e+02 4.3911336068890714e+03  6.8606583772878230e+03 -1.4744241100521388e+03 1.1078782582319701e+02 -1.4744241100521392e+03 -2.6268173916460540e+02 5.9283360014060850e+02 1.1078782582319697e+02 5.9283360014060872e+02 5.7795691883147947e+03  5.2807849470273013e+03 1.4230622941614790e+03 8.2336255788757327e+01 1.4230622941614786e+03 1.1821001642803698e+04 -5.0491714484100022e+01 8.2336255788757327e+01 -5.0491714484100022e+01 5.8672332203616443e+03  5.3039918737005792e+03 2.6032423313921054e+03 -8.8036219333144501e+01 2.6032423313921040e+03 8.3511642037394322e+03 6.0353323481397162e+01 -8.8036219333144544e+01 6.0353323481397197e+01 5.0061896867256464e+03  5.9770871156005978e+03 2.6156627742310261e+03 -7.2455036458132554e+01 2.6156627742310270e+03 5.2931917507417811e+03 1.7018527880230036e+02 -7.2455036458132525e+01 1.7018527880230042e+02 4.8960269311290831e+03  6.7951581404808685e+03 1.3348897535291169e+03 2.4366459209641878e+01 1.3348897535291169e+03 3.2541140739817179e+03 3.2285725829972415e+02 2.4366459209641871e+01 3.2285725829972438e+02 5.1960553192265925e+03  7.4858168619576982e+03 -9.7614395163306654e+02 1.5772187270261190e+02 -9.7614395163306665e+02 3.4359529863157290e+03 5.7970556009379447e+02 1.5772187270261190e+02 5.7970556009379459e+02 6.2689622495795029e+03  5.6966395391228925e+03 7.5861350370463765e+02 7.5898921029464077e+01 7.5861350370463776e+02 9.6483562594256382e+03 3.9455430433392578e+01 7.5898921029464091e+01 3.9455430433392564e+01 5.8113457979982823e+03  5.8495352616881501e+03 1.7441770776918067e+03 1.2146618351472354e+01 1.7441770776918058e+03 7.7892780450025130e+03 9.2723152868020364e+01 1.2146618351472329e+01 9.2723152868020335e+01 5.3098461034108514e+03  6.5018278020451271e+03 1.7880476006775518e+03 5.4426713203340654e+01 1.7880476006775516e+03 5.9857494775245750e+03 1.4212053720115020e+02 5.4426713203340661e+01 1.4212053720115037e+02 5.3212341200782221e+03  7.1775016077471237e+03 9.1314732138771831e+02 1.0042859226876864e+02 9.1314732138771888e+02 4.9946324295011254e+03 2.3505603615683498e+02 1.0042859226876867e+02 2.3505603615683498e+02 5.6032157754805949e+03  7.6761780741600815e+03 -5.4605632977356902e+02 1.3528195951473441e+02 -5.4605632977356902e+02 5.6405635041665046e+03 4.3400804182361708e+02 1.3528195951473444e+02 4.3400804182361719e+02 6.3704624453691340e+03  6.0205681300585920e+03 4.3409718120680134e+02 7.6995947744420747e+01 4.3409718120680145e+02 8.2231961947360651e+03 1.3187512427606040e+02 7.6995947744420747e+01 1.3187512427606049e+02 5.7665224355738856e+03  6.1615162289495274e+03 1.0636395994706345e+03 6.5968887684027294e+01 1.0636395994706345e+03 7.2869296297724150e+03 1.1676614726573924e+02 6.5968887684027266e+01 1.1676614726573928e+02 5.4182833380016928e+03  6.6726999400713894e+03 1.1207985031878657e+03 1.2116481637877482e+02 1.1207985031878652e+03 6.3961032007538724e+03 1.1070781751162048e+02 1.2116481637877490e+02 1.1070781751162048e+02 5.4910887345969222e+03  7.1966661150873842e+03 5.7626527132431386e+02 1.2896995111331984e+02 5.7626527132431352e+02 6.0483047969566496e+03 1.5152769701466744e+02 1.2896995111331981e+02 1.5152769701466732e+02 5.7268832319534267e+03  7.5622718498149152e+03 -2.4651543419219351e+02 8.9905931659900062e+01 -2.4651543419219340e+02 6.7902951774042167e+03 2.6724142860795422e+02 8.9905931659900034e+01 2.6724142860795422e+02 6.2272436184512235e+03  6.1110642297387349e+03 4.3931804452851324e+01 5.3405256045781925e+01 4.3931804452851324e+01 7.1631911404086986e+03 2.1890104746335950e+02 5.3405256045781968e+01 2.1890104746335942e+02 5.5920156584982205e+03  6.2003590024658979e+03 5.0294982407603953e+02 1.0800336016156149e+02 5.0294982407603953e+02 6.8869780868677781e+03 1.2177955403068212e+02 1.0800336016156143e+02 1.2177955403068214e+02 5.3649162071638884e+03  6.5820613537707677e+03 5.9681117879859221e+02 1.8312393835429330e+02 5.9681117879859210e+02 6.5627056344915227e+03 7.9930188124629467e+01 1.8312393835429322e+02 7.9930188124629467e+01 5.4599706276548650e+03  6.9973965677198403e+03 2.8261057969172145e+02 1.6073322522155152e+02 2.8261057969172134e+02 6.6177525339127860e+03 9.1357473556740814e+01 1.6073322522155152e+02 9.1357473556740828e+01 5.6774256532989475e+03  7.2809026940543672e+03 -1.0813955984524068e+02 5.0973600381755006e+01 -1.0813955984524065e+02 7.1900913779424754e+03 1.3690953355743355e+02 5.0973600381755027e+01 1.3690953355743358e+02 5.9527957714333943e+03  6.2328674854061919e+03 2.4940526986444059e+01 9.6954604105001764e+01 2.4940526986443942e+01 6.8887221682172494e+03 1.5746261310956939e+02 9.6954604105001863e+01 1.5746261310956930e+02 5.5299227993028653e+03  6.0123113958063004e+03 1.4964666153422348e+02 2.0742981222258524e+02 1.4964666153422345e+02 6.6154840877455426e+03 7.9569575899344414e+01 2.0742981222258521e+02 7.9569575899344414e+01 5.1534210923286710e+03  6.3104451213300026e+03 1.1996605204944301e+02 3.2476859759122482e+02 1.1996605204944292e+02 6.5769974633768379e+03 4.1634886459261537e+01 3.2476859759122482e+02 4.1634886459261509e+01 5.2977683663474363e+03  6.8846235183274594e+03 -4.0478452607274811e+01 2.6995971933691357e+02 -4.0478452607274811e+01 6.8260711686447212e+03 6.9910165690631786e+01 2.6995971933691357e+02 6.9910165690631814e+01 5.5776051728346793e+03  7.1095996012237110e+03 -1.2924998132556891e+02 8.2162686358767033e+01 -1.2924998132556891e+02 7.1467265012661092e+03 1.2817058845999361e+02 8.2162686358767004e+01 1.2817058845999367e+02 5.7085756341234774e+03  1.8572072687710730e+04 1.1442549065261990e+04 2.5055100364160228e+02 1.1442549065261986e+04 3.4803151481407920e+04 1.5832974100365157e+03 2.5055100364160228e+02 1.5832974100365152e+03 2.1063519154766731e+04  5.5241528432956093e+03 5.1704337155288449e+03 1.0117545212162241e+02 5.1704337155288449e+03 1.0134301207512837e+04 8.9844570543057637e+02 1.0117545212162247e+02 8.9844570543057637e+02 6.1957748950522018e+03  5.7273440804255017e+02 3.3921335004329958e+03 -1.0066666897195171e+02 3.3921335004329949e+03 1.0768262103749303e+03 -8.2002913659281717e+01 -1.0066666897195171e+02 -8.2002913659281589e+01 6.3925504764174400e+02  -3.9459847230902865e+03 3.6893732214161309e+03 -2.8794817741713075e+02 3.6893732214161332e+03 -5.8360825492817721e+03 -9.9320602044664361e+02 -2.8794817741713075e+02 -9.9320602044664395e+02 -3.8287519081960099e+03  -2.6686353658844633e+04 1.0089552798164745e+04 3.6840833212306262e+02 1.0089552798164748e+04 -3.8287290758524221e+04 -2.660665274764