<?xml version="1.0"?>
<VTKFile type="UnstructuredGrid"  version="0.1"  >
<UnstructuredGrid>
<Piece  NumberOfPoints="405" NumberOfCells="1536">
<Points>
<DataArray  type="Float64"  NumberOfComponents="3"  format="ascii">0.45 0 -0.2  0.475 0 -0.2  0.5 0 -0.2  0.525 0 -0.2  0.55 0 -0.2  0.4514805601433835 0.02622349887962714 -0.1994827532924296  0.4759471958533965 0.02546058597956431 -0.1997533841081811  0.5007014031035997 0.02502516944097474 -0.2000742994868404  0.5256685660215525 0.0245877482567469 -0.2004346196722248  0.5508536433808747 0.02384360134019067 -0.2007889869368782  0.4526315451311028 0.05190624123965836 -0.1994488828527  0.477217236431611 0.05087433582651947 -0.1997596272880915  0.5019707197064531 0.05008717105039438 -0.2001210363118803  0.5269223909303349 0.04929779664386493 -0.2004975652053826  0.5520343468948268 0.04821059730994797 -0.2008681930609505  0.4539427404592138 0.0773598696961976 -0.1994817308351616  0.4786407752667277 0.07615832351455784 -0.1997975478761436  0.5034475675539692 0.07512088324327797 -0.2001380504309928  0.5283931461181756 0.07406822962007384 -0.2004795198962127  0.5534399783541697 0.07278506270456105 -0.2008121304777902  0.4553480016959001 0.1026288774408167 -0.1995213819193234  0.480129713918188 0.1013206734517978 -0.199824210251006  0.5049862779451968 0.1001182395653867 -0.2001387344482882  0.5299308550921299 0.09889367371933712 -0.2004472781017756  0.5549338694831111 0.09750884220387557 -0.2007472859260801  0.4567772074634783 0.127765458013452 -0.1995469384989537  0.4816288762508627 0.1263986951325909 -0.1998406223131931  0.5065218697706989 0.1250921026992514 -0.200136147536103  0.5314662309687219 0.1237655651407596 -0.2004239407032244  0.5564412017095992 0.1223379678137382 -0.2007057496694775  0.4582106341418038 0.1528087595977944 -0.1995648384609402  0.4831087754827766 0.1514140049206274 -0.1998526783738012  0.5080282947955327 0.1500519652433639 -0.2001368955221959  0.5329724265721247 0.1486728357122729 -0.2004142158221452  0.5579297471715048 0.1472349082231469 -0.2006895839362463  0.4596409455573192 0.1777951932879768 -0.1995854616649633  0.484565730450034 0.1763922983523377 -0.1998674882231712  0.509500697777035 0.1750059141103011 -0.2001426739400104  0.5344440287456556 0.1736055345188346 -0.2004136325337704  0.5593906379417284 0.1721713085348997 -0.2006894932294821  0.4610548180972318 0.2027541375085459 -0.1996082968676349  0.485986282619271 0.2013511410487834 -0.1998872263334469  0.5109310283786122 0.1999579760174474 -0.2001511398008942  0.535882915149828 0.198552580357051 -0.2004125069487058  0.5608304135562013 0.1971220726380489 -0.2006901777572182  0.45 0 -0.175  0.475 0 -0.175  0.5 0 -0.175  0.525 0 -0.175  0.55 0 -0.175  0.4516466615117334 0.02617976464300547 -0.1746623651727982  0.4761463281756486 0.02543068084063157 -0.1748459872729373  0.5009111716251515 0.0250523961937724 -0.1750520648197322  0.525902807515764 0.02468609722968585 -0.1752792449037575  0.5511708165392375 0.02395538303588839 -0.1754999472811504  0.4528817256394699 0.05190750564600852 -0.1745674532254887  0.4774885410343566 0.05087077905282614 -0.1748238303387569  0.5022564728333089 0.05009579269926125 -0.1751009557202558  0.5272215538679088 0.04931530145999983 -0.1753858587557406  0.552366132732922 0.04821257251622085 -0.1756549045237933  0.4542167489620257 0.07737202614345225 -0.1745529907255704  0.4789356463150977 0.07616135867812886 -0.1748337429888984  0.5037493169421183 0.07511269239664761 -0.1751208096702872  0.5286971989978305 0.07404437150737475 -0.1754070329803392  0.5537492329445133 0.07274572162416343 -0.1756858584358483  0.4556285321525067 0.1026388136207314 -0.1745571766074912  0.4804267890513728 0.1013205549596958 -0.1748437351582059  0.50528434283608 0.100102632997779 -0.1751260368057426  0.5302248916594845 0.09886062340523451 -0.175403737944079  0.5552231822764735 0.0974649324341879 -0.1756799409472105  0.4570599670940867 0.1277682146674675 -0.1745619965723624  0.4819213564427834 0.1263948865137314 -0.1748496263618734  0.5068127270721051 0.1250758071579279 -0.1751278970030419  0.5317517463623505 0.1237359976560492 -0.1754004243651459  0.5567203386179717 0.1223009085858465 -0.1756749106797144  0.4584960418598003 0.152809715209357 -0.1745679492841381  0.4833978123084384 0.1514097161134021 -0.1748559591632787  0.5083141722391763 0.1500377141478182 -0.1751324816207315  0.5332541002722622 0.1486488607273843 -0.1754038008301097  0.5582072323218396 0.1472050827169219 -0.1756800603995025  0.4599269116136354 0.1777968599222155 -0.1745800714926518  0.4848521977397606 0.1763898031473705 -0.1748677093664986  0.5097835234303204 0.1749939684954517 -0.1751414082978874  0.5347251428064841 0.1735842282465886 -0.175411300026411  0.5596717084902783 0.1721441878836769 -0.1756911616559421  0.4613387217964496 0.202756404586968 -0.1746034190934695  0.4862749333442613 0.2013517437541347 -0.1748878956907087  0.5112160790048247 0.1999467293599225 -0.1751531602723505  0.5361664893824666 0.1985291898792686 -0.175415107202352  0.5611165797196739 0.1970933440543314 -0.175694149561916  0.45 0 -0.15  0.475 0 -0.15  0.5 0 -0.15  0.525 0 -0.15  0.55 0 -0.15  0.451836986331026 0.02621607349254241 -0.1497708702507518  0.47626758589371 0.02542512607533495 -0.1499092658323845  0.5010060189431697 0.02505602566977183 -0.1500398944611135  0.5260030657340597 0.02469842548998185 -0.1501810105080524  0.5513162989501248 0.02392796642741615 -0.1503161304129178  0.4531409980319985 0.05193309369123256 -0.1496611913531879  0.477697935599907 0.0508710863456413 -0.1498694126726953  0.5024427390601929 0.05010053719543453 -0.1500756001894933  0.5274161557035851 0.04932548250166699 -0.150284725923527  0.5525908337918983 0.04819576573574282 -0.1504815191349894  0.4545079551600382 0.07739368204070864 -0.1496125298377407  0.4791947442101158 0.07616668516065518 -0.1498598606291117  0.5039921591593808 0.07511343535264962 -0.1500965882144913  0.5289419999565486 0.0740403281728093 -0.1503321325416484  0.5540046336730344 0.07272671591647882 -0.1505634174943888  0.4559332234724095 0.102655544328477 -0.1495888412680808  0.4807107448923892 0.1013267265539182 -0.1498562537545388  0.5055560177367503 0.1000987439036611 -0.15010757544728  0.5304934996762751 0.09884609536587206 -0.1503554257007911  0.5554909814493062 0.09743953873985728 -0.150605617994328  0.4573658808522746 0.1277817736765661 -0.1495753780733925  0.4822153204709909 0.1264005884949402 -0.149854549882508  0.5070977505028911 0.1250692286799226 -0.150115633226178  0.5320318065146287 0.1237166624279707 -0.1503725459111643  0.5569952308016259 0.1222715876062597 -0.1506356552767472  0.4588011681341502 0.1528213799513345 -0.1495704387023243  0.4836958720704742 0.1514143398459399 -0.1498570780772722  0.5086060502547207 0.1500298725989526 -0.1501254849211745  0.5335412088648507 0.1486277515630858 -0.1503899614130597  0.5584888414062138 0.1471734735715002 -0.1506637011528012  0.4602344187772364 0.1778097989315338 -0.1495759848100197  0.4851548364010461 0.1763944403979699 -0.1498678736270592  0.5100817069128397 0.1749856537255992 -0.1501386840797023  0.5350194644815932 0.1735621054472538 -0.1504062346562052  0.5599617770925578 0.1721101999716554 -0.1506885835072088  0.4616530148760022 0.2027729785735508 -0.1496028149862068  0.4865866847974971 0.2013572173035533 -0.149892759434002  0.5115253307713993 0.1999379954828284 -0.1501549952917812  0.5364720047253255 0.1985055684210009 -0.1504139881590872  0.5614179683216096 0.1970565336141835 -0.1506957448527769  0.45 0 -0.125  0.475 0 -0.125  0.5 0 -0.125  0.525 0 -0.125  0.55 0 -0.125  0.4519639133551029 0.02626339642292701 -0.1248276310865707  0.4763572397810363 0.02543265394560217 -0.1249294993359266  0.5010763806007927 0.02505744267392465 -0.1250238000591889  0.5260725856928836 0.02469514686640409 -0.1251223130742802  0.5514078778980331 0.02388488628797612 -0.1252196267562101  0.4533431829955593 0.05198231903037875 -0.1247242375829008  0.4778664489050441 0.05088508465730192 -0.1248886546339664  0.5025912833075141 0.05010467790074977 -0.1250479086805405  0.5275638990969393 0.04931961889361022 -0.1252052460466555  0.5527525896514905 0.04815098667287432 -0.1253550833468599  0.4547560700841187 0.07743685347257821 -0.1246587844526426  0.4794204861665863 0.07618383429850024 -0.1248687599975459  0.5042019178038734 0.07511690985538624 -0.1250669770721912  0.5291484856530247 0.07402999672735749 -0.1252612632611806  0.55421497055143 0.07268756432141697 -0.1254545453109241  0.4562099012249264 0.1026917996903728 -0.1246162963560856  0.4809729706726621 0.1013435264904478 -0.1248573600086426  0.5058061327751651 0.1000999240089355 -0.1250825515459809  0.5307382147290917 0.09883115266117107 -0.1253031647478061  0.5557331082732622 0.09740286888973639 -0.1255281556432489  0.4576584346343386 0.1278122314312753 -0.1245888388399769  0.4824990388527812 0.1264162394954551 -0.1248520655311827  0.5073724384761542 0.1250682834371763 -0.1250975804403278  0.5323005795763008 0.1236985361080065 -0.1253387098955591  0.557258774948759 0.1222355575653412 -0.1255875730985184  0.4591033757064277 0.1528486164475267 -0.1245752686114841  0.4839926409836389 0.1514284287438615 -0.1248540612104519  0.5088963780309238 0.1500272839355176 -0.1251143015379909  0.533826278759829 0.1486076195110049 -0.1253707617037075  0.5587685501943466 0.147136888236978 -0.1256381111113937  0.4605469734659358 0.1778374498519207 -0.1245770750452731  0.4854631163481364 0.1764080963467726 -0.1248666922154295  0.5103849468154494 0.1749820870935102 -0.1251334738051761  0.535318460841507 0.1735403595166876 -0.1253971472931588  0.5602564360852327 0.1720714103593845 -0.125678126948342  0.4619800763354772 0.2028035574099581 -0.1246081935987279  0.4869095239409099 0.201370950207253 -0.1248972913239219  0.5118442102932949 0.1999334555623609 -0.1251552159091572  0.5367873124109289 0.1984819681568891 -0.1254098908844281  0.5617298640796761 0.1970138926465986 -0.1256913497823662  0.45 0 -0.1  0.475 0 -0.1  0.5 0 -
[...]
<PointData  Tensors="Piola Kirchhoff sec Stress"> 
<DataArray  type="Float64"  Name="Piola Kirchhoff sec Stress"  NumberOfComponents="9" format="ascii">5.9109943228938428e+03 4.4391287742251616e+03 4.6490442058923190e+02 4.4391287742251616e+03 1.5042020620010921e+04 2.2749279258618330e+03 4.6490442058923190e+02 2.2749279258618326e+03 7.0604629301051655e+03  2.1888635339283182e+03 1.8802694290517111e+03 2.6619318781113847e+01 1.8802694290517109e+03 4.6248413125006891e+03 1.1398551758626616e+03 2.6619318781113915e+01 1.1398551758626611e+03 2.0611529151852833e+03  2.0117212051504463e+01 1.1189822023288746e+03 -8.0235852608138671e+01 1.1189822023288734e+03 6.9877730254740285e+01 -2.5156470681596926e+02 -8.0235852608138671e+01 -2.5156470681596929e+02 1.7289076529777157e+02  -2.3697637466211158e+03 1.1349724169111953e+03 -1.8505989493845365e+02 1.1349724169111948e+03 -4.2459440678884457e+03 -1.7402193505560681e+03 -1.8505989493845360e+02 -1.7402193505560681e+03 -1.4513047180591691e+03  -1.1339615724483128e+04 3.2768030645779463e+03 8.8855966834740116e+02 3.2768030645779481e+03 -1.7522018681259106e+04 -3.7811790891936771e+03 8.8855966834740104e+02 -3.7811790891936762e+03 -8.2373425766270811e+03  -1.5108136008966528e+03 3.0140290740520072e+02 1.3214510008082183e+02 3.0140290740520089e+02 6.7461686776563647e+03 5.3335767260120143e+01 1.3214510008082195e+02 5.3335767260120122e+01 8.2936480778836392e+02  -9.1488325485816904e+02 1.9346155143802698e+03 -9.3345415006577738e+01 1.9346155143802703e+03 3.7495341442947547e+03 -1.9818823651316725e+02 -9.3345415006577781e+01 -1.9818823651316723e+02 7.1771975203748900e+02  6.3770132743328688e+01 2.0484236239403904e+03 -1.6305528316617597e+02 2.0484236239403908e+03 9.0853976543516478e+02 -2.5034396225027017e+01 -1.6305528316617591e+02 -2.5034396225027017e+01 7.0830897625190778e+02  8.4720809654605671e+02 1.6644909692951833e+03 -1.7274693543862938e+02 1.6644909692951828e+03 -1.8886332385448959e+03 2.5953413601136594e+02 -1.7274693543862935e+02 2.5953413601136594e+02 8.2094391381826676e+02  1.3037995642155181e+03 -8.6064064886653625e+01 -1.2673149391704708e+02 -8.6064064886654208e+01 -4.4543598362468811e+03 4.5806170037915791e+02 -1.2673149391704725e+02 4.5806170037915791e+02 9.5927015834696272e+02  -2.6970575244500372e+02 4.5543133769205099e+02 4.8269827572538979e+01 4.5543133769205070e+02 5.6080094328422001e+03 3.5627424623888018e+01 4.8269827572538993e+01 3.5627424623888025e+01 1.3475854712647856e+03  -6.2615124765520243e+01 1.5685538773226199e+03 -2.0496017068886765e+01 1.5685538773226199e+03 3.7002223122016271e+03 -3.4368614613685220e+00 -2.0496017068886744e+01 -3.4368614613685704e+00 1.1092294958571586e+03  7.0529906683040861e+02 1.9775019435660308e+03 -4.5973225618468618e+01 1.9775019435660311e+03 1.5129355437836748e+03 5.3648065524217117e+01 -4.5973225618468604e+01 5.3648065524217145e+01 1.1160608913054923e+03  1.4163678593227874e+03 1.4763003434783964e+03 -2.2605013853475302e+01 1.4763003434783968e+03 -7.1921785127483372e+02 1.5035784656545948e+02 -2.2605013853475310e+01 1.5035784656545954e+02 1.1541666071882307e+03  1.7760735402353780e+03 -1.8976402682393822e+02 2.1290378099775403e+01 -1.8976402682393822e+02 -2.0923309877979987e+03 1.9295300619561010e+02 2.1290378099775385e+01 1.9295300619561013e+02 1.4935044249913306e+03  6.7973361105842014e+02 2.5761321232067394e+02 2.0509693416093675e+01 2.5761321232067354e+02 4.5116528514437050e+03 8.3167109847288756e+01 2.0509693416093675e+01 8.3167109847288771e+01 1.5982868322418306e+03  7.6868564836372286e+02 1.1773186419588924e+03 -3.5561811117424242e+00 1.1773186419588933e+03 3.2884857815026971e+03 6.8506758830456306e+01 -3.5561811117424291e+00 6.8506758830456292e+01 1.4305013393385348e+03  1.3089798170173335e+03 1.5120633670274219e+03 -9.4905676812577755e-01 1.5120633670274228e+03 1.7892307913281300e+03 8.5484981578579493e+01 -9.4905676812577344e-01 8.5484981578579450e+01 1.4255596028738928e+03  1.8511094276410686e+03 1.0795398037024072e+03 2.3125330712387218e+01 1.0795398037024074e+03 3.6730271045270672e+02 1.0802202572037696e+02 2.3125330712387218e+01 1.0802202572037694e+02 1.4794420544491948e+03  2.1413507694117852e+03 -9.0927410720806463e+01 1.7939314450811061e+01 -9.0927410720806208e+01 -2.1037529284310912e+02 1.5120839776660625e+02 1.7939314450811061e+01 1.5120839776660623e+02 1.7287521753424630e+03  1.2063453528689097e+03 2.6178982078372451e+02 7.2845191787758843e+00 2.6178982078372434e+02 3.6557620085522676e+03 7.7936128226544014e+01 7.2845191787758887e+00 7.7936128226544014e+01 1.7367874184854593e+03  1.3542181363364462e+03 8.5364345909573638e+02 -5.6003527728080105e-01 8.5364345909573638e+02 2.9037545497957917e+03 8.3429368192597806e+01 -5.6003527728080149e-01 8.3429368192597821e+01 1.6167836502029711e+03  1.7158872872405632e+03 1.0382742402869953e+03 1.2322448169747259e+01 1.0382742402869956e+03 1.9526447038098433e+03 8.7561258400448125e+01 1.2322448169747258e+01 8.7561258400448111e+01 1.6110211902674164e+03  2.0913410492958587e+03 7.1009801113684057e+02 2.7129239853557181e+01 7.1009801113684080e+02 1.1382830509139956e+03 8.8703685338204664e+01 2.7129239853557177e+01 8.8703685338204608e+01 1.6709177173780067e+03  2.3138983902045456e+03 -4.9641644080648526e+01 1.3299034525196252e+01 -4.9641644080648447e+01 1.0078505750455721e+03 1.1780790505358361e+02 1.3299034525196257e+01 1.1780790505358364e+02 1.8652307474429656e+03  1.6196405752910987e+03 1.0325602915778445e+02 -1.0962970482495549e+00 1.0325602915778443e+02 2.9349755749855549e+03 1.0036046848240125e+02 -1.0962970482495549e+00 1.0036046848240125e+02 1.7500030441943202e+03  1.6994932289916635e+03 5.2113369067185113e+02 1.9059630038662450e+00 5.2113369067185124e+02 2.5781670203445428e+03 8.9909720978690700e+01 1.9059630038662525e+00 8.9909720978690700e+01 1.6902718461681015e+03  1.9366456125068669e+03 6.4276008704402648e+02 1.3373047428016122e+01 6.4276008704402670e+02 2.0378618609087130e+03 8.4320063778425236e+01 1.3373047428016113e+01 8.4320063778425208e+01 1.6941039871396076e+03  2.1781804726374794e+03 4.2172826104979862e+02 2.1084990775908331e+01 4.2172826104979868e+02 1.6258110547659026e+03 7.9216310920388722e+01 2.1084990775908331e+01 7.9216310920388736e+01 1.7461104148586489e+03  2.3303522712967610e+03 -2.7632640751603265e+01 4.6491827972592121e+00 -2.7632640751603223e+01 1.6992567332388921e+03 9.1293261482558194e+01 4.6491827972592068e+00 9.1293261482558222e+01 1.8821194039239635e+03  1.8466483781797187e+03 9.3416547547111890e+01 -1.0794569639851609e+01 9.3416547547111904e+01 2.4758214838833396e+03 8.5277673749780490e+01 -1.0794569639851604e+01 8.5277673749780462e+01 1.7562987060643711e+03  1.9051914068009125e+03 3.1874082246369011e+02 -3.5745302296389982e+00 3.1874082246369022e+02 2.3113912249435939e+03 8.3925642104782412e+01 -3.5745302296389951e+00 8.3925642104782355e+01 1.7081175829209958e+03  2.0320259922523394e+03 3.7161050722098253e+02 9.8881953976599579e+00 3.7161050722098258e+02 2.0650539650746000e+03 7.7833345398207342e+01 9.8881953976599739e+00 7.7833345398207399e+01 1.7111510179451247e+03  2.1718660450781249e+03 2.2438573631352364e+02 1.3923837524570887e+01 2.2438573631352361e+02 1.9074207311859291e+03 7.2727216131690511e+01 1.3923837524570898e+01 7.2727216131690483e+01 1.7516558502501405e+03  2.2711917775046268e+03 -1.4971858006808493e+01 -2.4564291960000268e+00 -1.4971858006808485e+01 2.0470960886693713e+03 7.3313198737724193e+01 -2.4564291960000237e+00 7.3313198737724193e+01 1.8382844497595536e+03  1.9324693643445576e+03 1.5331335085876589e+01 -1.5783572889243414e+01 1.5331335085876601e+01 2.1446324230705477e+03 8.5770662149056861e+01 -1.5783572889243420e+01 8.5770662149056861e+01 1.7177453104364720e+03  1.9734862308212582e+03 1.6177188101748146e+02 -8.7589606063349290e+00 1.6177188101748152e+02 2.1301981360899731e+03 7.7777264005836685e+01 -8.7589606063349450e+00 7.7777264005836670e+01 1.6842197540280645e+03  2.0392376606784821e+03 1.9485382062050599e+02 5.7400839632147100e+00 1.9485382062050596e+02 2.0603232400849288e+03 7.1574737292806262e+01 5.7400839632147029e+00 7.1574737292806233e+01 1.6832561755478926e+03  2.1188395919270924e+03 9.5264916038010128e+01 8.6119313450404356e+00 9.5264916038010085e+01 2.0574676194397694e+03 6.9542773241400553e+01 8.6119313450404356e+00 6.9542773241400596e+01 1.7231187275503873e+03  2.1885992756730675e+03 -1.4271517631533207e+01 -7.6866102956344671e+00 -1.4271517631533220e+01 2.1737677637118013e+03 6.4354161696668854e+01 -7.6866102956344653e+00 6.4354161696668868e+01 1.7730393949006007e+03  1.9242192095080038e+03 -7.0992648375154150e+00 -1.8041235894591601e+01 -7.0992648375154053e+00 2.0687836094686963e+03 7.2571240726949725e+01 -1.8041235894591598e+01 7.2571240726949711e+01 1.6954158387352427e+03  1.9503715540608018e+03 2.2474055614426703e+01 9.2130712015256258e+00 2.2474055614426703e+01 2.0272949998798954e+03 6.9741738068668340e+01 9.2130712015256417e+00 6.9741738068668326e+01 1.6388208914841568e+03  2.0339634046113565e+03 3.2096003821073353e+01 2.7973934981454381e+01 3.2096003821073353e+01 2.0095705793228601e+03 6.5062374704895532e+01 2.7973934981454398e+01 6.5062374704895532e+01 1.6301052941144094e+03  2.1267003543318401e+03 5.3150829743178365e+00 1.7447743215748421e+01 5.3150829743178356e+00 2.0807494418627225e+03 7.7061729830348483e+01 1.7447743215748421e+01 7.7061729830348483e+01 1.6920820863606050e+03  2.1539381146451583e+03 -2.2434127285838166e+01 -8.5464814273828562e+00 -2.2434127285838169e+01 2.1636912314002579e+03 8.5455641642140634e+01 -8.5464814273828562e+00 8.5455641642140634e+01 1.7365834804015931e+03  6.6358139225596606e+03 5.2147371317430234e+03 1.6413588580313038e+02 5.2147371317430234e+03 1.5349455523251605e+04 1.2604813638569324e+03 1.6413588580313038e+02 1.2604813638569324e+03 8.5356993770039826e+03  1.9559211584853429e+03 2.5324860914106266e+03 5.2681803979171796e+01 2.5324860914106280e+03 4.1910282039218082e+03 6.1756686825996667e+02 5.2681803979171768e+01 6.1756686825996667e+02 2.2520309317205115e+03  1.9757545146763027e+02 1.7956121465276640e+03 -5.8726266496825346e+01 1.7956121465276640e+03 3.5406184192035329e+02 -1.5361463008154755e+02 -5.8726266496825389e+01 -1.5361463008154760e+02 1.9384811655883348e+02  -1.7035524465058918e+03 1.8947345193604792e+03 -1.4641659391625700e+02 1.8947345193604795e+03 -2.7354536983943294e+03 -9.3481133597736994e+02 -1.4641659391625706e+02 -9.3481133597736982e+02 -1.5474303792004193e+03  -1.1182703561668692e+04 4.3340287290613705e+03 1.8721836414582006e+02 4.3340287290613705e+03 -1.5898313401786429e+04 -1.9594412072370133e+03 1.8721836414581995e+02 -1.9594412072370133e+03 -9.9389814124787936e+03  -6.7513722154529773e+02 1.1959753940845093e+02 2.0076924212254247e+02 1.1959753940845127e+02 7.3874540475060439e+03 5.7447297785671526e+02 2.0076924212254247e+02 5.7447297785671526e+02 1.3931502135744211e+03  -5.3662600237839479e+02 2.5228073459109355e+03 -1.5793351520534827e+02 2.5228073459109369e+03 4.7615469982336717e+03 1.4430605384832481e+02 -1.5793351520534833e+02 1.4430605384832452e+02 8.2884963643129311e+02  -7.7000727122398075e+01 2.6418955145682739e+03 -3.2736153736931146e+02 2.6418955145682744e+03 8.8730740286277035e+02 -1.2379786503018909e+02 -3.2736153736931146e+02 -1.2379786503018916e+02 4.1122385540465547e+02  3.2811480029782285e+02 2.2472886217936270e+03 -3.2488239661033901e+02 2.2472886217936275e+03 -2.9840159680557240e+03 -3.9121916398979255e+02 -3.2488239661033901e+02 -3.9121916398979261e+02 3.0292016075945803e+01  1.8678970383022640e+03 2.5043677121920737e+02 -2.5556585667346567e+02 2.5043677121920658e+02 -7.0441536805613978e+03 -7.9350353716208167e+02 -2.5556585667346573e+02 -7.9350353716208167e+02 3.0566001023136016e+02  2.0021819520609679e+02 4.2178418603692694e+02 1.3087024372249340e+02 4.2178418603692688e+02 6.1933431246992050e+03 2.4028160570504045e+02 1.3087024372249346e+02 2.4028160570504065e+02 1.6875147248945718e+03  3.9514137753237002e+01 1.6644864586274675e+03 -1.1789970089385612e+02 1.6644864586274678e+03 3.8051381022965402e+03 2.1789224679835884e-01 -1.1789970089385612e+02 2.1789224679843661e-01 1.0485837407978015e+03  5.8321471935122725e+02 2.1460026758536624e+03 -2.2914556728064343e+02 2.1460026758536619e+03 1.2908850946041534e+03 -1.6266534581554801e+01 -2.2914556728064335e+02 -1.6266534581554815e+01 9.6564550788383690e+02  1.2081813860899597e+03 1.5786677755839539e+03 -1.9325575874806083e+02 1.5786677755839535e+03 -1.3548123654606729e+03 1.0208685020345962e+01 -1.9325575874806091e+02 1.0208685020345898e+01 9.2794078120410791e+02  1.7721346618312530e+03 -1.4328162207538287e+02 -4.9769651415979489e+01 -1.4328162207538287e+02 -2.8891137679528288e+03 -5.7410433269552428e+01 -4.9769651415979531e+01 -5.7410433269552428e+01 1.3100893381292015e+03  9.7239380294917942e+02 2.4429440425942747e+02 8.4425627298382111e+01 2.4429440425942747e+02 4.7528442246108953e+03 1.7387216526408790e+02 8.4425627298382125e+01 1.7387216526408795e+02 1.7906988228959897e+03  8.0679424093892987e+02 1.1646072578913488e+03 -3.8617973069674434e+01 1.1646072578913488e+03 3.2855408440818856e+03 7.9984605041182860e+01 -3.8617973069674441e+01 7.9984605041182860e+01 1.3777613841649923e+03  1.1767777866425108e+03 1.4897782847069211e+03 -7.5503124411395433e+01 1.4897782847069213e+03 1.6172367544829815e+03 6.8914982190554554e+01 -7.5503124411395433e+01 6.8914982190554596e+01 1.3364320256772348e+03  1.7200295672426698e+03 1.0338414624625493e+03 -4.4297290833062341e+01 1.0338414624625491e+03 1.2706344394134253e+02 9.7201220153928389e+01 -4.4297290833062355e+01 9.7201220153928389e+01 1.4061882469936006e+03  2.0909597412018334e+03 -1.5625699609177809e+02 1.1957346241698247e+01 -1.5625699609177806e+02 -4.8806071867558126e+02 9.2995826129641856e+01 1.1957346241698241e+01 9.2995826129641870e+01 1.7210235044653593e+03  1.3880786641332795e+03 2.1959008865534878e+02 7.4821817010709736e+01 2.1959008865534875e+02 3.7577297857844578e+03 1.5707353846496449e+02 7.4821817010709751e+01 1.5707353846496454e+02 1.8198860372736933e+03  1.3616171699724039e+03 7.9592349416328477e+02 1.6027644816630605e+01 7.9592349416328432e+02 2.8742446559024311e+03 1.1051326956857282e+02 1.6027644816630588e+01 1.1051326956857277e+02 1.5767327316513924e+03  1.6247247796587235e+03 9.7821012484224548e+02 1.1968280011506726e+01 9.7821012484224582e+02 1.8914908511406047e+03 9.4233808714141176e+01 1.1968280011506719e+01 9.4233808714141176e+01 1.5746922660993296e+03  2.0152252703234722e+03 6.5071884665646326e+02 2.3944111915660763e+01 6.5071884665646337e+02 1.1004455166701434e+03 9.3409484365737441e+01 2.3944111915660763e+01 9.3409484365737484e+01 1.6595284318523654e+03  2.2859055316208710e+03 -9.6193214370024492e+01 2.2238495497882482e+01 -9.6193214370024407e+01 9.7202684583245230e+02 9.7577171032621308e+01 2.2238495497882489e+01 9.7577171032621294e+01 1.9045981795542391e+03  1.7446848333221551e+03 8.5462245361277880e+01 4.0131571686211068e+01 8.5462245361277823e+01 3.0009416776061466e+03 1.5845993366199190e+02 4.0131571686211068e+01 1.5845993366199181e+02 1.8234968744538887e+03  1.6982283470913635e+03 4.7347187843311679e+02 3.4336177138249894e+01 4.7347187843311650e+02 2.5746014046738674e+03 1.2254456183376836e+02 3.4336177138249916e+01 1.2254456183376834e+02 1.6751355728802093e+03  1.8831180176973096e+03 5.9132990263849126e+02 4.6011445942266192e+01 5.9132990263849126e+02 2.0367879607357199e+03 9.3545481335183993e+01 4.6011445942266171e+01 9.3545481335183993e+01 1.6887865738736098e+03  2.1474509152997121e+03 3.8193746072915059e+02 4.5208086124273791e+01 3.8193746072915042e+02 1.6680318151107203e+03 7.1582410255123591e+01 4.5208086124273798e+01 7.1582410255123605e+01 1.7656267803415546e+03  2.3310825297747824e+03 -5.1925431357138706e+01 1.6846393996856097e+01 -5.1925431357138613e+01 1.7582341620203867e+03 6.2620253744467909e+01 1.6846393996856087e+01 6.2620253744467881e+01 1.9364527291243860e+03  1.9219625816308762e+03 7.2756677137581917e+01 2.2692961733103900e+01 7.2756677137581846e+01 2.5469236163810392e+03 1.4027769147842250e+02 2.2692961733103896e+01 1.4027769147842253e+02 1.8080719504457516e+03  1.9082931908551504e+03 2.7933147823135039e+02 3.4585858013704716e+01 2.7933147823135027e+02 2.3333539597906974e+03 1.1365652521952444e+02 3.4585858013704723e+01 1.1365652521952441e+02 1.7066534584057993e+03  2.0117246912736173e+03 3.3353291017331213e+02 5.4672823948880144e+01 3.3353291017331208e+02 2.0936364996717139e+03 8.2459256420037121e+01 5.4672823948880144e+01 8.2459256420037150e+01 1.7244187473500033e+03  2.1745157206547997e+03 2.0176543660831624e+02 4.7314002356331500e+01 2.0176543660831618e+02 1.9621320477500367e+03 5.3455011887656489e+01 4.7314002356331521e+01 5.3455011887656489e+01 1.7831055803925528e+03  2.2926271040644592e+03 -2.6083743223491886e+01 7.7395572161291346e+00 -2.6083743223491819e+01 2.1162411276206212e+03 3.1141172577132526e+01 7.7395572161291435e+00 3.1141172577132526e+01 1.8882916528840874e+03  1.9767048408089063e+03 9.3131415861215334e+00 4.9199959804382809e+00 9.3131415861215476e+00 2.1953722173805550e+03 1.2217905324048715e+02 4.9199959804382836e+00 1.2217905324048711e+02 1.7544326200423302e+03  1.9706219613041903e+03 1.3320680194202805e+02 3.8820793782348467e+01 1.3320680194202808e+02 2.1621762421886338e+03 9.5485480854895442e+01 3.8820793782348467e+01 9.5485480854895400e+01 1.6847911848601343e+03  2.0425425039527368e+03 1.6098986296938028e+02 6.6666534663303636e+01 1.6098986296938037e+02 2.0900648775121208e+03 7.1608257518702601e+01 6.6666534663303636e+01 7.1608257518702601e+01 1.7048577871703753e+03  2.1478012054517585e+03 7.9116415567829691e+01 5.3758448044786249e+01 7.9116415567829719e+01 2.0887695123715953e+03 5.0245641405892705e+01 5.3758448044786249e+01 5.0245641405892705e+01 1.7563168208484130e+03  2.2211641572008989e+03 -2.0593751421466894e+01 1.4662186078529145e+00 -2.0593751421466902e+01 2.2106751505222132e+03 2.4027519198902773e+01 1.4662186078529118e+00 2.4027519198902780e+01 1.8033810117191556e+03  1.9832810038426703e+03 -1.0667534635565803e+01 1.1148329112983550e+01 -1.0667534635565824e+01 2.0840446952909515e+03 8.1179561139883958e+01 1.1148329112983571e+01 8.1179561139883987e+01 1.6954007229562344e+03  1.9594271853277478e+03 1.5394527789403936e+01 6.6200266184276344e+01 1.5394527789403938e+01 2.0557951743614590e+03 6.9280185617772503e+01 6.6200266184276344e+01 6.9280185617772531e+01 1.6159786740603377e+03  2.0472853178842072e+03 1.3893802564932363e+01 1.1201821018943869e+02 1.3893802564932365e+01 2.0520183703362945e+03 6.4738426879173502e+01 1.1201821018943865e+02 6.4738426879173488e+01 1.6627286278933536e+03  2.1672751153899285e+03 -1.3429454178678281e+01 9.3703038230932449e+01 -1.3429454178678267e+01 2.1047291040310183e+03 6.9734085336953768e+01 9.3703038230932464e+01 6.9734085336953740e+01 1.7357162840076526e+03  2.1910307369330822e+03 -2.9700097643433587e+01 1.5654957798101695e+01 -2.9700097643433590e+01 2.1689709530947193e+03 7.0422819646262994e+01 1.5654957798101689e+01 7.0422819646262994e+01 1.7495372034698137e+03  7.3193343832550881e+03 5.9151942258040590e+03 6.2730144460070925e+01 5.9151942258040608e+03 1.6561772762223780e+04 8.1419401005770612e+02 6.2730144460070917e+01 8.1419401005770590e+02 9.4355467946785702e+03  2.0902690141984372e+03 2.8698153263270410e+03 3.9035409483993746e+01 2.8698153263270401e+03 4.3038797767770675e+03 3.8280558222081038e+02 3.9035409483993725e+01 3.8280558222081049e+02 2.5464675975265382e+03  2.2981895996906150e+02 2.0591606126260231e+03 -4.5646285599904942e+01 2.0591606126260240e+03 3.4205575366551761e+02 -1.1536094975657002e+02 -4.5646285599904850e+01 -1.1536094975656999e+02 2.2678131703853759e+02  -1.7510466216415964e+03 2.1671355724759333e+03 -1.2246841359093028e+02 2.1671355724759328e+03 -2.7365138541607139e+03 -5.8385872735054636e+02 -1.2246841359093028e+02 -5.8385872735054636e+02 -1.7540527635501912e+03  -1.2289788061029169e+04 4.9018103216648142e+03 1.9745550424482704e+02 4.9018103216648142e+03 -1.7072304296455146e+04 -1.3532