<?xml version="1.0"?>
<VTKFile type="UnstructuredGrid"  version="0.1"  >
<UnstructuredGrid>
<Piece  NumberOfPoints="405" NumberOfCells="1536">
<Points>
<DataArray  type="Float64"  NumberOfComponents="3"  format="ascii">0.45 0 -0.2  0.475 0 -0.2  0.5 0 -0.2  0.525 0 -0.2  0.55 0 -0.2  0.4532937790397185 0.02790433324417148 -0.1984565206535021  0.4770414730400496 0.02625453931244735 -0.1991825813048579  0.5014208196009469 0.02518015647091718 -0.2000217847195445  0.5262714029559028 0.02403276241686543 -0.200978621000492  0.5515807359452906 0.02210187371696555 -0.2019429187894661  0.4564693130622118 0.05470328706905985 -0.1983882313693205  0.4802382035564849 0.05217906984130768 -0.1991904670343692  0.5045042697381592 0.05018705900341178 -0.200120008857245  0.5292317640673126 0.04813090192821518 -0.2011129723557475  0.5542434831198828 0.04527164717862862 -0.202124961997436  0.460313381609035 0.08072092879770239 -0.1986316256167021  0.4841320258338299 0.07757896506331548 -0.1993694377254671  0.5083726071335607 0.07488864941458609 -0.2001990526984144  0.532970814875804 0.07211696124219988 -0.2010546475975698  0.5577164277158784 0.06866077471720157 -0.2019032309775438  0.4645018886483228 0.1060968239559162 -0.1989399582251656  0.4883766144353488 0.1025497950725849 -0.1995621138953793  0.5125954550151254 0.09935666642358816 -0.2002555466987379  0.5370753623691684 0.09607930751621631 -0.2009565217368554  0.561623431194756 0.09227614333302589 -0.2016395220982622  0.4687414922558327 0.1310255405886155 -0.199192801365011  0.4927146201720196 0.1272427500677601 -0.1997228137937075  0.5169242423804584 0.123703183661729 -0.2003006202165753  0.5413132474801315 0.1200958662785238 -0.2008774702657766  0.5657316719978037 0.1161234137319714 -0.201436927019732  0.4729124834775891 0.1556594580754627 -0.1993661107602696  0.4969931367599517 0.1517575520222449 -0.1998429453817533  0.5212195859948134 0.1480035933277947 -0.2003423885220555  0.5455526353805068 0.1442024902567353 -0.2008348606145205  0.569895935943967 0.140173592048586 -0.2013173326787332  0.4769785847644746 0.180121396798241 -0.1994802800245672  0.5011613534597767 0.1761703412248183 -0.1999380321143802  0.5254183461903893 0.1723016070771743 -0.2003861965227436  0.5497239805298693 0.1684068629486872 -0.2008235991176449  0.5740279848525376 0.1643817412481674 -0.201269535450099  0.4809768329824586 0.2044925638672707 -0.1995734467641678  0.5051907925095878 0.2005349983864969 -0.2000291065922009  0.5294679926223158 0.1966298958620362 -0.2004308285177461  0.5537888904535309 0.1926979327201463 -0.2008177588150159  0.5780962469390303 0.1886775836367933 -0.2012533121097488  0.45 0 -0.175  0.475 0 -0.175  0.5 0 -0.175  0.525 0 -0.175  0.55 0 -0.175  0.453733352901543 0.02768225572121038 -0.1740725717785487  0.4775350990215854 0.02609607076419567 -0.1745058572794959  0.5019532595954387 0.02515000753034532 -0.175028054366393  0.5268961869788354 0.02419824545475394 -0.1756076136936238  0.5524916290877984 0.02233646425063228 -0.1761822898476696  0.4570653058955547 0.05457083870196918 -0.173857880135828  0.4808854706011647 0.05205785636795321 -0.1744421327933159  0.505196197074859 0.05007683456304668 -0.1751201746446454  0.5299784878095023 0.04802784318533178 -0.1758326368430184  0.555116740761506 0.04512313227255139 -0.1765058623038856  0.4609031829866632 0.08064190167736658 -0.1739358185880029  0.4847897077781721 0.0774822991592073 -0.1745278417277893  0.5090509994292308 0.0747323268781907 -0.175184877497299  0.5336560609596355 0.0718897412726191 -0.1758577876225488  0.5584301199041525 0.06838669459578853 -0.1765075293976347  0.4650351451625895 0.1060420084543073 -0.174094357566765  0.4889808530791967 0.1024633133118053 -0.1746463841251185  0.5132054453228718 0.09919425723939095 -0.1752332536751002  0.5376671433188756 0.09583908867054572 -0.1758260677320007  0.562204846778981 0.09200662217527035 -0.176408848376974  0.469223935880359 0.1309705105659493 -0.1742435199565345  0.4932563562267563 0.1271582015482984 -0.1747551058205802  0.5174652415894818 0.1235538075338224 -0.1752767002272636  0.5418300593489621 0.1198840497597349 -0.1757979439506646  0.5662266923446351 0.1158937053297494 -0.1763193106711881  0.4733710377119089 0.1555990533855182 -0.17435778058883  0.4974914933589905 0.1516728902025655 -0.1748454837394652  0.5217109689004861 0.1478707215713844 -0.1753216688637917  0.5460218652481937 0.1440238528621637 -0.1757924567022982  0.5703443600315264 0.1399810150164404 -0.1762736024685883  0.4774417589000758 0.1800544974587533 -0.1744462767271975  0.5016389195431261 0.1760877122725983 -0.1749265863105485  0.5258803142516333 0.1721825503034236 -0.1753710840267734  0.5501681874378866 0.1682489803999739 -0.1758065946767112  0.5744601297312337 0.1642067683192943 -0.1762685696346027  0.4814403611647523 0.2044256832955681 -0.1745468681667417  0.5056789485295721 0.2004590267315592 -0.1750152068374087  0.5299327336447704 0.1965136223353632 -0.1754229898684896  0.5542305224907256 0.1925379303982781 -0.1758220300490309  0.5785315807838645 0.1884983666988272 -0.1762703806268638  0.45 0 -0.15  0.475 0 -0.15  0.5 0 -0.15  0.525 0 -0.15  0.55 0 -0.15  0.4540871346410148 0.02768793736889485 -0.1494608183105738  0.4777624120426802 0.02605420360477619 -0.1497244472473287  0.5021457473496755 0.02513762474207083 -0.1500246085440426  0.5271237672785031 0.02420805915673637 -0.150355762900914  0.5528366312778802 0.02222502820426244 -0.1506799754494974  0.4575408382425719 0.05451752920949169 -0.1492363712454906  0.4812764511346145 0.05199111814584821 -0.1496328014042355  0.5055683244629438 0.05003550107917232 -0.1500866804453487  0.5304002200980259 0.04799895067521274 -0.1505601863545954  0.5556327857338911 0.04502377472406446 -0.1509949795435713  0.4614271054738254 0.08056711420321488 -0.1492082340614211  0.4852633386245497 0.07740296826510473 -0.1496599948085442  0.5095149116179249 0.07465549461627349 -0.1501470600672784  0.5341479681177603 0.07180400368228991 -0.1506458614959941  0.558973185954751 0.06828015251611029 -0.1511211291998712  0.465568580015203 0.1059603903660359 -0.1492551225742508  0.489484350963351 0.1023764189522592 -0.1497224291623363  0.5136981385469216 0.0990923056048202 -0.1501986828696693  0.5381660428048511 0.09571692295757206 -0.150680651672187  0.5627214007333872 0.09188183472309805 -0.15115549671588  0.4697537939159323 0.1308924142327718 -0.1493175813137031  0.4937647885786161 0.1270686359871911 -0.1497893339358125  0.5179596743502197 0.1234401142456955 -0.1502473309734041  0.5423170016467259 0.1197458791493691 -0.1507061291251313  0.5667113329864125 0.1157546329305385 -0.1511709732972257  0.4739016215855685 0.1555289522418561 -0.1493761640664534  0.4980013187383013 0.1515835561313075 -0.1498538311165663  0.5222032782183812 0.1477525766140982 -0.1502983471462422  0.5464992478347326 0.1438787175053111 -0.1507390543162439  0.5708087507922784 0.1398286512075725 -0.1511982683719381  0.4779888224079505 0.1799983604904772 -0.1494349084813052  0.5021606566327139 0.1759995542874765 -0.1499234741737996  0.5263801182529474 0.1720608342235844 -0.1503544002321952  0.5506482941725189 0.168096570145753 -0.1507780314892473  0.5749213909414422 0.1640370639167499 -0.1512381255582771  0.4820348602641283 0.2043837169755251 -0.1495379005722624  0.5062352906621258 0.2003693720453095 -0.1500185430410739  0.5304622130572878 0.196383812327784 -0.1504157844989743  0.554733202967485 0.1923720504476246 -0.1508082759264544  0.5790078855568933 0.1883061876450779 -0.1512599401713138  0.45 0 -0.125  0.475 0 -0.125  0.5 0 -0.125  0.525 0 -0.125  0.55 0 -0.125  0.4542876775360811 0.02773447150452811 -0.1246783523651131  0.4778956871675212 0.0260567435145775 -0.1248329599103641  0.5022547651944859 0.02513425380232279 -0.1250101911059777  0.5272454857432658 0.02419779742192898 -0.1252067775456851  0.5530067752734723 0.0221255144325829 -0.1254066777075457  0.4578584633732002 0.05453967092078685 -0.1245033343515259  0.4815356850269912 0.05197711710451113 -0.1247587714797491  0.5058084193860072 0.05001750974743392 -0.1250503606708215  0.5306594000577115 0.04796643369363838 -0.1253520980223289  0.5559275519511913 0.04491119900126184 -0.1256285181881979  0.4618201611547911 0.08056043125693368 -0.1244294669757126  0.485617404205319 0.07736880514400503 -0.1247535030494739  0.5098547220676759 0.07461171761481737 -0.1250997829321748  0.5344986276861664 0.07174249667401141 -0.1254510559761987  0.5593423382100969 0.06817121337079378 -0.1257872531235455  0.4660104261237194 0.1059345153676147 -0.1244069835584666  0.4899002795527493 0.1023253913351005 -0.1247775632871386  0.5141000166085201 0.09902396650601099 -0.1251519062231502  0.5385671985259038 0.09562820676057046 -0.1255276285093136  0.5631261443016228 0.09176512792344686 -0.125900320391228  0.4702300682898475 0.1308564983489416 -0.1244073584266298  0.4942209005622955 0.1270060174917473 -0.1248141824036861  0.5183991573123797 0.1233532114998287 -0.1252068308940142  0.5427466064754976 0.1196352416281465 -0.1255975886198755  0.5671335175247222 0.1156225348527045 -0.1259958387384639  0.4744096590202626 0.1554908226393444 -0.1244219574178801  0.4984885961767244 0.1515136362622495 -0.1248597914243564  0.5226704290176323 0.1476522189041362 -0.1252659799849899  0.5469502330262387 0.1437503825638526 -0.1256670065055095  0.5712449691468585 0.139677668345232 -0.1260870574436205  0.4785353070007659 0.1799648912107322 -0.1244569967555969  0.5026818425923926 0.1759244987135116 -0.1249216853308009  0.5268764936617171 0.1719491530967162 -0.125330179449578  0.5511235655908157 0.1679518800098887 -0.125731076964099  0.575376678136474 0.1638642416710397 -0.1261697460006675  0.4826416510322553 0.2043541563723641 -0.1245582391287485  0.506803300822197 0.2002870379990234 -0.1250199984184967  0.5309976806556801 0.1962595338051761 -0.1253993057766193  0.5552418337400742 0.1922095197013373 -0.1257733680234098  0.5794915185434587 0.1881078700234338 -0.1262095761163015  0.45 0 -0.1  0.475 0 -0.1  0
[...]
<PointData  Tensors="Piola Kirchhoff sec Stress"> 
<DataArray  type="Float64"  Name="Piola Kirchhoff sec Stress"  NumberOfComponents="9" format="ascii">1.8441648642819666e+04 9.4922502500524479e+03 1.6624986665548090e+03 9.4922502500524424e+03 3.7515012791691464e+04 6.3826927118343183e+03 1.6624986665548090e+03 6.3826927118343183e+03 1.9509727282570799e+04  7.0876725823716133e+03 3.4888693025976854e+03 2.2450626770370678e+02 3.4888693025976836e+03 1.3841365652158898e+04 3.4916866133143885e+03 2.2450626770370656e+02 3.4916866133143885e+03 6.5287034768220383e+03  7.0043695835916299e+02 1.5388701465804395e+03 -1.5133216273498090e+02 1.5388701465804395e+03 1.8826407611271356e+03 -1.9329415263928246e+02 -1.5133216273498098e+02 -1.9329415263928232e+02 9.2378295853883230e+02  -5.1969179410777579e+03 1.4632714035525651e+03 -4.7218542708907881e+02 1.4632714035525653e+03 -8.9953066012888994e+03 -3.9733559627660566e+03 -4.7218542708907898e+02 -3.9733559627660575e+03 -2.4485410289176175e+03  -2.5040575673253155e+04 7.1733260672869292e+03 1.9224596993502457e+03 7.1733260672869274e+03 -4.0530609206818859e+04 -8.5961366691296716e+03 1.9224596993502457e+03 -8.5961366691296716e+03 -1.5804665665965191e+04  8.7416464177279738e+02 2.6587241398960036e+03 4.4427722802188515e+02 2.6587241398960068e+03 2.1239518494617572e+04 3.8510660895873809e+02 4.4427722802188515e+02 3.8510660895873809e+02 4.2297949438901223e+03  4.9444395136180111e+02 4.7446364733018518e+03 -6.5473157956062693e+01 4.7446364733018581e+03 1.1401001176664380e+04 -4.1544159853124694e+02 -6.5473157956062565e+01 -4.1544159853124705e+02 2.8440684228782093e+03  1.6807662518162826e+03 4.4375442146913674e+03 -3.6713717441195655e+02 4.4375442146913674e+03 3.4986535699807960e+03 -1.5397201508880926e+02 -3.6713717441195666e+02 -1.5397201508880931e+02 2.3925666198716481e+03  3.4853020700902202e+03 3.0557203400522899e+03 -4.6097161120996822e+02 3.0557203400522890e+03 -3.3956340498432837e+03 6.9602665424682300e+02 -4.6097161120996816e+02 6.9602665424682323e+02 2.9866186433925836e+03  5.7460395062399120e+03 -1.8631887920490967e+03 -1.9949236886656993e+02 -1.8631887920490963e+03 -8.5945747265066184e+03 1.6873103111672492e+03 -1.9949236886656962e+02 1.6873103111672499e+03 4.7953363406256540e+03  3.7148268320426264e+03 3.1159059668635059e+03 2.0335395077173817e+02 3.1159059668635032e+03 1.9181783771307440e+04 3.8293987242861358e+00 2.0335395077173814e+02 3.8293987242861043e+00 5.9114904743043544e+03  3.4958481938159498e+03 4.8186174795934921e+03 2.7000736586585390e+01 4.8186174795934994e+03 1.1587693381295918e+04 -3.7843108058789774e+01 2.7000736586585379e+01 -3.7843108058789795e+01 4.5428526433149618e+03  4.7785911395773792e+03 4.9626028223378025e+03 -7.2000940990270436e+01 4.9626028223378016e+03 5.0962592695435951e+03 6.5197408559403499e+01 -7.2000940990270450e+01 6.5197408559403542e+01 4.2642704328470809e+03  6.2959264262924771e+03 3.0248870555945664e+03 -2.0775954254903557e+01 3.0248870555945664e+03 -5.3690725228377221e+02 3.3869615029986477e+02 -2.0775954254903645e+01 3.3869615029986483e+02 4.5865987527071275e+03  7.5506632152872135e+03 -1.9844350503213632e+03 1.5688673339593737e+02 -1.9844350503213632e+03 -2.8476254055080653e+03 7.0999523237979236e+02 1.5688673339593734e+02 7.0999523237979258e+02 6.6184396902095332e+03  5.9187591748186951e+03 2.6436957723904798e+03 5.7800867461920518e+01 2.6436957723904779e+03 1.6919513331972448e+04 1.1794093937060760e+01 5.7800867461920525e+01 1.1794093937060781e+01 7.1827082196521460e+03  5.9875416039433903e+03 4.2914889658453503e+03 1.5417862389907125e+01 4.2914889658453512e+03 1.1086186697665096e+04 1.0739568773072243e+02 1.5417862389907125e+01 1.0739568773072247e+02 6.0006927030281131e+03  7.1484483189785960e+03 4.3050594482604147e+03 3.0234375244061585e+01 4.3050594482604147e+03 6.2095003872285106e+03 1.5878199279928873e+02 3.0234375244061578e+01 1.5878199279928887e+02 5.7610470571971755e+03  8.3816834922235976e+03 2.4232144645493058e+03 1.2012939413435392e+02 2.4232144645493058e+03 2.5332128538260281e+03 2.1936611041403464e+02 1.2012939413435392e+02 2.1936611041403464e+02 6.1063385970078243e+03  9.3100204160848643e+03 -1.4522730926868442e+03 2.0608275973069766e+02 -1.4522730926868442e+03 2.2748077196214222e+03 5.2893053661325803e+02 2.0608275973069763e+02 5.2893053661325803e+02 7.7339623585776126e+03  7.1712921553588767e+03 2.0507726297052263e+03 -4.8865645433545311e+00 2.0507726297052254e+03 1.4717730071101532e+04 4.9777767000047334e+01 -4.8865645433545284e+00 4.9777767000047362e+01 7.9374002070811403e+03  7.5187274718144508e+03 3.4374671986531084e+03 6.4689813511814958e+00 3.4374671986531084e+03 1.0659842580749168e+04 1.6372645870944964e+02 6.4689813511815055e+00 1.6372645870944970e+02 6.9406417894854303e+03  8.5294885173987823e+03 3.3310688023630287e+03 5.4333793499704164e+01 3.3310688023630282e+03 7.2596873560423992e+03 1.8314317745156123e+02 5.4333793499704122e+01 1.8314317745156114e+02 6.7474889983061630e+03  9.5062841041250194e+03 1.7913575887273744e+03 1.2559965764463679e+02 1.7913575887273751e+03 5.0984505688875734e+03 1.8332198283727848e+02 1.2559965764463691e+02 1.8332198283727840e+02 7.0762614564045962e+03  1.0217343402716402e+04 -9.4446132786491944e+02 1.8871555552206911e+02 -9.4446132786491967e+02 5.8597917404943828e+03 4.2244249618444701e+02 1.8871555552206911e+02 4.2244249618444701e+02 8.3370607949127643e+03  7.6568573966685699e+03 1.1436124649648848e+03 -1.2688045107532568e+00 1.1436124649648837e+03 1.2395686761739000e+04 1.5176862551559108e+02 -1.2688045107532373e+00 1.5176862551559111e+02 7.9097657331372438e+03  8.2109429002820143e+03 2.3661608088059425e+03 1.4512101048600766e+01 2.3661608088059415e+03 1.0208026825293382e+04 1.9514338761389322e+02 1.4512101048600774e+01 1.9514338761389325e+02 7.3575056265328631e+03  9.1125655872257194e+03 2.3264019678383697e+03 5.4267371708528216e+01 2.3264019678383697e+03 8.0809148486695849e+03 1.8637550422359334e+02 5.4267371708528202e+01 1.8637550422359342e+02 7.2599995797154816e+03  9.8783171149009104e+03 1.2372769682518588e+03 9.8561631657253017e+01 1.2372769682518590e+03 6.9579879390084061e+03 1.7229323156124622e+02 9.8561631657253088e+01 1.7229323156124630e+02 7.5350595305826437e+03  1.0407432617472856e+04 -5.0949360014800311e+02 1.2926095332303021e+02 -5.0949360014800311e+02 8.0284674234211971e+03 3.3321393885268304e+02 1.2926095332303021e+02 3.3321393885268293e+02 8.4047565817722389e+03  8.0462696163807750e+03 6.7122773747695101e+02 -2.0916785310310917e+01 6.7122773747695135e+02 1.0714527041895544e+04 1.7482228832118074e+02 -2.0916785310310924e+01 1.7482228832118071e+02 7.8126191589920491e+03  8.5504934035895385e+03 1.4609527984049198e+03 3.1473023737848687e+00 1.4609527984049198e+03 9.6899648398451427e+03 1.9712032840871032e+02 3.1473023737848553e+00 1.9712032840871035e+02 7.4661471721059042e+03  9.2181129204801600e+03 1.4750986250010371e+03 4.4151408984141156e+01 1.4750986250010369e+03 8.5688859190918520e+03 1.7613962372709099e+02 4.4151408984141185e+01 1.7613962372709111e+02 7.4226996494414434e+03  9.7700819328466841e+03 7.8535448217213047e+02 6.8377711599824451e+01 7.8535448217213070e+02 8.1410144008137595e+03 1.6242482758756600e+02 6.8377711599824494e+01 1.6242482758756611e+02 7.6324980954538360e+03  1.0164025053556928e+04 -2.0214890561767598e+02 6.7287412308850165e+01 -2.0214890561767601e+02 9.1496353119768246e+03 2.5164935822806120e+02 6.7287412308850165e+01 2.5164935822806120e+02 8.1622789169869775e+03  8.1412741319938605e+03 6.1226004298652413e+01 -1.9476332492211998e+01 6.1226004298652470e+01 9.4129860398873680e+03 2.3584297990328133e+02 -1.9476332492212030e+01 2.3584297990328139e+02 7.4538025085967256e+03  8.5709169114636716e+03 6.9178855893356672e+02 -1.6846624457155201e+01 6.9178855893356683e+02 9.1770741807829454e+03 1.9464107415655158e+02 -1.6846624457155205e+01 1.9464107415655158e+02 7.3419660814349909e+03  8.9996748683531114e+03 8.2834419668187184e+02 2.8070720802435812e+01 8.2834419668187206e+02 8.7416532279797957e+03 1.5699965860158090e+02 2.8070720802435773e+01 1.5699965860158088e+02 7.3192540463753985e+03  9.3782325976517677e+03 4.2706072959378076e+02 4.6041306368322473e+01 4.2706072959378076e+02 8.8175328987522971e+03 1.4966050601934705e+02 4.6041306368322438e+01 1.4966050601934708e+02 7.5129785587352708e+03  9.7047235855174822e+03 -5.9878345245751234e+01 2.0604250947413249e+01 -5.9878345245751234e+01 9.5345458242808472e+03 1.8098811978120736e+02 2.0604250947413252e+01 1.8098811978120742e+02 7.7923618964152247e+03  8.3580083871516254e+03 8.8944653398308574e+01 -6.1674691231447248e+01 8.8944653398308546e+01 9.2243339465195095e+03 1.9487341749503423e+02 -6.1674691231447213e+01 1.9487341749503418e+02 7.4671761729335558e+03  8.2534978135421643e+03 2.1419513623466784e+02 4.7077147762789878e+01 2.1419513623466773e+02 8.8559949545340241e+03 1.6948392857447843e+02 4.7077147762789842e+01 1.6948392857447831e+02 7.1387081090833508e+03  8.5242725732474355e+03 1.9838443959721934e+02 1.2018259465315195e+02 1.9838443959721954e+02 8.6461562932600318e+03 1.1401669228176897e+02 1.2018259465315190e+02 1.1401669228176895e+02 7.0071864845646414e+03  9.1186642612463402e+03 4.5767015647297498e+01 9.0065535324482710e+01 4.5767015647297320e+01 9.0170182972653729e+03 1.5239863986335641e+02 9.0065535324482681e+01 1.5239863986335646e+02 7.2917644432817397e+03  9.4438840439597279e+03 -8.6106383037392064e+01 2.0372128357123682e+01 -8.6106383037392078e+01 9.5200718453602385e+03 2.0999571854950844e+02 2.0372128357123657e+01 2.0999571854950841e+02 7.5466157699045107e+03  1.9826819920488975e+04 1.1627312921284603e+04 7.1267168781688281e+02 1.1627312921284600e+04 3.6904674272279430e+04 3.3778936258304848e+03 7.1267168781688281e+02 3.3778936258304857e+03 2.2084255231863393e+04  6.2711205899156448e+03 5.2447116067592806e+03 2.1830851054011930e+02 5.2447116067592806e+03 1.1682049798612003e+04 1.8902435915512176e+03 2.1830851054011922e+02 1.8902435915512176e+03 6.6392537244007372e+03  8.2975272606836654e+02 3.2978637039072373e+03 -1.2981593728581274e+02 3.2978637039072378e+03 1.7037721866003878e+03 -8.4067573420547362e+01 -1.2981593728581237e+02 -8.4067573420547561e+01 8.6683165290307454e+02  -4.1029544480527275e+03 3.5046739152878017e+03 -3.9114228020551911e+02 3.5046739152878004e+03 -6.1830406729117985e+03 -2.0216682545056981e+03 -3.9114228020551900e+02 -2.0216682545056981e+03 -3.5438157898886338e+03  -2.7112434156868952e+04 9.9642572191554791e+03 2.4608829910198048e+02 9.9642572191554809e+03 -4.0142739769669861e+04 -4.6519511815957094e+03 2.4608829910198071e+02 -4.6519511815957094e+03 -2.4107779758174307e+04  2.4470880767006233e+03 2.5860894110427207e+03 4.8784360925860130e+02 2.5860894110427207e+03 2.2675621546463601e+04 1.4526717843387987e+03 4.8784360925860113e+02 1.4526717843387983e+03 5.8057216028610501e+03  1.6798325307793120e+03 6.1102210606035724e+03 -4.1466373321086098e+02 6.1102210606035724e+03 1.3943035451359503e+04 5.6752392927586288e+02 -4.1466373321086110e+02 5.6752392927586300e+02 3.6249551919604996e+03  1.5236489749176255e+03 5.9033008637594521e+03 -8.9867923824541299e+02 5.9033008637594521e+03 3.3270569063048288e+03 -9.0738803883842337e+01 -8.9867923824541310e+02 -9.0738803883842280e+01 1.9286565740537419e+03  2.3905995137811005e+03 4.5113039124862298e+03 -9.3653461214474908e+02 4.5113039124862316e+03 -6.6916588457725566e+03 -7.5420991233563075e+02 -9.3653461214474908e+02 -7.5420991233563097e+02 1.1396175452835398e+03  7.8381857435199217e+03 -1.2653691328034429e+03 -9.5978806018502848e+02 -1.2653691328034436e+03 -1.5611277476364392e+04 -1.7884103951207551e+03 -9.5978806018502826e+02 -1.7884103951207551e+03 3.3102168790930768e+03  4.6946277075944281e+03 3.1549947947595165e+03 2.2748888398674987e+02 3.1549947947595165e+03 2.0506033334776788e+04 3.4587836375885985e+02 2.2748888398674981e+02 3.4587836375885973e+02 6.6906948109735449e+03  3.7898478932340799e+03 4.9571736133085042e+03 -4.6516770708416044e+02 4.9571736133085051e+03 1.1987843090520895e+04 6.6079729236060999e+01 -4.6516770708416038e+02 6.6079729236061084e+01 4.5875535802350851e+03  4.4852247794637742e+03 5.2304826851248736e+03 -7.3404305426230326e+02 5.2304826851248745e+03 4.4368778325498051e+03 9.6902858732265855e+01 -7.3404305426230326e+02 9.6902858732265926e+01 3.9682813995218767e+03  5.7609015100933857e+03 3.0518414214668087e+03 -5.9036761844687123e+02 3.0518414214668096e+03 -2.4864172021884428e+03 2.4711102239395507e+02 -5.9036761844687123e+02 2.4711102239395490e+02 4.0897452209650628e+03  7.7609405050587238e+03 -2.1893249957449843e+03 -1.5076825258423972e+02 -2.1893249957449839e+03 -5.4445865769297607e+03 2.4715870764388379e+02 -1.5076825258423983e+02 2.4715870764388376e+02 6.2746436895907445e+03  6.5167379639280762e+03 2.5061704891833838e+03 1.1005184735986045e+02 2.5061704891833838e+03 1.7438614377860657e+04 5.9852954066789721e+01 1.1005184735986043e+02 5.9852954066789749e+01 7.3692118414809338e+03  6.0681166689861266e+03 4.0338319232358244e+03 -2.7079050869562479e+02 4.0338319232358244e+03 1.1252390298328137e+04 1.1127272064981689e+02 -2.7079050869562479e+02 1.1127272064981693e+02 5.8688611932093772e+03  6.7601610928097107e+03 4.0295406409575608e+03 -3.4422727383430367e+02 4.0295406409575608e+03 5.8494633765539802e+03 2.3363969770735039e+02 -3.4422727383430373e+02 2.3363969770735036e+02 5.5098050465805336e+03  7.8808206562935284e+03 2.0599316952158042e+03 -1.7741327594215591e+02 2.0599316952158056e+03 1.8362131325760490e+03 4.4464148343000028e+02 -1.7741327594215591e+02 4.4464148343000045e+02 5.8693345510907420e+03  9.0355610530805116e+03 -1.8221517231387111e+03 1.3411513445072654e+02 -1.8221517231387106e+03 1.2137759900688727e+03 6.8395822723175957e+02 1.3411513445072654e+02 6.8395822723175934e+02 7.6288615016358162e+03  7.6088652560980318e+03 1.8128358160509140e+03 9.9030235934943164e+01 1.8128358160509149e+03 1.4871102934814242e+04 3.9261079943040983e+01 9.9030235934943164e+01 3.9261079943041004e+01 7.8325045299936437e+03  7.5007190775937770e+03 3.0401803066850653e+03 -9.5381787741285649e+01 3.0401803066850657e+03 1.0709809073738052e+04 1.3429143463316427e+02 -9.5381787741285649e+01 1.3429143463316427e+02 6.7410730037760895e+03  8.2022490212335451e+03 2.9539426588375718e+03 -8.1622007508089879e+01 2.9539426588375736e+03 7.2129216031147071e+03 2.3641292852716430e+02 -8.1622007508089865e+01 2.3641292852716441e+02 6.5767680572471045e+03  9.1186338142140339e+03 1.4347825121592482e+03 2.8432255472413299e+01 1.4347825121592477e+03 5.0421121724519198e+03 3.9328170732032612e+02 2.8432255472413264e+01 3.9328170732032635e+02 6.9658096174688917e+03  9.9424167559541820e+03 -1.1771773849978188e+03 1.8562927535470513e+02 -1.1771773849978181e+03 5.5687770392267184e+03 6.6455148072184647e+02 1.8562927535470519e+02 6.6455148072184625e+02 8.3238272926874706e+03  8.0827826973134142e+03 9.7909762808610208e+02 9.2879619257111599e+01 9.7909762808610242e+02 1.2480625772213665e+04 1.3767746399878962e+02 9.2879619257111628e+01 1.3767746399878953e+02 7.8269748069247626e+03  8.1924217145948551e+03 2.0297772605099005e+03 1.8252208278161923e+01 2.0297772605098999e+03 1.0238355311977448e+04 1.6936431666945029e+02 1.8252208278161905e+01 1.6936431666945020e+02 7.1934033230651003e+03  8.8800196088890771e+03 2.0113461530555285e+03 6.2217949828657652e+01 2.0113461530555285e+03 8.1680530568490076e+03 2.0239248026355625e+02 6.2217949828657694e+01 2.0239248026355637e+02 7.1685784096499920e+03  9.6425087399787008e+03 9.8231947040434579e+02 1.1267275146208560e+02 9.8231947040434579e+02 7.1506161327828904e+03 2.9169204503919536e+02 1.1267275146208560e+02 2.9169204503919548e+02 7.5253732288863257e+03  1.0249761102983175e+04 -6.3904987446108248e+02 1.5376818289441363e+02 -6.3904987446108271e+02 8.0967432901793518e+03 4.9710902174184747e+02 1.5376818289441357e+02 4.9710902174184741e+02 8.4941743707429796e+03  8.4252746839315514e+03 5.4723097818829717e+02 9.2855838097195303e+01 5.4723097818829694e+02 1.0870723824692352e+04 2.3646255742693319e+02 9.2855838097195303e+01 2.3646255742693324e+02 7.7874615142079665e+03  8.5566616748484994e+03 1.2263324284991338e+03 7.8103281114394875e+01 1.2263324284991338e+03 9.7539272174092039e+03 1.9212045507259887e+02 7.8103281114394917e+01 1.9212045507259882e+02 7.3623784192349640e+03  9.0908570813246861e+03 1.2544753453831463e+03 1.3813217427667468e+02 1.2544753453831468e+03 8.7130768884473546e+03 1.6466246105840332e+02 1.3813217427667470e+02 1.6466246105840332e+02 7.4070331305557420e+03  9.6781164573401111e+03 6.2343125713360303e+02 1.4431996507263887e+02 6.2343125713360280e+02 8.3815058981170278e+03 1.9767689960901433e+02 1.4431996507263898e+02 1.9767689960901433e+02 7.6950016251298093e+03  1.0130145828753133e+04 -2.7449935789081673e+02 9.7130857601844752e+01 -2.7449935789081678e+02 9.3445347444104482e+03 3.1303689203096172e+02 9.7130857601844795e+01 3.1303689203096178e+02 8.3246773037210151e+03  8.4523046947284383e+03 7.2268956629097531e+01 6.2403676675142854e+01 7.2268956629097431e+01 9.6219436322458969e+03 3.2241059981988229e+02 6.2403676675142805e+01 3.2241059981988212e+02 7.5508843567733438e+03  8.5710776140655398e+03 5.7660899935188604e+02 1.2443882611024067e+02 5.7660899935188615e+02 9.3041119174190244e+03 1.8889737428231021e+02 1.2443882611024075e+02 1.8889737428231021e+02 7.2930446914807762e+03  8.9648090946426728e+03 6.6680210802305055e+02 2.1144799262120617e+02 6.6680210802305044e+02 8.9032404132751963e+03 1.2634768880632821e+02 2.1144799262120611e+02 1.2634768880632819e+02 7.3674416588227687e+03  9.4240489259124224e+03 3.1253692077992605e+02 1.8459116060123529e+02 3.1253692077992622e+02 8.9978381745741553e+03 1.3331558971190989e+02 1.8459116060123529e+02 1.3331558971190981e+02 7.6247068153187874e+03  9.7697431611732081e+03 -1.0831043945761407e+02 5.2371638780201529e+01 -1.0831043945761414e+02 9.7059393348267622e+03 1.7897224160950887e+02 5.2371638780201550e+01 1.7897224160950881e+02 7.9696570659527260e+03  8.6069470384195065e+03 4.6064303157776770e+01 1.0309924084839049e+02 4.6064303157776862e+01 9.2844071919470553e+03 2.3203091453827003e+02 1.0309924084839047e+02 2.3203091453827000e+02 7.4598032634850470e+03  8.3449857289535321e+03 1.8324658028431460e+02 2.3728103904803567e+02 1.8324658028431466e+02 8.9761651782435056e+03 1.3077445035612556e+02 2.3728103904803558e+02 1.3077445035612553e+02 7.0313509345064094e+03  8.6154687249634662e+03 1.4465561771596379e+02 3.7853284973840755e+02 1.4465561771596384e+02 8.8938959527002098e+03 8.0655250530957275e+01 3.7853284973840749e+02 8.0655250530957304e+01 7.1590970874034329e+03  9.2448900504197391e+03 -3.9984100372720370e+01 3.1968246174536125e+02 -3.9984100372720434e+01 9.1906269501627921e+03 1.1552636095146600e+02 3.1968246174536114e+02 1.1552636095146599e+02 7.4882623411972536e+03  9.5328828774816320e+03 -1.3483695250099154e+02 9.7398973880491084e+01 -1.3483695250099157e+02 9.5931526484064034e+03 1.9025331101366191e+02 9.7398973880491042e+01 1.9025331101366189e+02 7.6689549835246598e+03  2.1899809637638609e+04 1.2996644543322387e+04 3.4634916459095695e+02 1.2996644543322387e+04 3.9518441080218035e+04 1.8934064277740704e+03 3.4634916459095700e+02 1.8934064277740706e+03 2.4254455676156049e+04  6.6812792608664968e+03 5.8892257221434375e+03 1.3162407002101065e+02 5.8892257221434375e+03 1.1876761728066745e+04 1.1070339238971899e+03 1.3162407002101057e+02 1.1070339238971901e+03 7.3462009976059780e+03  8.8848396396663145e+02 3.8179799047776332e+03 -1.1298348234274256e+02 3.8179799047776314e+03 1.5565128891413510e+03 -3.9984211816820526e+01 -1.1298348234274258e+02 -3.9984211816820505e+01 9.5275982763540935e+02  -4.2660473597802420e+03 4.1069934206693451e+03 -3.3866294154276130e+02 4.1069934206693451e+03 -6.2573273775838315e+03 -1.1147565377961885e+03 -3.3866294154276147e+02 -1.1147565377961882e+03 -4.1134486302567830e+03  -3.0036258084372930e+04 1.1338178825218894e+04 3.7787200827294532e+02 1.1338178825218891e+04 -4.3577000718027382e+04 -3.0869472327305939e+03 3.778720