<?xml version="1.0"?>
<VTKFile type="UnstructuredGrid"  version="0.1"  >
<UnstructuredGrid>
<Piece  NumberOfPoints="405" NumberOfCells="1536">
<Points>
<DataArray  type="Float64"  NumberOfComponents="3"  format="ascii">0.45 0 -0.2  0.475 0 -0.2  0.5 0 -0.2  0.525 0 -0.2  0.55 0 -0.2  0.4537216647460619 0.02825680678092751 -0.1981900046428564  0.4772970717154698 0.02646182487407232 -0.1990212827667389  0.5015651520204276 0.0252494927343017 -0.1999868503734431  0.5263534539596685 0.02393286147782458 -0.2010975906369786  0.5516337823006523 0.02172993094956548 -0.202237426033217  0.4573506940910678 0.05529567812363803 -0.1980633843900875  0.4809090231060109 0.05249533900506989 -0.1990094617154526  0.5050272692529401 0.05023961665182798 -0.2000983788661597  0.5296514169090221 0.04789251477710622 -0.2012680139889798  0.5545619771806999 0.04464530625108264 -0.2024715978489245  0.4617476006686651 0.08137833169133672 -0.1983199655016736  0.4853220072686401 0.07786101229438218 -0.1992085848924084  0.5093834283815026 0.07481394248469553 -0.2001998161674869  0.5338362652650271 0.07165973445735101 -0.2012250251997407  0.5584191236547856 0.06774099901933153 -0.2022480473845389  0.4665219054867045 0.1066817128307119 -0.1986691076497615  0.4901293679930779 0.1026930169003234 -0.1994357241233588  0.5141391370235598 0.09907746428577885 -0.2002816226635675  0.538434137216152 0.09535570059785232 -0.2011384837272917  0.5627746993138992 0.09104944675135596 -0.2019773630596102  0.4713370287609781 0.1314546390326582 -0.1989645738767908  0.495035873223174 0.1271876844541316 -0.1996322695914343  0.5190136923979252 0.1231802480372232 -0.2003527937886675  0.5431873801760525 0.1190896941167075 -0.2010734725637617  0.5673707957385554 0.114595851535223 -0.2017754663227379  0.4760549376508053 0.1558818156967041 -0.1991710748918117  0.4998675878911424 0.1514729077942783 -0.1997844684895368  0.5238523989306874 0.147221900233699 -0.2004203002096364  0.5479520725038641 0.1429158309127083 -0.201048259531969  0.5720467711085327 0.1383602779710909 -0.201665671416129  0.4806460825465199 0.1801065208435557 -0.199315438884806  0.5045725114518559 0.1756386091122091 -0.1999097133858519  0.528587656186882 0.1712591088509376 -0.2004893968178416  0.5526523911498475 0.1668509531578837 -0.2010559779004933  0.5767033853656928 0.1623012566810885 -0.2016333212161369  0.4851687255073476 0.2042297435885375 -0.1994413856370359  0.5091273699919698 0.1997557035039186 -0.2000321952240053  0.5331641635543748 0.1953381950782851 -0.2005582177316341  0.5572446234252189 0.1908893552357565 -0.201066709317797  0.5812999417297313 0.1863452782120782 -0.2016320742674196  0.45 0 -0.175  0.475 0 -0.175  0.5 0 -0.175  0.525 0 -0.175  0.55 0 -0.175  0.4542270140623924 0.02797716306432192 -0.1739031481848399  0.4778687114759197 0.02625499924016074 -0.1744043134621922  0.5021876078097331 0.02518840165177834 -0.1750127255191952  0.5270941987150051 0.02410444444609965 -0.1756918109940253  0.5527305828683616 0.02198771612261009 -0.1763767247124795  0.4580508112228667 0.05509302611519105 -0.1736216590390011  0.4816687509912279 0.05230836713267876 -0.1743144653666819  0.5058414928141789 0.05007156416874434 -0.1751168325601353  0.5305366125285187 0.04773996497943321 -0.1759634367625713  0.5556053601131221 0.04443748888792951 -0.1767711298931635  0.4624556635886246 0.08122857148735219 -0.1736909935299978  0.4861057906117895 0.07769416579314449 -0.1744072707029917  0.5101899793167587 0.07458643723098969 -0.1751991488619676  0.5346522275958085 0.07135794390525596 -0.1760121509801872  0.5592724495480059 0.06738370104362736 -0.1768022508925248  0.4671780922133486 0.1065611824939973 -0.1738652982532582  0.4908630521744172 0.1025384510526838 -0.174546955824194  0.5148759960596012 0.09884249885229313 -0.1752684807129559  0.5391486475145258 0.09503809234289139 -0.1759984127304585  0.5634790434610292 0.09069851840629121 -0.1767187937541078  0.4719441560982061 0.1313374631422575 -0.1740371850654575  0.495707456422603 0.1270384397093131 -0.1746813001092225  0.5196802917332547 0.1229618509930165 -0.1753352763675405  0.5438238277802279 0.1188050856360722 -0.1759895569612485  0.5679828570263026 0.1142917568766033 -0.1766451756325398  0.476644168314187 0.1557612313570274 -0.1741747351329044  0.5004974826793721 0.1513266012961109 -0.174797943174134  0.5244696206280024 0.147024257299279 -0.1754049006444064  0.5485410850225061 0.142669313283328 -0.1760057137418228  0.5726118527173212 0.138098612541829 -0.1766196842457075  0.481245826045797 0.1799820275727666 -0.174289061690498  0.5051840352193038 0.1754981894546412 -0.174906274890142  0.5291763962256988 0.1710791002516477 -0.1754795199532866  0.5532172966300226 0.166627997697293 -0.1760419993264001  0.5772533285976643 0.1620587041095236 -0.1766368634925643  0.4857670722513566 0.2041074797121861 -0.1744227984130074  0.5097524732179399 0.1996235835178062 -0.1750257628286125  0.5337579619073696 0.1951612197411719 -0.1755565860264386  0.5578077291675151 0.1906630889105114 -0.1760765440210639  0.5818538841223647 0.1860963882613201 -0.1766561981430524  0.45 0 -0.15  0.475 0 -0.15  0.5 0 -0.15  0.525 0 -0.15  0.55 0 -0.15  0.4546387617170237 0.0279753708429593 -0.1493527638084743  0.4781387045099185 0.02620019714677137 -0.1496590906786836  0.5024217570076308 0.02516693742537052 -0.1500155969666231  0.5273717339255664 0.02410745492085862 -0.1504110215043648  0.5531390334248126 0.02183502484598461 -0.1508056212117893  0.4586140905306789 0.05501714875149703 -0.1490689008769341  0.482136613896948 0.05221396502031948 -0.1495420722084289  0.5062925451057059 0.05000564485021469 -0.1500869600396658  0.5310491261579608 0.04768442654997019 -0.1506579989908441  0.5562252528085349 0.04428483241316541 -0.1511877138215619  0.4630873196801418 0.08111977046046155 -0.1490212809419347  0.4866793717284003 0.07757507695664877 -0.149570537418749  0.5107552559911135 0.07446927542054847 -0.1501649216722239  0.5352523907806425 0.071226957704856 -0.1507752421708788  0.5599323841537817 0.06721707186357766 -0.1513605735259516  0.4678325503713505 0.1064378461224546 -0.1490676266770498  0.4914813080137436 0.1024033677199154 -0.1496462816501234  0.5154822776466126 0.09868914368079988 -0.1502377338538834  0.5397626186829906 0.0948590786673863 -0.1508372503867847  0.5641141234212951 0.09050848190165561 -0.1514298107395573  0.4726047755112067 0.1312135131942555 -0.1491380010584079  0.4963409192575995 0.1268959299555817 -0.1497318603259686  0.5202961771119208 0.1227905682465781 -0.1503099249944853  0.5444299517655616 0.1186040205938937 -0.1508895091847107  0.5685862346225012 0.1140842129167117 -0.1514770890596441  0.477314720034506 0.1556437044759124 -0.1492094067422564  0.5011408733069289 0.1511820109317995 -0.1498180241014075  0.5250898322933144 0.1468452823189095 -0.1503860973236288  0.5491416749525716 0.1424578447788535 -0.1509496572269942  0.5731962772087172 0.1378751761904429 -0.1515361715670782  0.4819403683055521 0.1798771939603085 -0.1492880132368642  0.505846438330525 0.1753539032434139 -0.1499133281937388  0.5298101467872055 0.1708941198854174 -0.1504683901355728  0.5538251767678988 0.1664060070375783 -0.1510145292086867  0.5778370964460258 0.1618144274465867 -0.1516059812551488  0.4865099514033632 0.2040116806832358 -0.1494268894892296  0.5104556663465986 0.1994743032034932 -0.1500423855881876  0.5344285730925262 0.1949634534071417 -0.1505569843025604  0.5584440764433048 0.190422366456409 -0.1510653758727605  0.5824565883800431 0.1858240859298847 -0.1516475449401351  0.45 0 -0.125  0.475 0 -0.125  0.5 0 -0.125  0.525 0 -0.125  0.55 0 -0.125  0.4548795471947529 0.02802758098517049 -0.1246058751279639  0.4783012239512857 0.02620293460157033 -0.1247878711316255  0.50255764197159 0.0251610336912121 -0.1250032706613038  0.5275235275594458 0.02409101948470233 -0.125244590026975  0.5533430497921463 0.02170452710783367 -0.1254945807717028  0.459001110707521 0.05503959354939757 -0.1243844864629745  0.4824546745198163 0.05219167343175669 -0.1246941189245651  0.5065904516945552 0.0499751919582656 -0.1250514785520677  0.5313706208899759 0.04763088603212924 -0.1254244057617363  0.5565822020893617 0.04412510583360308 -0.1257695374111751  0.4635731100641413 0.08110295337130663 -0.1242879059238737  0.4871174075463349 0.07752080556010045 -0.1246872800620344  0.5111776551263649 0.07439929240881528 -0.1251173625360807  0.5356877338800302 0.07112943626139968 -0.1255559149294809  0.5603848938370325 0.06705328244938959 -0.1259778590259339  0.4683855079970512 0.106391330694729 -0.1242559974656274  0.4920007187244859 0.1023210601646467 -0.1247198207825681  0.5159845910216168 0.09858212726744048 -0.1251908769751723  0.540263189965111 0.09472249327484671 -0.1256652324471237  0.5646157617942925 0.0903307580833439 -0.1261366952221454  0.4732067980766372 0.1311484485880079 -0.1242548758224534  0.4969157602183613 0.1267932167471755 -0.1247707423090348  0.5208494592225719 0.1226553792567059 -0.1252703370705582  0.5449696798650812 0.1184365314188745 -0.1257684727462514  0.5691145284453354 0.1138852144582208 -0.1262761418030164  0.4779615142084908 0.1555707607376695 -0.1242746931984157  0.5017597522504855 0.1510656844521496 -0.1248351502559998  0.5256818841472684 0.1466895003087074 -0.1253560766876136  0.5497117836890633 0.1422655447119999 -0.125870852443785  0.5737460965346693 0.137651504945278 -0.1264095689517399  0.4826395272592559 0.1798051504512365 -0.124324435567518  0.5065112906543168 0.1752276604546336 -0.1249221562293911  0.5304416978242739 0.1707210982501351 -0.1254482658181888  0.5544281821956276 0.1661908227321695 -0.1259648788369005  0.5784131267588335 0.1615625042549647 -0.1265296182487788  0.4872825974597231 0.2039383378524222 -0.1244635717966255  0.511179350345248 0.1993350492582646 -0.1250576362566259  0.5351098692145888 0.1947711855412387 -0.1255463531700766  0.5590896861618151 0.1901820186549993 -0.1260287713501247  0.5830688546331767 0.1855385966520067 -0.1265909447480542  0.45 0 -0.1  0.475 0 -0.
[...]
<PointData  Tensors="Piola Kirchhoff sec Stress"> 
<DataArray  type="Float64"  Name="Piola Kirchhoff sec Stress"  NumberOfComponents="9" format="ascii">2.1561003949111218e+04 1.0733328643433528e+04 2.0230544880220073e+03 1.0733328643433530e+04 4.2480502515174921e+04 7.3826422459555715e+03 2.0230544880220073e+03 7.3826422459555724e+03 2.2550969895738970e+04  8.4098346569498353e+03 3.8966861472213336e+03 3.0445293143544757e+02 3.8966861472213309e+03 1.6289286961763908e+04 4.1229389083384531e+03 3.0445293143544757e+02 4.1229389083384522e+03 7.7839786557470088e+03  9.2917871502369553e+02 1.5635904127456683e+03 -1.5127337750060548e+02 1.5635904127456681e+03 2.6018357747821083e+03 -1.1029561413751500e+02 -1.5127337750060573e+02 -1.1029561413751522e+02 1.1722936759736854e+03  -5.7462336616685243e+03 1.3624254232737719e+03 -5.0112374522083684e+02 1.3624254232737721e+03 -9.7699896568499789e+03 -4.4260811414459067e+03 -5.0112374522083684e+02 -4.4260811414459076e+03 -2.4857902998331310e+03  -2.7374039361435760e+04 7.8636647016306651e+03 2.1936526218638182e+03 7.8636647016306670e+03 -4.4913335840396452e+04 -9.6458348406780624e+03 2.1936526218638182e+03 -9.6458348406780588e+03 -1.6316589271558434e+04  1.6561597446954502e+03 3.4528819038643546e+03 5.6679201984725796e+02 3.4528819038643551e+03 2.4641647044098761e+04 5.8020702978166571e+02 5.6679201984725819e+02 5.8020702978166560e+02 5.1419128325341171e+03  9.4074886365091766e+02 5.4014423561576405e+03 -9.4695165350374708e+00 5.4014423561576432e+03 1.3433230283038354e+04 -4.3244111854253657e+02 -9.4695165350373021e+00 -4.3244111854253629e+02 3.4085325835185090e+03  2.0361780807476771e+03 4.8953563754921197e+03 -3.9351064700500621e+02 4.8953563754921170e+03 4.3206466419697208e+03 -2.0685689151691128e+02 -3.9351064700500615e+02 -2.0685689151691113e+02 2.7698395558564685e+03  4.0569450892564546e+03 3.2095006379827178e+03 -5.2508232137396737e+02 3.2095006379827173e+03 -3.4283817564649753e+03 7.9597540250184113e+02 -5.2508232137396737e+02 7.9597540250184147e+02 3.5041101219628608e+03  6.9533602859796292e+03 -2.4739026069017586e+03 -2.3845786680445124e+02 -2.4739026069017591e+03 -8.8166640472980434e+03 2.1139300502778369e+03 -2.3845786680445099e+02 2.1139300502778360e+03 6.0137558122702740e+03  4.9080563129254206e+03 4.0036245070970267e+03 2.7822204496222577e+02 4.0036245070970276e+03 2.2273608309157240e+04 5.1044843913548995e+01 2.7822204496222588e+02 5.1044843913549023e+01 7.0128769474652499e+03  4.5388526210588498e+03 5.5570933463899528e+03 7.3624061799598877e+01 5.5570933463899519e+03 1.3459818417804130e+04 -4.2183137976645554e+01 7.3624061799598834e+01 -4.2183137976645526e+01 5.3843323690713423e+03  5.8385809759982749e+03 5.5065039670369833e+03 -5.8789865303879083e+01 5.5065039670369815e+03 6.0228150123326677e+03 5.2391957006020668e+01 -5.8789865303879047e+01 5.2391957006020775e+01 5.0069248092598491e+03  7.4878662243426425e+03 3.1749301999045933e+03 -1.5509539600956634e+01 3.1749301999045933e+03 -2.6969786354418676e+02 3.8194703367465615e+02 -1.5509539600956350e+01 3.8194703367465610e+02 5.4209732201787301e+03  8.9480734791360228e+03 -2.5977146335263465e+03 1.9962242658580138e+02 -2.5977146335263483e+03 -2.4852956259114903e+03 8.5845179279412946e+02 1.9962242658580135e+02 8.5845179279412923e+02 7.9735011106721067e+03  7.4317042789045736e+03 3.4190334052325120e+03 9.2857621229605456e+01 3.4190334052325120e+03 1.9707392214384672e+04 3.3744166728505661e+01 9.2857621229605428e+01 3.3744166728505654e+01 8.5050326423005099e+03  7.4726544008015562e+03 4.9599097426261424e+03 4.6428370768581665e+01 4.9599097426261433e+03 1.2817261207944908e+04 1.1610489669941907e+02 4.6428370768581665e+01 1.1610489669941904e+02 7.0901122792669075e+03  8.6717866450495094e+03 4.7598247818516156e+03 5.1130590273314645e+01 4.7598247818516156e+03 7.2112926317948741e+03 1.6836588363201929e+02 5.1130590273314688e+01 1.6836588363201932e+02 6.7760714599103385e+03  9.9697467925071924e+03 2.4875512704798107e+03 1.4676528828988000e+02 2.4875512704798102e+03 3.1523897849196410e+03 2.4961248391638426e+02 1.4676528828988003e+02 2.4961248391638418e+02 7.2081201333262197e+03  1.0985253111923488e+04 -1.9597827076311114e+03 2.5649297168926779e+02 -1.9597827076311116e+03 3.2616554604053495e+03 6.2380336442197222e+02 2.5649297168926790e+02 6.2380336442197222e+02 9.2452167003538252e+03  8.8117104661793637e+03 2.6054819297206232e+03 1.1965197862848012e+01 2.6054819297206245e+03 1.7194556077022906e+04 8.1927701717078449e+01 1.1965197862847981e+01 8.1927701717078435e+01 9.3913028966713082e+03  9.2087806555065672e+03 3.9590042250953429e+03 2.9480934668537678e+01 3.9590042250953447e+03 1.2330192168612579e+04 1.8982407338278611e+02 2.9480934668537721e+01 1.8982407338278605e+02 8.1886987711411375e+03  1.0261623252550909e+04 3.6617568222688869e+03 7.3809253985850091e+01 3.6617568222688874e+03 8.3994965282734993e+03 2.0960474876616945e+02 7.3809253985850148e+01 2.0960474876616962e+02 7.9304689830970956e+03  1.1260158758206962e+04 1.8033026042367430e+03 1.5049780918092702e+02 1.8033026042367428e+03 6.0450358795985921e+03 2.1929185870645003e+02 1.5049780918092711e+02 2.1929185870645009e+02 8.3277051390135148e+03  1.1994663203634047e+04 -1.3047674374196567e+03 2.3073504465244835e+02 -1.3047674374196565e+03 7.2165581129460261e+03 5.0386016434202105e+02 2.3073504465244844e+02 5.0386016434202116e+02 9.8818511360801276e+03  9.1822328874543218e+03 1.4419833284308870e+03 1.8365941527398906e+01 1.4419833284308866e+03 1.4453220260862821e+04 2.0775434857235106e+02 1.8365941527398974e+01 2.0775434857235106e+02 9.2905400927416667e+03  9.9053718459656084e+03 2.7115916514472028e+03 3.6900595333347390e+01 2.7115916514472024e+03 1.1829857962957001e+04 2.3823894686423210e+02 3.6900595333347361e+01 2.3823894686423213e+02 8.6526810127990047e+03  1.0878314526226006e+04 2.5411483442911381e+03 7.1999842411147014e+01 2.5411483442911394e+03 9.3612366472141639e+03 2.2682363918472592e+02 7.1999842411146986e+01 2.2682363918472581e+02 8.5198436988465855e+03  1.1654406217864233e+04 1.2329804846182246e+03 1.1871050563617514e+02 1.2329804846182242e+03 8.1591289032340737e+03 2.1832167952816019e+02 1.1871050563617518e+02 2.1832167952816022e+02 8.8455338885817764e+03  1.2180105501443704e+04 -7.2740612543169163e+02 1.5772235931762719e+02 -7.2740612543169175e+02 9.5657177578233750e+03 4.0831793677364061e+02 1.5772235931762719e+02 4.0831793677364044e+02 9.8988553775197852e+03  9.5588529025675616e+03 8.0106547670970144e+02 -5.9665594403202373e+00 8.0106547670970122e+02 1.2464691803824293e+04 2.4654190676670504e+02 -5.9665594403202604e+00 2.4654190676670513e+02 9.1252342707510434e+03  1.0199111697178590e+04 1.6461678036330457e+03 2.1471818956804931e+01 1.6461678036330457e+03 1.1233918044431077e+04 2.5322131905470854e+02 2.1471818956804913e+01 2.5322131905470860e+02 8.7451277599146106e+03  1.0940687621899275e+04 1.5995054376089897e+03 6.0103795804801265e+01 1.5995054376089900e+03 9.9448863165492276e+03 2.2617307415977899e+02 6.0103795804801287e+01 2.2617307415977893e+02 8.6989100685470930e+03  1.1498497041589795e+04 7.8598830027975146e+02 8.4649495118259992e+01 7.8598830027975146e+02 9.5149699579654116e+03 2.1597067869452741e+02 8.4649495118259978e+01 2.1597067869452741e+02 8.9484379794113847e+03  1.1883675700143396e+04 -3.0630697899558533e+02 8.3280042702109213e+01 -3.0630697899558533e+02 1.0758949495683937e+04 3.2264458968004459e+02 8.3280042702109156e+01 3.2264458968004459e+02 9.5767733565760991e+03  9.6247358580377295e+03 7.2516931046775397e+01 -9.7326842978987997e+00 7.2516931046775269e+01 1.0963694670313706e+04 3.1254139392800283e+02 -9.7326842978988157e+00 3.1254139392800272e+02 8.6959413506605943e+03  1.0150004928490975e+04 7.6635430523339630e+02 -6.0974025021068892e+00 7.6635430523339608e+02 1.0639212032216672e+04 2.5940460028928919e+02 -6.0974025021068066e+00 2.5940460028928919e+02 8.5770707202528301e+03  1.0638691627036802e+04 8.9768050507075145e+02 4.0880852148287218e+01 8.9768050507075191e+02 1.0157716058360860e+04 2.1089424635028902e+02 4.0880852148287204e+01 2.1089424635028902e+02 8.5683250915429635e+03  1.1020863978354068e+04 4.4204736300812692e+02 6.0654974689442561e+01 4.4204736300812698e+02 1.0294492296334956e+04 2.0701184867146279e+02 6.0654974689442589e+01 2.0701184867146279e+02 8.8022696050325067e+03  1.1353581111057909e+04 -9.0387971154667341e+01 2.7800143886908600e+01 -9.0387971154667341e+01 1.1163435747033116e+04 2.4862941122741123e+02 2.7800143886908604e+01 2.4862941122741117e+02 9.1318263720113519e+03  9.8734314516676804e+03 1.2137755939754493e+02 -5.9937718987338599e+01 1.2137755939754500e+02 1.0774393375574382e+04 2.6818247873900117e+02 -5.9937718987338648e+01 2.6818247873900106e+02 8.7376247262715551e+03  9.7269111274206753e+03 2.4639177263375186e+02 6.6587910049425147e+01 2.4639177263375177e+02 1.0285663580882050e+04 2.2754291162409464e+02 6.6587910049425190e+01 2.2754291162409464e+02 8.3273299316455650e+03  1.0020316014024242e+04 2.1039107385102113e+02 1.4777238913871241e+02 2.1039107385102108e+02 1.0070075359245175e+04 1.5869660871439635e+02 1.4777238913871241e+02 1.5869660871439629e+02 8.1864721454565524e+03  1.0673768428661562e+04 3.7124662516093437e+01 1.1505052906057104e+02 3.7124662516093530e+01 1.0532931137578686e+04 2.0953296880162827e+02 1.1505052906057104e+02 2.0953296880162827e+02 8.5336304549483666e+03  1.1043616002020121e+04 -1.0040860640417148e+02 3.3025870987655125e+01 -1.0040860640417149e+02 1.1142307979744370e+04 2.8631726838326728e+02 3.3025870987655111e+01 2.8631726838326716e+02 8.8452475935959883e+03  2.3116895412177451e+04 1.3239986753157395e+04 9.1244074934973162e+02 1.3239986753157395e+04 4.1556909503445379e+04 3.9425472532550202e+03 9.1244074934973185e+02 3.9425472532550202e+03 2.5228238930741449e+04  7.4165144945303227e+03 5.9719318313872691e+03 2.8091859709722797e+02 5.9719318313872691e+03 1.3551773322991370e+04 2.2522680818461567e+03 2.8091859709722803e+02 2.2522680818461581e+03 7.7833175082542157e+03  1.0288919484720411e+03 3.6459954668057990e+03 -1.3760621433182456e+02 3.6459954668057990e+03 2.2003015685690125e+03 -3.4492953510934726e+01 -1.3760621433182442e+02 -3.4492953510934385e+01 1.1060020037902432e+03  -4.5548687550001323e+03 3.7919594450684872e+03 -4.4380395856762090e+02 3.7919594450684872e+03 -6.6670303055174099e+03 -2.2803988805844097e+03 -4.4380395856762112e+02 -2.2803988805844097e+03 -3.8388669992080208e+03  -3.0634108225714059e+04 1.1138695815259602e+04 2.2371601681567165e+02 1.1138695815259602e+04 -4.5731891368899545e+04 -5.3855447391294165e+03 2.2371601681567151e+02 -5.3855447391294156e+03 -2.7164464720725660e+04  3.3798136102528006e+03 3.4832609400045367e+03 6.2412125959798482e+02 3.4832609400045380e+03 2.6093912682276296e+04 1.7941079781362221e+03 6.2412125959798482e+02 1.7941079781362221e+03 6.9176935270482145e+03  2.3634341729480375e+03 7.0005877942861835e+03 -4.2234721815430458e+02 7.0005877942861871e+03 1.6230591385520795e+04 7.3645044016364557e+02 -4.2234721815430470e+02 7.3645044016364488e+02 4.4164465176335825e+03  1.9549352968491378e+03 6.6324550346037831e+03 -1.0034025032185076e+03 6.6324550346037804e+03 4.0941978154103263e+03 -6.6012978843246415e+01 -1.0034025032185076e+03 -6.6012978843246515e+01 2.3450006535435764e+03  2.9511106209840805e+03 4.9313346778128234e+03 -1.0906250755732526e+03 4.9313346778128225e+03 -7.2813660600049070e+03 -8.6367334046095243e+02 -1.0906250755732526e+03 -8.6367334046095255e+02 1.4872385376358613e+03  9.5854970642785993e+03 -1.8562513264788595e+03 -1.2381542688178765e+03 -1.8562513264788588e+03 -1.6979134514436453e+04 -2.1145090672152633e+03 -1.2381542688178768e+03 -2.1145090672152623e+03 4.4054885447113047e+03  6.0203718848549051e+03 4.1286660395235649e+03 3.0464371047892422e+02 4.1286660395235640e+03 2.3706268451271422e+04 5.2093876820198898e+02 3.0464371047892411e+02 5.2093876820198898e+02 7.9152042253821282e+03  4.9061444223411499e+03 5.8025048628796403e+03 -5.0521683739534137e+02 5.8025048628796421e+03 1.3882213066653308e+04 1.5703172353595778e+02 -5.0521683739534137e+02 1.5703172353595778e+02 5.5060740362275792e+03  5.5560642685851772e+03 5.8788536055782506e+03 -8.2426273751749125e+02 5.8788536055782515e+03 5.2219657521356876e+03 1.4528180712241422e+02 -8.2426273751749125e+02 1.4528180712241425e+02 4.7366252457118508e+03  6.9535428705521908e+03 3.2286246586640814e+03 -6.7727342741019174e+02 3.2286246586640814e+03 -2.5693161154360428e+03 2.8921826978038018e+02 -6.7727342741019163e+02 2.8921826978038024e+02 4.9323351927531758e+03  9.3606136421954143e+03 -2.9216338454849788e+03 -1.9707963129140742e+02 -2.9216338454849783e+03 -5.5278861577213293e+03 2.5670607899062958e+02 -1.9707963129140754e+02 2.5670607899062958e+02 7.7339249073167812e+03  8.0910731547722162e+03 3.3078682020631131e+03 1.5334405871548998e+02 3.3078682020631109e+03 2.0286686633925881e+04 1.8173101834540779e+02 1.5334405871549001e+02 1.8173101834540770e+02 8.7012273675409051e+03  7.5704406124612397e+03 4.7408604125044058e+03 -2.9269153837083479e+02 4.7408604125044058e+03 1.3027735134805172e+04 1.9117918009124543e+02 -2.9269153837083468e+02 1.9117918009124537e+02 6.9804789374972106e+03  8.2631583173500912e+03 4.5105096459397337e+03 -3.8252855720431546e+02 4.5105096459397355e+03 6.8074904407510021e+03 2.9892056492434557e+02 -3.8252855720431563e+02 2.9892056492434574e+02 6.5360871995569414e+03  9.4368957443787403e+03 2.1083920625667265e+03 -1.9540428524545865e+02 2.1083920625667256e+03 2.3436283266357427e+03 5.1948846539539909e+02 -1.9540428524545865e+02 5.1948846539539920e+02 6.9871769677835182e+03  1.0746190571837627e+04 -2.4076169365202900e+03 1.6291947066972051e+02 -2.4076169365202900e+03 2.0283288586160634e+03 7.7489319674896615e+02 1.6291947066972051e+02 7.7489319674896626e+02 9.2037998500800695e+03  9.2927060251574458e+03 2.3627059345641128e+03 1.3202715562116518e+02 2.3627059345641132e+03 1.7387533922613817e+04 1.4844124388002351e+02 1.3202715562116515e+02 1.4844124388002348e+02 9.2470946443682733e+03  9.1831353441522933e+03 3.5613275871550936e+03 -9.4697461916363224e+01 3.5613275871550950e+03 1.2432226619190558e+04 2.0797300601814970e+02 -9.4697461916363167e+01 2.0797300601814965e+02 7.9830574807715366e+03  9.9154065127444082e+03 3.2867397881782608e+03 -8.2132176161068642e+01 3.2867397881782586e+03 8.3852359504497672e+03 2.9745941233119879e+02 -8.2132176161068600e+01 2.9745941233119879e+02 7.7707802037533984e+03  1.0849702246799576e+04 1.4379292812201431e+03 4.2215702356702465e+01 1.4379292812201431e+03 6.0043028120413865e+03 4.6182336773515556e+02 4.2215702356702479e+01 4.6182336773515550e+02 8.2383415937269729e+03  1.1739319255290302e+04 -1.5646672082453899e+03 2.2571090051601658e+02 -1.5646672082453904e+03 6.9033288639784287e+03 7.5872891080419492e+02 2.2571090051601661e+02 7.5872891080419504e+02 9.9218923648573036e+03  9.6796111459079948e+03 1.2684231815403566e+03 1.2586975885402786e+02 1.2684231815403575e+03 1.4586348540431401e+04 2.5329607121151273e+02 1.2586975885402785e+02 2.5329607121151284e+02 9.1827415385390505e+03  9.8817563710710656e+03 2.3652596095600443e+03 3.9061575384806716e+01 2.3652596095600443e+03 1.1914146260821059e+04 2.4374009061748632e+02 3.9061575384806737e+01 2.4374009061748629e+02 8.4828725268444323e+03  1.0635439954620122e+04 2.2230711011407070e+03 8.5206598259709978e+01 2.2230711011407061e+03 9.5061464881120974e+03 2.5749338610757178e+02 8.5206598259709978e+01 2.5749338610757172e+02 8.4429767767330304e+03  1.1415507864569840e+04 9.7642945401771510e+02 1.3926452689002920e+02 9.7642945401771465e+02 8.4111806159610678e+03 3.4836519252224400e+02 1.3926452689002929e+02 3.4836519252224406e+02 8.8644379259776415e+03  1.2051894654041316e+04 -8.6168741937295158e+02 1.8553214385578309e+02 -8.6168741937295169e+02 9.6765499858278836e+03 5.7256968829511447e+02 1.8553214385578315e+02 5.7256968829511459e+02 1.0046232456419428e+04  9.9762398650328887e+03 6.7448102588534755e+02 1.3081140006074824e+02 6.7448102588534766e+02 1.2661825034911943e+04 3.5981367192363183e+02 1.3081140006074821e+02 3.5981367192363194e+02 9.0903741241021689e+03  1.0199010783595961e+04 1.4053359751719458e+03 1.1250426450721277e+02 1.4053359751719461e+03 1.1354189541584758e+04 2.6859839943472059e+02 1.1250426450721281e+02 2.6859839943472048e+02 8.6418957818193394e+03  1.0810059266668384e+04 1.3728275552137952e+03 1.7602919683566478e+02 1.3728275552137952e+03 1.0149202883856455e+04 2.1666176617206469e+02 1.7602919683566486e+02 2.1666176617206469e+02 8.7006954127396948e+03  1.1417520534288127e+04 6.2016510294675720e+02 1.7738268760031224e+02 6.2016510294675743e+02 9.8161828308576441e+03 2.4613603436960636e+02 1.7738268760031229e+02 2.4613603436960642e+02 9.0421525833722317e+03  1.1885334863988426e+04 -3.8062591516398533e+02 1.1631030767121784e+02 -3.8062591516398567e+02 1.1010743214109265e+04 3.7178069624081178e+02 1.1631030767121784e+02 3.7178069624081178e+02 9.7979679023088975e+03  9.9455686141168517e+03 8.4691196453019202e+01 8.7577809543807248e+01 8.4691196453019117e+01 1.1181833990803085e+04 4.3845141380797241e+02 8.7577809543807078e+01 4.3845141380797213e+02 8.7860740286809796e+03  1.0135289054688958e+04 6.4657456901299850e+02 1.6508862970330608e+02 6.4657456901299838e+02 1.0811473158112576e+04 2.6396410880137199e+02 1.6508862970330614e+02 2.6396410880137211e+02 8.5217934279887177e+03  1.0605929324875287e+04 7.2265658798986010e+02 2.6383527162261180e+02 7.2265658798986033e+02 1.0375295658942041e+04 1.7315725176068392e+02 2.6383527162261169e+02 1.7315725176068392e+02 8.6348262356192499e+03  1.1094790595626837e+04 3.1312044042013605e+02 2.2886655746367296e+02 3.1312044042013616e+02 1.0526792504664014e+04 1.7770234030825262e+02 2.2886655746367299e+02 1.7770234030825273e+02 8.9496266853926609e+03  1.1455338912090263e+04 -1.4857862985467801e+02 6.3910431540278495e+01 -1.4857862985467804e+02 1.1379553333098867e+04 2.3172193865470231e+02 6.3910431540278459e+01 2.3172193865470231e+02 9.3603407758471258e+03  1.0150115936989399e+04 7.0978563989193475e+01 1.0379219584752086e+02 7.0978563989193717e+01 1.0815939600933421e+04 3.0512522798899658e+02 1.0379219584752076e+02 3.0512522798899641e+02 8.6843523765874234e+03  9.8198177488708006e+03 2.1196610164737109e+02 2.8548289016138057e+02 2.1196610164737083e+02 1.0413487052989809e+04 1.8149215151123835e+02 2.8548289016138057e+02 1.8149215151123838e+02 8.1859455583020645e+03  1.0137213888631863e+04 1.5235242176827157e+02 4.6211299010375666e+02 1.5235242176827154e+02 1.0369460819234768e+04 1.1024732787562239e+02 4.6211299010375689e+02 1.1024732787562239e+02 8.3656273985129865e+03  1.0848278389625148e+04 -6.7033340189864688e+01 3.9591306001428148e+02 -6.7033340189864703e+01 1.0760780079313052e+04 1.5562655563262143e+02 3.9591306001428165e+02 1.5562655563262155e+02 8.7837699338917755e+03  1.1171443648334705e+04 -1.6642743906834940e+02 1.2639273396831354e+02 -1.6642743906834934e+02 1.1246843276299325e+04 2.5819660439689704e+02 1.2639273396831355e+02 2.5819660439689716e+02 9.0130977095086619e+03  2.5677649974950509e+04 1.4858878236944345e+04 4.7269975652281880e+02 1.4858878236944345e+04 4.4634357903800832e+04 2.2470953268815674e+03 4.7269975652281886e+02 2.2470953268815674e+03 2.7790080986969318e+04  7.9189718639412440e+03 6.7516593768423099e+03 1.7111179140909658e+02 6.7516593768423081e+03 1.3772319716449718e+04 1.3486698828493381e+03 1.7111179140909658e+02 1.3486698828493386e+03 8.5896945546741081e+03  1.0986082609691589e+03 4.2815713486312197e+03 -1.2572541015233189e+02 4.2815713486312197e+03 2.0068803736570346e+03 1.5731333398996756e+00 -1.2572541015233192e+02 1.5731333398997063e+00 1.2113921760609687e+03  -4.7463068298967828e+03 4.5221352268508817e+03 -3.9656286701624498e+02 4.5221352268508836e+03 -6.7491111046003425e+03 -1.2716953873413545e+03 -3.9656286701624498e+02 -1.2716953873413547e+03 -4.4883450394815745e+03  -3.4240888981774289e+04 1.2763125740536016e+04 3.8554308255280540e+02 1.2763125740536016e+04 -5.0128378955996901e+04 -3.6562847915566786e+03 3.855430825528