<?xml version="1.0"?>
<VTKFile type="UnstructuredGrid"  version="0.1"  >
<UnstructuredGrid>
<Piece  NumberOfPoints="405" NumberOfCells="1536">
<Points>
<DataArray  type="Float64"  NumberOfComponents="3"  format="ascii">0.45 0 -0.2  0.475 0 -0.2  0.5 0 -0.2  0.525 0 -0.2  0.55 0 -0.2  0.4543327963063769 0.02878347916893266 -0.1978970290858448  0.477652809920701 0.02667989218726086 -0.1988782788716234  0.5017975214283236 0.02526821237971204 -0.2000131675788639  0.5265526479172773 0.02373618049696621 -0.2013161457862884  0.5518770312200483 0.02116191411761494 -0.2026666505433398  0.4585272069679289 0.05614448772357721 -0.1977441784772486  0.4818245540266899 0.05287002837380022 -0.1988692467703252  0.5057930129256089 0.05024772017525641 -0.2001603319541775  0.5303603051747695 0.04751512477138194 -0.2015447450372087  0.5552689425117291 0.04373321518739209 -0.2029670828512637  0.463595165194865 0.08241737637078943 -0.198029168663271  0.4869269710047168 0.07831308195653434 -0.1991004404861667  0.5108307960764971 0.07476570717637364 -0.2002905219279833  0.5351997512368872 0.07108901416407672 -0.201520897586896  0.559735037619936 0.06653122175115254 -0.2027507070985621  0.46907956804386 0.107805549817777 -0.1984069701464381  0.4924731494537865 0.1031660131755517 -0.1993542242446842  0.5163293145920627 0.09894589604807696 -0.2003929759115507  0.5405225381142722 0.09460166998471127 -0.2014456837015716  0.5647848483299377 0.08959547310172167 -0.2024822598523558  0.4745493979271685 0.132587668091832 -0.1986905915582309  0.4981074421104741 0.1276340479809263 -0.1995631747862953  0.5219588516108993 0.1229485190140041 -0.2004806110002549  0.5460280539865285 0.1181719170789551 -0.2013949194906993  0.5701160749317498 0.1129472915399603 -0.2022919236797511  0.4799549243896113 0.1569606792357536 -0.1988959372856446  0.5036676503315649 0.151833279996616 -0.1997298290599977  0.5275542804091304 0.1468730222008074 -0.2005674684197626  0.5515530757664872 0.1418520950534438 -0.2013895188033877  0.5755433223156458 0.1365552563829291 -0.2022019555313382  0.4853113045385412 0.1810924950752555 -0.199086053619309  0.5091322404538531 0.1758842203428774 -0.1998882307382739  0.5330509038706368 0.170788263022102 -0.2006636010716743  0.5570128673854662 0.1656583434222127 -0.2014210312882179  0.5809531847103481 0.1603690286038227 -0.2021930196586499  0.4906024196957312 0.2051116947063903 -0.1992696713550195  0.5144373812478331 0.1998931343521551 -0.2000553734064726  0.5383704799826078 0.1947572837929448 -0.2007630933671843  0.5623501795264243 0.1895853272273214 -0.2014540984029652  0.586294924199672 0.1843050014959836 -0.2022132927503112  0.45 0 -0.175  0.475 0 -0.175  0.5 0 -0.175  0.525 0 -0.175  0.55 0 -0.175  0.4549359426259668 0.028460040712722 -0.1737076641690509  0.4783369117628326 0.02644249266192344 -0.1743114064562254  0.5025431191984416 0.02520669389939834 -0.1750341361099674  0.5274370799996116 0.02395109564268797 -0.1758402533517513  0.5531758019487961 0.02147842169832745 -0.1766615946983717  0.4593801187643427 0.0559157137383131 -0.1733649818825808  0.4827512310982606 0.05265589031505025 -0.1742094238100018  0.5067850769995274 0.05005944208287555 -0.1751742862754155  0.5314354962814111 0.04735030342405208 -0.1761898734402635  0.5565192390159467 0.04350087370777425 -0.1771646290284383  0.4644736929117446 0.08224349097035183 -0.1734290436668035  0.4879000981375629 0.07811527901862135 -0.1743187914067432  0.5118335061435535 0.07450027868775465 -0.175286120183574  0.5362158524788673 0.07074256711047318 -0.1762764164641458  0.5607896923595103 0.06611867111275359 -0.1772462265818042  0.4699121579108029 0.1076481922571879 -0.1736108166655928  0.4934030761201726 0.1029687122663423 -0.1744784117712036  0.5172663271624515 0.09866172360433521 -0.1753795161632622  0.5414372807719658 0.09422756411059574 -0.1762886641958443  0.5656861909577808 0.08918198986595414 -0.1771937441036317  0.4753602452935054 0.1324180133925068 -0.1737852031377704  0.4989824731738358 0.1274327416453788 -0.1746279968594844  0.5228268687737353 0.1226760421875547 -0.175467860925958  0.5468637033777781 0.1178280384327997 -0.1763050488738779  0.5709236055802445 0.1125801964103174 -0.1771492472059109  0.4807649224490694 0.1567906063225149 -0.1739338309600113  0.5045067553978124 0.1516381479444129 -0.1747623400392261  0.5283731615149321 0.1466223780066458 -0.1755610771934616  0.5523401460831474 0.1415471143098539 -0.1763488620005611  0.5763035103685674 0.1362317135891197 -0.177154812186082  0.4861237694218253 0.1809297644377979 -0.1740804615034906  0.5099496401426155 0.1757033233350201 -0.1749002448708091  0.5338382547918613 0.1705593129173503 -0.1756643187460354  0.5577737088351976 0.1653781953882468 -0.1764142098955296  0.5816980526796457 0.1600646114583243 -0.1772032462596713  0.4914047600411505 0.204956463684845 -0.1742591309800104  0.5152679430218862 0.1997259294039309 -0.1750593097026078  0.5391629109365719 0.1945330488816313 -0.1757734623556189  0.5631089981273957 0.1893004162016828 -0.1764751214802867  0.587045068763309 0.1839921297848941 -0.1772478439421887  0.45 0 -0.15  0.475 0 -0.15  0.5 0 -0.15  0.525 0 -0.15  0.55 0 -0.15  0.4554548715769486 0.02846862290052369 -0.1492162051991274  0.4786799905030535 0.02638147524742699 -0.1495981288474858  0.5028408965012692 0.02518325136023115 -0.1500319610599076  0.5277834478404413 0.02395554924890011 -0.150513036603989  0.5536727060911707 0.02129081454042188 -0.1510005811645468  0.4601016111638746 0.05584108211382668 -0.1488640031621757  0.4833506913490582 0.05254822473559231 -0.1494624067325129  0.5073608698512067 0.04998261830373031 -0.1501333726902166  0.5320811725685145 0.04728263820191524 -0.1508351459951139  0.5572839838403034 0.04330696372828016 -0.1514957544355749  0.4652960565578382 0.08212637715235319 -0.1487910641258428  0.4886452492719767 0.07797390654219696 -0.1494986624310884  0.5125643614500919 0.07435764109321009 -0.1502428202529688  0.5369842835666773 0.07057986906947004 -0.1510041561553594  0.5616187590534708 0.06590417911454567 -0.1517448017357986  0.4707758361695775 0.1075081117850849 -0.1488314899720176  0.4942172803701982 0.1028029614473746 -0.1495902486652429  0.5180612910423671 0.09847076630690181 -0.1503451024028337  0.5422368807386263 0.09400287501606486 -0.1511071836086345  0.5665014156241599 0.08893728918334165 -0.1518698909680765  0.4762393087453918 0.1322720900956282 -0.1489062709622528  0.4998246207154523 0.127255655846939 -0.1496932669563421  0.5236427432210179 0.1224611414471341 -0.1504453559457044  0.5476637347280791 0.1175745099622744 -0.1511969237018641  0.5717134427497259 0.1123140662032058 -0.1519648179733155  0.4816484256801655 0.1566440674411416 -0.1489937144211045  0.5053605446099697 0.1514582728713773 -0.1497997760180853  0.5291970941855482 0.1463981042585903 -0.1505502444121527  0.5531382637683556 0.1412807286601074 -0.1512936026627164  0.5770786402802358 0.1359475628221554 -0.152067831238204  0.4870256132062956 0.1807921945410089 -0.1491000327170095  0.5108202898405922 0.175522752925417 -0.1499230206667611  0.534676884461771 0.1703282965119918 -0.1506636241906818  0.5585817240087521 0.1650998765912451 -0.1513932645483732  0.5824765332502383 0.1597569226152313 -0.1521775642550244  0.4923581481259876 0.2048314018375802 -0.1492797709948766  0.5161827296887576 0.1995397801929097 -0.1500906375765438  0.540044214141421 0.1942874267928128 -0.1507861944716139  0.5639518652229983 0.1890005552852577 -0.1514734569810998  0.5878489470583738 0.1836519931790404 -0.152247927544299  0.45 0 -0.125  0.475 0 -0.125  0.5 0 -0.125  0.525 0 -0.125  0.55 0 -0.125  0.4557742665401626 0.02854091468434605 -0.1245014969965388  0.4788990286523909 0.02638749798732797 -0.1247390309709989  0.5030248105057523 0.02517644547604898 -0.125012773012184  0.5279840110942986 0.02393398703508607 -0.1253186475096877  0.5539320580517935 0.02112207587533865 -0.1256411461730113  0.460621475556024 0.05588225262079251 -0.124217116907637  0.4837787482534546 0.05252386524448346 -0.1246273485183247  0.5077601899043217 0.0499434925951648 -0.1250856781784717  0.5325053468771558 0.0472102579506082 -0.1255624474633638  0.557743410015203 0.04309402205025287 -0.1260129632943148  0.4659543368112214 0.08211735954452559 -0.1240873145405724  0.4892374545587541 0.07790699241280272 -0.1246241342434584  0.5131317956312289 0.07426581250089208 -0.1251831698045908  0.5375621995454617 0.07044834730532915 -0.1257504997594674  0.5622083794144903 0.06568256735124417 -0.1263061612525753  0.4715283289336228 0.1074573315633596 -0.1240418708055192  0.494922013809404 0.1026980318150797 -0.1246710932379767  0.5187383850037411 0.09833031354281731 -0.1252909178571204  0.5429057399652893 0.09382081102978823 -0.1259121895530565  0.5671630774014517 0.08869870940711867 -0.1265382444213408  0.477054840497951 0.1321934624803866 -0.1240429800291885  0.5006025684090176 0.1271248223924508 -0.1247419341426797  0.5243880778366634 0.1222859658025255 -0.1254051951250198  0.5483871596371848 0.1173550576576879 -0.1260647695583933  0.5724167362734471 0.1120523436224414 -0.1267424329495646  0.4825077298702972 0.1565488692065946 -0.1240795299987799  0.5061871788764203 0.1513112348165048 -0.1248300609798037  0.5299888658521168 0.1461996206223916 -0.1255257333593915  0.5539006542998549 0.1410334688782024 -0.1262133490791309  0.5778132527396234 0.1356597652151194 -0.1269334220267882  0.487930763323637 0.1806921879688696 -0.1241576467503001  0.5116918405007678 0.1753637789347749 -0.1249465554970515  0.5355115718653803 0.1701109087656708 -0.1256529585881485  0.5593828767605833 0.1648275870730636 -0.1263487813641342  0.5832449069942717 0.1594379996423711 -0.1271028777415306  0.4933361316964474 0.2047296710977178 -0.1243374972518544  0.5171153240971351 0.1993650146383788 -0.1251214387291104  0.5409350893075026 0.1940475933996857 -0.1257876430854642  0.5648041231415522 0.1886994636015019 -0.1264453482185573  0.5886628200520578 0.1832940778006244 -0.1271972402983354  0.45 0 -0.1  0.47
[...]
<PointData  Vectors="traction"> 
<DataArray  type="Float64"  Name="traction"  NumberOfComponents="3" format="ascii">4.4435547479776360e+03 -6.1528463193725867e-02 -1.1164339606851281e-01  3.7015595721850505e-13 -2.3259860509036127e-18 2.1791248505114632e-17  3.1553975990806829e-14 -4.1454338228859766e-19 2.6867826452250003e-15  2.8511070653113642e-15 4.5857248184655069e-18 6.2977283107213837e-14  1.4038948687941133e-01 2.0730400157437715e-02 2.9184698268554763e+02  2.8750623168629045e+03 4.3354349075544621e-03 -7.8756659031580273e-02  3.9057175614453743e-13 -9.1148296663151707e-18 4.6271152517628860e-17  1.2136468215719823e-14 8.4692233645825596e-20 5.9783916502251095e-16  3.1337205783879050e-15 -1.2853265422675706e-18 1.3465338331683452e-15  5.4785884035481264e-02 -1.8853978883286184e-02 5.9354192946482456e+01  2.5279981503847944e+03 2.5903872273991154e-02 -7.4057019279720276e-02  4.1096293995258847e-13 4.4956111084597026e-18 -8.3325868072308878e-18  2.7341193658539323e-14 8.6125003845096402e-20 2.1019820484866449e-17  2.4501866930481620e-15 -2.8317991169482619e-20 -1.3189905004484958e-16  -7.7456598592743296e-05 -3.4129664738219552e-05 -5.6514958068540340e+00  2.2351796474886842e+03 3.9982977707292228e-02 -6.9410252929288055e-02  9.0121201325030321e-13 1.2005110912956806e-17 -1.8335205347703106e-17  2.1873926925531694e-14 3.3217740002186025e-19 -4.3295995407454203e-17  1.0837920733273126e-15 2.2099970636002001e-20 -8.6093014456799043e-16  -1.1008110191956673e-04 4.8400206809966171e-06 -5.4684808494085475e+00  2.0527754257829620e+03 4.7915764151177036e-02 -6.7959955531407296e-02  2.2646519557333955e-14 -9.4548760741499790e-19 -1.1097622721319496e-17  3.2691089892863030e-14 5.9225110390946367e-19 -6.6901398202908366e-17  3.6331991174889178e-15 4.2904344993277174e-20 -1.1936992940363245e-15  -1.7481226183926215e-04 -4.9274166561020301e-06 -6.0751649581520919e+00  1.2632582803595267e+03 8.7354476317923507e-02 -7.3688990831256726e-02  2.7306414458975631e-13 1.2560270464174427e-17 -1.9323493021806792e-17  1.6929620295891312e-14 -6.2933885615652411e-20 -8.6706455302945174e-17  3.3517736898228275e-15 4.5091709617691368e-20 -1.0526122334247445e-15  -1.6385913210355946e-04 5.7972197013803139e-06 -5.9762582192907692e+00  7.4893175716591759e+02 8.5213101621240323e-02 -5.5277382360191037e-02  1.6817524570687770e-13 2.2065376027057004e-17 -2.0571594038140481e-17  1.8836994216440190e-14 1.5532539839624112e-18 -9.0767839815417704e-17  3.2019861261727953e-15 8.3661784265626811e-20 -6.9819927586098953e-16  -1.3978670753326424e-04 -2.1054868189650511e-05 -5.4745054235424480e+00  5.4682344673047487e+02 9.4296682827746642e-02 -5.5411305535283090e-02  1.2580067225828912e-13 1.2646604409328998e-17 -1.8593078600466732e-17  9.6622796737104733e-15 2.6999829418476856e-18 -7.2406587332166391e-17  3.9428762724941563e-15 1.9459286752263289e-19 -1.1856323757033342e-15  -1.3145304887204521e-04 -1.1768731825883683e-05 -5.2194091116095391e+00  6.9907340775128421e+02 2.9783691850181226e-01 -1.5132090442062832e-01  1.7623857039878760e-13 7.5939190116854131e-17 -2.8620040068777506e-17  8.3254741499709684e-15 3.9777543361803206e-19 -5.8589791565631070e-17  2.9693639737004462e-15 2.4745288302853698e-19 -7.5142016972587237e-16  -3.2899637570271684e-04 -3.6647504157496969e-05 -1.4257036857659795e+01  2.9623698319850910e+03 -4.1018975462483918e-02 -7.4428930712341884e-02  9.9768840468329170e-13 -1.2618624522853907e-17 5.1857414174798624e-17  4.0792265118162394e-14 -6.9502830705882854e-20 1.0327429652783517e-15  3.2602977558224058e-15 1.1629274937130447e-19 4.4963925991688349e-15  6.6989470401824946e-01 1.2513642278192745e-03 -3.9141317543448786e-04  1.4375311584314532e+03 2.1677174537772181e-03 -3.9378329515790143e-02  2.3929223838480791e-13 -6.6320533051216935e-19 6.2718354112559573e-18  7.2642260157787028e-14 -1.2781540574805869e-18 1.5382589146028382e-16  8.1632164592581773e-15 -3.3607438634271819e-20 2.3921987945413014e-15  8.3793736864898616e-01 -3.8646454843109685e-05 -1.6732242911876701e-05  1.2639990751923965e+03 1.2951936136995560e-02 -3.7028509639860138e-02  1.3747563002322813e-13 2.6612991158426643e-18 -3.1758096835110885e-18  3.8282459674446704e-14 -3.0160625982738576e-20 3.5549728015660137e-17  1.0107992710248359e-14 -2.0763869678381173e-19 3.9578939936864634e-16  9.0068535725118004e-01 7.5855107180954561e-06 -4.0158681729002064e-05  1.1175898237443441e+03 1.9991488853646138e-02 -3.4705126464644034e-02  -1.1755797574592448e-13 3.6359287401276379e-18 -1.6421843886432337e-18  2.7179157858596226e-14 7.8698971345697751e-19 -1.6214178091109524e-17  8.3183596449263257e-15 6.4764381533598525e-20 -2.8189495228618319e-17  1.0343179844011960e+00 8.9163981682698859e-06 -3.4420876421244910e-05  1.0263877128914826e+03 2.3957882075588566e-02 -3.3979977765703655e-02  2.9881211762041957e-13 2.1456513990745296e-18 -1.3839523895489821e-17  2.2398637420387445e-14 -3.1581099946785858e-19 -3.2608625302384778e-17  1.1520673480301095e-14 1.7065203677888539e-19 -2.5201225703550930e-16  1.1121674084450259e+00 8.7307225099811931e-06 -3.4420433329488454e-05  6.3162914017976391e+02 4.3677238158961726e-02 -3.6844495415628370e-02  8.3882106780660381e-13 -2.2789148721454692e-18 -3.7510057547254157e-18  -3.2395080908241837e-15 8.8975747123466975e-19 -3.1240373434461737e-17  -1.6316732619861681e-15 -5.0318582613835481e-21 -2.8553741799257754e-16  1.3468108723939838e+00 7.7550364486147218e-06 -3.2471517340405095e-05  3.7446587858295908e+02 4.2606550810620133e-02 -2.7638691180095511e-02  5.4476942404033062e-13 2.8411177408738857e-17 -1.7014556271089775e-17  2.8368848395804332e-14 1.9510539728960852e-18 -2.1134811782854606e-17  3.8922464209769553e-15 2.4222808054507979e-19 -1.7750550442719830e-16  1.4784872637335458e+00 8.2566076295172571e-06 -2.9247646647460160e-05  2.7341172336523738e+02 4.7148341413873321e-02 -2.7705652767641555e-02  8.3866427395866350e-14 3.9749447470366742e-17 -1.8004965759825736e-17  1.7860899590944156e-14 3.2288027239684636e-18 -3.2370751160538178e-17  4.4446206923627322e-15 5.4173531418277953e-19 -1.7324165817306996e-16  1.5425366920870602e+00 1.0317215736859729e-05 -2.7476720886819110e-05  2.3302446925042850e+02 9.9278972833937468e-02 -5.0440301473542795e-02  1.7456224468926512e-13 3.8085758247328937e-17 -2.8208475342703232e-17  2.7017269742234872e-14 6.3285129584612830e-18 -2.1083963057556540e-17  3.8115904061375887e-15 3.5300025585127908e-19 -1.9338465431916568e-16  3.4038387685140195e+00 3.3188979373678748e-05 -4.2840044519090938e-05  3.5377565733069177e+03 -1.3926220826496470e-02 -4.4175062392278128e-02  8.7990462953821451e-13 -3.2545839129219824e-18 2.1470826003630967e-17  5.8693971175870176e-14 -2.7231482293241481e-19 1.3797781819209696e-16  4.0108955132525009e-15 -3.1378743765141502e-20 9.3215404811519673e-17  1.1815947010509440e+00 -6.2763824760396982e-07 -1.4801792768913625e-05  1.7186516007866069e+03 4.1399443070366301e-03 -2.6535622464288158e-02  8.0965497945598584e-13 -3.2326160855883093e-18 -2.6811350217592526e-18  8.3570771782109200e-14 -1.0474391190984400e-18 9.0584828920026325e-17  1.5044580619629330e-14 -1.7089762624467912e-19 6.1950935714960268e-16  6.5198828881615167e-01 -4.3881936578599849e-06 -2.0551403115363898e-05  1.5165197990291122e+03 1.5043849931907469e-02 -2.4615513870231132e-02  6.8385277294256437e-13 4.3613997690975108e-18 -1.3583484424700516e-17  7.9896035640253262e-14 4.3100087289657815e-19 1.3028598149934572e-17  1.0160148520514706e-14 -9.6833352885777351e-20 1.2977379868767123e-16  8.2075124721093395e-01 3.6913832179415855e-06 -1.5198305869225831e-05  1.3367053335625233e+03 2.2227678071486210e-02 -2.2539550129646015e-02  4.9303394796162798e-13 5.0220703160978139e-18 -1.5991752934877996e-17  4.4468798495937149e-14 6.6423216216966081e-19 -3.0663243664454828e-18  6.0927422473503267e-15 1.2527026384369181e-19 2.8481276081368391e-18  9.5207269279003293e-01 5.3117295576962753e-06 -1.6735356326819479e-05  1.2270512100298156e+03 2.6405789280038998e-02 -2.2322118161558650e-02  1.1361750295223978e-12 1.7764566717780911e-17 -1.4322007829509798e-17  6.4622300632754252e-14 9.3230582180487360e-19 -7.2778754519470133e-18  1.4504380526802532e-16 7.6300359741725106e-20 -9.2342063261068058e-18  1.0204381860423704e+00 6.1260454623823281e-06 -1.7497103359280097e-05  7.9535017919328152e+02 4.6926841801960446e-02 -2.5063172940026666e-02  4.7488535563031475e-13 1.8741543959989667e-17 -9.4451778326412234e-18  8.5935696046253821e-14 2.4351155199726046e-18 -9.9594884235374522e-18  4.1503906391399955e-15 9.7950291613517765e-20 -3.7850559978810215e-17  1.2296739888998098e+00 8.6015677563879439e-06 -1.7566303833297755e-05  4.7927642194854332e+02 3.8257288138648510e-02 -1.6045358658836658e-02  7.8292148134883052e-14 3.6078466075562089e-17 -1.7887708441583575e-17  6.7807791888584249e-14 2.6325790596767836e-18 -6.7161377406172835e-18  1.2849994974493522e-14 1.7472163159237994e-19 -4.2439903148033023e-17  1.3741800935802200e+00 1.1559440713452434e-05 -1.5901394706767334e-05  3.6498509260229946e+02 3.6796185355250075e-02 -1.4370529607240824e-02  3.5243161005699644e-13 2.1678890669417002e-17 -1.7257751039927454e-17  4.8739173581653966e-14 3.1799619078143372e-18 -7.3087834171539174e-18  9.2461501300623316e-15 5.4500030168639364e-19 -2.0754676041043840e-17  1.4513367125372707e+00 1.4408914374267078e-05 -1.4653059604974942e-05  3.1685003719471524e+02 1.2877662812918148e-01 -4.5557163857395375e-02  1.5810417657036058e-13 -1.5413500111232196e-19 -2.8194461574974337e-17  6.2008030531208136e-14 4.3630029039074633e-18 -9.2157050421977692e-18  6.0338749580554715e-15 1.3031386428105092e-18 -3.2134022341918377e-17  3.3048586606504688e+00 4.3059185330125475e-05 -2.2911767696571950e-05  3.8255608990647588e+03 -1.4267554978906792e-02 -3.4766773258413458e-02  9.8480461650170961e-13 -2.1969546024377765e-18 -6.5345316380200548e-18  5.4193665033950198e-14 -1.3782161721280463e-19 7.1709629678660201e-18  4.7520406922452587e-15 -1.4789279200928924e-20 -1.7917993808378373e-18  9.5287389645762843e-01 -4.2007140313394748e-06 -3.0215231898696831e-05  1.8623667549236445e+03 4.3397906928268727e-03 -1.9343054957278224e-02  1.3191023495934860e-13 -2.1202528157360540e-18 7.7861044637900725e-18  1.0140434631833516e-13 -4.8708768809057672e-19 1.7329036834295708e-17  1.7209224061699980e-14 -5.6714508538141496e-20 5.5440643666990184e-17  5.5615106478973197e-01 2.7503985132414772e-06 -1.3731615799590685e-05  1.6618766797319165e+03 2.1033725956218573e-02 -2.4169426176196860e-02  1.2579159833506414e-12 9.5109062971768446e-18 -1.1579986978780229e-17  1.1571899554063798e-13 3.8653582459463043e-19 4.6294057124602042e-18  1.6154058285069798e-14 -3.2125541845784631e-20 3.4501150598230648e-17  7.6523263409206244e-01 4.3443203249881517e-06 -1.4313962532136680e-05  1.4771787556941761e+03 2.4911276961209202e-02 -1.8905622496107190e-02  1.0905529050866483e-13 -1.4248433384639741e-18 6.5529874667605866e-18  9.5820832384546244e-14 7.4651952079243294e-19 -6.0444764204888306e-19  1.6528298263797097e-14 1.4693654742390832e-19 5.3654049211975278e-18  8.9847396290213888e-01 5.8905200564340202e-06 -1.4299104215916263e-05  1.3658599642478798e+03 2.8825162394358648e-02 -1.8738094100082685e-02  6.2524939476336808e-13 3.3184516960521837e-18 -1.1608436410990943e-17  3.2725348649319686e-14 1.0960121984426905e-18 -1.2227468377803822e-18  1.1340914000227839e-14 1.5823293896492778e-19 -8.2669494492464961e-19  9.6607807585093830e-01 6.6526483886880053e-06 -1.4046052273893648e-05  9.1061600062782043e+02 5.3630231364415352e-02 -2.2610445046267948e-02  7.7152486129508503e-13 3.7219842240167005e-17 -9.6263803208666745e-18  1.0212839889542430e-13 2.2629337048750826e-18 -2.6427176291948968e-18  1.9553309448791713e-14 3.3744257124452295e-19 -2.6227782021462402e-18  1.1745404135572095e+00 9.8542220819168898e-06 -1.2628228154118565e-05  5.6911743687185265e+02 4.3002330209462154e-02 -1.4644623611092944e-02  7.6089970975868044e-14 1.1210812302807547e-17 -1.1750482891779875e-17  4.4665015805789124e-14 2.6104377228003719e-18 -2.0599808669276805e-18  1.2865278671150990e-14 4.9836344825287115e-19 -4.0349889667840483e-18  1.3240261189907647e+00 1.3473172030722610e-05 -1.1135549391450255e-05  4.3535629206652123e+02 4.2516781909960180e-02 -1.3512031874759141e-02  5.2384423081347815e-14 2.2431672015384133e-17 -6.3987644078735592e-18  1.2067024048967115e-14 3.3491838877340356e-18 -1.7386474733835253e-18  5.8139248977506518e-15 7.3819595860986834e-19 -4.0166898196398306e-18  1.4054976333469860e+00 1.7031568676862138e-05 -1.0232694627948370e-05  4.0009682169255217e+02 1.4387317660440191e-01 -4.1489011367486325e-02  1.6668780309525433e-13 2.0922145572396920e-17 -2.0479337459085971e-17  4.2863680052240572e-14 6.6262994588021338e-18 -3.4478735121760790e-18  1.2351520563535255e-14 9.4234623440057791e-19 -3.5873398238653610e-18  3.2388659121138694e+00 4.8560752339731376e-05 -1.6259077471934854e-05  3.9557929774508457e+03 -1.1222650130842090e-02 -1.9793584619027211e-02  3.1768153814593036e-13 -9.8949472508830270e-19 -5.1679002494342769e-18  3.7317290163654207e-14 -1.5299827909532602e-20 -2.8797194027978776e-19  4.6441777402501321e-15 -3.5780112478227117e-21 2.2147357206974664e-18  9.3602413137240370e-01 -3.3770891664556141e-06 -1.5628264020341380e-05  1.9269724698978071e+03 4.8579256380397260e-03 -1.2885783716456935e-02  3.0197900960447716e-13 2.7011530248935406e-18 -9.2156680177147572e-18  8.1157289032621197e-14 -7.6165443088153405e-20 9.6596963694550547e-19  1.9294907332581447e-14 -3.3456468291857364e-20 2.9675887374877482e-18  5.3587381285917102e-01 1.5685235637087668e-06 -8.7609246222379400e-06  1.7286793579523735e+03 2.3095132701727004e-02 -1.6891406388956073e-02  9.1826776232236337e-13 1.9460630678015038e-19 -6.6166144305251131e-18  8.8900699144186001e-14 5.6098850553783598e-19 5.7301466209778588e-20  1.0695686875323525e-14 8.9038287616349244e-21 5.4032694317533218e-18  7.4105233199250042e-01 4.3444781346744917e-06 -8.5627839451994348e-06  1.5412847877085337e+03 2.6301886665234735e-02 -1.3024405679537124e-02  6.2917021263970735e-13 7.7037523799129045e-18 -6.8489322215376750e-18  1.2921974493502168e-13 8.2779063463671961e-19 -7.7340145212234763e-19  2.6389575041592025e-14 2.0180032529216468e-19 1.2167436576487769e-18  8.7599602015888145e-01 5.9156025643617603e-06 -8.5006456984495508e-06  1.4276004822391160e+03 2.9861211899497607e-02 -1.2753715856065218e-02  7.4716012696569273e-13 1.9822940929843715e-17 -1.1091247727683000e-17  9.4480368265251616e-14 1.3768792743319274e-18 -8.6274592358429849e-19  9.6240265942423221e-15 8.5025257628952762e-20 1.5201029720206614e-19  9.4391442286067162e-01 6.8590958926804902e-06 -8.4135491388636578e-06  9.7437602108112367e+02 5.4565993287185782e-02 -1.5378578161944888e-02  3.0674986370963992e-13 2.4810781846555467e-17 -1.1777130992080826e-17  1.0244360286845787e-13 3.3023002875582301e-18 -8.6599985548174360e-19  1.4708621598061346e-14 2.7404786848772806e-19 -3.6825182328038461e-19  1.1531891927421556e+00 1.0729610594775843e-05 -7.6905482092048610e-06  6.1630254381650639e+02 4.3790219689152185e-02 -1.0227400478349847e-02  5.2967210397216553e-13 2.1013602757684786e-17 -2.8287542173806454e-18  6.8228286875078122e-14 3.3107553748919254e-18 -1.2869971984712420e-18  1.4788294445505704e-14 6.3967741678583959e-19 -4.4630170050767252e-19  1.3041385705708697e+00 1.4729357404559769e-05 -6.7901213592099046e-06  4.7282558887554654e+02 4.5013012452676741e-02 -9.8104463427327298e-03  -1.4847341787163370e-13 2.4900640217605836e-17 -5.2348737487213727e-18  3.9177119442233364e-14 4.1585764377489948e-18 -1.5957844796010431e-18  6.4555316328664215e-15 4.6789139667266907e-19 -5.3882078521030447e-19  1.3868907154681709e+00 1.8536084001583240e-05 -6.2481098589457863e-06  4.4214958121669247e+02 1.5670148690718408e-01 -3.0787136553709956e-02  6.0657981925078023e-13 3.3113421208411263e-17 -1.9949424216399519e-17  2.3121419735673316e-14 6.1848438194960853e-18 -2.1464793390486014e-18  7.9030301635518747e-15 1.0293963322575744e-18 -6.8504813014234275e-19  3.2084137477732564e+00 5.1447959539344598e-05 -1.0143050723423865e-05  4.0386205227517330e+03 -1.0653830912012729e-02 -1.5935758594237261e-02  4.4297323918891190e-13 -1.0953790613985501e-18 -2.9450242421861157e-18  3.9651894313000279e-14 4.7960479180056886e-20 -1.9553118434946267e-19  4.6376669873015459e-15 7.3178433290476707e-21 1.8035025018740771e-19  9.1017287708910577e-01 -3.3143983494819679e-06 -1.1196511023021763e-05  1.9687112814369386e+03 5.0001277410709798e-03 -9.1166323356669712e-03  1.7545906098196408e-12 1.3953258272445227e-18 -8.0100351368389892e-18  7.8829484347880826e-14 1.1725398419512758e-19 -2.3950049296083945e-19  3.7108662201994921e-15 8.8332739534512385e-21 2.6722905656385696e-19  5.2173128768259824e-01 1.2900589912614773e-06 -6.1889996958397406e-06  1.7711110128554265e+03 2.2206684781525109e-02 -1.1271489259740954e-02  1.8219866247673472e-13 7.5172992247429711e-18 -4.9989722631048010e-18  8.4542969240530469e-14 4.1373439081812653e-19 -6.1319896936973480e-19  9.1060434238415279e-15 6.0789398161783865e-20 4.5925279541493868e-19  7.2380368247874605e-01 4.2054080546906031e-06 -6.2472116599967885e-06  1.5891397183033966e+03 2.9685388844650207e-02 -1.0016045091934543e-02  8.0783147347992178e-13 1.4045556421242545e-17 -5.8495392544364583e-18  3.6227801535380534e-14 1.0833206742278267e-18 -7.3398260885929508e-19  2.1222164916774176e-14 7.4638492332169112e-20 1.1102870828393536e-19  8.5904992733776264e-01 6.0723350849520219e-06 -6.1342972728512217e-06  1.4764702984571200e+03 3.1795432432258915e-02 -9.0848347788175920e-03  1.1000725694557600e-12 1.2820940507261020e-17 -7.5983040746249368e-18  1.3307932087800178e-13 2.0098515140035435e-18 -9.4302474257737544e-19  1.2534448546896864e-14 2.2082149531631490e-19 -7.8581606522045496e-20  9.2726691908598613e-01 7.1450693241969442e-06 -5.9978303594845936e-06  1.0300787817097014e+03 5.8521826061369346e-02 -1.1712564048828734e-02  2.8668757836839479e-13 2.6271047562691453e-17 -1.9560061429933689e-18  9.3189497797618145e-14 2.1095889543876957e-18 -1.0097961992180209e-18  2.1018754596818510e-14 4.7758952936748217e-19 -2.3043485255881576e-19  1.1373778411329356e+00 1.1372810477723570e-05 -5.3471966705740641e-06  6.6101840362085125e+02 5.1427992857245156e-02 -8.8521645510579137e-03  3.0625929138811061e-13 1.7846230439918922e-17 -3.2151673584096862e-18  6.7225036992802949e-14 2.9060690790414095e-18 -1.2402905000952369e-18  1.4411263017957432e-14 5.5365883960682530e-19 -2.7125370357415662e-19  1.2888854690482079e+00 1.5588009209630607e-05 -4.7185508007186391e-06  4.9942899732400531e+02 4.7264525430037743e-02 -7.5194600448384684e-03  2.6598791934359612e-13 1.8943020970742880e-17 -5.4216937392728666e-18  1.3578178950791695e-14 1.8646791161670722e-18 -6.0210949956537321e-19  1.2113166071874254e-14 5.5162355690489933e-19 -1.8948170082686065e-19  1.3720841255370775e+00 1.9507709548469531e-05 -4.3585023666495703e-06  4.7135466684806704e+02 1.5661819498901436e-01 -2.2023923693072992e-02  1.5963944952099972e-13 3.1655748179918969e-17 -8.9774037938842233e-18  3.9094778111846440e-14 3.8102933218733515e-18 -1.4519967680520394e-18  2.6363929913585373e-15 9.8859285331944290e-19 -3.2222227456195536e-19  3.1819228254888001e+00 5.3372176168922905e-05 -7.1791254393925939e-06  4.1187010526835529e+03 -9.7825176572096037e-03 -5.2937773059244441e-03  1.0916981957163251e-12 -8.8633460497733868e-19 -2.5113520458737827e-18  5.7927061375692436e-14 -4.3487160873509924e-20 -1.2323975156777382e-19  6.3452709635164253e-15 4.1730357994530020e-21 -1.0201191926517394e-20  8.7825740421977283e-01 -2.6191298373226189e-06 -4.4676706664114892e-06  2.0088339366962550e+03 5.1017948978855652e-03 -3.4719672260910585e-03  1.5520388510167496e-12 -1.5567284458679567e-18 -4.8098473805777283e-18  1.5651229115507080e-13 -1.1565370237332655e-20 -6.3681990739403148e-19  7.9695702659394061e-15 8.2250827737151383e-21 -1.6459946963663017e-20  5.0555900804263831e-01 1.2382040611909016e-06