<?xml version="1.0"?>
<VTKFile type="UnstructuredGrid"  version="0.1"  >
<UnstructuredGrid>
<Piece  NumberOfPoints="405" NumberOfCells="1536">
<Points>
<DataArray  type="Float64"  NumberOfComponents="3"  format="ascii">0.45 0 -0.2  0.475 0 -0.2  0.5 0 -0.2  0.525 0 -0.2  0.55 0 -0.2  0.4500146071123443 0.0250070917276354 -0.2000008025541577  0.4750088853417088 0.02500281820729419 -0.2000006785504193  0.5000058369748198 0.02500038504171158 -0.2000015732780594  0.5250047707310291 0.02499835515279476 -0.2000029279023703  0.5500053665486275 0.02499483793044515 -0.200003507579029  0.4500158553215918 0.05000950292718667 -0.1999986741433258  0.4750136790774415 0.05000550963103108 -0.2000005062177314  0.5000118763797491 0.05000167531514889 -0.200002207941758  0.5250109828192721 0.04999804729470647 -0.2000037784297993  0.5500111946546433 0.04999326533280523 -0.2000045609469788  0.4500200704139412 0.07501115577081163 -0.1999979268249  0.4750184938683618 0.07500684926443851 -0.2000001357956893  0.5000174054398026 0.07500257048047859 -0.2000022232566983  0.5250168469154451 0.07499812636058152 -0.2000040150453528  0.5500168644857841 0.07499303443669555 -0.2000050460522064  0.4500244844348548 0.1000120239959891 -0.1999974002513503  0.4750232803774012 0.1000075793455251 -0.1999997488490658  0.5000225072108883 0.1000030457955787 -0.2000020480291617  0.5250221038951886 0.09999829516669746 -0.2000040852538015  0.5500220306064194 0.09999326887161415 -0.2000054658650373  0.450028922197108 0.1250124701452728 -0.1999970136441573  0.4750279020659536 0.1250079527305513 -0.1999994386187617  0.500027266569217 0.1250032934597038 -0.200001894492711  0.5250269231210708 0.1249984681137425 -0.2000041622416759  0.55002683498161 0.1249935710414521 -0.2000059167536152  0.4500334307034395 0.1500127523712173 -0.199996805309462  0.4750324596179932 0.1500081424590609 -0.1999992799267706  0.5000318642716847 0.150003430484781 -0.2000018477979294  0.5250315295974308 0.149998617648619 -0.2000042984611498  0.5500314194284219 0.1499938179660831 -0.2000064110900854  0.4500380186455151 0.1750130582427858 -0.1999967737846765  0.4750370889105567 0.1750082993590014 -0.1999992974689219  0.5000364732706464 0.1750035548814798 -0.2000019183897736  0.5250361197323944 0.1749987543700939 -0.20000447719225  0.5500360029074126 0.1749939719507717 -0.2000068311414557  0.4500432699447018 0.2000135764423811 -0.1999969663757165  0.4750418921910172 0.2000085742001076 -0.1999994105793844  0.5000412051365362 0.200003733596768 -0.2000020561260508  0.5250408308188237 0.1999988740216168 -0.2000046781600178  0.5500407073492996 0.1999940518065811 -0.200007184090212  0.45 0 -0.175  0.475 0 -0.175  0.5 0 -0.175  0.525 0 -0.175  0.55 0 -0.175  0.4500139320646545 0.02500717289435913 -0.1749994766346447  0.4750096487969044 0.02500299977873912 -0.1750004431350506  0.500006799557737 0.02500089796609894 -0.1750012520836241  0.5250056794294822 0.02499916240619857 -0.175002170166985  0.5500061926601413 0.02499563567428569 -0.1750030816622201  0.4500174801942792 0.05000946159895161 -0.1749983439358597  0.4750154141387305 0.0500054961285862 -0.1750003442462068  0.5000135801437292 0.05000194784967895 -0.1750019084460814  0.5250124599780567 0.049998508037454 -0.1750032706335778  0.5500124093701459 0.04999365942115281 -0.1750046161779126  0.450022150852928 0.07501109933561829 -0.1749974864421626  0.4750207216975686 0.07500681069149681 -0.1749999365994498  0.5000195010111192 0.07500267425649904 -0.1750019711478096  0.5250186744941195 0.0749983446725446 -0.1750037042320012  0.5500183608412055 0.07499322681161323 -0.1750054265281484  0.4500267557634091 0.1000119631691107 -0.1749968751574737  0.4750256958422781 0.1000075463199999 -0.1749994806812613  0.500024830362531 0.1000030970748408 -0.1750018141238881  0.5250241873038145 0.09999843756812374 -0.1750038815566397  0.5500238105162601 0.09999341407675517 -0.1750059254409942  0.4500312177430681 0.1250124460163722 -0.1749964508722392  0.4750303920479377 0.1250079604004389 -0.1749991190270064  0.5000297332983376 0.1250033592874218 -0.1750016649729763  0.5250292182908782 0.1249986177713909 -0.1750040125796188  0.550028892901167 0.1249937479826175 -0.1750063207832605  0.4500357572019079 0.1500127990368532 -0.1749962428896853  0.4750349994261981 0.1500082043662471 -0.1749989421657021  0.500034435015648 0.1500035367405066 -0.1750016249657191  0.5250339981419567 0.1499987881594441 -0.1750041768697639  0.5500337497855713 0.1499940104543876 -0.1750067012454547  0.4500404115182989 0.1750131348146879 -0.1749962438917534  0.4750396831452853 0.1750084086273471 -0.1749989711168109  0.5000391253784854 0.175003699554463 -0.175001710271918  0.5250387179581868 0.1749989474735385 -0.175004372438554  0.550038520643393 0.1749941854260092 -0.1750070401478225  0.4500453406473893 0.2000135000368971 -0.1749964265006677  0.4750444922395266 0.2000086786352187 -0.1749991319019141  0.5000438900318065 0.2000039010027173 -0.1750018768933597  0.5250434908972945 0.1999990911039274 -0.1750045614211592  0.5500433174350396 0.1999942995494996 -0.1750072825480423  0.45 0 -0.15  0.475 0 -0.15  0.5 0 -0.15  0.525 0 -0.15  0.55 0 -0.15  0.4500165114659275 0.02500800432402492 -0.1499986589510468  0.4750113679456903 0.02500311617335889 -0.1500003405548765  0.5000080479399552 0.02500098628131369 -0.1500010357207167  0.5250067718747925 0.02499927262459875 -0.1500017282516465  0.5500074659828457 0.02499540568565252 -0.1500027006888169  0.4500206547325653 0.05001024045577519 -0.149997611359672  0.4750180655864393 0.05000590613869806 -0.1500001537023605  0.5000157557993542 0.05000220987497639 -0.1500015572294143  0.5250144714201918 0.04999869989766415 -0.1500027914555799  0.5500144685610938 0.0499935097149211 -0.1500044035942208  0.4500253792432648 0.07501165893539691 -0.1499967586975322  0.4750236691932981 0.07500728675331392 -0.1499996652115755  0.5000221606632552 0.0750030074900095 -0.1500016228126749  0.5250212037061142 0.07499853351131368 -0.1500033362668006  0.5500208523138815 0.07499315116336444 -0.1500054361242914  0.4500299309136933 0.1000123748101822 -0.1499961620219527  0.4750286774816072 0.1000079668467193 -0.1499991557990034  0.5000276676094504 0.1000034094254672 -0.1500015033036999  0.5250269506332004 0.0999986012173576 -0.1500036245490818  0.5500265193565218 0.09999338656281109 -0.1500060672413802  0.4500341972270582 0.1250127819348883 -0.1499957642316632  0.4750333211498703 0.1250083221282907 -0.1499987906253579  0.5000326218831176 0.1250036323500225 -0.1500013999499281  0.5250320786137713 0.1249987654624214 -0.1500038371975598  0.5500317170455434 0.1249937495035545 -0.1500065164580765  0.4500386564049909 0.1500131075572809 -0.1499955773856445  0.4750379019199537 0.1500085011089076 -0.1499986235520623  0.5000373510624598 0.1500037746169316 -0.1500014000704316  0.5250369129151791 0.1499989307075379 -0.1500040563701328  0.5500366503172764 0.1499940386623684 -0.1500068986645211  0.4500433800779754 0.1750134254853264 -0.1499955880594963  0.475042634505149 0.1750086662896492 -0.149998670627197  0.5000420895778486 0.1750039208335487 -0.1500015190211907  0.5250416883152427 0.1749990929298214 -0.1500042867340828  0.5500414951307852 0.1749942275202744 -0.1500072385707546  0.4500484066250888 0.2000138028609005 -0.1499958712866537  0.4750474941446513 0.2000089284321389 -0.14999893035355  0.500046911553881 0.2000041233342286 -0.1500017381393992  0.5250465319797314 0.1999992460728576 -0.1500044720487888  0.5500463750784884 0.1999943483751197 -0.1500074311989325  0.45 0 -0.125  0.475 0 -0.125  0.5 0 -0.125  0.525 0 -0.125  0.55 0 -0.125  0.4500197158817408 0.02500901888336045 -0.1249981652695322  0.475013645654528 0.02500328393125859 -0.125000034781884  0.5000096006356218 0.02500104607352717 -0.1250007381436551  0.5250080360476255 0.02499926821792926 -0.125001422197568  0.550008749259821 0.0249949380191264 -0.1250024223058321  0.4500250605885366 0.05001121860786172 -0.1249968939231203  0.4750214964820165 0.05000643870234419 -0.1249996797634947  0.5000183955926145 0.05000247191613642 -0.1250010832387779  0.5250167751659898 0.04999874483736063 -0.1250023348784795  0.550016667602102 0.04999308023397082 -0.1250040167082772  0.4500295296707492 0.07501243130386237 -0.1249959789845676  0.4750273383960977 0.07500798993753907 -0.1249991531020651  0.5000253177977861 0.07500339518946486 -0.1250011281573924  0.5250241082962998 0.07499863035045549 -0.1250029008618781  0.5500235975242034 0.07499288815469375 -0.1250051364623266  0.4500337314251753 0.1000129901763805 -0.1249953895849837  0.4750322594468177 0.100008587622804 -0.1249986693872994  0.5000309925561713 0.1000038002244154 -0.1250010741362318  0.5250301211882623 0.09999872446481145 -0.1250032852402942  0.5500295416497611 0.09999326407992382 -0.1250059086108855  0.45003780940629 0.125013315568018 -0.1249950247773035  0.4750368172196777 0.1250088541885726 -0.1249983715274888  0.5000359757890633 0.12500398673493 -0.1250010605567223  0.5250353393303175 0.1249988986582537 -0.1250035998771065  0.55003486445484 0.1249937122137859 -0.1250064786004802  0.4500421607160197 0.1500136188622237 -0.1249948637945334  0.4750413416344447 0.1500089730841231 -0.1249982591717232  0.5000407062498425 0.1500040954161631 -0.1250011367705083  0.5250402070227895 0.1499990670423348 -0.1250038992703806  0.5500398677947504 0.1499940370741186 -0.1250069458350077  0.4500468906930841 0.1750139711394751 -0.1249949042059415  0.4750460934319662 0.1750091231518907 -0.1249983466186478  0.5000454795218467 0.1750042305251071 -0.1250013128694185  0.5250450314174361 0.1749992282420213 -0.1250041836811957  0.5500447939283719 0.1749942168452582 -0.1250073429730683  0.4500520246550666 0.2000144084349204 -0.1249953301767196  0.4750510554478819 0.2000094057472563 -0.1249987223496293  0.5000504138839205 0.2000044395777019 -0.1250016026459033  0.5250499969198114 0.1999993787739618 -0.1250043916417925  0.5500498126729672 0.1999943023826725 -0.12500754156278  0.45 0 -0.1  0.475 0 -0.1  0.5 0 -0.1  0.
[...]
<PointData  Vectors="traction"> 
<DataArray  type="Float64"  Name="traction"  NumberOfComponents="3" format="ascii">4.7783057252499091e+01 -2.0078200147896990e-03 -8.6081999118904661e-04  4.4229193396519623e-15 -2.1682780563647903e-19 4.0585185437794528e-18  -5.4560278482062172e-17 -7.7591910611259566e-21 1.0449047368080166e-16  -1.4621640066564116e-15 -6.9994252693670011e-22 1.2783244075486361e-15  2.4800599428420606e-04 -1.6797782353170385e-05 6.7946229685610096e+00  2.1356783357822440e+01 4.1625351054136239e-04 -5.6007714775768204e-04  3.7186832668232233e-15 -6.1334095094369137e-20 4.2830146191316909e-18  -8.5101185439636276e-17 1.0599540176304071e-20 5.8365584464838876e-17  -9.3048547616029733e-16 5.1505448098240322e-21 7.8672022555872785e-16  5.6774020837777219e-05 1.4935129112635014e-05 4.1861039705917547e+00  5.3947382729582332e+00 1.4173680882698637e-04 -5.9448344133809439e-05  1.7463456160332049e-15 5.4114042893797924e-20 3.4761588220136473e-18  2.1700249642346999e-17 2.3462275257368690e-21 5.4471527112154505e-17  -1.5704481229571692e-15 1.1059909219293465e-20 7.8985908510057015e-16  5.6463283967793214e-05 1.6532574444281456e-05 3.5106070781200494e+00  5.2764788396234028e+00 3.3896279261213218e-04 -9.7779240551385736e-05  1.2026844815943621e-15 5.5281452041902785e-20 3.4770581638479464e-18  -8.8894287908041144e-17 6.3992109136051628e-21 4.7321810717001265e-17  -1.1075311638854013e-15 8.7421121550747292e-21 7.9026578129178083e-16  5.3628710004263386e-05 2.7697967441491398e-05 3.0542671929459333e+00  4.4068340287634502e+00 4.6966574077124054e-04 -1.3887509561051769e-04  1.1291222258517080e-15 1.2323704156188503e-19 2.5522500670857244e-18  -3.2935385600168323e-18 6.3151540146323531e-21 4.2367604952299589e-17  -1.1239301438347371e-15 2.0358635702477867e-20 5.2660474321322261e-16  4.9293566185759284e-05 3.1025380536476389e-05 2.7882884421230640e+00  3.8505186223817853e+00 1.6441923292548563e-04 -2.6341488596847477e-05  1.2293869183258597e-15 4.9097513586931065e-20 1.8119761618120219e-18  -1.0007917138897454e-17 6.1184396217465519e-21 2.6279448099117227e-17  -3.7169283105096937e-16 1.3903869413369844e-20 3.8060905188942704e-16  3.6616058654687027e-05 4.3897133326856950e-05 1.8958999340450446e+00  3.8345991369742816e+00 9.1038032058736990e-05 -3.4751561898046224e-06  8.1188258995612476e-16 1.7664558022105979e-20 1.1592094056656689e-18  1.5729902911806221e-18 4.6844025450787930e-21 1.7809341323866857e-17  -1.5553398288706060e-16 2.7333711106287159e-20 2.1214714360323179e-16  2.2691774748087536e-05 5.1663184214343910e-05 1.2155810700426670e+00  3.6576830821929236e+00 5.3710690227898253e-05 -8.4467668529688886e-06  7.6157233712892579e-16 1.0881408785783727e-20 9.3703325259419648e-19  4.6894511223458021e-17 3.6560943744419041e-21 8.3395165092438057e-18  -1.6327220867815428e-16 4.5450473478521784e-20 1.6928225396730562e-16  1.4757037252057619e-05 5.4323409499963623e-05 8.4838315000795905e-01  9.6346709423394863e+00 1.4232135420987301e-05 -5.2257921938403432e-05  7.3467671416735183e-16 1.4541262591436994e-20 5.2132086158537648e-19  5.2956759804366088e-17 3.2962901909517690e-21 5.1414621290827767e-18  -4.7106338060293292e-17 2.6524491355486179e-20 -7.5198430262371288e-19  -1.1039095672871725e-05 1.6558692885152018e-04 3.1919447027242259e-01  3.1855371501666038e+01 -1.3385466765264654e-03 -5.7387999412603107e-04  5.8473282001954393e-15 -6.1773680252317438e-20 3.1782608285402437e-18  -4.3981180297587064e-17 6.5338519729519915e-21 2.4013935521265069e-17  -1.9878674575094093e-15 1.6792411511414742e-21 8.4028549961935560e-17  -2.9542137546536424e+00 1.2936998834413485e-06 3.4280422835210331e-05  1.0678391678911231e+01 2.0812675527068136e-04 -2.8003857387884140e-04  -2.3788772519741664e-15 4.4131829994497664e-19 1.8375446769139859e-18  8.1668680797906768e-17 -6.2993649510714529e-21 1.8495409039111642e-17  -8.4322271190789415e-16 6.3538501340667537e-22 1.0442220862627295e-16  -1.4114209418894137e+00 1.3961561414298537e-06 1.7478958564903157e-05  2.6973691364791197e+00 7.0868404413493172e-05 -2.9724172066904868e-05  3.3926992425894255e-15 -6.5909316166061131e-20 1.9842296947010773e-18  7.0185946505161401e-17 9.7668987491454076e-21 1.8633499957954575e-17  -9.9468475749922115e-16 3.8431473016344195e-21 9.9499262067319629e-17  -1.1629626714842674e+00 6.7577920382466222e-06 1.2195332974583472e-05  2.6382394198117001e+00 1.6948139630606603e-04 -4.8889620275692895e-05  1.7301250608480378e-15 7.5230803328596633e-20 1.6534395565960849e-18  2.6302742093935548e-16 2.1423179878120251e-21 1.9235396681698762e-17  -9.0084043843044643e-16 5.0114223065647892e-21 1.2819636963101037e-16  -9.7197781312003961e-01 6.7615365510011948e-06 1.0650848954384008e-05  2.2034170143817242e+00 2.3483287038562030e-04 -6.9437547805258830e-05  1.0209361054842049e-15 5.4059432865397323e-20 1.3385440978800813e-18  1.0854911869199172e-16 8.2909762262518426e-21 1.3298957011800158e-17  -3.2376897158299532e-16 5.4806702101868671e-21 1.0504087846115686e-16  -8.7334548522975830e-01 7.1439073494631981e-06 9.7884740606332815e-06  1.9252593111908929e+00 8.2209616462742952e-05 -1.3170744298423751e-05  4.1562402650927970e-16 7.2317343508474626e-20 9.5453698592701058e-19  6.8295467985255668e-17 8.3368491192939047e-21 1.0477145656828994e-17  -2.1818749426883316e-16 5.8620170648440050e-21 7.2104045877286298e-17  -5.6775318023190713e-01 8.7736526296020265e-06 6.6493406452818773e-06  1.9172995684871397e+00 4.5519016029368346e-05 -1.7375780949023174e-06  -5.1599161141077685e-17 8.6940713340732727e-21 6.4962958496389309e-19  5.8560213036536480e-17 4.5001360632800250e-21 6.7149677211933998e-18  -2.3639432985057470e-16 5.8424716858804379e-21 5.0180862299773027e-17  -3.5765775870648253e-01 9.5106605128272964e-06 3.7378764853730714e-06  1.8288415410964627e+00 2.6855345113949154e-05 -4.2233834264844477e-06  1.7156343367899201e-15 1.4318982985748039e-20 3.5957192604083506e-19  1.4629933916630298e-16 2.2664242341492199e-21 4.5828999263478880e-18  -1.1028338754847446e-16 8.4242822500692540e-21 3.1639787506638748e-17  -2.5038329140642346e-01 9.7806416468551684e-06 2.0610475557491914e-06  3.2115569807798310e+00 4.7440451403290974e-06 -1.7419307312801123e-05  1.1969037063336815e-15 2.2888702787894146e-20 1.8590881359935005e-19  9.2438422834000778e-17 2.0314613758214607e-21 1.5617670343016106e-18  -1.5308979981011941e-17 7.2620169585740057e-21 2.7355008379639608e-17  -6.6188639817519074e-02 1.9175441844738066e-05 -3.9469400400594615e-06  3.8922156406089236e+01 -5.5863828883454284e-04 -7.6173494585174428e-05  4.5191968765384566e-15 -4.2930634029841449e-20 7.2911851272029231e-19  4.9537976261170617e-16 -8.7321509901215495e-21 3.0472431367785629e-18  -1.6199086909401774e-15 1.4759972887016183e-21 9.9141120141782238e-18  -2.6872286692412639e+00 2.8868308569934809e-06 2.1701898861564032e-05  1.3732853218585285e+01 2.8483816156827470e-04 -2.5155672878674907e-05  8.8285710712838936e-15 -2.5380913389702816e-19 5.9992492150840696e-19  -4.2604907733336330e-16 2.7130960708030527e-21 3.5297840261459592e-18  -5.1637444532856829e-16 2.0340942692506861e-21 1.5704207053029924e-17  -1.2739691078127715e+00 1.4551515479843549e-06 1.1306554373231343e-05  3.9747125569932082e+00 7.5885834215952403e-05 2.1887047838670530e-06  1.6490666852658246e-15 1.6472708391904449e-22 5.7679394021628013e-19  6.4474198957467069e-16 1.7627376982580608e-21 3.2954760949539304e-18  -8.4727999937920782e-16 8.2179499162979115e-21 1.3562092532949163e-17  -1.0387993372726849e+00 3.7532435459102781e-06 1.0244690867777958e-05  3.6553337684141276e+00 2.6878466056645277e-04 -1.4855691864451757e-05  2.3688237725037931e-15 4.0596851711221287e-20 5.9524245717421467e-19  3.0431371605191250e-18 7.9204144346180032e-21 3.8650573663168194e-18  -1.7854896859590704e-16 2.5581322170539099e-21 1.4137753341069142e-17  -8.6689266299551615e-01 4.7601451578388859e-06 9.5023054455016330e-06  3.0303353516567268e+00 3.1874706767501764e-04 -1.9443880976256735e-05  6.3589365424147316e-16 1.7552894215336691e-19 4.5481543203990064e-19  7.7803586026041141e-17 1.5572480419316911e-20 3.3316908356562358e-18  -3.4516161757269923e-16 3.6361982794593145e-21 1.5431255537659984e-17  -7.7818730454121798e-01 5.1816786770350040e-06 8.8023200234984373e-06  1.9198390285738984e+00 2.3245240397386222e-04 -2.3076984634074173e-06  6.0384056034550398e-16 5.9646174900341236e-20 3.3047530383813461e-19  -1.0238639879866996e-17 8.9357288488635500e-21 2.4436130617529492e-18  -2.3899314137873159e-16 2.3611353923445799e-21 1.4157080000361829e-17  -5.0272033635663049e-01 6.2745397208674912e-06 5.7018607954673493e-06  1.7941993251279662e+00 1.1264705526385192e-04 2.9037246181579920e-06  8.1856889048764730e-16 5.5222058180518416e-20 2.3048310882224991e-19  4.1496674422500154e-17 3.8929397888946680e-21 1.6484899776241844e-18  5.6218305687843373e-17 3.7773457494563259e-21 7.9216343067912646e-18  -3.1485758289675592e-01 6.4159122190942242e-06 3.1835464013992267e-06  1.8586805390660857e+00 4.7736771589795947e-05 3.2111997802497332e-06  6.1686649964986314e-16 2.0797432246129767e-20 1.6109892178512862e-19  1.3196741759379721e-16 4.6166907534034319e-21 1.1434628252932619e-18  -6.9981048736952464e-17 4.5785881583025886e-21 6.1354936144976664e-18  -2.2165597163175302e-01 6.2216188642800931e-06 1.8012534203145036e-06  3.4809760548782398e+00 1.5284796044088111e-05 -9.1895322434571149e-06  1.0688514197851919e-15 1.2474299204375620e-20 7.9669543640540684e-20  2.3937736798306626e-16 3.9771047288026110e-21 8.6996985698048162e-19  3.8243745239725397e-17 2.7678306487641981e-21 5.0336231270532358e-18  -8.5982005568403450e-02 1.1477543881251280e-05 -3.1526656550873532e-06  4.4124719303439406e+01 -6.6710397272587017e-04 -2.5733009325342484e-04  1.4330171963457298e-14 -7.8463454120181251e-20 6.0630850911049163e-20  2.0904128664365977e-16 -4.1176345413762455e-21 3.5184681982524007e-19  -1.6501608347965494e-15 8.8955748636452438e-23 7.7493269448274005e-19  -2.4852786362381245e+00 2.0265816291647788e-06 1.6768721141364092e-05  1.7233854171697008e+01 5.7433306571832499e-04 -1.3482500841625655e-04  9.2558450494746739e-15 -2.2191402967005065e-19 9.6197615564542163e-20  2.6459266868727618e-16 -1.1987116174660736e-20 5.1669105105851285e-19  -1.0854048980658398e-15 1.1142267318335543e-21 1.8690911203305299e-18  -1.1735113889304520e+00 8.9507603893116123e-07 8.3325091688672851e-06  7.1065317242410213e+00 1.0962923245238285e-04 -1.0122120012816338e-05  -4.2923457304801604e-16 -2.2606981956359260e-20 9.9833273024992947e-20  9.2845483041380847e-16 -1.9308193795427121e-21 4.7372537162659982e-19  -2.6182193290406765e-16 -2.0789901747335671e-21 1.7234047807970188e-18  -9.5076664957059798e-01 2.4083299046596535e-06 7.7096543678462370e-06  4.8333095472525551e+00 3.6495262210119579e-04 -4.2684076046384076e-06  9.6633575514084561e-16 7.6709727251177750e-20 1.2264234792957318e-19  3.2093879080554060e-16 3.2644626001048831e-21 4.9272753103819468e-19  -1.7313281207518157e-16 1.5445534605626194e-21 1.5604386634486035e-18  -7.9114643700369602e-01 3.3929892642198431e-06 6.8738994284003463e-06  3.8655174578271265e+00 3.7059330949992689e-04 8.4468788067627192e-06  -3.1346144734715628e-16 1.1479301050310901e-19 1.1899957722153029e-19  5.4817436593074432e-17 6.4432794124444270e-21 5.1106457629037377e-19  2.7719997224873842e-17 2.9270973899361037e-21 1.4731194488509574e-18  -7.0837119445855956e-01 3.7436259040287953e-06 6.3674597742583565e-06  1.9748780580660852e+00 3.7697999293609012e-04 5.1126921578347622e-05  -1.5454097607355333e-16 1.3604856339101470e-19 8.9773225439554124e-20  3.9265305423836502e-17 -5.2424179773228608e-22 4.4982597008681685e-19  -1.5480420562618149e-16 3.8497279364675737e-21 1.5544319790371379e-18  -4.5308750106289741e-01 4.3507558811070110e-06 4.2639818197103663e-06  1.8303584132031261e+00 2.2301041235867674e-04 3.8190854189690387e-05  3.7319016858443375e-16 3.0475494561508477e-20 6.5792457862633030e-20  1.0052974925624336e-16 1.5662244960960227e-20 2.8825090992145998e-19  -1.7740339689458206e-17 2.5443242554844039e-21 1.2041127314513068e-18  -2.8270154556202687e-01 4.0597411591071804e-06 2.4776947485542916e-06  1.8884613365574479e+00 8.8201390572515808e-05 1.7963954297489522e-05  8.0004330806826066e-16 2.4866952640391287e-20 4.6086582056251542e-20  8.9723792149477288e-17 4.9775275383398923e-21 2.0968391704758604e-19  -3.5975882671452554e-17 2.6430456641533114e-21 7.5209781471562817e-19  -2.0021636908586612e-01 3.5893988731185583e-06 1.4831667035633918e-06  3.6187723082865908e+00 4.4882128166027997e-05 -8.7682797799437027e-07  3.1693216381190579e-15 5.8017274420556820e-20 4.4618258937166135e-20  3.0333807383184547e-16 7.7056699667260855e-21 1.8688557289800630e-19  3.7844170972603287e-18 1.9633511551948731e-21 7.0503636854746019e-19  -9.7718586719533290e-02 6.0785207541730463e-06 -1.5424268162415263e-06  5.2259873564722547e+01 -7.9485821325094778e-04 -3.9506975539248002e-04  5.9562053594739030e-15 -1.1638960344269907e-19 -3.9114344868994796e-20  3.3937129751520277e-16 -3.0324326830345986e-21 2.9394284925077473e-20  -1.3131208383125888e-15 1.2920237491296691e-21 8.9584791626204980e-20  -2.3361056704637049e+00 1.5015252705634793e-06 1.2603450606071693e-05  2.1590323101095134e+01 4.2962567153670753e-04 -1.6412516089746982e-04  2.3741085775638623e-15 5.7820167740338500e-20 -4.5282527495648613e-20  4.3212338900777488e-16 -1.0788132580343524e-21 5.8488174143089227e-20  -6.2424289171387884e-16 2.5743758401154336e-22 1.4308380919361582e-19  -1.0996708106391901e+00 7.0764003683225791e-07 6.2776918350745044e-06  1.1340949644328772e+01 2.8730492951000560e-05 -2.7623107193712887e-06  5.5525657439761116e-15 -4.2362714721497433e-20 -3.0259081943926735e-21  6.0899413650821439e-16 1.3992400071819700e-21 5.8285962051031240e-20  -2.1071428116895671e-16 -1.7130653427704325e-22 1.9994512310714281e-19  -8.8287628484472502e-01 1.8709379262811174e-06 5.8010705286029207e-06  7.3344243549495953e+00 3.3022107262508450e-04 1.9541188199008777e-05  6.2566365961100768e-15 1.4061565008077801e-19 1.6580909841890916e-20  2.4635676091887728e-16 -5.7284484550931215e-22 5.7259862142444077e-20  -4.1331777505362202e-16 2.3559890753519747e-21 1.7483569350523750e-19  -7.2978621959193779e-01 2.5165364734463737e-06 5.1986022348309774e-06  5.6675257505334686e+00 3.9736272323925842e-04 3.4577522428111877e-05  4.8607595978015249e-15 1.2466755586052828e-19 3.8655963428392921e-20  3.4497469548999617e-16 1.8824249108718262e-20 5.7225531008828977e-20  -4.3661334543345944e-16 1.7090119044187265e-21 1.6785862736693416e-19  -6.5120338521584586e-01 2.7538364326606207e-06 4.8171607717653149e-06  3.4097782449771241e+00 1.7414140470661409e-04 4.1822918203968156e-06  3.3199771210111699e-15 6.2410197768943412e-20 3.4961106477350424e-20  1.2865111779115606e-16 2.0387808382156542e-20 5.8353681443642172e-20  -2.9067365641729672e-16 2.6997648752243400e-21 1.4062882394695357e-19  -4.1183520042948046e-01 2.9303170930677493e-06 3.3901978934431461e-06  2.6321750227734020e+00 1.8476306605925456e-04 -2.9584208438656492e-05  1.0643205672646418e-15 1.1136166649671893e-19 1.9043618315845162e-20  8.0538331816315790e-17 1.1745624474346998e-20 4.4937705706208851e-20  -1.8964363462148733e-16 3.1475260814091832e-21 1.3723461829668905e-19  -2.5516182691619577e-01 2.3299809830237350e-06 2.2130089813806855e-06  2.4126620358659530e+00 1.4074491839940808e-04 -4.7848581872997552e-05  6.7791789470518420e-16 2.0581279031055448e-20 3.5162101577234317e-21  1.2071282992075567e-16 3.4577721864927279e-21 2.8953364097836387e-20  -6.3765829098610821e-17 1.4850239125708076e-21 9.4867041906999903e-20  -1.8040199975202043e-01 1.6890873207873517e-06 1.5702313750158899e-06  4.0001793696563537e+00 7.4998553420303456e-05 -5.0217890418045303e-05  2.8047116206008571e-15 7.3613665867442000e-20 1.7495878948374772e-21  2.4852908290709762e-16 9.5751353012618910e-21 2.9227457504413112e-20  3.0225935631480084e-17 1.3652603436134700e-21 9.3562105197075969e-20  -9.2033357915289632e-02 2.1462731380690013e-06 7.6743735052554997e-07  5.5898926035625635e+01 -7.4101771614668683e-04 -1.2694217384317188e-04  5.7743018172983341e-15 1.4594497470495730e-20 -4.0279734962236113e-20  1.5812893968709626e-16 2.8724477798966935e-21 1.6372952345411157e-21  -6.7371444701651567e-16 6.1638195497713244e-22 1.1898490208076769e-20  -2.2297986287006903e+00 1.2763575393617790e-06 8.9755365563906515e-06  2.3624954460901741e+01 3.0044523697729877e-04 -6.1465706898993370e-05  8.5006395312807189e-15 7.1740183721684718e-20 -5.8186846913449207e-20  5.9798481135962655e-16 3.4328763467586464e-22 -9.0235970159198071e-23  -8.4653955529451779e-16 3.9297755018721940e-24 1.3905436062236723e-20  -1.0469744600036048e+00 5.2872497459571242e-07 4.4792900595883043e-06  1.2294445482805420e+01 1.6457281448705780e-04 -1.6213718471610038e-05  7.2882224449239399e-15 1.3983310958154603e-19 -1.6495548650963294e-20  3.8445908600910905e-16 1.2793427409102753e-20 4.0854873436534634e-21  -2.9914150780056586e-16 2.2326540492556143e-21 1.9176017556384331e-20  -8.3383056526739796e-01 1.4546162808146911e-06 4.1394715106165529e-06  7.8426737917176679e+00 5.6317946619634685e-04 -4.8977937347496980e-05  1.1994930065666862e-15 1.4335149592577651e-19 -8.2673094654409137e-21  3.1427386233936137e-16 1.3186527872873638e-20 4.8516121155325845e-21  -5.0169112108602892e-16 9.2839707475372342e-22 2.0665506622497453e-20  -6.8508218417839051e-01 1.9206358387505915e-06 3.7615439802674852e-06  6.2428353584190113e+00 5.0870629565677949e-04 -5.6772190629235892e-05  2.3630975474675535e-15 1.3640399460458302e-19 -8.7960423139778626e-21  4.0684261161110931e-16 1.5828356935489933e-20 6.0964282048754388e-21  -1.6168665248344048e-16 3.6714436341715709e-21 2.1550256786639566e-20  -6.0928223184982144e-01 2.0792173808365389e-06 3.5157762212048070e-06  4.1293870571350402e+00 1.8878033032208229e-04 -6.5738175208068892e-05  -5.4005923293748252e-16 5.2873779224865865e-20 1.7863865983091375e-20  3.2217030727033889e-16 8.7111188816951486e-21 6.0284895481737502e-21  -1.8516925951478260e-17 3.2016638431221731e-21 2.0514401127657683e-20  -3.8030666327128509e-01 2.0599728074262150e-06 2.6211011217220095e-06  3.3559443705773639e+00 1.4776202715889456e-04 -1.1763941706438878e-04  1.4838753115422988e-15 6.8258728350087451e-20 -6.6674149118242104e-20  2.0001245133320922e-16 5.3576383005714830e-21 2.7510291654628723e-21  -9.7277075147856024e-17 1.9870874312055157e-21 1.7548615506911361e-20  -2.3220052367721106e-01 1.3578380703350578e-06 1.9599837928381712e-06  3.2518786546915761e+00 1.0520806078591527e-04 -1.1808530468499339e-04  2.4549582802307026e-15 6.5435902759973948e-20 -5.9471574599474843e-20  1.5579454481614772e-16 5.5468842250215348e-21 6.7676571603934948e-22  -2.7213444803012559e-17 1.6536755301073832e-21 1.4607407298328214e-20  -1.6239212459451111e-01 5.1984760613257059e-07 1.6242782906974610e-06  4.6111873848851701e+00 1.2490750074910278e-04 -1.6268353111586516e-04  4.8841596961093153e-16 1.9224771821057419e-20 -5.2965996821268457e-20  6.8610573513048891e-17 8.7773259821423333e-21 3.6883619353899202e-21  4.1958037174954561e-18 1.9184979885101923e-21 1.3437803846236396e-20  -7.3961356728766206e-02 -7.3055062140674107e-09 1.7956985950933395e-06  5.4763154964098540e+01 -6.8407165149899003e-04 5.3303141830971421e-05  1.4289972533048343e-14 -1.5397603725833141e-19 4.7007717132399843e-20  6.3214545628254402e-16 -2.8419660980639986e-21 -1.3427110961191564e-22  -1.2255348989421394e-15 8.0210560382056876e-22 4.0409512214695645e-22  -2.1091073001469414e+00 9.6439519375871013e-07 3.4100558680190893e-06  2.3171473941997046e+01 4.0675714002063544e-04 1.9537042221272966e-05  8.1050453170527686e-15 1.4193234858763776e-19 -2.8847135270643458e-20  1.3875933345315114e-15 1.1549961847732106e-22 -2.6026147811475941e-21  -3.4489071096529516e-16 5.0908520004192392e-22 1.8160108899315834e-21  -9.8706613367066165e-01 3.6100814133049522e-07 1.7053094719370791e-06  1.1906860888357793e+01 4.5266460431629208e-04 -5.2821997917392412e-05  9.7