<?xml version="1.0"?>
<VTKFile type="UnstructuredGrid"  version="0.1"  >
<UnstructuredGrid>
<Piece  NumberOfPoints="405" NumberOfCells="1536">
<Points>
<DataArray  type="Float64"  NumberOfComponents="3"  format="ascii">0.45 0 -0.2  0.475 0 -0.2  0.5 0 -0.2  0.525 0 -0.2  0.55 0 -0.2  0.4505470121820395 0.02543652570397426 -0.1998317880854371  0.4753552673987516 0.02515706779944079 -0.1999239127541462  0.5002664404468425 0.02500549650941409 -0.2000347617291826  0.5252541915321975 0.02485590515319275 -0.2001591001119518  0.5503215281688651 0.0245994036225389 -0.2002812023904063  0.4509396079309951 0.05066503278424982 -0.1998166872352806  0.4757995181558223 0.0503074518708773 -0.1999262396902155  0.5007140067090268 0.05003624028364276 -0.2000536791290123  0.5256982184885195 0.04976704625156222 -0.2001857027609484  0.5507415893467017 0.0493972955809425 -0.2003157703442975  0.4513655631458096 0.0758149203408804 -0.1998162874192861  0.4762727433676119 0.07541411071661243 -0.1999341989051956  0.5012123049563436 0.07506267674419284 -0.2000592631010689  0.5261986171671346 0.07470731571085593 -0.2001836344114754  0.5512213304319086 0.07427898164894511 -0.2003052212618384  0.4518102893254169 0.1009034728381005 -0.199815195997248  0.4767514597664396 0.1004775135948987 -0.199935508365183  0.5017139813555137 0.100077091151434 -0.2000578615132213  0.5267041768197176 0.09966896742725098 -0.2001768878450717  0.5517138380574991 0.09921482660492159 -0.200293355955375  0.4522553771289231 0.1259501615649314 -0.19980919429806  0.4772239247977583 0.1255115073406745 -0.1999331480694842  0.5022027430313371 0.1250823455644453 -0.2000552712435348  0.5271958961724639 0.1246457235796175 -0.2001735367202055  0.5521977181722196 0.1241839768782871 -0.2002903022296689  0.452701603868892 0.1509688846901439 -0.1998038663437605  0.4776868462944431 0.1505239555452768 -0.1999309397116936  0.5026764729745213 0.1500816430637626 -0.2000544304051917  0.5276712656383457 0.1496325732188847 -0.2001746672622519  0.5526684677677416 0.1491711857641088 -0.2002950210343213  0.4531513239374789 0.1759719633241592 -0.1998044134375567  0.4781445208884214 0.1755252409317072 -0.1999321242284878  0.5031395253993791 0.1750784303187985 -0.2000559750260479  0.5281348988210786 0.1746259088733877 -0.2001779249289476  0.5531296497936099 0.1741668206672798 -0.2003023414359189  0.4535976794047925 0.2009678404221691 -0.1998089077607172  0.4785950500852215 0.2005213002185867 -0.1999367102234653  0.5035943036088608 0.200074064226336 -0.2000587881920604  0.5285924687782136 0.1996219631022181 -0.2001798357738357  0.5535874554549776 0.1991641831476183 -0.2003063010075861  0.45 0 -0.175  0.475 0 -0.175  0.5 0 -0.175  0.525 0 -0.175  0.55 0 -0.175  0.4506041683641467 0.02542688646634809 -0.174883414302406  0.4754272738864372 0.02515056185591954 -0.1749519527163637  0.5003412148105632 0.02501947143926787 -0.175025005388699  0.5253363354225823 0.02489452871685151 -0.1751055119047103  0.5504303304746188 0.02464140760535341 -0.1751839906456166  0.4510305903522577 0.05066875929814915 -0.1748462419018917  0.4758994542243535 0.05030923685921987 -0.1749436459125674  0.5008183785207384 0.05004433033665033 -0.1750450062629537  0.5258064746435864 0.0497799367678385 -0.1751485234408645  0.5508603966449339 0.04940482161596029 -0.1752474868885254  0.4514711255750224 0.07582002677180898 -0.17483168988769  0.4763856821697821 0.07541665889637711 -0.1749424546069272  0.5013269595316656 0.07506448584411156 -0.1750522151617612  0.5263137048987641 0.07470649638826514 -0.1751607674048689  0.5513379813621414 0.07427284054497026 -0.1752677993741093  0.4519249345808893 0.1009069762853515 -0.1748213449669283  0.4768708693326228 0.1004782324627337 -0.17493931421393  0.5018328118788408 0.1000759518555424 -0.1750530399828349  0.5268213483272567 0.09966501898489942 -0.1751641282565231  0.5518294369050161 0.0992071702807414 -0.1752755907280258  0.4523771753009981 0.1259514062422431 -0.174811495457717  0.4773471341337587 0.1255112110691105 -0.1749347354537567  0.502324339734679 0.1250809685390198 -0.1750525041491763  0.5273154787387848 0.1246428338709104 -0.1751673088874377  0.5523155051926013 0.1241786274357123 -0.1752834672068203  0.4528289816065563 0.1509708291530208 -0.1748045138082345  0.4778132407592635 0.1505245239870994 -0.1749317762326207  0.5028007777731295 0.1500811873028751 -0.1750533517092529  0.5277940898977084 0.1496312162752898 -0.1751723670275809  0.5527905988113361 0.1491680314304057 -0.1752936255596782  0.4532812717511668 0.175975491225925 -0.1748032767035487  0.4782728788772547 0.1755274547602233 -0.1749328608003652  0.5032658943404855 0.1750789657851131 -0.1750562388421206  0.5282607505420801 0.1746249280294228 -0.1751778182141075  0.5532563007460344 0.1741641560435507 -0.175303354592355  0.4537290089167813 0.2009725362204826 -0.1748095034518537  0.4787251347731125 0.2005251962824136 -0.1749388964398322  0.5037224612412927 0.2000750376984475 -0.1750604191131166  0.5287204110772614 0.19962002404601 -0.1751804390954021  0.553717057836391 0.1991608067568303 -0.1753068016154389  0.45 0 -0.15  0.475 0 -0.15  0.5 0 -0.15  0.525 0 -0.15  0.55 0 -0.15  0.4506838444771922 0.02544584140496092 -0.1499129083930579  0.4754783248113807 0.02515056421773565 -0.1499698075629754  0.5003800584056642 0.02502185138527906 -0.1500194022718802  0.5253754734058526 0.02489961238828215 -0.1500723815370165  0.5504848578243676 0.02463188490863116 -0.1501232707435903  0.4511369440887458 0.05068539943262766 -0.1498682186352336  0.475985923766551 0.050313586805433 -0.149953957910719  0.5008941413700091 0.05004875009333046 -0.1500343929232797  0.5258833614387084 0.04978561869562071 -0.1501150136572038  0.5509468774870253 0.04939906442723752 -0.1501922235483028  0.4515912649722003 0.07583589790905108 -0.1498427092510124  0.4764931606254876 0.07542390633786403 -0.1499464342790167  0.5014270436715259 0.07506876766075664 -0.1500422504398482  0.5264131901348998 0.07470820916920175 -0.1501366610878243  0.5514401962169372 0.07426652056507534 -0.1502308104485245  0.4520529828429203 0.1009210249867767 -0.1498251222355725  0.4769906719206468 0.1004860715726825 -0.1499398893128681  0.5019472461574357 0.1000792387412685 -0.1500456682154352  0.5269339234274426 0.09966366155579819 -0.1501492592122906  0.5519410075730147 0.09919902487895757 -0.1502548610558439  0.4525086701710586 0.1259639366320484 -0.149811737605181  0.4774737815235335 0.1255189312823073 -0.1499342199163592  0.5024472048183111 0.1250835988268422 -0.1500478937773911  0.5274362114948814 0.1246401674926388 -0.1501592771330336  0.552434099524288 0.124169737542868 -0.1502737898820163  0.452962722441085 0.1509821265032267 -0.1498032895623336  0.4779441026811139 0.1505317899955483 -0.1499312343599997  0.5029291065721037 0.1500835215482606 -0.1500510385474956  0.527920634032599 0.1496282262741455 -0.1501688307752623  0.5529152863363279 0.1491591935322761 -0.1502906403294816  0.4534180052460539 0.1759867924395547 -0.1498011787487989  0.4784074722110193 0.1755347160001798 -0.1499329269140798  0.5033986350729531 0.1750813055204135 -0.1500557321230512  0.5283921838536766 0.1746219268368277 -0.1501769529851247  0.5533866182274947 0.1741555227115056 -0.1503042401901286  0.4538693346100622 0.2009848127315525 -0.1498100837256825  0.4788640187055464 0.2005329481724416 -0.1499416649078991  0.5038600574346885 0.2000775538175274 -0.1500617314990092  0.5288569575565271 0.1996169654123089 -0.1501802457900067  0.5538528711441227 0.1991522444199667 -0.1503079860069556  0.45 0 -0.125  0.475 0 -0.125  0.5 0 -0.125  0.525 0 -0.125  0.55 0 -0.125  0.450739547621481 0.02546901847372878 -0.1249272404801558  0.4755188419670777 0.02515494591431714 -0.1249726303553929  0.5004115970867204 0.02502293177628599 -0.1250121360374757  0.5254055181747743 0.0248982518320029 -0.1250524497473714  0.5505230566915558 0.024614474831922 -0.1250919915008707  0.4512244873472467 0.05071138959863821 -0.1248820513061941  0.4760603159794296 0.0503229088194276 -0.1249549183617243  0.5009594534698579 0.0500522802928343 -0.1250224606161335  0.5259469341677004 0.04978391915749671 -0.125088192493277  0.5510152286204525 0.04938064251969403 -0.1251516904198962  0.4516990596673482 0.07586074399306966 -0.1248503994054574  0.4765922091964834 0.0754361403781417 -0.1249439738567737  0.5015189985221383 0.0750735677906544 -0.1250298147915902  0.5265028648004791 0.07470584271588211 -0.1251131536087385  0.5515307240023503 0.07425053292736093 -0.1251970706849981  0.4521742856208914 0.1009436251729626 -0.1248275206886047  0.4771061445137654 0.1004990092106378 -0.1249358257322447  0.5020574973964859 0.1000842450331114 -0.1250354143476549  0.5270415648812627 0.0996605519449564 -0.1251324262557491  0.5520472209963544 0.09918487679650395 -0.1252321151541975  0.4526381855492467 0.1259841305120199 -0.1248112090043738  0.4775995860566924 0.1255317338113654 -0.1249303419894408  0.50256927633621 0.1250884367661705 -0.1250407622296477  0.5275558637877343 0.1246366958788125 -0.1251488947516692  0.5525515935262452 0.1241569911848786 -0.1252608489041521  0.4530975120127826 0.151000673712935 -0.1248016367574161  0.4780765903880691 0.1505439665327957 -0.1249284917108212  0.5030590741626079 0.1500880863823474 -0.1250469051324904  0.5280487037528595 0.1496246811316838 -0.12516347381983  0.5530414468303172 0.1491474230733394 -0.12528493351397  0.4535581851158019 0.1760052225865148 -0.1247996384763098  0.4785456955627433 0.1755467088498104 -0.1249318348277487  0.5035349191768717 0.1750857852942302 -0.1250541328386268  0.5285271373597202 0.1746183663646699 -0.125175007594095  0.5535203651899471 0.1741439890828965 -0.1253033318083264  0.4540162113839945 0.2010044725047436 -0.1248111908990567  0.4790087356337662 0.2005451916065325 -0.1249434832660001  0.5040031986017147 0.200082063317133 -0.1250623675266265  0.528999215701297 0.199613327772874 -0.1251797788143455  0.5539946639850847 0.1991401686165267 -0.1253086227708427  0.45 0 -0.1  0.475 0 -0.1  0.5 0 -0.1  0.
[...]
<PointData  Vectors="traction"> 
<DataArray  type="Float64"  Name="traction"  NumberOfComponents="3" format="ascii">9.4374632892052080e+02 -3.4970933957074186e-02 -1.7889703943042085e-02  7.2869303989223259e-14 -3.3989291488250368e-18 -7.1294611414378818e-18  5.0324965891181287e-15 -2.1204501212652937e-19 -4.1948979312492383e-17  1.7236095982351780e-15 1.0110010619548108e-19 -3.3215387604335742e-16  4.5449231426598694e-03 8.1329624352240572e-04 -2.7528984527339756e-01  5.6920009029498613e+02 6.9215831141866847e-03 -1.5990503433750827e-02  9.5910594056119614e-14 -4.3612258919421536e-18 -9.6518915863217491e-18  3.8747268108861396e-15 -1.9613337236022462e-19 -7.3727225846655713e-17  7.4562532753982367e-16 -1.3144094849222454e-20 -8.6193414515771117e-16  9.6861531717022781e-05 -5.0403373000963461e-05 -4.5581285144887378e+00  3.3730314584734634e+02 1.2337707655307674e-02 -1.0821059030162722e-02  4.9227252951306978e-14 2.0545452027277718e-18 -6.5229833648732031e-18  5.3143734316862941e-15 -2.3728236024911175e-20 -7.7158979098589318e-17  3.0209080584870049e-16 -8.8536396343988299e-21 -1.3226171227796933e-15  -6.4011827314483895e-05 5.7738335571665252e-06 -5.3981222857390625e+00  2.2043951926523536e+02 1.1975147652679756e-02 -8.8139996829198972e-03  4.9145638675708591e-14 2.1508918120180076e-18 -7.1028542040571436e-18  2.4346221822694208e-15 1.3992691463712555e-19 -7.1006519259137563e-17  6.7759811610906078e-16 -1.0025853602957159e-20 -7.2238478008134028e-16  -6.1322537690348036e-05 -3.2414388812560881e-05 -5.3537381167639602e+00  1.7322293863866952e+02 1.2494417460837803e-02 -8.4317114095316652e-03  1.8734704266003261e-14 1.5408794451358783e-18 -4.9183514827928888e-18  2.0709336279193956e-15 1.3033094637116507e-19 -5.7756196854380798e-17  1.3627541907591876e-15 -3.3384944003904787e-21 -9.5176543749049651e-16  -5.5060228128348512e-05 -3.5542022375465236e-05 -5.2798134737753282e+00  7.0771121504252619e+01 1.2166893030247981e-02 -6.9396266168524076e-03  2.0883964857425351e-14 2.5493121163849302e-18 -6.6400687682584237e-18  6.7833387608424308e-16 1.6392843167444133e-19 -7.2631139823482549e-17  2.1621535455651857e-15 4.5467906855843996e-23 -6.6109140231733256e-16  -6.3186326275017706e-05 -4.6519985298900147e-05 -5.0213959266189159e+00  2.7320676201250627e+01 9.9224436505070627e-03 -5.1521605194275212e-03  1.4401634648303086e-14 4.5349794591753913e-18 -7.0386673727978945e-18  1.1976914085931302e-15 2.3474508931477259e-19 -8.5007340577541559e-17  1.5675033781810261e-15 -1.7844649959967455e-20 -9.7408280243906260e-16  -5.7191676282932035e-05 -6.5170372757338506e-05 -4.6964515594901632e+00  1.2529427145862673e+01 5.6497474375900207e-03 -2.8301327629505508e-03  7.0971425021643144e-15 2.7375010315173568e-18 -7.8922790105546356e-18  5.1217046759677638e-16 1.3578586167035629e-19 -6.2337774370176830e-17  1.7287564362174174e-15 -1.3533613977873871e-20 -1.0408678638219590e-15  -4.9390515326522428e-05 -5.8495973770882039e-05 -4.4930963551380687e+00  -2.7830697974838108e+00 2.0490332291288462e-02 -9.8889616461092684e-03  1.4706370092830011e-15 2.5739102007563220e-18 -4.5272413573059790e-18  5.0288639307718047e-16 1.9309241268239944e-19 -4.3196004310958771e-17  2.9227625622204935e-16 1.4364624370270440e-20 2.3805528182025658e-16  -1.0932106600327414e-04 -1.1569148813142817e-04 -1.2140190300019848e+01  6.2916421928034674e+02 -2.3313955971382784e-02 -1.1926469295361390e-02  4.8580006091552614e-14 -4.0208337947392766e-18 -2.4497290936213881e-18  4.2230353850187758e-15 -2.4066752766702469e-19 -1.0274567519658764e-17  1.1093024744374162e-15 2.6112828988079864e-21 -1.9079971114551084e-17  1.7530552780551028e+00 3.0065460792776984e-06 -2.4777878477344379e-05  2.8460004514749340e+02 3.4607915570933363e-03 -7.9952517168754133e-03  2.9181892925500287e-14 -3.0310578711905802e-18 -6.5937976706439343e-18  7.6675331599564340e-15 -2.6005036291979959e-19 -2.5420660595349085e-17  1.6461729935931628e-15 -4.0313417390018018e-20 -1.0264440705541183e-16  9.7172182654848527e-01 3.5155136027865256e-06 -2.1164166966224398e-05  1.6865157292367314e+02 6.1688538276538285e-03 -5.4105295150813611e-03  8.6018415335570647e-14 -9.0300576879280283e-19 -6.6957489555084842e-18  4.5980242310955272e-15 -3.1370523739841258e-22 -3.0528405354818669e-17  1.7574703187455034e-15 -4.6198889602970246e-20 -2.0577925113698870e-16  1.2800335714442193e+00 3.0644265836058933e-07 -2.5100962226028518e-05  1.1021975963261795e+02 5.9875738263398814e-03 -4.4069998414599520e-03  9.8141148774274243e-14 2.9137303033821982e-18 -6.3227747191169780e-18  2.9253757176383301e-15 8.0075148816279802e-20 -2.2556734758404685e-17  8.6406851993093575e-16 1.5934226186080293e-20 -1.2535854890216367e-16  1.4097913555617356e+00 -3.5685336382452673e-06 -2.2520868050286492e-05  8.6611469319334745e+01 6.2472087304189005e-03 -4.2158557047658370e-03  3.3316630603866439e-14 4.2188229854343935e-18 -3.4001587282932957e-18  3.8723377743045266e-15 2.1625846220328070e-19 -2.5733005693181737e-17  1.4301002993109715e-15 1.9042432922192708e-20 -1.4759120697691023e-16  1.4516931416700949e+00 -4.7135009329189336e-06 -2.0213646136632488e-05  3.5385560752126352e+01 6.0834465151239940e-03 -3.4698133084262082e-03  1.4194050961288911e-15 2.3144833767763423e-18 -5.7751332056397341e-18  1.9868284303373562e-15 4.1230570453778151e-19 -1.8626516534412717e-17  8.8165647906440727e-16 2.7125048190640065e-20 -1.2746990209839347e-16  1.5102290952989728e+00 -7.5279900657898612e-06 -1.3264307622018432e-05  1.3660338100625321e+01 4.9612218252535253e-03 -2.5760802597137602e-03  1.5198923211834651e-14 3.8801504091390247e-18 -4.3795582106361507e-18  1.1578516133698952e-15 2.2634431233697811e-19 -2.0348465467957971e-17  8.7899354267231854e-16 3.0327880290237280e-20 -1.0208147475397535e-16  1.5194897258152438e+00 -7.4735184898376260e-06 -7.5877424075638762e-06  6.2647135729313508e+00 2.8248737187950056e-03 -1.4150663814752732e-03  1.0988320451329712e-15 -1.0229968629018851e-19 -3.2479421351458782e-18  1.1468800672385374e-15 1.6082315824817478e-19 -2.4563063638339163e-17  1.2603812380448346e-15 6.4866988262635398e-20 -1.5621208684171482e-16  1.5261719123281556e+00 -6.0340704902724277e-06 -4.7397727286762195e-06  -9.2768993249460530e-01 6.8301107637628190e-03 -3.2963205487030896e-03  3.9875899594566758e-15 2.5161195818786881e-18 -2.0096150590651761e-18  4.9885133651753228e-16 2.7150964297718547e-19 -4.2829006059964806e-18  8.5721154885498368e-16 5.7565160487650054e-20 -1.4153820534883331e-16  3.1208618633124554e+00 -7.8173888148874366e-06 7.6560527870652861e-06  8.1998865130339539e+02 -5.0418408426076812e-03 -8.0903614392043698e-03  2.1466439782395845e-13 -1.5355828547908880e-18 -2.2332959892462015e-18  1.2228916017090616e-14 -1.2669708209103689e-19 -8.4877043929237388e-19  8.6367379779264373e-16 -1.0917597287865694e-20 -3.7802817440767654e-18  1.4587522247790123e+00 -6.9228053023683009e-06 -2.4318604602866351e-05  3.7163919225985455e+02 3.9354649183939543e-03 -4.8573907445238710e-03  2.3681299181404834e-13 -2.5184857046985568e-18 -1.8184707369246363e-18  8.2605256840107970e-15 -9.7036001678465562e-20 -3.3333796603082601e-18  9.1950251587019601e-16 -3.3669027537356324e-20 -3.2639327052715773e-18  8.0496328718179788e-01 1.2355146145526470e-06 -1.1032613875232694e-05  2.3346224517178405e+02 6.2659449511954504e-03 -3.4594050419679643e-03  -7.6456253826727904e-14 7.8878469002298793e-19 -2.2395458971177709e-18  1.3540011338302290e-14 -8.1764937173930402e-20 -6.6113620868974786e-18  1.6780913895575638e-15 -1.1238072182803454e-20 -2.1700130071634053e-17  1.0293680953210689e+00 1.2561378716188342e-06 -1.3283800818113419e-05  1.5897576563003688e+02 5.6769317943617375e-03 -2.7363500203043214e-03  5.1540023277732394e-14 -8.0380354676441836e-20 -2.0340369591221486e-18  2.8748674081013319e-15 7.8198994799794679e-21 -4.8613687966145378e-18  1.6618386387140519e-15 -1.3610377337574474e-21 -2.5631659371880314e-17  1.1451733402795290e+00 -9.9683513933242255e-07 -1.2003182610891007e-05  1.2717060199769280e+02 5.3183775595089279e-03 -2.4224677153207473e-03  2.5900420134439107e-14 2.0795135356259021e-18 -1.3682975162118457e-18  7.3191220366364148e-15 3.4400349931456494e-19 -4.8798498428723001e-18  1.1730242070953216e-15 3.7358457413419537e-20 -1.4842000103342395e-17  1.1919876788009782e+00 -1.8384423038795964e-06 -1.0885824597330513e-05  5.5019390525179737e+01 7.0022225925753445e-03 -2.9075434581659486e-03  -3.0677979816198804e-14 9.7449186002711054e-19 -1.7584218879748010e-18  -7.9615246793282508e-17 3.3454611384459434e-19 -4.4440708032498939e-18  1.7814345373087117e-15 8.6192729326094898e-20 -1.8828334593117960e-17  1.2990216095241749e+00 -2.3538227721235523e-06 -6.8564729556290954e-06  2.4183052487781634e+01 6.0976001194797411e-03 -2.4875341146674088e-03  1.0618140930898603e-15 2.1833489781363531e-18 -1.0348931157243702e-18  2.4467838725920431e-15 2.7916793458388132e-19 -3.9406204959676362e-18  7.8999130107813640e-16 4.1555647171861409e-20 -2.0949803290707966e-17  1.3601043345269495e+00 -1.1665006450060824e-06 -3.2458454180743569e-06  1.3692984643222552e+01 4.0359461152039561e-03 -1.6260880900448552e-03  4.1243894170894630e-15 3.7244328036570507e-19 -1.5344617021073277e-18  5.1499438721417717e-16 2.2631589281873023e-19 -5.3765740925894164e-18  1.5737913846958827e-15 5.6741969762642099e-20 -2.0770700671232219e-17  1.3944556519226370e+00 -1.7018669341129017e-07 -1.6429438279419769e-06  4.8307810437839525e+00 6.2948450852702538e-03 -2.4434926030106846e-03  6.4258355727839662e-15 5.4139331050880968e-19 -1.6104681078545311e-18  9.0759812788366422e-16 3.7522578170733235e-19 -4.7744880950986928e-18  6.9203706300991627e-16 1.0545526236010060e-20 -3.6092128251936881e-17  2.9681510762180268e+00 3.2058060455321413e-06 5.8968373005164227e-06  9.0731497191632252e+02 -5.6771859167967578e-03 -4.9639708276610194e-03  1.6481738099019208e-13 -9.9717591847096539e-19 -7.5500462398515951e-19  9.5502589128735743e-15 -6.0332166279279609e-20 -1.8514877446016829e-19  2.0239824542410063e-15 -5.9028474754324034e-21 -1.5263672068250959e-19  1.2128448372438099e+00 -4.7743702660651283e-06 -1.1887597353113551e-05  4.1489681703882155e+02 3.8940977044147314e-03 -3.1535303084341765e-03  2.7181064013424072e-13 -7.3091051654726159e-19 -1.9536508147097547e-18  3.5138293251976373e-14 -1.4727675781013850e-19 -4.1759435479827336e-19  3.8595012805338595e-15 -1.5443466399729469e-20 -5.5198876450398816e-19  6.7315420580812824e-01 6.8385685390047236e-07 -6.2299053416166799e-06  2.7137866191230370e+02 5.5219756024604992e-03 -2.0918394715514739e-03  3.8508528374691963e-13 2.8773166951909504e-18 -2.3464987431881172e-18  2.3153000207607371e-14 7.2058025117880212e-20 -9.3589344602570667e-19  4.7737774318483545e-15 -2.1311243041315653e-20 -1.1373206889640470e-18  8.6852963315951470e-01 9.8740616096496976e-07 -6.8549424450672476e-06  1.8955716992140651e+02 6.0144094162600222e-03 -2.0284079593408935e-03  8.9556472877899980e-14 2.7158408644479663e-18 -3.1106235667526798e-18  1.7425022528660990e-14 1.0570846145466092e-19 -1.0512796786370225e-18  1.9284127219956055e-15 4.4675426041587033e-21 -2.9506535554887199e-18  9.8335956108932554e-01 3.8193068465011269e-07 -6.1190481604335974e-06  1.5435956861352349e+02 5.3066916396662120e-03 -1.7210932883956261e-03  1.1702586220562255e-13 2.0407690814317544e-18 -9.3789597003253475e-19  3.6876102002834653e-15 1.0868425944115384e-19 -7.8791725052304783e-19  1.9768726076643202e-15 1.2724874494640002e-20 -2.0914912862348636e-18  1.0355112325953206e+00 2.1683644019522220e-07 -5.2858770873338259e-06  7.2900777561515753e+01 7.4808276681559887e-03 -2.3592977954847117e-03  1.0536198679883568e-13 2.9590063127843908e-18 -1.7266548995422791e-18  4.1018937407643954e-15 2.0582157766292870e-19 -7.6952749692475498e-19  1.3351274572481011e-15 4.3482334522296956e-20 -2.2466695697676231e-18  1.1760593669110877e+00 7.1865325966481642e-07 -2.0088799588695580e-06  3.4682475522246158e+01 7.0679254600322641e-03 -2.1784338897293332e-03  -1.2652333761550903e-14 4.4799837939215117e-18 -1.3079057535925622e-18  4.6986153155980558e-15 5.8921480221820633e-19 -8.7935187277812830e-19  2.1294916784913472e-16 3.1081118105651316e-20 -2.2447814479707556e-18  1.2682722091084542e+00 2.4224426321722094e-06 6.4842371692742682e-07  2.2202871605878563e+01 4.2909680674311111e-03 -1.2949146906570204e-03  6.3763859388244420e-15 7.8081789238908468e-19 -1.1720893602057628e-18  -1.0068381774437676e-16 2.5966717688971079e-19 -9.1207951891552397e-19  1.2734862096367639e-15 7.1871105149953737e-20 -2.6911481569626529e-18  1.3190778084035764e+00 3.5868009807623918e-06 1.8401041937475142e-06  1.3462299748954406e+01 3.6426641878674736e-03 -1.0788002090375347e-03  -1.5506098637931463e-15 -2.5074059917097629e-18 -6.3827675155459976e-19  8.5712147982520207e-16 1.4781367498483711e-19 -1.2598311366298863e-18  3.9357632957832135e-16 6.8370287120633125e-20 -3.5693283933274542e-18  2.8857818651466944e+00 1.1097806234983562e-05 9.2691309396059161e-06  9.5056997795469249e+02 -5.5105817343758402e-03 -2.7456919945643009e-03  7.7824215012796342e-14 -8.5623068525854877e-19 -5.9835220458257805e-19  7.9459989114591114e-15 -2.4360727539249953e-20 -5.9044626337561282e-20  1.6270558383179742e-15 -5.4997896396527447e-22 -3.0592157217339855e-20  1.0127080484478219e+00 -2.6851661399316039e-06 -6.0926737169584526e-06  4.3732267114235555e+02 3.8920916831150705e-03 -1.9621854619817163e-03  6.3240405427535524e-14 -6.8906588021301257e-19 -8.6847480598117021e-19  1.7519556616886301e-14 5.2769418060940731e-21 -1.5599908311252381e-19  3.6747513347563695e-15 -6.1844399420060025e-21 -7.7099351277008149e-20  5.7205658054348307e-01 5.3930563055717685e-07 -2.9747983069093096e-06  2.9128869868422879e+02 5.5937265901108606e-03 -1.4514246833570003e-03  1.1419420781576018e-13 4.2593596936488243e-18 -1.0648399234122061e-18  3.0984263921586809e-14 1.2655499873566956e-19 -1.9356937075551765e-19  6.1016628643897886e-15 -6.0911136089531460e-21 -1.4558495398964148e-19  7.6254457021092859e-01 1.1342177556008505e-06 -2.8929618207473008e-06  2.0722790807276905e+02 6.3634468378530040e-03 -1.4596910299975916e-03  5.7011414012601377e-14 9.5717494847222377e-19 -6.1951059427076013e-19  2.0558578328964252e-14 2.6176180450512346e-19 -2.4780931569186721e-19  7.6537704786858434e-15 5.4194908364549632e-20 -2.6494447696415919e-19  8.8051073299424565e-01 1.2976345645352989e-06 -2.2447928122476206e-06  1.7066393548062035e+02 5.3735240057823912e-03 -1.1870239669422020e-03  9.8459380734788784e-14 1.5654957504848294e-18 -7.2945587143688729e-19  1.2966928636489966e-14 7.8263825775351095e-20 -2.8338497550327373e-19  3.5060994571980268e-15 4.2004303349870632e-20 -3.3067426076499111e-19  9.3674670470637378e-01 1.4757122506139355e-06 -1.7021352955362902e-06  8.4609886408315859e+01 7.9865238038465923e-03 -1.6840925334245932e-03  2.5429456435288562e-14 2.6192648945926040e-18 -9.9405051833858828e-19  1.1109034914315421e-14 2.9881444358034652e-19 -2.7088756259903974e-19  2.3507251464969479e-15 3.6929868107799033e-20 -2.5700247312747998e-19  1.0997818998155187e+00 2.8167709558821142e-06 5.1663002119955483e-07  4.2185287416952995e+01 7.8501873013934100e-03 -1.6273892949623021e-03  3.8924804787015210e-14 2.9697269277202767e-18 -4.4545903915804157e-19  7.3707668004132655e-15 5.2522242334946165e-19 -2.4988134712182635e-19  2.9732310349233608e-15 8.0803427930990089e-20 -2.5900795294403223e-19  1.2125520381246710e+00 4.7164177406827762e-06 2.3146359129602741e-06  2.8021825895667348e+01 5.5642538582669166e-03 -1.1285839222796997e-03  2.1337403918095407e-14 4.8656577741223246e-18 -9.4507798457054171e-19  2.6521135433731595e-15 4.9316134066964372e-19 -2.6430858945784586e-19  9.5860244287551376e-16 1.0712215706288098e-19 -2.8307686248950756e-19  1.2741177524706813e+00 6.0527013569722930e-06 3.2552956330415903e-06  1.9822686425475165e+01 7.9771409410974627e-03 -1.6111093620655216e-03  2.5389564479089288e-14 2.9018166029503955e-18 -1.7433257472702989e-18  1.5062450567683164e-15 3.2847028811352388e-19 -3.0420325436726810e-19  7.1608007839063390e-16 4.9070643023271806e-20 -3.8855040660374796e-19  2.8407018480505433e+00 1.6403670441600713e-05 1.0156151303772834e-05  9.7867550169284573e+02 -6.2891751716059995e-03 -1.2133229272075436e-03  2.9309810913318639e-13 -3.7409556764206948e-19 -1.4879553934221473e-19  1.1569215220082014e-14 -2.1147088212528373e-20 -2.2296386484948395e-20  1.4038488346683175e-15 -1.5909882841413167e-22 -8.9581692186495897e-21  8.6728401977900071e-01 -1.6314616761845190e-06 -3.3378858909958919e-06  4.5270330260833964e+02 3.9875771203653721e-03 -1.0123090546501948e-03  1.6483244840644727e-13 7.4713117830960602e-19 -4.5433401397175847e-19  3.0196404772528333e-14 -2.9758935123834285e-20 -7.8463593643428547e-20  2.4851080531220715e-15 -4.0304801388496540e-21 -1.7608276737845336e-20  4.9909636743045976e-01 5.0730173502798898e-07 -1.4773032730308139e-06  3.0486589636777336e+02 6.4039877065398161e-03 -1.0212381035044639e-03  3.1782678858960425e-13 1.4850768206427247e-18 -6.3728314871200395e-19  1.4234662792797570e-14 2.5927208106350795e-19 -1.4907312410008147e-19  3.2403335886995112e-15 1.4892640578945619e-21 -3.2912735679469826e-20  6.8973897754030655e-01 1.3810880520348667e-06 -1.1974426217340194e-06  2.1844483698104642e+02 6.7713102015952579e-03 -9.8526475988539638e-04  1.5853101634700282e-13 1.8644210600963906e-18 -2.7708093758474922e-19  2.2516881491376619e-14 3.5906408945047545e-19 -1.1078229903375337e-19  3.8522332903676093e-15 8.1884865483942244e-20 -4.7605877953418481e-20  8.1141719650472932e-01 1.9712677720432623e-06 -6.6037801672603783e-07  1.8135389287695259e+02 6.1233603674691467e-03 -8.7646977180554152e-04  1.2546802614072376e-13 2.7895882498778237e-18 -3.2514671020772943e-19  1.1045046086705256e-14 4.5168585640437451e-19 -1.1066523696802910e-19  1.5495154764424188e-15 3.8354973635644708e-20 -4.5826708568015648e-20  8.7094903523760259e-01 2.3548845738269061e-06 -2.7966729042606168e-07  9.2893028538266336e+01 9.2460166229233840e-03 -1.3530204729523701e-03  6.6069082262138230e-14 1.5556159142096485e-18 -7.2585053696730798e-19  1.4031599396713435e-14 5.1416712322248510e-19 -1.1216191828538963e-19  2.7869496860580452e-15 5.5168698641248004e-20 -5.1216978065202345e-20  1.0491154031214871e+00 4.1330774160072249e-06 1.1860660153927374e-06  4.7008363520033214e+01 8.5952171366508456e-03 -1.2911391732130649e-03  1.0830123311272148e-14 5.0822196759004476e-18 -5.9696990670575359e-19  7.0980037795535022e-15 4.9594870641704996e-19 -6.3296908069524314e-20  2.1086971956761262e-15 7.6418393550579824e-20 -4.9580981529840485e-20  1.1747942471192980e+00 6.0829858757849325e-06 2.3466204579342232e-06  3.1019329771876215e+01 6.1799869734770509e-03 -9.2499157429273154e-04  1.0820920854317797e-14 5.4501922362873210e-18 -4.3159188028349582e-19  1.8695679948607018e-15 5.5786805402201933e-19 -9.3773609946246518e-20  1.9560545222289421e-15 1.0452156301032431e-19 -4.5258681248201823e-20  1.2431759253257764e+00 7.4356534012444745e-06 2.9095343711075818e-06  2.1943897795712285e+01 7.2297652158242916e-03 -1.0132567319252189e-03  1.6870831196671313e-14 2.3366611474966316e-18 -1.2520124047547726e-18  3.1857771517989302e-15 4.2462028170574143e-19 -1.3751007607424850e-19  1.3086631789334057e-15 1.4546739915405493e-19 -7.0868227324826444e-20  2.8076577901148934e+00 1.9340121305349698e-05 8.1170799473959074e-06  9.8698409833544133e+02 -6.6002216313656844e-03 -1.1621370191326134e-04  1.3642908851632382e-13 -2.1751947733136868e-19 -5.1217202596381811e-20  1.5227152162686053e-14 7.2368533733696445e-21 -9.0321797667957443e-21  1.8892697941886973e-15 1.1892095941536458e-21 -2.3145612636668562e-21  7.0177460965221838e-01 -7.4103377460889577e-07 -8.4422900268486485e-07  4.5730356292864042e+02 4.4494968276780145e-03 -1.6031142522600776e-05  3.1102897674352614e-13 3.3253119818506006e-19 -2.3398157974652933e-19  2.6051813960372669e-14 1.1029421324210405e-19 -2.8904622630233880e-20  5.2637409800317860e-15 6.8539359663311311e-21 -4.9673493419967533