<?xml version="1.0"?>
<VTKFile type="UnstructuredGrid"  version="0.1"  >
<UnstructuredGrid>
<Piece  NumberOfPoints="405" NumberOfCells="1536">
<Points>
<DataArray  type="Float64"  NumberOfComponents="3"  format="ascii">0.45 0 -0.2  0.475 0 -0.2  0.5 0 -0.2  0.525 0 -0.2  0.55 0 -0.2  0.4537216647460619 0.02825680678092751 -0.1981900046428564  0.4772970717154698 0.02646182487407232 -0.1990212827667389  0.5015651520204276 0.0252494927343017 -0.1999868503734431  0.5263534539596685 0.02393286147782458 -0.2010975906369786  0.5516337823006523 0.02172993094956548 -0.202237426033217  0.4573506940910678 0.05529567812363803 -0.1980633843900875  0.4809090231060109 0.05249533900506989 -0.1990094617154526  0.5050272692529401 0.05023961665182798 -0.2000983788661597  0.5296514169090221 0.04789251477710622 -0.2012680139889798  0.5545619771806999 0.04464530625108264 -0.2024715978489245  0.4617476006686651 0.08137833169133672 -0.1983199655016736  0.4853220072686401 0.07786101229438218 -0.1992085848924084  0.5093834283815026 0.07481394248469553 -0.2001998161674869  0.5338362652650271 0.07165973445735101 -0.2012250251997407  0.5584191236547856 0.06774099901933153 -0.2022480473845389  0.4665219054867045 0.1066817128307119 -0.1986691076497615  0.4901293679930779 0.1026930169003234 -0.1994357241233588  0.5141391370235598 0.09907746428577885 -0.2002816226635675  0.538434137216152 0.09535570059785232 -0.2011384837272917  0.5627746993138992 0.09104944675135596 -0.2019773630596102  0.4713370287609781 0.1314546390326582 -0.1989645738767908  0.495035873223174 0.1271876844541316 -0.1996322695914343  0.5190136923979252 0.1231802480372232 -0.2003527937886675  0.5431873801760525 0.1190896941167075 -0.2010734725637617  0.5673707957385554 0.114595851535223 -0.2017754663227379  0.4760549376508053 0.1558818156967041 -0.1991710748918117  0.4998675878911424 0.1514729077942783 -0.1997844684895368  0.5238523989306874 0.147221900233699 -0.2004203002096364  0.5479520725038641 0.1429158309127083 -0.201048259531969  0.5720467711085327 0.1383602779710909 -0.201665671416129  0.4806460825465199 0.1801065208435557 -0.199315438884806  0.5045725114518559 0.1756386091122091 -0.1999097133858519  0.528587656186882 0.1712591088509376 -0.2004893968178416  0.5526523911498475 0.1668509531578837 -0.2010559779004933  0.5767033853656928 0.1623012566810885 -0.2016333212161369  0.4851687255073476 0.2042297435885375 -0.1994413856370359  0.5091273699919698 0.1997557035039186 -0.2000321952240053  0.5331641635543748 0.1953381950782851 -0.2005582177316341  0.5572446234252189 0.1908893552357565 -0.201066709317797  0.5812999417297313 0.1863452782120782 -0.2016320742674196  0.45 0 -0.175  0.475 0 -0.175  0.5 0 -0.175  0.525 0 -0.175  0.55 0 -0.175  0.4542270140623924 0.02797716306432192 -0.1739031481848399  0.4778687114759197 0.02625499924016074 -0.1744043134621922  0.5021876078097331 0.02518840165177834 -0.1750127255191952  0.5270941987150051 0.02410444444609965 -0.1756918109940253  0.5527305828683616 0.02198771612261009 -0.1763767247124795  0.4580508112228667 0.05509302611519105 -0.1736216590390011  0.4816687509912279 0.05230836713267876 -0.1743144653666819  0.5058414928141789 0.05007156416874434 -0.1751168325601353  0.5305366125285187 0.04773996497943321 -0.1759634367625713  0.5556053601131221 0.04443748888792951 -0.1767711298931635  0.4624556635886246 0.08122857148735219 -0.1736909935299978  0.4861057906117895 0.07769416579314449 -0.1744072707029917  0.5101899793167587 0.07458643723098969 -0.1751991488619676  0.5346522275958085 0.07135794390525596 -0.1760121509801872  0.5592724495480059 0.06738370104362736 -0.1768022508925248  0.4671780922133486 0.1065611824939973 -0.1738652982532582  0.4908630521744172 0.1025384510526838 -0.174546955824194  0.5148759960596012 0.09884249885229313 -0.1752684807129559  0.5391486475145258 0.09503809234289139 -0.1759984127304585  0.5634790434610292 0.09069851840629121 -0.1767187937541078  0.4719441560982061 0.1313374631422575 -0.1740371850654575  0.495707456422603 0.1270384397093131 -0.1746813001092225  0.5196802917332547 0.1229618509930165 -0.1753352763675405  0.5438238277802279 0.1188050856360722 -0.1759895569612485  0.5679828570263026 0.1142917568766033 -0.1766451756325398  0.476644168314187 0.1557612313570274 -0.1741747351329044  0.5004974826793721 0.1513266012961109 -0.174797943174134  0.5244696206280024 0.147024257299279 -0.1754049006444064  0.5485410850225061 0.142669313283328 -0.1760057137418228  0.5726118527173212 0.138098612541829 -0.1766196842457075  0.481245826045797 0.1799820275727666 -0.174289061690498  0.5051840352193038 0.1754981894546412 -0.174906274890142  0.5291763962256988 0.1710791002516477 -0.1754795199532866  0.5532172966300226 0.166627997697293 -0.1760419993264001  0.5772533285976643 0.1620587041095236 -0.1766368634925643  0.4857670722513566 0.2041074797121861 -0.1744227984130074  0.5097524732179399 0.1996235835178062 -0.1750257628286125  0.5337579619073696 0.1951612197411719 -0.1755565860264386  0.5578077291675151 0.1906630889105114 -0.1760765440210639  0.5818538841223647 0.1860963882613201 -0.1766561981430524  0.45 0 -0.15  0.475 0 -0.15  0.5 0 -0.15  0.525 0 -0.15  0.55 0 -0.15  0.4546387617170237 0.0279753708429593 -0.1493527638084743  0.4781387045099185 0.02620019714677137 -0.1496590906786836  0.5024217570076308 0.02516693742537052 -0.1500155969666231  0.5273717339255664 0.02410745492085862 -0.1504110215043648  0.5531390334248126 0.02183502484598461 -0.1508056212117893  0.4586140905306789 0.05501714875149703 -0.1490689008769341  0.482136613896948 0.05221396502031948 -0.1495420722084289  0.5062925451057059 0.05000564485021469 -0.1500869600396658  0.5310491261579608 0.04768442654997019 -0.1506579989908441  0.5562252528085349 0.04428483241316541 -0.1511877138215619  0.4630873196801418 0.08111977046046155 -0.1490212809419347  0.4866793717284003 0.07757507695664877 -0.149570537418749  0.5107552559911135 0.07446927542054847 -0.1501649216722239  0.5352523907806425 0.071226957704856 -0.1507752421708788  0.5599323841537817 0.06721707186357766 -0.1513605735259516  0.4678325503713505 0.1064378461224546 -0.1490676266770498  0.4914813080137436 0.1024033677199154 -0.1496462816501234  0.5154822776466126 0.09868914368079988 -0.1502377338538834  0.5397626186829906 0.0948590786673863 -0.1508372503867847  0.5641141234212951 0.09050848190165561 -0.1514298107395573  0.4726047755112067 0.1312135131942555 -0.1491380010584079  0.4963409192575995 0.1268959299555817 -0.1497318603259686  0.5202961771119208 0.1227905682465781 -0.1503099249944853  0.5444299517655616 0.1186040205938937 -0.1508895091847107  0.5685862346225012 0.1140842129167117 -0.1514770890596441  0.477314720034506 0.1556437044759124 -0.1492094067422564  0.5011408733069289 0.1511820109317995 -0.1498180241014075  0.5250898322933144 0.1468452823189095 -0.1503860973236288  0.5491416749525716 0.1424578447788535 -0.1509496572269942  0.5731962772087172 0.1378751761904429 -0.1515361715670782  0.4819403683055521 0.1798771939603085 -0.1492880132368642  0.505846438330525 0.1753539032434139 -0.1499133281937388  0.5298101467872055 0.1708941198854174 -0.1504683901355728  0.5538251767678988 0.1664060070375783 -0.1510145292086867  0.5778370964460258 0.1618144274465867 -0.1516059812551488  0.4865099514033632 0.2040116806832358 -0.1494268894892296  0.5104556663465986 0.1994743032034932 -0.1500423855881876  0.5344285730925262 0.1949634534071417 -0.1505569843025604  0.5584440764433048 0.190422366456409 -0.1510653758727605  0.5824565883800431 0.1858240859298847 -0.1516475449401351  0.45 0 -0.125  0.475 0 -0.125  0.5 0 -0.125  0.525 0 -0.125  0.55 0 -0.125  0.4548795471947529 0.02802758098517049 -0.1246058751279639  0.4783012239512857 0.02620293460157033 -0.1247878711316255  0.50255764197159 0.0251610336912121 -0.1250032706613038  0.5275235275594458 0.02409101948470233 -0.125244590026975  0.5533430497921463 0.02170452710783367 -0.1254945807717028  0.459001110707521 0.05503959354939757 -0.1243844864629745  0.4824546745198163 0.05219167343175669 -0.1246941189245651  0.5065904516945552 0.0499751919582656 -0.1250514785520677  0.5313706208899759 0.04763088603212924 -0.1254244057617363  0.5565822020893617 0.04412510583360308 -0.1257695374111751  0.4635731100641413 0.08110295337130663 -0.1242879059238737  0.4871174075463349 0.07752080556010045 -0.1246872800620344  0.5111776551263649 0.07439929240881528 -0.1251173625360807  0.5356877338800302 0.07112943626139968 -0.1255559149294809  0.5603848938370325 0.06705328244938959 -0.1259778590259339  0.4683855079970512 0.106391330694729 -0.1242559974656274  0.4920007187244859 0.1023210601646467 -0.1247198207825681  0.5159845910216168 0.09858212726744048 -0.1251908769751723  0.540263189965111 0.09472249327484671 -0.1256652324471237  0.5646157617942925 0.0903307580833439 -0.1261366952221454  0.4732067980766372 0.1311484485880079 -0.1242548758224534  0.4969157602183613 0.1267932167471755 -0.1247707423090348  0.5208494592225719 0.1226553792567059 -0.1252703370705582  0.5449696798650812 0.1184365314188745 -0.1257684727462514  0.5691145284453354 0.1138852144582208 -0.1262761418030164  0.4779615142084908 0.1555707607376695 -0.1242746931984157  0.5017597522504855 0.1510656844521496 -0.1248351502559998  0.5256818841472684 0.1466895003087074 -0.1253560766876136  0.5497117836890633 0.1422655447119999 -0.125870852443785  0.5737460965346693 0.137651504945278 -0.1264095689517399  0.4826395272592559 0.1798051504512365 -0.124324435567518  0.5065112906543168 0.1752276604546336 -0.1249221562293911  0.5304416978242739 0.1707210982501351 -0.1254482658181888  0.5544281821956276 0.1661908227321695 -0.1259648788369005  0.5784131267588335 0.1615625042549647 -0.1265296182487788  0.4872825974597231 0.2039383378524222 -0.1244635717966255  0.511179350345248 0.1993350492582646 -0.1250576362566259  0.5351098692145888 0.1947711855412387 -0.1255463531700766  0.5590896861618151 0.1901820186549993 -0.1260287713501247  0.5830688546331767 0.1855385966520067 -0.1265909447480542  0.45 0 -0.1  0.475 0 -0.
[...]
<PointData  Vectors="traction"> 
<DataArray  type="Float64"  Name="traction"  NumberOfComponents="3" format="ascii">3.7732445222962015e+03 -5.0051826931564049e-02 -1.1448891502748637e-01  2.8013627993069083e-13 -8.5521922634238359e-18 1.1806668118267952e-16  1.4525610700670302e-14 -2.3779679359017650e-19 3.5722082707347451e-15  1.2171692632366016e-15 1.4732860450265754e-18 5.4239207511753723e-14  1.3251528607111182e-01 2.0613105249825417e-02 4.2391554673801880e+02  2.4104530005477077e+03 2.2104398262860802e-03 -8.1281591972548667e-02  5.4421927706567493e-13 -5.7603888002888206e-18 6.5936297520591815e-17  4.8119263886201640e-14 -3.7850066902416207e-19 8.4253965389206748e-16  2.8535344596378155e-15 -1.5245920025124504e-18 1.3564194576155740e-14  5.7052916084659309e-02 -2.3845047235542566e-02 1.3142146519275403e+02  2.0905375915620816e+03 1.3033758339694302e-02 -7.8970429144256643e-02  6.2200188903049704e-13 2.5984136047723238e-18 -3.0863291905797629e-18  1.2329964541874458e-14 -1.1178075142485639e-20 2.9091329802022036e-16  2.0515919918389763e-15 -1.0288175614074255e-19 2.0843228054404110e-15  -6.1718985965103867e-05 -3.4035218564936408e-05 -3.3764369469214905e+00  1.8910038269463064e+03 2.1470305531813703e-02 -7.3344067021391138e-02  3.9847197495556428e-13 3.9009214013887939e-18 -4.5888300476715014e-18  4.3885939833887706e-14 2.7142967102117299e-19 1.6873623601733403e-17  1.9582470719294871e-15 -4.7329519836099388e-21 -5.9459898802792526e-16  -1.1355611138341453e-04 -4.8020788305541101e-06 -3.9567316148984868e+00  1.7823317226415156e+03 2.6915833813459477e-02 -7.1827003222612651e-02  6.5722922601476540e-13 4.8418626357873243e-18 -2.3839236504604125e-17  2.5591800247459872e-14 2.2797028132916653e-19 -4.0227436004272572e-17  2.9069132442201100e-15 2.4673843788062797e-20 -5.7868641839256416e-16  -1.2164870657276034e-04 -5.4245745582313763e-06 -4.2214542035973706e+00  1.3492956966557119e+03 5.4063627415606108e-02 -7.0996763166768506e-02  3.4485365755316008e-13 1.0645065084761026e-17 -1.8144997303569925e-17  3.1214190911051512e-14 3.7170554688131443e-19 -5.6528925764191092e-17  3.3913758832516833e-15 3.4572598229041785e-20 -6.0239475121827255e-16  -1.1141452128833655e-04 2.5242642311276388e-05 -3.6350477333715392e+00  8.8189435558467414e+02 7.6536969816694653e-02 -6.7279152834527997e-02  2.7414167540319742e-13 1.2206612482918351e-17 -2.0396431758308386e-17  2.1991683154120799e-14 7.2081008218735678e-19 -7.0891163153417683e-17  2.7773491492743866e-15 5.8222177894532274e-20 -9.5989470003427053e-16  -1.0595346035170566e-04 -1.0928708668989760e-05 -3.5371682138939282e+00  6.1098060542364203e+02 8.6512815758347267e-02 -6.4924918954244293e-02  1.5674033622372738e-13 1.6547908815963781e-17 -1.8117759377020832e-17  1.6662518121650057e-14 1.2138355675912699e-18 -8.0048904324595857e-17  2.5754882596132904e-15 1.0694687867330993e-19 -1.2418833927776847e-15  -9.8099583407556718e-05 -5.0378639423175225e-06 -3.3913239370676740e+00  6.5953404565043263e+02 2.8217929336505138e-01 -1.7318306661865193e-01  2.2519063426316334e-13 3.3163074796558246e-17 -4.4913566373520775e-17  1.8256251108583894e-14 -1.1633538051109067e-19 -3.2417336817704561e-17  2.7395662909699518e-15 6.0746808833236397e-20 -6.1634188044494021e-17  -2.7251011741670115e-04 -4.4791952670363776e-07 -9.6492148797104971e+00  2.5154963481974646e+03 -3.3367884621042697e-02 -7.6325943351657599e-02  4.8905668038074439e-13 -6.3311959694778972e-18 9.7979175812849406e-17  5.0869677519182472e-14 -4.9109582563300648e-19 1.2127191971199730e-15  3.0407096695702812e-15 5.1191024011243528e-19 7.0847688421469318e-15  -2.8395954913288723e+00 3.0655551053821051e-03 3.2752376224425548e-04  1.2052265002738557e+03 1.1052199131430429e-03 -4.0640795986274389e-02  9.9007652663416494e-13 -3.9534812642196355e-18 -2.2003553323178498e-17  9.0053598635022667e-14 -8.5238186819667315e-19 3.7775042694022671e-16  8.3219009089686950e-15 -1.0962313411238842e-19 4.3756151763827209e-15  6.9692858384357770e-01 -2.6085775333589033e-04 -4.2645501918104724e-05  1.0452687957810401e+03 6.5168791698471482e-03 -3.9485214572128287e-02  -1.1910964224200845e-13 7.8077037782940047e-19 1.2379944348209573e-17  3.2367155027667636e-14 1.2951309271913586e-19 1.0881742439712160e-16  1.0164557672510224e-14 -9.5832334329990719e-20 1.4688201713701905e-15  6.2334796195607312e-01 -3.0920854324948876e-06 -4.0791226652855240e-05  9.4550191347315229e+02 1.0735152765906846e-02 -3.6672033510695548e-02  1.0184249573046584e-12 2.2815651024189831e-18 -7.0835416025664113e-18  6.8884635141424671e-14 1.1943719582214519e-19 2.4201967230243548e-17  8.5677488229270856e-15 3.4626293569448567e-20 1.8904146315256240e-16  7.0145202503811088e-01 3.6196944023919464e-06 -3.2952689618938471e-05  8.9116586132075838e+02 1.3457916906729737e-02 -3.5913501611306325e-02  5.5620242944579043e-13 9.9372815398281909e-19 -2.8039536189607101e-17  6.5115858874042263e-14 4.9990760490281555e-19 -1.1210529485341407e-17  7.4158242013775853e-15 5.5843466164274863e-20 -1.0824227219156386e-16  7.4449668275352321e-01 5.1334148222863433e-06 -3.5422737146117192e-05  6.7464784832785585e+02 2.7031813707803082e-02 -3.5498381583384267e-02  4.5650827709772484e-13 6.5357157417090582e-18 -1.8991323231049083e-17  5.5144701684966382e-14 7.1769999284812708e-19 -1.8610703262820396e-17  1.0792976837078955e-14 7.4389475302182314e-20 -1.2100167507137711e-16  9.4347512867791206e-01 5.8035198696438174e-06 -3.0477073485032685e-05  4.4094717779233730e+02 3.8268484908347312e-02 -3.3639576417263971e-02  3.8232368011321497e-13 6.6466361535869672e-18 8.8612182209239192e-18  1.8623979090149778e-14 9.3552566854866718e-19 -2.7255082589775563e-17  5.7010245531870182e-15 1.9739006584886928e-19 -1.5648308978062443e-16  1.0515298834353244e+00 6.8574962668683492e-06 -2.7231084392096383e-05  3.0549030271182085e+02 4.3256407879173599e-02 -3.2462459477122146e-02  3.3291810426367614e-13 3.5874369311161345e-17 -3.6128630963615414e-17  1.4170466106812944e-14 8.8882833062223925e-19 -2.9676924838461034e-17  3.2330885403204244e-15 4.1181306405806642e-20 -2.0034051184064806e-16  1.1085184595199740e+00 9.0811649850580284e-06 -2.6063047069010406e-05  2.1984468188347788e+02 9.4059764455017153e-02 -5.7727688872884028e-02  2.8681313855097917e-13 -3.5380536700282887e-17 -3.5595821066382168e-17  1.1609598712290264e-14 2.1282939218040086e-18 -1.4889339267592479e-17  3.0992977977594868e-15 4.8026076163648515e-19 -1.4576158454991434e-16  2.4857415162858558e+00 2.9090277163497395e-05 -4.3632707501245827e-05  2.9382309154063792e+03 -1.5123898031798757e-02 -4.6899370848950378e-02  3.4793088533677883e-13 -2.1570732096984162e-18 2.6090517015935253e-17  3.9272162945240294e-14 -1.9565411991955394e-19 2.1748932481255288e-16  4.8800067941644346e-15 1.1230262728591805e-20 4.4292884378567603e-16  3.9705007476681292e-01 1.1049560843661016e-06 9.7466003388785707e-06  1.4127964554685725e+03 2.2663573156403967e-03 -2.7023557641009451e-02  9.7376379717267935e-13 -4.6761190369170380e-18 -5.2929806206200284e-18  5.1299114842657144e-14 -3.9889797257984654e-19 1.4392502209959280e-16  8.3094060190463029e-15 -7.1628060165279777e-20 1.0785365079538319e-15  3.5022084337424264e-01 -2.0682770179432103e-06 -1.4777443420661132e-05  1.2350284675589846e+03 9.1614814150321553e-03 -2.8648126618024142e-02  -4.9168229202259957e-14 -1.1889343566090889e-18 -1.7371825299079849e-17  6.1327943231957961e-14 1.5429763565574911e-19 3.7148569673484230e-17  1.4932012973641068e-14 1.0764053843422285e-22 2.4861132009632028e-16  5.4314777331062170e-01 1.1652364139942315e-06 -1.8263512354041647e-05  1.1093050768633505e+03 1.3232742381368439e-02 -2.4722134666958717e-02  5.4056083497564485e-13 3.5422838211305616e-18 4.4279973478815684e-20  5.4859834383979596e-14 1.5393137477747341e-19 6.0470502446551885e-18  1.9232332753879666e-15 5.0223381014208849e-20 5.9290806753244361e-17  6.4630133412509383e-01 2.3152156746723572e-06 -1.6797242484096389e-05  1.0434214623031996e+03 1.6206323336540533e-02 -2.4297919562423755e-02  -1.0331260092480440e-13 3.7789769499128100e-18 -1.3243711524186004e-17  4.3248212577387724e-14 3.1906478200139632e-19 -1.8208727460560551e-18  1.5533246033303357e-14 6.1996147785776119e-20 -3.8935810544582652e-18  6.9984210230905164e-01 3.3839817677353692e-06 -1.6993760816320627e-05  7.9801638653206533e+02 2.7830182690747045e-02 -2.2685233056887241e-02  2.4167496384140560e-13 6.7249997292272322e-18 -9.4529642888612740e-18  6.0295210835927007e-14 7.0184855002854461e-19 -5.8946428431678091e-18  1.1917376366206909e-14 8.4436694576687252e-20 -1.7924541951294207e-17  8.7342803926024659e-01 6.7396227130597374e-06 -1.7053239687968130e-05  5.5587181418183445e+02 4.1472886992122322e-02 -2.3630380022265616e-02  3.0254919549866183e-13 2.4447244577918091e-17 -1.9672483714009836e-17  6.9319582241697276e-14 1.2386205358376190e-18 -6.6652501111658012e-18  7.0373447503875011e-15 1.5046247952221422e-19 -1.7342512669316485e-17  9.9527606415533165e-01 9.6781428787928877e-06 -1.5584642531141183e-05  4.0717780441149773e+02 4.6491702603661679e-02 -2.3331809331894764e-02  3.1385474639139478e-13 8.0276694602330914e-18 -1.9085225295955142e-17  5.2610219601917652e-14 3.1340072223798612e-18 -7.9634609748996445e-18  7.4059788494083779e-15 1.0671656616692087e-19 -2.3880126921806012e-17  1.0599037000603897e+00 1.2368589827192243e-05 -1.4578613792454850e-05  2.9818760617219232e+02 1.0170559197160442e-01 -4.3104216394378302e-02  -7.3531317099899855e-14 4.1378983793294373e-17 -1.8904705599063144e-17  4.7210206002010253e-14 -1.0179885320282631e-18 -7.8537233941408786e-18  9.4393094362743299e-15 8.1589414012643136e-19 -3.9968327634260094e-17  2.4386361687382889e+00 3.6824138266169501e-05 -2.4076861905570066e-05  3.1350238592889768e+03 -1.4973540901648890e-02 -3.7171314339085090e-02  9.4060614044659340e-13 -1.6365223536715521e-18 -3.4987719285391799e-18  4.5383421253666139e-14 -1.8615485264630941e-20 1.7329932590164027e-17  2.7897073147198931e-15 1.4187302664680017e-21 3.1524173159608436e-17  3.9671163568906537e-01 2.4760284600052325e-06 -2.7857828995644725e-05  1.5113943162559256e+03 2.5886849242618597e-03 -2.0729750632556287e-02  3.8914929284857201e-13 3.4595182921300699e-18 2.1935487377563961e-18  6.7804468365832922e-14 -7.6820347952224399e-20 3.0100361045565712e-17  6.7384362168485320e-15 -2.4925658998444738e-20 9.3100084069631915e-17  2.7199845438111891e-01 4.5558979944830595e-06 -1.9245086000271987e-05  1.3300107690265222e+03 1.1069200055617985e-02 -2.2988512013496023e-02  8.2857248531608323e-13 4.1296551008215984e-18 2.7980206833047524e-19  5.2228627702722138e-14 1.1879000648685810e-19 9.7888980029043823e-18  1.5147733398602749e-14 -4.2359174520123221e-20 6.3574786073499020e-17  4.8463867290236318e-01 2.7469974178784053e-06 -1.7653093110813576e-05  1.1973769004556384e+03 1.5478871574484259e-02 -2.0251036281216574e-02  2.9198015574698015e-13 7.7651153277952957e-18 -5.7985878251815322e-18  3.3904592303619132e-14 3.3908698713957673e-19 2.2266714352035210e-18  3.1791538960561255e-15 -2.7130612582198501e-21 1.2923744255849034e-17  6.0094688866878765e-01 3.9763729651384812e-06 -1.6432673007624102e-05  1.1278983769223532e+03 1.8439964627687641e-02 -1.9844841099002176e-02  5.1705169843482199e-13 -1.6609648001735389e-18 9.4497527990041938e-19  4.7493710737476603e-14 4.7293891261485491e-19 -1.0146523717488288e-18  9.2117677854212555e-15 8.7319822846505574e-20 1.4825226873121565e-18  6.5915124163282346e-01 4.7547922881613290e-06 -1.5792695597711478e-05  8.7548581039466796e+02 3.0215075439745685e-02 -1.9160977189582321e-02  -9.2858261168361331e-14 1.1791341281274395e-18 -6.2994137649042977e-18  2.6645766835022702e-14 6.2118396029657327e-19 -2.3760400764935286e-18  5.1072549369951178e-15 1.6017382828057175e-19 -1.5437683245644431e-18  8.3986013039452856e-01 8.0238400861949015e-06 -1.3832081491285912e-05  6.3401382667020550e+02 4.3623865164961473e-02 -2.0373022664306156e-02  7.6677304457885347e-13 1.3780599760141893e-17 -1.0890439479176172e-17  3.6544701206654724e-14 1.9508102730882404e-18 -1.5685106230660755e-18  6.8608103033414108e-15 2.2787642947406786e-19 -1.9545402419384026e-18  9.6780836950892202e-01 1.1270370890645799e-05 -1.2391997659213997e-05  4.8657363146098527e+02 4.8979015442241786e-02 -2.0335577860396858e-02  4.2289567661570015e-13 6.3914962526215860e-18 -9.6442677657283553e-18  5.0236568415345725e-14 2.2227148571605200e-18 -2.0858297906269836e-18  9.5463392432715061e-15 6.2096599019589747e-19 -2.5772100569510132e-18  1.0360818724818299e+00 1.4489524292622885e-05 -1.1573618600410588e-05  3.8342744019051509e+02 1.0726683583005153e-01 -3.8084353384357519e-02  4.6920212938248071e-13 1.9899343303768538e-17 -1.6522528059999602e-17  4.0819100526567325e-14 5.2017453764796240e-18 -5.4140769012121422e-18  1.1259392467985770e-14 4.5311128256939649e-19 -4.7733655950785848e-18  2.4127292204466246e+00 4.1145479344749359e-05 -1.9270279826494008e-05  3.2144463088717102e+03 -1.1185497114346040e-02 -2.1648589462234930e-02  6.3098913286975840e-13 -2.2431036848948979e-18 -6.0174387764897096e-18  3.6597249567171244e-14 -8.9785301403457579e-20 7.9698003388208598e-19  3.8304584800489849e-15 -4.2622314364323488e-21 4.4118823316189737e-18  3.5939157577988284e-01 -5.7693980200385826e-06 -1.8232656080745342e-05  1.5507256615100218e+03 3.1189124197097038e-03 -1.3723933651466066e-02  3.5273500062204796e-13 -9.4781773618185428e-19 -8.4579140948541401e-18  7.4111471783602213e-14 -2.3238450122297353e-19 2.5147535097107713e-18  1.4226028141922178e-14 -1.1688490294641965e-20 6.1448063263260623e-18  2.4867390644851947e-01 2.6043330176371700e-06 -1.1308456510162140e-05  1.3662134948052146e+03 1.0727086299572218e-02 -1.3492783515801746e-02  8.6761344913437119e-13 1.1681232889525977e-18 -8.9556118819699171e-18  9.6821742939823449e-14 5.4899870738317909e-20 1.2390550233090695e-18  1.0527606219384385e-14 4.6691165711814725e-20 8.4146049046962678e-18  4.5117937200816521e-01 3.8016356276780472e-06 -1.0918410992107500e-05  1.2329727798292777e+03 1.7002568276082215e-02 -1.3892590184594687e-02  2.5763075615606599e-13 -1.7201717373046094e-18 9.1031165915497742e-19  8.3832243273424719e-14 2.9259949657049591e-19 1.8636996361471058e-20  1.3232344535266625e-14 8.2878924773285877e-20 3.0738288294536952e-18  5.7723299482036006e-01 4.7424094385237106e-06 -1.0082233956537465e-05  1.1613741110380779e+03 1.9551247567900595e-02 -1.3298489079736549e-02  3.4360394670698563e-13 5.2429801437721582e-18 -1.6307372640735917e-18  6.7545587327465432e-14 2.7030918161586798e-19 3.6362395499938620e-19  1.0976243978586832e-14 1.3416428760364176e-19 5.9213956663221371e-19  6.3911809596432390e-01 5.5263965794407160e-06 -9.7440699075113765e-06  9.0912502718332519e+02 3.1950879871687307e-02 -1.3252493437743561e-02  2.2013662638544334e-13 1.4936799258347405e-17 -5.7241654565647406e-18  2.9569787636535482e-14 1.9596625531683956e-18 -7.6297512052049179e-19  1.3044468072809242e-14 1.0030968164213435e-19 -9.0554614370453326e-20  8.2652730790321982e-01 8.9698845436906722e-06 -8.7234833611011930e-06  6.7473325439610426e+02 4.4413888617553840e-02 -1.4177630140107958e-02  1.8569276061407381e-13 1.6191123797962625e-17 -1.6191123797962626e-18  3.1072248684358753e-14 2.0110533585574704e-18 -1.0145659066159657e-18  2.2694926952991787e-15 2.0945107519863248e-19 -3.2311823984328790e-19  9.5810270273316012e-01 1.2432929942615169e-05 -7.8778803095516023e-06  5.2983101634630611e+02 4.9578147977381311e-02 -1.4302563254802595e-02  1.7767235057743483e-13 1.9910341896896498e-17 -4.1006967279019743e-18  3.4929214804621146e-14 3.7188382585032026e-18 -9.4422916294506868e-19  1.4456958779259544e-14 5.6058672600626511e-19 -4.6494164527841416e-19  1.0284729592281623e+00 1.5795804388366920e-05 -7.3958386830413388e-06  4.4312838274432039e+02 1.1154400061314039e-01 -2.8177599384093949e-02  2.4383476621549680e-13 2.0662408137279382e-17 -5.5499701983533675e-18  8.2306360778173320e-14 4.5614040315170715e-18 -2.5765440277420835e-18  1.5020779927588211e-14 5.9312069923589434e-19 -6.6274856158527161e-19  2.4082645556049957e+00 4.3708290485403807e-05 -1.2665597382674310e-05  3.2603283737626853e+03 -9.6177368737338335e-03 -1.7702425952750209e-02  4.2529410660911806e-13 -2.3180567887800796e-18 -2.8020577839403554e-18  4.4949368104395196e-14 -9.2187221281306368e-20 -5.5312332768783799e-20  3.5246168709900132e-15 -4.2203810650647302e-21 2.7740485075219378e-19  3.1725998391588150e-01 -4.1678213824092787e-06 -1.3717062792766225e-05  1.5740170655443249e+03 3.3046699661039573e-03 -9.9540302477880496e-03  8.3204183591691081e-13 -6.4358005830904778e-19 -4.9685510067881996e-18  6.4274561285463372e-14 -9.6350711092580729e-20 -4.8493070379017131e-19  1.0123723419582193e-14 -2.0670128998689405e-20 6.1133192312623871e-19  2.2604977597546014e-01 1.6928584626016202e-06 -7.9167013281031954e-06  1.3897445179223225e+03 1.1129633754524129e-02 -1.0011113628652722e-02  7.3266803095409363e-13 2.8642568789362983e-18 -4.9010702453849653e-18  7.9161249875797753e-14 3.7679346145818242e-19 -3.9459704673284141e-19  9.3322172357859553e-15 -1.4118815014220863e-20 8.2453879683049834e-19  4.2824181951383478e-01 3.9857594553448652e-06 -8.1825693799061307e-06  1.2583894773108382e+03 1.9881413095892454e-02 -1.1372556128158205e-02  -6.7968239938850568e-13 -3.3684444060453496e-18 -6.6832827006360218e-19  5.3867097733203714e-14 -5.8030634913127662e-20 -3.4066966565402956e-19  2.2941969586682128e-14 4.0782082554006883e-20 3.5970682081635636e-19  5.5802419551625726e-01 5.2937955953371676e-06 -7.8723242309935553e-06  1.1842442050995830e+03 2.1136268238259405e-02 -1.0038785912513417e-02  3.2100001741331668e-13 2.0477813321774658e-19 -3.3467010179531037e-18  -5.8611013831055279e-15 1.7097878325323764e-19 -3.9799633656351425e-19  7.2197936828009444e-15 8.5065342058526719e-21 1.4884878888644119e-19  6.2204453530604464e-01 6.1524560811196851e-06 -7.6016765355164357e-06  9.3554673360366962e+02 3.2200178746727155e-02 -9.5092362730518146e-03  6.2366409136185175e-13 9.3927566260337340e-18 -6.4577333473370312e-18  3.6765589329949811e-14 1.3617255998811325e-18 -2.9142955198359398e-19  7.4371055011558136e-15 1.7770799259664349e-19 -3.1628845959961522e-20  8.1462019547878883e-01 9.7268819828674245e-06 -6.6546202646106697e-06  7.1098017840791624e+02 4.5238152340768313e-02 -1.0668041533094535e-02  5.4535693137246184e-14 1.9750929319572256e-17 -1.2427334855969390e-18  4.8657888181063223e-14 1.5503078319599826e-18 -1.5423764828706782e-19  6.8050251394333148e-15 4.0750905997859433e-19 -1.3562410902412592e-19  9.4888263688038788e-01 1.3303992343806336e-05 -5.9543598280092349e-06  5.7114671180272603e+02 5.0242714035669822e-02 -1.0822937898504033e-02  1.5736880633875802e-13 3.6454087011895997e-17 -7.9448358570879574e-18  3.7404566788586977e-14 3.6320352383715383e-18 -8.4316395465612140e-19  6.5853719405546248e-15 5.2376072604358069e-19 -1.2590361819647076e-19  1.0206229997654606e+00 1.6738916069381296e-05 -5.5795760201484058e-06  5.2578385290203971e+02 1.1604849466073697e-01 -2.2082585153219269e-02  3.2375736625958341e-13 -6.0599697164912332e-18 -5.1587339060839103e-18  3.6805371654044125e-14 4.9120421383365373e-18 -8.3799524784635474e-19  4.2279454605560196e-15 1.0015377606280661e-18 -2.9667392631646131e-19  2.3993894723182723e+00 4.5619937571139105e-05 -9.5423969625549947e-06  3.2982237038928447e+03 -7.1893099494758040e-03 -5.7143847146353772e-03  9.0736781684220521e-13 -1.7173556737161101e-18 -3.3663151564643282e-18  5.1950942677248752e-14 -1.3398605132448808e-19 -2.6288365097923867e-19  5.3736037445787220e-15 -5.8124099718398431e-21 8.3982493773237802e-21  2.7832119032066216e-01 -2.9446155956472827e-06 -5.3525059421690438e-06  1.5926194072802482e+03 3.5886036344212257e-03 -3.7803368316912758e-03  9.2866715273638222e-13 -6.2357718076080921e-19 -4.8329611777812121e-18  1.2536930096865869e-13 -1.5931490386725739e-19 -4.4267699950039415e-19  1.1515507738371861e-14 -3.2978078665090293e-20 -4.6367230236294154e-21  2.0558344508803569e-01 1.1512434142744588e-06 -3.0