<?xml version="1.0"?>
<VTKFile type="UnstructuredGrid"  version="0.1"  >
<UnstructuredGrid>
<Piece  NumberOfPoints="405" NumberOfCells="1536">
<Points>
<DataArray  type="Float64"  NumberOfComponents="3"  format="ascii">0.45 0 -0.2  0.475 0 -0.2  0.5 0 -0.2  0.525 0 -0.2  0.55 0 -0.2  0.4541487580070115 0.02857404980753224 -0.1980244262958443  0.4775598500617476 0.02661293967833802 -0.1989331323155579  0.5017264856055084 0.02528231337326713 -0.1999946070261505  0.5264627164244109 0.0238279809484564 -0.2012224174662748  0.5517279088259267 0.02139084703977921 -0.2025000053648309  0.4581974007530934 0.05581813095875656 -0.197888849290917  0.4815558774438539 0.0527489476055546 -0.1989280662960486  0.5055367577688155 0.05026169365131369 -0.2001284376274572  0.5300727958065169 0.04766806373417078 -0.2014237976745576  0.5549093386175632 0.0440811602185906 -0.202767085706129  0.4630717547653455 0.08195701638351528 -0.1981712311443798  0.4864196598349323 0.07809865256506944 -0.1991533942355445  0.5103218362137987 0.0747367608367326 -0.2002495963229716  0.5346549341723618 0.07124969497489175 -0.2013864024215991  0.5591114104808231 0.06692196514767738 -0.2025271350634449  0.4683434959284147 0.1071927428009165 -0.1985557302261871  0.4917083043142695 0.1028186580703417 -0.19940684170199  0.5155410822158283 0.09882930766098708 -0.2003453501823494  0.5396886399661549 0.09471411686438476 -0.2012968653986779  0.5638646720622452 0.08996037078581939 -0.2022316761893966  0.4736170672516269 0.1318189018722794 -0.1988682565717079  0.4970932317697596 0.1271425172102775 -0.1996211333427349  0.5208890396477014 0.1227193711104653 -0.2004255869687033  0.5448959707103477 0.1181974517938049 -0.2012281843340741  0.568892012720709 0.1132385866930681 -0.202011201170247  0.4787833162344902 0.156065178663594 -0.1990841643712556  0.5023984596434757 0.1512193726811575 -0.199786569088785  0.5262039948655863 0.1465294957029377 -0.2005010054188113  0.5501252557140967 0.1417736084850629 -0.2012023106934211  0.574021956436493 0.1367482017961532 -0.2018917011683991  0.4838629260238549 0.1800941674252286 -0.1992592170361754  0.5075890327318247 0.17516489917523 -0.1999310500171591  0.5314192483399792 0.1703367390232635 -0.2005806994924038  0.5552967562444806 0.1654732269148526 -0.2012131431922888  0.5791456918427415 0.1604559002329164 -0.2018572945357  0.4888798360767202 0.2040153547159048 -0.1994197052204749  0.5126237459459673 0.1990748867575107 -0.2000778365194991  0.5364678313467431 0.1942061298416833 -0.2006618075001971  0.560358620402206 0.1892989120380707 -0.2012277455970934  0.5842116319897602 0.1842882765455371 -0.2018578875982194  0.45 0 -0.175  0.475 0 -0.175  0.5 0 -0.175  0.525 0 -0.175  0.55 0 -0.175  0.4546912593580879 0.02826550940439499 -0.1738021989413482  0.4781876550890071 0.02638504060548635 -0.1743550852954887  0.5024149166539162 0.02520862259642776 -0.1750257585404052  0.5272899707685823 0.02401159035959828 -0.1757764163728804  0.5529700537007992 0.02167463238778417 -0.1765420241744468  0.4589531545304515 0.05557222113405869 -0.1734983416197421  0.4823894097700893 0.05252320562267691 -0.1742645614436762  0.506435240620156 0.05005585197133508 -0.1751506351651096  0.5310552728330817 0.04747881329129258 -0.1760879985189099  0.5560769958098474 0.04382896674060604 -0.1769890164990659  0.4638452231830545 0.08175772602519428 -0.173577480036701  0.4872837888400947 0.07788348722499609 -0.1743727602365486  0.511211485865918 0.07445629339462502 -0.1752492671894194  0.5355553382111259 0.07088767207951217 -0.1761503879913653  0.5600574764869144 0.06649699829273489 -0.1770317513687706  0.4690683620531949 0.1070243359281177 -0.1737700521535049  0.4925223432942012 0.1026136748956125 -0.1745304261622798  0.5163550897723891 0.09853842236508835 -0.1753307919934887  0.5404749538076792 0.09433386534275588 -0.1761405277307596  0.5646411472906654 0.08954349204010373 -0.1769436165145553  0.4743050383305931 0.1316576127623049 -0.1739566987779416  0.4978448015323301 0.1269452979607218 -0.1746797301375191  0.5216279560116376 0.1224492815450947 -0.1754072794530388  0.5455968512270535 0.1178565913683428 -0.1761340337223791  0.5695659336922327 0.1128775350920025 -0.176864538321945  0.4794616222436105 0.155906663165728 -0.1741080198339608  0.5031077695301241 0.1510328698659994 -0.174809460624173  0.5268903465101171 0.1462874698256123 -0.1754864683284522  0.5507752713658154 0.1414788596216662 -0.1761546627732312  0.5746446913721353 0.1364381717281438 -0.1768382972402372  0.4845412634773352 0.1799389129827808 -0.1742438243194008  0.5082748153299624 0.1749926668700258 -0.1749337707061925  0.5320735902158152 0.1701193205425471 -0.1755727247079912  0.5559206038962037 0.1652079431859061 -0.176198304491266  0.5797517069944799 0.1601696404611309 -0.1768599569034182  0.4895465514109918 0.2038657575995364 -0.1744025085764299  0.5133211636143434 0.1989134500299781 -0.1750732664234952  0.5371266277898965 0.1939931750766229 -0.1756638424169848  0.5609798415959564 0.1890309804376511 -0.1762415898709751  0.5848214164601592 0.1839955809385914 -0.1768859148085827  0.45 0 -0.15  0.475 0 -0.15  0.5 0 -0.15  0.525 0 -0.15  0.55 0 -0.15  0.4551515038034114 0.02826066129627111 -0.1492919385349207  0.4784907826366332 0.02632243658330252 -0.149632080989662  0.5026789896931578 0.02518214555684367 -0.1500257254273974  0.5276034319472602 0.02401164755014242 -0.1504627987302056  0.5534262258810753 0.02149557871664284 -0.1509043575623682  0.4595796252708106 0.05548250796129019 -0.1489837596391874  0.4829109081536355 0.05241190161537133 -0.1495104580980554  0.506940155829791 0.04997496542785298 -0.1501127079231983  0.5316305546640112 0.04740739579844466 -0.15074440773776  0.5567716016132934 0.04364412381523176 -0.1513352436489711  0.4645476871473157 0.08162852437550938 -0.1489359250302341  0.487922404439363 0.07773942435772974 -0.1495485781101  0.5118421047999946 0.0743133332644328 -0.1502064722587768  0.5362260417827733 0.07072785065012309 -0.1508820025903923  0.5607964833531032 0.0662946200362191 -0.1515345046026805  0.4697994781284585 0.1068776792999428 -0.1489905011558874  0.4932122349644849 0.102448347277026 -0.1496376842808097  0.5170307979310175 0.0983520227299309 -0.1502930998350818  0.5411589377736518 0.09411856749444572 -0.1509568650110363  0.565350457998082 0.08931505378952925 -0.1516167364123835  0.4750497605362814 0.1315090651890919 -0.1490716874125441  0.4985545941458867 0.1267706021117952 -0.1497368700644386  0.5223145365146147 0.122242294445295 -0.1503777934928985  0.5462706535097546 0.1176167167718594 -0.1510195981403573  0.5702376622415534 0.1126307358402413 -0.1516730839371023  0.4802173018336244 0.1557605169612853 -0.1491564001576179  0.5038290059796235 0.1508569156789935 -0.1498363452937804  0.5275811542267979 0.146073210002322 -0.1504663446974019  0.5514414870100923 0.1412284832250698 -0.1510906399381861  0.5752929514334644 0.1361752831191997 -0.1517421316845868  0.4853122732111905 0.1798029381049701 -0.1492523370383124  0.5090123547493155 0.1748180744441554 -0.1499463505257888  0.5327772685518499 0.1698994239254115 -0.1505621593002391  0.5565932186244761 0.1649466271201689 -0.1511674924076909  0.5803967505839714 0.1598844834884679 -0.1518238244422948  0.4903614113937013 0.2037373652527572 -0.1494141345798429  0.5140985974388909 0.1987312887290029 -0.1500955379168065  0.5378693786564425 0.1937573313006943 -0.1506672541795106  0.5616828110527239 0.1887476917386787 -0.151230734266205  0.5854853539632155 0.1836786914244664 -0.151876426848933  0.45 0 -0.125  0.475 0 -0.125  0.5 0 -0.125  0.525 0 -0.125  0.55 0 -0.125  0.4554245210703114 0.02831858578994061 -0.1245680453086019  0.4786768212229918 0.02632501528859433 -0.1247706371154161  0.502834418954679 0.02517456746259431 -0.1250085890204199  0.5277761120986182 0.02399215706131168 -0.1252752261118398  0.5536537501210159 0.02134711258471894 -0.1255549853262011  0.4600163283535164 0.05550649244688016 -0.1243270296974798  0.4832699297517334 0.05238533565832699 -0.1246724149452053  0.5072763895436866 0.04993796727159579 -0.1250675003124762  0.5319927968337755 0.04734317737165428 -0.1254796620535272  0.5571700038911058 0.04345880563428409 -0.125863890622635  0.4650936906819169 0.08160792774094494 -0.1242253415261934  0.4884137869359155 0.07767483594803698 -0.1246711796061036  0.5123155991922669 0.07422948346340949 -0.1251469060729032  0.5367137245424359 0.07061159890393347 -0.1256313498081029  0.5613017126159374 0.06610279358304727 -0.1261002909262866  0.4704213296012523 0.1068233077969892 -0.124195582414824  0.4937941836792968 0.1023501140631121 -0.1247140184553737  0.5175921412763245 0.09822452841585801 -0.1252350808884641  0.5417175726370175 0.09395702289954468 -0.125758785739136  0.5659096596493129 0.08910707415750277 -0.1262820378902726  0.4757296647061009 0.1314315111480218 -0.1242012811403195  0.4991993264529319 0.1266475744222583 -0.1247777353133587  0.5229319703029472 0.1220820420652235 -0.1253299051799844  0.5468712720221296 0.1174199107731658 -0.125879570523504  0.5708249416287389 0.1123989579425214 -0.1264422904283306  0.4809463347583166 0.1556689489416569 -0.1242321350052532  0.5045221578594231 0.1507175522494235 -0.1248562571144571  0.5282404504998132 0.1458897013484804 -0.1254315050633201  0.5520740811477798 0.1410037717512512 -0.1259995179431301  0.5759020648579175 0.1359160858343273 -0.1265961073786459  0.4860898623870261 0.1797072718259325 -0.1242976906418249  0.5097516852158503 0.1746672085131961 -0.1249590795528475  0.5334777992113396 0.1696964120547726 -0.1255401685377832  0.5572603532250417 0.1646959717545396 -0.1261105574148197  0.5810327678204843 0.1595934405079422 -0.1267357090900566  0.4912088647396473 0.203635738990985 -0.1244606783000198  0.5148973345778796 0.1985628574370091 -0.1251166221366417  0.5386231833643612 0.1935304924010847 -0.1256570967098903  0.5623961460356007 0.1884672665420666 -0.1261894137843236  0.5861599045179114 0.1833489897638178 -0.1268114253196415  0.45 0 -0.1  0.475 0 -0.1  0.
[...]
<PointData  Vectors="traction"> 
<DataArray  type="Float64"  Name="traction"  NumberOfComponents="3" format="ascii">4.1085677544489481e+03 -5.5237676402923833e-02 -1.1529414862501390e-01  4.0462210291824988e-13 -4.7988340904564827e-18 1.0246270222223597e-16  3.1353386509606483e-14 -2.7174625989772369e-19 1.3636880686193128e-15  1.4484419336815044e-15 2.8938470454073735e-18 5.3203631444429283e-14  1.3619574738696733e-01 2.2261923249772858e-02 3.7220649500749585e+02  2.6416155588029565e+03 2.8659505972128251e-03 -8.2012545949571650e-02  5.2898866612467160e-13 -4.4449373255801309e-18 3.4372123232478555e-17  1.7329593671642878e-14 -2.7622245456521168e-19 7.4387751372955019e-16  3.0939375148493773e-15 -2.1104145575238522e-18 7.7223486768922755e-16  6.1014937652959726e-02 -2.4635725018719169e-02 9.8608304745340334e+01  2.3198000232972790e+03 1.8115535289277809e-02 -7.8422720653235203e-02  6.2328674502583714e-13 3.5486804268179221e-18 -2.4981685142445741e-18  2.4099323213927978e-14 1.0093103804658152e-20 -3.1762580435921998e-17  2.8240540489451106e-15 -3.2172627147114003e-19 -6.4052920018294244e-17  -5.9701421503996782e-05 -9.7228473327662206e-06 -4.0994438890854585e+00  2.1067185468530693e+03 2.8958764487609576e-02 -7.3392198541219963e-02  5.3539940307721263e-13 6.1278145008758110e-18 -1.8180117687429420e-17  2.7731168324602230e-14 3.0158314809455228e-19 -5.1615386159928638e-17  4.2181589202951311e-15 8.1512146688778250e-21 -3.4017208150946097e-16  -1.3248422266977453e-04 -2.0834296799980060e-06 -4.8255234448169348e+00  1.9827638877179986e+03 3.5763796939056083e-02 -7.1850705580652624e-02  5.0840240517363780e-13 6.9009406771086158e-18 -2.0153689538350453e-17  2.9936847953272603e-14 4.0420721555300562e-19 -9.6211409971727331e-17  3.9335632768312193e-15 2.5874160867149868e-20 -1.5323091961255274e-15  -1.5307272324397778e-04 -2.5674970924394650e-05 -5.0730269807073203e+00  1.4184320540182232e+03 7.3721630857626688e-02 -7.7761532409782300e-02  2.3093710639618087e-13 1.4459815537627924e-17 -1.2637149713557176e-17  2.7419402161910172e-14 1.0804336253043959e-18 -5.6048767177872760e-17  3.9165932498092639e-15 5.5465681755176065e-20 -6.4007403897309857e-16  -1.1976862036352505e-04 1.9809696920950955e-06 -4.4781656147688711e+00  8.3525249223310163e+02 7.6923270739180705e-02 -5.8200831348840520e-02  1.9881407730610626e-13 1.7732843316871150e-17 -2.2256061382148701e-17  2.0179356769446667e-14 1.4071532848448760e-18 -5.5986492513480833e-17  2.8820290556462721e-15 1.0473146550254204e-19 -5.8943684686628816e-16  -1.1845646608562450e-04 -2.5049755345652383e-05 -4.1923830125245214e+00  5.9094478802502977e+02 9.2276156856415062e-02 -6.1560845954067966e-02  1.4147034763139197e-13 1.4542604818025817e-17 -1.7674754514417095e-17  1.4600352291113869e-14 1.2482461879043705e-18 -8.1734450893464723e-17  4.0783359515055914e-15 1.6981574454084757e-19 -1.2513457170863780e-15  -1.1315288091042298e-04 -1.0050364779281514e-05 -4.0886013286117784e+00  7.1668096292380210e+02 3.0825629615976236e-01 -1.7315030665678816e-01  2.9038780040142083e-13 5.7594786299097326e-17 -3.0486980645498728e-17  1.0525686849399345e-14 9.5813235036612700e-19 -3.8077670298689271e-17  2.4952763835144724e-15 1.7506474722310860e-20 -2.0303902842149965e-16  -2.8986883010423495e-04 -1.3196171140172484e-05 -1.1659906368381362e+01  2.7390451696326304e+03 -3.6825117601949175e-02 -7.6862765750009179e-02  5.6746786960802347e-13 -8.9856356096100748e-18 3.8742903690647051e-17  3.9574049469627368e-14 -5.5142427117318579e-19 1.3647935527475319e-15  2.8393622032557209e-15 9.6421006603279388e-20 8.3372277015156617e-15  -1.1982885056903856e+00 2.3954876924820669e-03 -3.8013523150096361e-04  1.3208077794014769e+03 1.4329752986064041e-03 -4.1006272974785839e-02  5.4248283572758222e-13 -1.3743245147393484e-17 -1.6342539966950749e-17  5.3806966179472599e-14 -1.1353745287917025e-18 1.8291690574157741e-16  7.0028783921692131e-15 3.7335908647941136e-20 5.3373212952754137e-15  7.4429993279124274e-01 -1.2299092099725195e-04 -3.4631827758710921e-05  1.1599000116486395e+03 9.0577676446388956e-03 -3.9211360326617636e-02  4.3783189869647887e-13 1.0361163005654407e-18 -2.8147393483549422e-17  7.9165060714516392e-14 4.4566022849902740e-20 8.4307674290943587e-17  1.0143579123402445e-14 -9.0956168176024300e-20 4.7060087639407167e-16  7.4955091870333646e-01 1.1504201938286878e-06 -4.4524181881340822e-05  1.0533592734265367e+03 1.4479382243804790e-02 -3.6696099270610037e-02  6.9662964922166498e-13 6.4499740910914573e-18 -1.6775498974187032e-17  1.0941091731885054e-13 2.5537660077943829e-19 -5.6633719119639897e-18  1.0964316936248576e-14 4.5542412187623853e-21 -2.6100999571629701e-17  8.8967938666918822e-01 7.0282938024911828e-06 -3.7156187224683614e-05  9.9138194385899965e+02 1.7881898469528056e-02 -3.5925352790326312e-02  9.1349578763417662e-13 -2.2647241454441550e-18 -2.7284765819308691e-17  7.2509710133213515e-14 2.0223270264468313e-19 -2.5274893125908702e-17  9.0900843105896558e-15 9.5912118507959459e-20 -7.7720224565548765e-17  9.4554430366983278e-01 6.3260484638036913e-06 -3.7114752891263654e-05  7.0921602700911217e+02 3.6860815428813379e-02 -3.8880766204891164e-02  3.9631492918259461e-13 2.2926024658820365e-17 -5.5253606501179067e-18  4.2354314324236483e-14 9.4455657038819891e-19 -2.5851021926413863e-17  8.2732820605451532e-15 7.7796897814227956e-20 -1.6115765389564926e-16  1.1401748604065938e+00 6.7299070607443848e-06 -3.2046883022229356e-05  4.1762624611655144e+02 3.8461635369590352e-02 -2.9100415674420285e-02  5.4504428918837299e-13 3.1384587169783445e-17 -2.3308642836769082e-17  2.2101676691408140e-14 1.6986998237783949e-18 -2.2769812493942249e-17  2.6313176698063871e-15 1.9068985418308719e-19 -1.8118742990716294e-16  1.2523054757665155e+00 7.6140047511849101e-06 -2.9146542989428623e-05  2.9547239401251545e+02 4.6138078428207538e-02 -3.0780422977033966e-02  2.6688284938873413e-13 2.6624672900516327e-18 -1.9498459050378369e-17  2.2039800206726691e-14 1.5346724959085783e-18 -2.7567595370111774e-17  4.1286459075513257e-15 2.4889293085297680e-19 -1.7851962208557992e-16  1.3111388059911582e+00 9.8451564905623347e-06 -2.7240001755839814e-05  2.3889365430793455e+02 1.0275209871992076e-01 -5.7716768885596098e-02  1.3342357072377274e-13 1.0692062817775835e-17 -5.7222669405708441e-17  2.6606482279659242e-14 2.9946297081242594e-18 -1.4678659846046371e-17  4.4617794375846994e-15 2.6237604337682556e-19 -9.0783725302804185e-17  2.9114201748333710e+00 3.1821133448273725e-05 -4.3994705614460774e-05  3.2343143634710109e+03 -1.4796716915790532e-02 -4.6459259668905697e-02  5.7158125185600557e-13 -3.1286825206682426e-18 2.8444302795928000e-17  2.8520194815644668e-14 -3.6740031451649079e-19 2.4922807236687263e-16  2.2816992548188871e-15 -1.0055419160398539e-20 3.0308347539645566e-16  7.7081856862526854e-01 -1.2803516596857449e-06 2.5660510253135102e-06  1.5639762824012857e+03 2.9139631288377260e-03 -2.7292455441114423e-02  -2.2677023391559927e-14 -6.5103759103915994e-18 8.3543744289537248e-19  2.4812142728788961e-14 -2.2805882842360182e-19 1.6387165844461364e-16  8.3076693064063391e-15 -8.2325735307684458e-20 1.1050680510954002e-15  4.8335741298097840e-01 -3.1805778281060355e-06 -2.3376920475709083e-05  1.3824948616699039e+03 1.1796514016615066e-02 -2.7747439780419398e-02  8.8616448469803977e-13 4.5698857734988570e-18 -1.5117640970935548e-17  1.0468988965212534e-13 -2.0584784354660939e-19 1.7615102132074147e-17  1.2448544359825296e-14 -1.6236270892070547e-19 2.4007897270481505e-16  6.7268113934829665e-01 2.1082952161097956e-06 -1.6555034471846892e-05  1.2464552205852008e+03 1.7100586656786630e-02 -2.4406896239422233e-02  5.6446665217646042e-13 -7.6354416633607893e-19 -7.1423151382549916e-18  5.7244936854721942e-14 9.4921236825396605e-20 1.6604275763597772e-18  1.2601131421462494e-14 3.2507432721295100e-20 2.4521488520036642e-17  8.0024524898581917e-01 4.6120101502971678e-06 -1.7498764017444553e-05  1.1703580763361037e+03 2.0822642254965839e-02 -2.4150177617470042e-02  4.1184594368760581e-13 2.0721055552572400e-18 -1.3808911265537363e-17  7.1880892517645524e-14 3.2661163323396673e-19 -4.3484403743033388e-18  1.5865555242960969e-14 1.0585476921472434e-19 -1.4896503360616119e-17  8.6280032457202782e-01 5.3018870443499974e-06 -1.7967700076453981e-05  8.5914227565157762e+02 3.8409338209472156e-02 -2.5714141171016440e-02  1.1005528359695404e-13 2.6849370089296168e-18 -8.6043151201153346e-19  4.9561830738108874e-14 1.6764769032175080e-18 -4.9954908959205216e-18  1.5211404299620326e-14 7.6882842903183336e-20 -1.7823595050564664e-17  1.0499495839437278e+00 7.8033402851205326e-06 -1.7501224791138066e-05  5.4516645710249225e+02 4.8866099608588370e-02 -2.4257452009437332e-02  3.3760524859786403e-13 4.9737931444801398e-18 -2.0551973280784871e-18  4.9046885021213595e-14 1.5522288915495477e-18 -6.6400902582952872e-18  5.4796927241570382e-15 3.9050355319491185e-19 -2.5464732187801807e-17  1.1780182377592909e+00 1.0796583476032819e-05 -1.5901223085245900e-05  3.8641021224584659e+02 3.9147294376543532e-02 -1.7366991848484049e-02  1.2513858696653639e-13 -6.0832179973854236e-18 -4.4831715771261043e-18  4.7774311726252513e-14 2.8901080448334455e-18 -8.6703241345003358e-18  1.1352498632117053e-14 6.1355805324218140e-19 -2.2542573654146144e-17  1.2469147823427145e+00 1.3613940042002004e-05 -1.4753460653632135e-05  3.1471953426905247e+02 1.2160897120524025e-01 -4.6928275981288285e-02  3.1598932736288526e-13 3.4443880499614894e-17 -3.0159851877625750e-17  4.2011924298964926e-14 1.3677282325129815e-19 -7.7203191690903063e-18  9.6767638987698850e-15 2.0186948184217884e-19 -3.4496361095262538e-17  2.8456346350834991e+00 4.0502346730578378e-05 -2.3810464302616419e-05  3.4714536086183462e+03 -1.4691514227764423e-02 -3.6862997064419041e-02  4.2072496616748279e-13 -4.0025887737983322e-18 4.5099591817446013e-19  -1.3181991465433873e-14 -2.0859090227601711e-19 1.4049877808032103e-17  -3.0148802040691901e-16 -4.6031334299616406e-21 1.6002050607837698e-17  7.0027936445398808e-01 3.1459682101761271e-06 -2.8220485899981256e-05  1.6825672248714147e+03 3.2309799967601967e-03 -2.0485933415115294e-02  -4.6513386115793991e-13 -1.0670995692372581e-18 1.0279734764196674e-18  -2.7026849134536534e-14 -3.3612615933916628e-19 3.1155094213430686e-17  4.3661364059674380e-15 -3.7946621130123182e-20 6.6643310976890024e-17  4.2340361162839585e-01 3.4894603535598226e-06 -1.5610815747288865e-05  1.5014937874653638e+03 1.5489888106502618e-02 -2.4705236566159080e-02  1.5971488572835932e-13 1.6609034337584104e-19 -1.3424666127765473e-17  4.9661612366197001e-14 -1.2692372504026431e-19 8.9245833488252313e-18  1.8534794169217725e-15 -3.6834860899027512e-20 5.6438323729985852e-17  6.2489753651340196e-01 3.5749654324066279e-06 -1.5908071939451355e-05  1.3563849142380320e+03 1.9612178340972890e-02 -2.0146341912217092e-02  2.2721104357467456e-13 5.4194826717584103e-18 -4.4617708296389192e-18  3.8676734822661481e-14 4.3335461613507408e-19 -6.2385714633105890e-20  1.5887212874586394e-14 8.4352173450956353e-20 9.8385114263205488e-18  7.5097407244134018e-01 5.2697419561683172e-06 -1.5450785255740341e-05  1.2770570854211039e+03 2.3200165115712230e-02 -1.9841062022795591e-02  3.0051289439802013e-13 9.1709257323614542e-18 -9.3588744692704870e-18  8.1342950202505500e-14 1.0806655178117517e-18 -1.7276606794323849e-18  1.5310936489992550e-14 3.6726392319043632e-20 -4.6928076886494037e-20  8.1443966085006170e-01 6.0257638918160963e-06 -1.5171423729613711e-05  9.6464519353269236e+02 4.2390045216029973e-02 -2.2240290138745178e-02  1.7188520163233367e-13 1.7151776848067391e-17 -1.1194770559538317e-17  6.5753004274104867e-14 1.3843330566037749e-18 -1.6434568183227685e-18  1.4541597108079952e-14 1.4977175335520340e-19 -2.3707549098098653e-18  1.0063484265527609e+00 9.1410608673107892e-06 -1.3456797605143107e-05  6.4579443941992270e+02 5.2331594889349069e-02 -2.1092613267738806e-02  8.6307985632061601e-14 1.7248328391599258e-17 -1.3773325614047052e-17  3.7419685068876922e-14 2.1388377393468685e-18 -2.1228262192928977e-18  6.2959330328556283e-15 2.5691903837792254e-19 -2.2909445308102693e-18  1.1420922127182522e+00 1.2579123391097788e-05 -1.1938637132349158e-05  4.6894755160065614e+02 5.0151729816180386e-02 -1.8321023289880629e-02  3.1751182125208874e-13 4.5175600905542578e-17 -1.4575239455255856e-17  3.7945063663551762e-14 2.6882285850969550e-18 -1.7321773309275605e-18  9.3651543868689215e-15 2.4292680532509449e-19 -2.4809581043412124e-18  1.2154042210825946e+00 1.5990474209421535e-05 -1.1066966084376426e-05  3.8927817045993783e+02 1.3764700349518358e-01 -4.3892993406209328e-02  2.0382346497878372e-13 5.5588462249590194e-17 -2.7869004902870100e-17  1.6040102518690990e-14 4.7963619301806578e-18 -3.0717842601130039e-18  5.0958019189224193e-15 -3.0343713789315093e-20 -4.3107106955601083e-18  2.8065665973408116e+00 4.5275601587705171e-05 -1.8054466246748231e-05  3.5719502807418407e+03 -1.1164898792930308e-02 -2.1231472615712545e-02  2.6317169172447944e-13 -1.1846893438082500e-18 -2.4215418216924554e-18  5.5980759333666486e-14 -1.1318888968987424e-20 4.8643809586131968e-19  1.3303668915439518e-15 -3.2470690712041225e-21 2.9036444824373358e-18  6.5112203128786794e-01 -4.8778447291352882e-06 -1.6780902323131905e-05  1.7323308196213009e+03 3.7879602533065011e-03 -1.3581311792018855e-02  8.5645106713226682e-13 1.8819965136531672e-18 -3.8436488752130247e-18  1.4685889820749970e-14 4.8011274578504584e-21 1.9243336454601508e-18  3.7275918173104734e-15 -5.5205639096987398e-20 5.0521524264515735e-18  3.9364931032520595e-01 2.0237939643972848e-06 -1.0205656329710811e-05  1.5483340655202412e+03 1.5010949539784569e-02 -1.4822385130267703e-02  8.6880320208590255e-13 7.7981675279137333e-19 -1.2866976421057661e-17  4.9955970238665603e-14 -7.3654068329963015e-20 1.0574846037276195e-18  -2.4559410458362163e-15 -1.7258284672693192e-21 6.3074023166061926e-18  5.9714453307550597e-01 4.1417185536831435e-06 -9.6129838214988573e-06  1.4032478258661099e+03 2.0914953766142639e-02 -1.3694930710056062e-02  5.0422940070985922e-13 8.0819094708875961e-18 -6.1874944314774918e-18  2.4001805468352426e-14 3.3300296372306470e-19 -4.9228314678583818e-19  6.3487166958458570e-15 1.8684654044191480e-20 2.1598077990954193e-18  7.2791279233903650e-01 5.5258935128064153e-06 -9.2615345373702419e-06  1.3219099958014924e+03 2.4303397065961116e-02 -1.3394417510158862e-02  2.2321740791615173e-13 6.5024158355357925e-18 -4.4291981938549451e-18  6.3643823244565567e-14 4.4369268440609967e-19 -6.9295591401435190e-19  5.7071055122168401e-15 1.4914760273511609e-19 3.1556394636453978e-19  7.9304730545225410e-01 6.4054990531364178e-06 -9.1082638012198533e-06  1.0130615396408396e+03 4.4653838973361525e-02 -1.5455183230550191e-02  9.5367166204503498e-13 1.6543271232711197e-17 -1.2320940731743693e-17  6.8291034893011896e-14 1.6019276576898895e-18 -1.4095761966757192e-18  8.7444870430688132e-15 2.2093204170169991e-19 -3.2041085080125564e-19  9.9021952202709818e-01 1.0052193316731600e-05 -8.2975891566891875e-06  6.9684205105933631e+02 5.3470604579878747e-02 -1.4774654865989820e-02  6.3971808135467624e-13 2.2776420946669181e-17 -9.3546014602391312e-18  1.9053797767000237e-14 2.0136849539692574e-18 -9.4150867818003832e-19  7.9856659610466529e-15 4.2927532388108624e-19 -4.3742823391616639e-19  1.1298846534081977e+00 1.3789703393462797e-05 -7.4258980123648606e-06  5.1346627651256665e+02 5.2510036877280487e-02 -1.3371079884913898e-02  1.1245805497998077e-13 2.3035584594272040e-17 -6.5123550256466559e-18  2.3298687449597726e-14 2.9656848574426813e-18 -1.3196093804405092e-18  4.0024964227760762e-15 5.8942838497203214e-19 -5.0788184394723214e-19  1.2055242850450214e+00 1.7396232576168184e-05 -6.9081644561062747e-06  4.4542072770898307e+02 1.4170417768006441e-01 -3.1584098942973003e-02  2.5352382615860423e-13 2.3179272816901683e-17 -9.7278702176441273e-18  4.5550070611583866e-14 5.6491866771443789e-18 -2.1196935256968386e-18  8.6226454415548707e-15 1.4238261323231896e-18 -8.1842312813102003e-19  2.7990990617640961e+00 4.7990509860543196e-05 -1.1503448777959213e-05  3.6329721101298310e+03 -1.0041900850986052e-02 -1.7274368165039529e-02  3.9902900075660570e-13 -5.8387156460955470e-19 -2.8385312383461495e-18  3.0946593739812953e-14 -3.5046653807257790e-20 -5.3492261074235575e-20  5.2833850612342077e-15 3.9471607173183400e-21 2.0746341504447716e-19  6.1682313156359891e-01 -3.4714634084555432e-06 -1.2301499428253925e-05  1.7630294855366551e+03 3.9610067142271709e-03 -9.7572366977062043e-03  9.5751762849881141e-13 5.9529935457090143e-19 -7.5413981073399737e-18  5.3479629780953181e-14 2.1063969741769707e-20 -5.1319703217006589e-19  3.0259320416695940e-15 -5.0130794681862537e-21 5.4573632669639940e-19  3.7561226906388356e-01 1.3748199129132436e-06 -6.9352842586710269e-06  1.5800866734422279e+03 1.4422730397913862e-02 -1.0125883410224424e-02  1.2378125541014204e-12 3.9986876834602860e-19 -7.8894012638506152e-18  1.7442228932993921e-13 2.2039639296614624e-19 -7.5101126144375332e-19  1.7919016429811516e-14 4.9547714880134317e-20 8.5222069593831047e-19  5.7747962005225750e-01 4.1215737802253682e-06 -7.1404279981727494e-06  1.4379329148903080e+03 2.4076856041696390e-02 -1.0890937547196340e-02  8.0035196882325935e-13 1.1288061746429290e-17 -5.5298589395481561e-18  8.4227998926187937e-14 7.3773854610600763e-19 -9.7324734748451943e-19  1.8632039500678389e-14 4.8967331664991191e-20 2.3629642285951823e-19  7.1010104383698724e-01 5.8011878698947255e-06 -6.9618789810290025e-06  1.3554385387584123e+03 2.5848644361736835e-02 -9.7620812831303236e-03  2.6571756477590648e-13 -2.6104304194413458e-18 -2.2565894936139315e-18  3.6046986809467020e-14 1.3024808435523374e-18 -2.8614900061529882e-19  1.0072895190306802e-14 1.7754491268540297e-19 1.0447307388176955e-20  7.7630415322103563e-01 6.7952179901588619e-06 -6.7870669669990580e-06  1.0513589256142891e+03 4.5830431346460157e-02 -1.1231147873565233e-02  5.1466213576209118e-13 1.8705985832741769e-17 -7.2423509841083109e-18  5.2852109491851527e-14 1.2725443804485375e-18 -1.0768597984714208e-18  7.2107235979102561e-15 1.5658329184362684e-19 -1.1126100871850722e-19  9.7740046077877452e-01 1.0743728640003081e-05 -6.0290583916323219e-06  7.5122923507825658e+02 5.5269813161220323e-02 -1.1328208923857129e-02  2.8772461017621196e-13 2.8217527277972054e-17 -4.8039428491618063e-18  5.1705004229565281e-14 2.4643504037828057e-18 -9.5756367397674944e-19  1.6539033614042490e-14 3.4094950301959286e-19 -2.4852699050937414e-19  1.1199026905790492e+00 1.4663347237845006e-05 -5.3638954423921303e-06  5.7091430887539298e+02 5.7391223054375745e-02 -1.0945116737920396e-02  -1.5666733614177444e-13 5.6541542894576568e-18 -2.2206451973553538e-18  6.1497949254316513e-14 4.3791264320904100e-18 -1.2078244396227255e-18  1.1100385129186252e-14 5.8545800417473220e-19 -2.0771998917263551e-19  1.1972556756526254e+00 1.8378159930895163e-05 -4.9864594043909906e-06  4.9123198164924713e+02 1.2952457138680051e-01 -2.1517657497252173e-02  4.7175178379185837e-13 1.8000649067019726e-17 -1.4707703732060388e-17  2.3184951265080009e-14 3.8287786425891074e-18 -1.4738292691099823e-18  9.2136608993808402e-15 1.0777395174789057e-18 -2.4626695413238305e-19  2.7927612529298180e+00 5.0007060287585895e-05 -8.2817440898237218e-06  3.6877725956124596e+03 -8.2140907016406747e-03 -5.6539695523548711e-03  9.1565550706065012e-13 -1.5721105186130850e-18 -2.0284650794032973e-18  6.4605138125824040e-14 -1.1855455681445017e-19 -2.5568313764200336e-19  3.8229287764228946e-15 -1.6032603211104155e-21 1.8596966522735384e-21  5.8418209090324769e-01 -2.7942007680954963e-06 -4.9078729012851950e-06  1.7900905843522798e+03 4.1789356396137352e-03 -3.7177154854074398e-03  1.0798961409336290e-12 -3.2507155159089873e-18 -5.8803574968888380e-18  7.2524500114027333e-14 3.9586935069666191e-21 -3.2623924389200899e-19  6.3860945494351594e-15 1.2387812493672282e-20 -9.2091121624515482e-21  3.5845000129218874e-01 1.1846959953241922e-0