<?xml version="1.0"?>
<VTKFile type="UnstructuredGrid"  version="0.1"  >
<UnstructuredGrid>
<Piece  NumberOfPoints="405" NumberOfCells="1536">
<Points>
<DataArray  type="Float64"  NumberOfComponents="3"  format="ascii">0.45 0 -0.2  0.475 0 -0.2  0.5 0 -0.2  0.525 0 -0.2  0.55 0 -0.2  0.4540708395489405 0.02846035607402756 -0.198183497471265  0.4775275980201472 0.02647845673935084 -0.1990517155104784  0.5017649686059839 0.02520763105454719 -0.2000543750471937  0.5265691407387668 0.02384980674254019 -0.2012001856113639  0.5519105795388412 0.02153149213414594 -0.2023785125790856  0.4578111361462057 0.05552932838903341 -0.1980858367884508  0.4813221373373797 0.05257008280122781 -0.1990598397171364  0.5054274464445628 0.0502287791563792 -0.2001907565497142  0.5300909666977054 0.04779944387449914 -0.2013978970680536  0.555096542051586 0.0444207723232667 -0.2026208255011623  0.4621761230534794 0.08169260426540213 -0.1982942459861379  0.4858225567749972 0.07806681678752452 -0.1992412926591496  0.5099280255648798 0.07491323922732697 -0.2002901923441971  0.5344523076934486 0.07164955291506131 -0.2013676923424322  0.55915799551948 0.0676148383003156 -0.20243342854681  0.4668638576726727 0.1071361506611558 -0.1985510440765457  0.4906428404522251 0.1030735644615177 -0.1994214107215168  0.5147664648632428 0.09934368993713745 -0.2003572666408348  0.5391741089765395 0.09550396340128123 -0.2012962848817227  0.5636668020686365 0.09110155515253886 -0.2022144134346741  0.4715909994649191 0.1320908853233841 -0.1987489749873466  0.4955357197379043 0.1277604494038443 -0.1995682153264128  0.5196865822860032 0.1236412399801289 -0.2004142744882242  0.544011876990849 0.1194383704598848 -0.2012506421326969  0.5683698786877234 0.1148621432236773 -0.2020685338775939  0.4763041281332615 0.1567033301423051 -0.1989041922114901  0.5003751258561832 0.152226411351671 -0.1996901878941723  0.5245655887985388 0.1478809955382789 -0.2004759714568755  0.5488428468429077 0.1434774222926436 -0.2012462282574519  0.5731234806626476 0.1388460914698051 -0.2020072646674328  0.4809798241234357 0.1811062096244305 -0.1990522554456316  0.5051359767743133 0.1765670048086996 -0.1998107966941769  0.5293564076548831 0.1721119992163373 -0.200548533938181  0.5536077302342851 0.1676205271674136 -0.2012724288911636  0.5778466056738959 0.1629967994048508 -0.2020087758976183  0.4855920189170717 0.2054089839022968 -0.1991951515835852  0.5097608837315071 0.2008628672695579 -0.1999397194369606  0.5339977014531637 0.1963744945068026 -0.2006246611432343  0.5582673734663188 0.1918515391686796 -0.2012982814309789  0.5825092422990747 0.1872377979180616 -0.2020277556335958  0.45 0 -0.175  0.475 0 -0.175  0.5 0 -0.175  0.525 0 -0.175  0.55 0 -0.175  0.4546129322712235 0.02820498878761446 -0.1738715916934069  0.478139941652291 0.02629249766826456 -0.1744144195061172  0.5024247452221469 0.02518188865902167 -0.1750543670396492  0.5273406329841905 0.02406454347676375 -0.1757664710174089  0.5530244596438143 0.02182794433413467 -0.1764853707855155  0.4585712009847082 0.05538144276120636 -0.1735805134904516  0.4821480403356454 0.05242304708078122 -0.1743323877974264  0.5063086976148586 0.05010524421042272 -0.1751854947618348  0.5310362075686851 0.04769730946354267 -0.1760796849787183  0.5561780680390408 0.04425881434052369 -0.1769322482607753  0.4629771843002943 0.08159007641716115 -0.1736100450621584  0.486697613737691 0.07793383910333154 -0.1744123151293947  0.510828638508926 0.07472597041380352 -0.1752755234954171  0.5353617420918182 0.07139666172513358 -0.1761541649323098  0.5600922086419275 0.06730490813616663 -0.1770109439917296  0.4676517310337461 0.1070420275438169 -0.1737234615305586  0.4914956517542575 0.1029381129434538 -0.1745222405343898  0.5156233475800911 0.09913887390613872 -0.1753419368312373  0.5400116877935918 0.09522743734637827 -0.1761631857781553  0.5644887523807761 0.09079047764000257 -0.1769780043843829  0.4723665191271897 0.1319811722335745 -0.1738365025961531  0.4963514055369966 0.1276204204620744 -0.1746238973798729  0.5204950259190971 0.1234440301476811 -0.1754037386243668  0.5447943154919929 0.1191846759846187 -0.176176933566553  0.5691273987242083 0.1145872386077931 -0.176953916802838  0.4770761724335773 0.1565893616960775 -0.1739405316432926  0.5011645242727065 0.1520894517491111 -0.1747193752243049  0.5253393736089246 0.14769905158083 -0.1754725127520384  0.549593002752101 0.1432523889457613 -0.1762146742724368  0.573852415552413 0.13860385956207 -0.1769707948136269  0.4817497958823315 0.1809948594722613 -0.1740508857235032  0.5059084991841326 0.1764389359193652 -0.1748231643153448  0.5301078834206008 0.1719445326105751 -0.1755519120917035  0.5543416049467145 0.1674121706748077 -0.1762692393876625  0.5785701846171722 0.1627673999758226 -0.1770187578772713  0.4863537783592458 0.2053021674334119 -0.1741881678718331  0.5105427538424053 0.2007442933042648 -0.1749459334473993  0.5347540778351294 0.1962094614858006 -0.1756363618860282  0.5590022051936493 0.1916376126466981 -0.1763165861246419  0.5832406928046632 0.1870009661896045 -0.177055365431693  0.45 0 -0.15  0.475 0 -0.15  0.5 0 -0.15  0.525 0 -0.15  0.55 0 -0.15  0.4551014474491147 0.02823153154598989 -0.1492970536374338  0.4784576276842715 0.02624672758876256 -0.1496560418354289  0.5026935376725339 0.02516864333293941 -0.150045603163308  0.5276469080488199 0.02407634609450785 -0.1504756228085102  0.553466199409607 0.02167958366408477 -0.1509074636586068  0.4592436682124154 0.05534680781900721 -0.1489797118155999  0.48270306731941 0.05234872896704854 -0.1495348534889029  0.5068330008428154 0.05005539009447164 -0.1501404108340495  0.5316147909369621 0.04765720423807189 -0.150769882201914  0.5568591145082865 0.04411272438594467 -0.1513621871511767  0.4637474666457421 0.0815277288189309 -0.1488926298185467  0.4873918658137868 0.07783928030182795 -0.1495518690284376  0.5115019605102947 0.0746269550997254 -0.1502305415692537  0.5360617134824198 0.07128003942774748 -0.1509207725144842  0.5608394835667302 0.06714108226626 -0.1515931188428943  0.4684671768048334 0.1069588910570305 -0.148897251337137  0.4922602355497606 0.1028272411302584 -0.149608864192936  0.5163647725884839 0.09900292804545273 -0.1503084108127433  0.5407529198060125 0.09506006847404086 -0.1510107745934092  0.5652381152433809 0.09059980331036518 -0.1517141196817902  0.4731937247305463 0.1318879010806974 -0.1489329674366502  0.4971445255508495 0.1275010792856426 -0.1496747457768021  0.5212632715804055 0.1232894959900702 -0.1503833133108982  0.5455473751702297 0.118993668223047 -0.1510884637578181  0.5698684227284663 0.1143782810295209 -0.151807703075988  0.4779046990234853 0.1564917028251976 -0.1489868352608514  0.5019689573922096 0.1519660939591393 -0.1497485429437143  0.5261200795804559 0.1475365121007228 -0.1504639059260875  0.5503527969034435 0.1430508619079305 -0.1511716715027456  0.5745920842249403 0.1383806628576506 -0.1519056785307761  0.4825908455209084 0.1809013962853352 -0.1490645182795295  0.5067279370282451 0.1763134538436532 -0.1498420349678904  0.5309045885522355 0.1717762042112288 -0.1505535746616238  0.5551156283510379 0.1672014315373786 -0.151255776706983  0.5793212859610339 0.1625266254745296 -0.1520048316238385  0.4872308285827445 0.2052156448858485 -0.1492059658171799  0.5113972293380938 0.2006141504653394 -0.1499748745737046  0.5355878347357088 0.1960304738815624 -0.1506510802786741  0.5598091101011911 0.1914112526189378 -0.1513189964924326  0.5840191767379841 0.1867368860859613 -0.1520616271741871  0.45 0 -0.125  0.475 0 -0.125  0.5 0 -0.125  0.525 0 -0.125  0.55 0 -0.125  0.455416501765814 0.02831353930936459 -0.1245284775002257  0.4786726836199207 0.02625634824645354 -0.124765761957872  0.502870312813945 0.0251650308018914 -0.1250217978835274  0.5278345158308944 0.02405905440099196 -0.1253036666213881  0.5537093780455197 0.02153129627089067 -0.125598526268382  0.4597494974300834 0.05540997936048434 -0.1242567737611587  0.4831195300012251 0.05234102979228047 -0.1246589893091177  0.5072150184902289 0.05003030747644943 -0.1250889161886205  0.5320130716135769 0.04760151360274557 -0.1255309816235914  0.557290802820592 0.0439311390460486 -0.1259510673606843  0.4643867255580209 0.08155360179811968 -0.1241184565299365  0.4879663544488092 0.07780347027851696 -0.1246419855243271  0.5120460317525376 0.07456371587241234 -0.1251702903411373  0.5366094696791898 0.07117874603794715 -0.1257022501628222  0.5613966729849189 0.06695583255417886 -0.1262265398861887  0.4691962689620933 0.1069498579086179 -0.1240543835246333  0.4929419414726508 0.1027650528109006 -0.1246648146560557  0.5170158782987919 0.09890392653034123 -0.1252563046567254  0.5413927361506372 0.09491952507359894 -0.125846224130678  0.5658695530891453 0.09040317317516076 -0.1264431140446062  0.473973034233203 0.1318535189572313 -0.1240327753417081  0.4978919811788835 0.1274202986278883 -0.1247078371869959  0.521980722164617 0.1231647882060733 -0.1253466454072752  0.5462442531324199 0.11882456163324 -0.1259800278208011  0.5705464828747039 0.1141653713354914 -0.1266313893171309  0.4787202892877374 0.1564419963928939 -0.1240467869965383  0.5027593901349452 0.1518717414395241 -0.1247698457683798  0.5268823000112551 0.1473940671932357 -0.1254435052510691  0.5510905215810625 0.1428609497589467 -0.126109086710719  0.5753061708333935 0.1381491421185058 -0.1268047183548769  0.4834468641011966 0.1808467063291244 -0.1241025469337853  0.5075590420639189 0.1762095614704505 -0.124861297227946  0.5317074034399583 0.1716196634115734 -0.1255478892095074  0.5558922873091442 0.1669930825046047 -0.1262252071053114  0.5800720260802427 0.1622721637634299 -0.126955492441529  0.4881430598098316 0.2051585925871334 -0.1242517186075562  0.5122804388405802 0.2004986966257428 -0.1250070572425047  0.5364416309410496 0.1958574982086873 -0.125659778385292  0.5606344146268363 0.1911817608530133 -0.1263041496958156  0.5848158344250218 0.1864531202661417 -0.1270334832688139  0.45 0 -0.1  0.475 0 -0.1  0.5 0 -0
[...]
<PointData  Vectors="traction"> 
<DataArray  type="Float64"  Name="traction"  NumberOfComponents="3" format="ascii">4.5110239256233053e+03 -6.7986693144125754e-02 -9.8684725192301981e-02  3.7081132437469833e-13 -7.9509297724405323e-18 2.3655658827095793e-17  3.5843864457884796e-14 -4.1112555629862104e-20 9.1742421326242702e-16  3.7392280490358820e-15 4.1255427450336342e-18 3.6540852930011717e-14  1.1436003921449304e-01 1.8325212230380528e-02 1.7292047462966991e+02  2.9231350540386416e+03 7.1659792239993541e-03 -6.9297532216110166e-02  6.2005618920727969e-13 -2.0439137033581547e-18 1.6354048015477613e-17  2.7658720321541285e-14 -4.0929665788930006e-19 3.8382104619471076e-16  2.7396667630827619e-15 -6.2043828119777988e-19 -1.3965867054356872e-15  2.4080890180260200e-02 -4.7438042424977622e-03 3.3194249007133827e+01  2.4384020825788525e+03 3.6008629819687811e-02 -6.2877601150925139e-02  6.2250370326930943e-13 2.9141765011511589e-18 -2.5644039529290195e-18  5.9376540461620449e-14 1.6059525385755428e-19 -7.0624530401392236e-17  3.6609339000562523e-15 3.2616886472529631e-20 -7.8375245510802061e-16  -7.0744870653726251e-05 4.4553585803830207e-05 -5.2014337859366133e+00  1.9571136953896537e+03 5.2441383937433868e-02 -6.0350354183020365e-02  5.6834010778064687e-13 1.3751436649151528e-17 -1.5062210530139597e-17  2.7059971307756282e-14 5.7320705723970839e-19 -5.1796062574462946e-17  4.8007988787182056e-15 5.0207566833310449e-20 -9.8885582416998582e-16  -1.3647492155318666e-04 -6.8936744538948600e-06 -4.6616906772227962e+00  1.6893128145577750e+03 5.8593036797761108e-02 -5.8322935195099693e-02  3.2165975792475991e-13 2.8138078967954844e-18 -9.8123970391784550e-18  2.9075102130116717e-14 5.8044097690775939e-19 -5.5081014805130053e-17  1.8191760152199356e-15 8.3087256751122415e-20 -7.5986273609170025e-16  -1.7210542024218380e-04 1.7684407304469271e-05 -4.9515835069375642e+00  9.3661387468804639e+02 6.8962387465857478e-02 -4.7515798448657068e-02  2.0446689433787842e-13 1.0319726159349615e-17 -1.5599586054830812e-17  1.5218772288867239e-14 1.0379994998633095e-18 -7.7789863141228215e-17  2.4756728239018399e-15 9.6845300032627624e-20 -8.1409723201796039e-16  -1.5128172992614697e-04 3.1530485030301877e-05 -6.0131298274087186e+00  5.5822629575099029e+02 8.0509585426409874e-02 -4.4566899409758921e-02  2.2191814553280847e-13 1.8958607658587683e-17 -2.1868829952040477e-17  7.8614687809420606e-15 1.2864309307875565e-18 -7.7876234801421038e-17  1.6243479135667686e-15 8.7509382723804122e-20 -1.5236019637697604e-15  -1.2930136016520242e-04 -1.2086070838558075e-05 -5.7310743828967619e+00  4.0327611717644595e+02 7.7712396460535627e-02 -3.9466321481892531e-02  1.1027913175677018e-13 1.6538443941946902e-17 -1.4890999445385922e-17  1.3125623879269851e-14 1.4556962828928851e-18 -7.5760325959908112e-17  3.3178326190640497e-15 1.5316682606595252e-19 -1.3057522826923982e-15  -1.2652277682950112e-04 -9.3052279528594573e-06 -5.5464658532268638e+00  5.2237255776384222e+02 2.3218329195174170e-01 -1.0341132561725908e-01  9.4185532236636559e-14 1.6550984929659541e-17 -1.8612581299876430e-17  8.8106089037221944e-15 1.3132411994167197e-18 -5.3230338148399980e-17  3.3842417976275099e-15 2.1266613001933775e-19 -2.3466448762217585e-16  -3.4537011320146812e-04 -3.1185129180134831e-05 -1.5872217365705133e+01  3.0073492837488707e+03 -4.5324462096083845e-02 -6.5789816794867992e-02  8.4868762095199864e-13 -9.2096953845040592e-18 2.4332857458103677e-17  3.2073940107786975e-14 -5.2004739079622261e-19 7.7563175165251492e-16  2.2202076342432448e-15 3.3592333928072924e-19 3.5095996838920623e-15  1.5066904148729519e+00 1.4493693473326306e-05 -1.1175674014132658e-05  1.4615675270193228e+03 3.5829896119996627e-03 -3.4648766108055125e-02  -3.2022107305640439e-13 -7.2607177742264396e-18 1.6837506261550352e-18  4.4210067999230200e-14 -4.7207956300013361e-19 5.8535842185608701e-17  9.4590362509294026e-15 1.3389086052113523e-19 2.3559379832854469e-15  7.4481053816839671e-01 -1.2022934216877652e-05 1.4330221681982358e-06  1.2192010412894256e+03 1.8004314909843899e-02 -3.1438800575462576e-02  1.1485099231559946e-12 3.3492951901292463e-18 -2.0463781268071014e-17  6.0279565117563378e-14 6.4691750016940309e-19 2.6455545233479317e-17  9.3300653661354057e-15 1.7597357128810964e-20 8.5417536679235418e-17  1.0092548260059522e+00 1.0810472152681517e-05 -3.3150036079188471e-05  9.7855684769482752e+02 2.6220691968716958e-02 -3.0175177091510203e-02  3.1002757315646524e-13 1.3433311756971863e-17 -5.8666785636538346e-18  5.2212307953963176e-14 9.3163091709513309e-19 -1.9372382644703379e-17  1.0921288188547705e-14 7.3875603206193149e-20 -1.3176327064121119e-16  1.2058788734437131e+00 1.0125583699562187e-05 -3.3629979851786846e-05  8.4465640727888729e+02 2.9296518398880537e-02 -2.9161467597549843e-02  2.0279383981064703e-13 1.1417225763346638e-17 -2.1180691108851523e-17  1.0655684506338628e-14 1.3324193393443165e-18 -2.2630988266507679e-17  6.5729884585501745e-15 2.1831548669274532e-19 -1.1306761314209017e-16  1.3027125815163882e+00 8.5941413216446309e-06 -3.3341951587484555e-05  4.6830693734402240e+02 3.4481193732928732e-02 -2.3757899224328555e-02  3.5126861151020252e-14 2.6142740642682971e-17 -1.4108289566395879e-17  1.1266782476671057e-14 1.5718167517677259e-18 -2.6720884780051341e-17  5.6546210350513889e-15 1.2256201829444440e-19 -1.6285294916341058e-16  1.5447346776716013e+00 6.3636831493820529e-06 -3.0430083454781431e-05  2.7911314787549486e+02 4.0254792713204930e-02 -2.2283449704879450e-02  7.7841793394105794e-14 2.7464136721979166e-17 -1.6415833171750472e-17  2.2076785508967926e-14 1.5286489472400024e-18 -3.6602270655773209e-17  3.9473940186271695e-15 2.0720993335396994e-19 -2.0889582426017515e-16  1.6926384239485937e+00 7.5052153838807501e-06 -2.7847268366678865e-05  2.0163805858822326e+02 3.8856198230267806e-02 -1.9733160740946262e-02  2.8328637482686906e-13 2.9598896372058388e-17 -1.4235592145532809e-17  1.9602316866910017e-14 3.3005857519590517e-18 -3.1256985007307134e-17  6.0294817879494839e-15 3.4869059102291872e-19 -2.2529531639501703e-16  1.7699356397877126e+00 9.5445307913140936e-06 -2.5840797216857633e-05  1.7412418592128091e+02 7.7394430650580617e-02 -3.4470441872419703e-02  1.1073547283160247e-13 2.3127748334631476e-17 -1.4646576302361470e-17  1.7363554185313898e-14 3.1849951382602198e-18 -1.4405598643392025e-17  4.7038305484529779e-15 5.1702633528967943e-19 -1.1602875755385074e-16  3.9306846241279461e+00 3.1384197138170185e-05 -3.8058743821955879e-05  3.6152732559260717e+03 -1.2224521009020323e-02 -3.8123643823138424e-02  9.5810597709495460e-13 -4.4952937619020520e-18 8.1415279446103761e-18  1.0032357309496986e-13 -3.6827388062357570e-19 1.0388343741200370e-16  4.7638116723871902e-15 -4.1951680038584890e-20 -2.9120237512455639e-17  1.3558434543773921e+00 -6.4582278970216702e-07 -4.4115554729126262e-05  1.7539093446105157e+03 6.1742945657157038e-03 -2.3566846822828509e-02  1.5950243562115780e-12 -6.9135169429407983e-18 -1.2699463460603993e-17  4.7756937173842236e-14 -6.7083495170518550e-19 7.3738314477811476e-17  1.2114270408930932e-14 -7.6906522756698913e-20 4.4636608104598539e-16  7.3897422495085907e-01 2.6652618627883137e-06 -1.6956293126790695e-05  1.4581732509791816e+03 1.9228428575536496e-02 -1.9740401109431434e-02  1.5117334699644258e-12 4.3381781022393066e-18 6.5046942114757424e-19  7.3839712267618253e-14 -6.0326281391474283e-19 2.6770864308255621e-18  -3.2210814716840934e-15 -1.6576798137572653e-20 7.9244755575242488e-17  9.6363110153466813e-01 5.6374945483674632e-06 -1.3830776019663451e-05  1.1773227972730119e+03 2.6757253098303017e-02 -1.8035868704748940e-02  3.1254417732953673e-13 -2.6225915097899022e-18 -2.7743788518162128e-18  9.8656561163245664e-14 8.9649424611441277e-19 -3.5753324578790440e-18  1.8222622450390603e-14 1.2638870551640322e-19 -1.0031938362527056e-17  1.1204506321999792e+00 6.0868614545115785e-06 -1.6481492022711972e-05  1.0274936222214558e+03 3.0178262718645314e-02 -1.7743949446229795e-02  1.3840722751134773e-13 2.1930040723016524e-17 -9.6194812549392652e-18  1.7951141213301686e-14 1.5749330579470650e-18 -5.4850048557378257e-18  3.1652147797930182e-15 2.3774684496138061e-19 -1.3379699166329450e-17  1.1982408958357678e+00 6.3759615132583900e-06 -1.7421930789090034e-05  6.0031211085500820e+02 4.0686576146993100e-02 -1.7312770626344318e-02  4.4621262625071943e-13 2.3382789922849841e-17 -1.1169013711082421e-17  1.9450008539498386e-14 1.9926897350996268e-18 -6.6220143202575002e-18  1.0701178059637144e-15 2.6208306280573504e-19 -1.7910744131810231e-17  1.4281986659425863e+00 8.0176007226466885e-06 -1.6892062340244935e-05  3.6007544994150504e+02 4.5021433295086184e-02 -1.6170760030080542e-02  -5.2285031109751904e-14 -1.3104702167464507e-17 -6.6325408269399950e-18  1.1160332856837403e-14 1.9948627891773052e-18 -7.4564078644249264e-18  1.9684157871859234e-15 4.8860308266783349e-19 -2.7595388237021656e-17  1.5897998532176307e+00 1.0983107867434153e-05 -1.4732637044752886e-05  2.5925301322720929e+02 3.2477574598200214e-02 -1.0845032323944678e-02  6.9225516056670857e-14 -3.4503834567220358e-18 9.9472482919460983e-20  5.8436046033018551e-15 2.0890397315793811e-18 -7.6810424276973584e-18  4.6251063754653867e-15 5.3403995732392756e-19 -2.5461527776680499e-17  1.6792585338378709e+00 1.3805549239467714e-05 -1.3335900900065696e-05  2.3612395537622407e+02 4.7785574757646103e-02 -1.4312900656556167e-02  1.8583515176169672e-13 2.2654241845159129e-17 -7.7423910732048078e-18  3.4190674014044926e-14 3.5470432757227864e-18 -6.9038116684289631e-18  7.1216441387220086e-15 1.0179820831266133e-18 -3.1068529889489183e-17  3.8394038612143357e+00 4.2036907056421335e-05 -1.9563832937179724e-05  3.9370349114854598e+03 -1.3446087498613772e-02 -2.9606416389634144e-02  1.1859838053092967e-12 -2.2556886962837465e-18 -3.9474552184965561e-18  7.7091778325173424e-14 -2.5685625218437119e-19 2.2510089546881008e-18  7.5546072680081771e-15 -1.9062163316087249e-20 1.4830965616694443e-18  1.3108336996589931e+00 -5.7276685263162175e-06 -1.6652180106958836e-05  1.9142448709973523e+03 6.3202019424835583e-03 -1.6801685376258705e-02  8.0206654312882438e-13 -1.6956414613199231e-18 -5.3805551528526327e-18  9.5149081046296907e-14 -3.6209928192047861e-19 1.1991484170430172e-17  1.4578367606616747e-14 -6.8717335889359399e-20 2.2196973850845918e-17  7.2027510920269333e-01 1.4931383944486349e-06 -9.7832469514762184e-06  1.6067439682831778e+03 2.5842020472292723e-02 -1.9725935997772566e-02  2.0446987437386641e-12 4.1894533624619459e-18 -2.8305915702992484e-18  2.3666425895732843e-13 6.1636516299492971e-19 2.5584403116042579e-18  2.2091780361796109e-14 -8.1873701586039364e-20 2.1818201442124072e-17  9.2475744239408186e-01 4.7163528380985206e-06 -1.2543141788009824e-05  1.3197808337966608e+03 2.9061588476513227e-02 -1.5342126207844616e-02  1.1583926418875792e-12 1.1824789578006665e-17 -7.1048196551489857e-18  2.0952301078617461e-13 8.8671233530098401e-19 -8.6109867640071902e-19  3.3966546114970939e-14 1.1200395154705722e-19 2.3047492684870027e-18  1.0685895774846730e+00 6.1128815489560613e-06 -1.3002013248555155e-05  1.1687100676305590e+03 3.2323280998852948e-02 -1.5213834492934069e-02  -2.7034191957239254e-14 1.0725234846316844e-17 -8.7363233797187296e-18  6.1155029523179539e-14 1.3966561374286225e-18 -7.8636166084788753e-19  9.0567718077157368e-15 2.8915947571250458e-20 -1.5719280695698371e-18  1.1424573594640453e+00 6.7114542120282040e-06 -1.2838977123230299e-05  6.9214781504152688e+02 4.9705193919713522e-02 -1.6670025506296249e-02  1.7904598043283164e-13 2.7472353638449359e-17 -4.3983620272196383e-18  4.8514444852089206e-14 2.7891787461598006e-18 -2.0796050097568674e-18  5.7270550269788447e-15 3.7273823029594055e-19 -1.8029025550415912e-18  1.3710561280008526e+00 9.5695678770592898e-06 -1.1312497267968750e-05  4.2195002502711645e+02 4.8056043884626337e-02 -1.3959500904170381e-02  -2.5698135428535016e-14 2.0951685081264542e-17 -2.5079972317967444e-18  1.7374413019478661e-14 2.5669480305734706e-18 -1.6944671999307481e-18  8.9748089111418547e-15 4.2499853620459600e-19 -2.4467689134187559e-18  1.5382315682566101e+00 1.3301181013544467e-05 -9.5399067097238511e-06  3.0886343857492113e+02 4.1639575999269936e-02 -1.1465513807557167e-02  1.5663792209511240e-13 6.3482364035879498e-18 1.5721100890320072e-18  2.1479385500030949e-14 1.9456568274055021e-18 -1.9266671381176055e-18  3.2813500172034948e-15 1.4996801357318729e-19 -2.9777013225280085e-18  1.6324252156180630e+00 1.6859385975240114e-05 -8.5033209509538459e-06  2.8666917696429880e+02 5.9080066191977365e-02 -1.4541158519107035e-02  2.5454400445692733e-13 2.1868157760716317e-17 -9.7277959190911996e-18  1.1586000057086962e-14 2.3723049442443535e-18 -1.6660920037646911e-18  4.7855195969119517e-15 2.3965943494150398e-19 -3.5007437208431594e-18  3.7756574889912047e+00 4.8645674184273688e-05 -1.2310543835557122e-05  4.0954415627116268e+03 -1.1168737124833279e-02 -1.6646013915589709e-02  1.1784183069903268e-12 -2.6809802617910233e-18 -3.0650431783188295e-18  7.2904318903536709e-14 -1.8779785060035697e-19 -3.0561594604083337e-19  4.0703288635239870e-15 -6.0514372377096872e-21 1.4254856146676951e-18  1.2634786031582845e+00 -3.5414141559196456e-06 -1.5167891348529173e-05  1.9942193694805690e+03 6.5374436962731949e-03 -1.1179671152158392e-02  8.0513805937664975e-13 -1.9837670440772057e-18 -1.2285431814218899e-17  6.8229436088775204e-14 1.3157292888447901e-20 -7.7945404591627650e-20  1.7491186292287671e-14 -2.0851118913039768e-20 2.0534181905561566e-18  6.9843001348609923e-01 1.4783881156856580e-06 -7.7679205653053170e-06  1.6885769402498292e+03 3.0608385407997533e-02 -1.5613614283297278e-02  7.1270324817124335e-13 4.8549055928587453e-18 -7.5736527248596435e-18  2.2911324998422740e-13 5.4618160833428103e-19 -5.1639353815121321e-19  2.2528117394679251e-14 3.4170462508372570e-20 2.7439965827851780e-18  9.0499206795005771e-01 4.4117274058752991e-06 -7.6220906155003040e-06  1.3983115016481054e+03 3.0442818685875159e-02 -1.0743412701078313e-02  1.1945814644122758e-12 1.7477665378748243e-18 -9.7400756055182333e-18  1.4395688964982236e-13 4.9363015888713261e-19 -6.5538755242946139e-19  4.2617784631912264e-14 1.9236038252561519e-19 7.4364043537845541e-19  1.0469865108047254e+00 5.9889770278833372e-06 -7.7041696005939240e-06  1.2490313914168628e+03 3.3760632927900103e-02 -1.0502454967532444e-02  5.4881588821812508e-13 8.1700154852229402e-18 -1.1141549038447037e-18  8.5812462446015292e-14 1.1457301717745484e-18 -1.0115323996568406e-18  2.3936405862055542e-14 2.1508088900212111e-19 -1.6775715421054533e-19  1.1195768305309539e+00 6.8881184847688542e-06 -7.6244246972353671e-06  7.4268060636232576e+02 4.8396601167507623e-02 -1.0946658409934633e-02  6.4430825427581645e-13 2.0346159641355493e-17 -5.0993430298445379e-18  3.8792509994930730e-14 2.4094442038183855e-18 -6.3868275077240312e-19  6.9583132315472957e-15 3.6604127464383052e-19 -3.6095736805155518e-19  1.3471105763390259e+00 1.0690256665882357e-05 -6.6890373927731869e-06  4.7352580424547841e+02 5.2329885832383211e-02 -1.0602749042071256e-02  9.2044493013722100e-14 2.6484621490067227e-17 -8.8282071633557433e-18  3.6055370595331048e-14 3.1657364659162368e-18 -8.7663866681693942e-19  7.0803591912379546e-15 5.1757600915403305e-19 -3.5312835503416867e-19  1.5163642035144476e+00 1.4867176368828440e-05 -5.5301645983773774e-06  3.5047102355620206e+02 5.1951092134551305e-02 -1.0173384684744180e-02  3.1586082792050994e-13 3.4802170762998733e-17 -5.5988515872871935e-18  8.0861283176451096e-15 1.8860938066181833e-18 -5.2053805882189573e-19  2.1982568481049077e-15 4.7028679067239035e-19 -4.3691039286006300e-19  1.6120715962546059e+00 1.8743358421599420e-05 -4.8590495548757393e-06  3.0943718420858579e+02 1.0395403463312235e-01 -1.8731157076165492e-02  2.0265861700163945e-13 3.1549899733964162e-17 -3.7064743907189413e-18  3.6157318181750622e-14 1.9480766058674738e-18 -7.5776324067337393e-19  5.4976430965380746e-15 5.8082169754235776e-19 -4.9338502640919323e-19  3.7422458158833400e+00 5.2467029993391720e-05 -6.8614647146079613e-06  4.2004966761519627e+03 -1.1297644506371917e-02 -1.3115276778941150e-02  3.4905390268017948e-13 -2.1336744684111730e-18 -1.7518140622017739e-18  5.4125694350847823e-14 -4.9774774392476539e-20 -1.8619452643111597e-19  4.8175750617619277e-15 3.1192127101311949e-21 6.7406103367323201e-20  1.2341366276019485e+00 -3.2234448285905242e-06 -1.0019930019531056e-05  2.0480729543501870e+03 6.6608136242312793e-03 -7.7639611674722069e-03  7.0102830969858113e-13 1.0968244149932184e-18 -5.5689588518726621e-18  7.9006962747702006e-14 5.7935169546711816e-20 -6.2637514203873256e-19  1.6046058299590734e-14 -1.1826005607956366e-20 1.4940801115955314e-19  6.8376706107383112e-01 1.3026683294561427e-06 -5.3998868841548893e-06  1.7485214900300102e+03 3.3272291448264449e-02 -1.1476341897869256e-02  6.1823111233487530e-13 2.2818862281141514e-17 -3.9189253126888090e-18  1.0685106109831640e-13 8.0089328231618410e-19 -9.6468869858628484e-19  1.8131829459001551e-14 -2.8149539639896762e-21 2.0106814028497688e-19  8.8907117665590452e-01 4.2176413689045933e-06 -5.3922093039145349e-06  1.4507072366264856e+03 3.3657850133894780e-02 -7.9982498826635870e-03  6.6639041598698269e-13 6.6474243435131624e-18 -6.6767672399443523e-18  7.9343930346308377e-14 1.3211089252930654e-18 -4.9980335393459419e-19  2.0583070684277404e-14 1.2641721690822824e-19 3.6574610493510949e-20  1.0303451468599656e+00 6.1106427274988915e-06 -5.2912751254831966e-06  1.2951772180250837e+03 3.5488033350447382e-02 -7.3413838640887848e-03  5.2597855061262066e-13 -1.2239749711691728e-18 -4.0413532115439083e-18  8.0102708282430505e-14 7.3643175730313934e-19 -6.5590563780792414e-19  1.8453101814779561e-14 1.5265580317364360e-19 -1.4903264383817996e-19  1.1026593140375209e+00 7.1826178824476382e-06 -5.1560704093637017e-06  7.9271866073853175e+02 5.4966754936689365e-02 -8.9912094702176495e-03  1.9004743483273232e-14 1.2376743770060062e-17 -5.5038004326414342e-18  7.5400045206969016e-14 3.8986118454546281e-19 -6.0125263264273207e-19  1.4226903689866250e-14 2.4453098729804478e-19 -6.9314066831889896e-20  1.3299783452627532e+00 1.1484880641877814e-05 -4.4103172011128841e-06  5.1675279840925555e+02 4.1622761056546685e-02 -6.0670209689948100e-03  5.6083446464811747e-13 7.0005706485915928e-18 -4.1204580349050638e-18  6.3340532397094231e-14 3.0623970466401849e-18 -6.3476047200052397e-19  1.6676699139873643e-14 5.1786792442849575e-19 -1.3157943935099489e-19  1.4995555122050506e+00 1.5936903002680810e-05 -3.6313991342480143e-06  3.9330802612309236e+02 4.0027528748284233e-02 -5.5915005135295784e-03  3.5566163574963837e-13 1.6259557924599970e-17 1.0513408191874260e-18  4.8875406613182581e-14 3.0859842200874645e-18 -7.9508271668266387e-19  4.8326755648693949e-15 6.5790650027434389e-19 -2.3133629653611288e-19  1.5954614977656243e+00 1.9952696039840932e-05 -3.1917893182867580e-06  3.6274701890724481e+02 1.3211578646310140e-01 -1.7471245208985547e-02  1.4784546240539687e-13 5.9315297349542955e-17 -7.6037710696335978e-18  5.1344291850027990e-14 4.8592823721880613e-18 -1.0682856274014084e-18  1.1872719281014016e-14 7.6948742100243566e-19 -2.3081711637242735e-19  3.7109130420835745e+00 5.4968671452603648e-05 -4.5474713332329410e-06  4.3101445759809658e+03 -1.1631502771316140e-02 -4.4404637251577901e-03  4.9243781629850821e-13 -2.3442802495303400e-18 -1.6977793742005420e-18  4.8604808503902405e-14 -1.0308413447368569e-19 -1.1951062052366516e-19  6.5073951698890610e-15 6.5382830618869172e-21 -6.0673804651272514e-21  1.1994397135965948e+00 -2.4366125684507227e-06 -3.9342098282772517e-06  2.1038929987181041e+03 6.5936008601135132e-03 -2.9335857318428991e-03  1.6120387152525377e-12 -4.4356349697232305e-19 -2.1028642443531722e-18  6.6724235723236683e-14 7.8233114484646203e-20 -2.6417629400213262e-19  4.3887694355649189e-15 -3.1583777220487703e-21 -3.5524692418250545e-20  6.6660270819460787e-01 1.2830766007320852e-06