<?xml version="1.0"?>
<VTKFile type="UnstructuredGrid"  version="0.1"  >
<UnstructuredGrid>
<Piece  NumberOfPoints="405" NumberOfCells="1536">
<Points>
<DataArray  type="Float64"  NumberOfComponents="3"  format="ascii">0.45 0 -0.2  0.475 0 -0.2  0.5 0 -0.2  0.525 0 -0.2  0.55 0 -0.2  0.4532937790397185 0.02790433324417148 -0.1984565206535021  0.4770414730400496 0.02625453931244735 -0.1991825813048579  0.5014208196009469 0.02518015647091718 -0.2000217847195445  0.5262714029559028 0.02403276241686543 -0.200978621000492  0.5515807359452906 0.02210187371696555 -0.2019429187894661  0.4564693130622118 0.05470328706905985 -0.1983882313693205  0.4802382035564849 0.05217906984130768 -0.1991904670343692  0.5045042697381592 0.05018705900341178 -0.200120008857245  0.5292317640673126 0.04813090192821518 -0.2011129723557475  0.5542434831198828 0.04527164717862862 -0.202124961997436  0.460313381609035 0.08072092879770239 -0.1986316256167021  0.4841320258338299 0.07757896506331548 -0.1993694377254671  0.5083726071335607 0.07488864941458609 -0.2001990526984144  0.532970814875804 0.07211696124219988 -0.2010546475975698  0.5577164277158784 0.06866077471720157 -0.2019032309775438  0.4645018886483228 0.1060968239559162 -0.1989399582251656  0.4883766144353488 0.1025497950725849 -0.1995621138953793  0.5125954550151254 0.09935666642358816 -0.2002555466987379  0.5370753623691684 0.09607930751621631 -0.2009565217368554  0.561623431194756 0.09227614333302589 -0.2016395220982622  0.4687414922558327 0.1310255405886155 -0.199192801365011  0.4927146201720196 0.1272427500677601 -0.1997228137937075  0.5169242423804584 0.123703183661729 -0.2003006202165753  0.5413132474801315 0.1200958662785238 -0.2008774702657766  0.5657316719978037 0.1161234137319714 -0.201436927019732  0.4729124834775891 0.1556594580754627 -0.1993661107602696  0.4969931367599517 0.1517575520222449 -0.1998429453817533  0.5212195859948134 0.1480035933277947 -0.2003423885220555  0.5455526353805068 0.1442024902567353 -0.2008348606145205  0.569895935943967 0.140173592048586 -0.2013173326787332  0.4769785847644746 0.180121396798241 -0.1994802800245672  0.5011613534597767 0.1761703412248183 -0.1999380321143802  0.5254183461903893 0.1723016070771743 -0.2003861965227436  0.5497239805298693 0.1684068629486872 -0.2008235991176449  0.5740279848525376 0.1643817412481674 -0.201269535450099  0.4809768329824586 0.2044925638672707 -0.1995734467641678  0.5051907925095878 0.2005349983864969 -0.2000291065922009  0.5294679926223158 0.1966298958620362 -0.2004308285177461  0.5537888904535309 0.1926979327201463 -0.2008177588150159  0.5780962469390303 0.1886775836367933 -0.2012533121097488  0.45 0 -0.175  0.475 0 -0.175  0.5 0 -0.175  0.525 0 -0.175  0.55 0 -0.175  0.453733352901543 0.02768225572121038 -0.1740725717785487  0.4775350990215854 0.02609607076419567 -0.1745058572794959  0.5019532595954387 0.02515000753034532 -0.175028054366393  0.5268961869788354 0.02419824545475394 -0.1756076136936238  0.5524916290877984 0.02233646425063228 -0.1761822898476696  0.4570653058955547 0.05457083870196918 -0.173857880135828  0.4808854706011647 0.05205785636795321 -0.1744421327933159  0.505196197074859 0.05007683456304668 -0.1751201746446454  0.5299784878095023 0.04802784318533178 -0.1758326368430184  0.555116740761506 0.04512313227255139 -0.1765058623038856  0.4609031829866632 0.08064190167736658 -0.1739358185880029  0.4847897077781721 0.0774822991592073 -0.1745278417277893  0.5090509994292308 0.0747323268781907 -0.175184877497299  0.5336560609596355 0.0718897412726191 -0.1758577876225488  0.5584301199041525 0.06838669459578853 -0.1765075293976347  0.4650351451625895 0.1060420084543073 -0.174094357566765  0.4889808530791967 0.1024633133118053 -0.1746463841251185  0.5132054453228718 0.09919425723939095 -0.1752332536751002  0.5376671433188756 0.09583908867054572 -0.1758260677320007  0.562204846778981 0.09200662217527035 -0.176408848376974  0.469223935880359 0.1309705105659493 -0.1742435199565345  0.4932563562267563 0.1271582015482984 -0.1747551058205802  0.5174652415894818 0.1235538075338224 -0.1752767002272636  0.5418300593489621 0.1198840497597349 -0.1757979439506646  0.5662266923446351 0.1158937053297494 -0.1763193106711881  0.4733710377119089 0.1555990533855182 -0.17435778058883  0.4974914933589905 0.1516728902025655 -0.1748454837394652  0.5217109689004861 0.1478707215713844 -0.1753216688637917  0.5460218652481937 0.1440238528621637 -0.1757924567022982  0.5703443600315264 0.1399810150164404 -0.1762736024685883  0.4774417589000758 0.1800544974587533 -0.1744462767271975  0.5016389195431261 0.1760877122725983 -0.1749265863105485  0.5258803142516333 0.1721825503034236 -0.1753710840267734  0.5501681874378866 0.1682489803999739 -0.1758065946767112  0.5744601297312337 0.1642067683192943 -0.1762685696346027  0.4814403611647523 0.2044256832955681 -0.1745468681667417  0.5056789485295721 0.2004590267315592 -0.1750152068374087  0.5299327336447704 0.1965136223353632 -0.1754229898684896  0.5542305224907256 0.1925379303982781 -0.1758220300490309  0.5785315807838645 0.1884983666988272 -0.1762703806268638  0.45 0 -0.15  0.475 0 -0.15  0.5 0 -0.15  0.525 0 -0.15  0.55 0 -0.15  0.4540871346410148 0.02768793736889485 -0.1494608183105738  0.4777624120426802 0.02605420360477619 -0.1497244472473287  0.5021457473496755 0.02513762474207083 -0.1500246085440426  0.5271237672785031 0.02420805915673637 -0.150355762900914  0.5528366312778802 0.02222502820426244 -0.1506799754494974  0.4575408382425719 0.05451752920949169 -0.1492363712454906  0.4812764511346145 0.05199111814584821 -0.1496328014042355  0.5055683244629438 0.05003550107917232 -0.1500866804453487  0.5304002200980259 0.04799895067521274 -0.1505601863545954  0.5556327857338911 0.04502377472406446 -0.1509949795435713  0.4614271054738254 0.08056711420321488 -0.1492082340614211  0.4852633386245497 0.07740296826510473 -0.1496599948085442  0.5095149116179249 0.07465549461627349 -0.1501470600672784  0.5341479681177603 0.07180400368228991 -0.1506458614959941  0.558973185954751 0.06828015251611029 -0.1511211291998712  0.465568580015203 0.1059603903660359 -0.1492551225742508  0.489484350963351 0.1023764189522592 -0.1497224291623363  0.5136981385469216 0.0990923056048202 -0.1501986828696693  0.5381660428048511 0.09571692295757206 -0.150680651672187  0.5627214007333872 0.09188183472309805 -0.15115549671588  0.4697537939159323 0.1308924142327718 -0.1493175813137031  0.4937647885786161 0.1270686359871911 -0.1497893339358125  0.5179596743502197 0.1234401142456955 -0.1502473309734041  0.5423170016467259 0.1197458791493691 -0.1507061291251313  0.5667113329864125 0.1157546329305385 -0.1511709732972257  0.4739016215855685 0.1555289522418561 -0.1493761640664534  0.4980013187383013 0.1515835561313075 -0.1498538311165663  0.5222032782183812 0.1477525766140982 -0.1502983471462422  0.5464992478347326 0.1438787175053111 -0.1507390543162439  0.5708087507922784 0.1398286512075725 -0.1511982683719381  0.4779888224079505 0.1799983604904772 -0.1494349084813052  0.5021606566327139 0.1759995542874765 -0.1499234741737996  0.5263801182529474 0.1720608342235844 -0.1503544002321952  0.5506482941725189 0.168096570145753 -0.1507780314892473  0.5749213909414422 0.1640370639167499 -0.1512381255582771  0.4820348602641283 0.2043837169755251 -0.1495379005722624  0.5062352906621258 0.2003693720453095 -0.1500185430410739  0.5304622130572878 0.196383812327784 -0.1504157844989743  0.554733202967485 0.1923720504476246 -0.1508082759264544  0.5790078855568933 0.1883061876450779 -0.1512599401713138  0.45 0 -0.125  0.475 0 -0.125  0.5 0 -0.125  0.525 0 -0.125  0.55 0 -0.125  0.4542876775360811 0.02773447150452811 -0.1246783523651131  0.4778956871675212 0.0260567435145775 -0.1248329599103641  0.5022547651944859 0.02513425380232279 -0.1250101911059777  0.5272454857432658 0.02419779742192898 -0.1252067775456851  0.5530067752734723 0.0221255144325829 -0.1254066777075457  0.4578584633732002 0.05453967092078685 -0.1245033343515259  0.4815356850269912 0.05197711710451113 -0.1247587714797491  0.5058084193860072 0.05001750974743392 -0.1250503606708215  0.5306594000577115 0.04796643369363838 -0.1253520980223289  0.5559275519511913 0.04491119900126184 -0.1256285181881979  0.4618201611547911 0.08056043125693368 -0.1244294669757126  0.485617404205319 0.07736880514400503 -0.1247535030494739  0.5098547220676759 0.07461171761481737 -0.1250997829321748  0.5344986276861664 0.07174249667401141 -0.1254510559761987  0.5593423382100969 0.06817121337079378 -0.1257872531235455  0.4660104261237194 0.1059345153676147 -0.1244069835584666  0.4899002795527493 0.1023253913351005 -0.1247775632871386  0.5141000166085201 0.09902396650601099 -0.1251519062231502  0.5385671985259038 0.09562820676057046 -0.1255276285093136  0.5631261443016228 0.09176512792344686 -0.125900320391228  0.4702300682898475 0.1308564983489416 -0.1244073584266298  0.4942209005622955 0.1270060174917473 -0.1248141824036861  0.5183991573123797 0.1233532114998287 -0.1252068308940142  0.5427466064754976 0.1196352416281465 -0.1255975886198755  0.5671335175247222 0.1156225348527045 -0.1259958387384639  0.4744096590202626 0.1554908226393444 -0.1244219574178801  0.4984885961767244 0.1515136362622495 -0.1248597914243564  0.5226704290176323 0.1476522189041362 -0.1252659799849899  0.5469502330262387 0.1437503825638526 -0.1256670065055095  0.5712449691468585 0.139677668345232 -0.1260870574436205  0.4785353070007659 0.1799648912107322 -0.1244569967555969  0.5026818425923926 0.1759244987135116 -0.1249216853308009  0.5268764936617171 0.1719491530967162 -0.125330179449578  0.5511235655908157 0.1679518800098887 -0.125731076964099  0.575376678136474 0.1638642416710397 -0.1261697460006675  0.4826416510322553 0.2043541563723641 -0.1245582391287485  0.506803300822197 0.2002870379990234 -0.1250199984184967  0.5309976806556801 0.1962595338051761 -0.1253993057766193  0.5552418337400742 0.1922095197013373 -0.1257733680234098  0.5794915185434587 0.1881078700234338 -0.1262095761163015  0.45 0 -0.1  0.475 0 -0.1  0
[...]
<PointData  Vectors="traction"> 
<DataArray  type="Float64"  Name="traction"  NumberOfComponents="3" format="ascii">3.4845398143990951e+03 -4.5573935671520481e-02 -1.1132312512290897e-01  1.9434693367903258e-13 -5.9031569479066500e-19 1.0846999470550700e-16  2.5409698914272971e-14 3.0277222277564246e-20 4.8674423802423353e-15  -1.0011054499351012e-15 4.3219079614343653e-18 8.2525467807598073e-14  1.2296702095340745e-01 1.6315697904210544e-02 4.4180976058772325e+02  2.2129708992984556e+03 1.8961453903550518e-03 -7.9057947239322843e-02  6.7423006243901248e-13 -4.3692632486994875e-18 7.8534273494281270e-17  3.4201995651623155e-14 -2.1463378077401631e-19 9.0758118348437775e-16  2.7170817879904483e-15 -1.8876226593517349e-18 9.1951458191466114e-15  5.0375868537179812e-02 -2.3579161007083776e-02 1.4620174951669748e+02  1.8893353637663054e+03 9.9813866960331357e-03 -7.8833484250363184e-02  3.1361237961411814e-13 1.0112492410500669e-18 9.4435616356245759e-18  3.2254080594215219e-14 -5.8472332713379274e-20 1.0800359783697887e-16  3.9361611020360274e-15 -2.1876485609032776e-19 1.6389590227189392e-15  1.3808964977187897e-04 -2.2686042934011327e-04 -7.0764549133285293e+00  1.6881656565884864e+03 1.6312380258442397e-02 -7.1574630825181312e-02  5.6154932243701983e-13 3.3992248485150613e-18 -2.2621005420436589e-17  1.4407685871050454e-14 1.4110843430743127e-19 -1.8633202614588117e-17  2.0713127532830403e-15 -9.1797636966170531e-21 -8.7887495927701245e-16  -1.4810990884428957e-04 -7.0616684075396443e-05 -6.0459137955997591e+00  1.5836242848972606e+03 2.0654228481677511e-02 -7.0037573224209837e-02  2.0001001208283759e-13 3.9001569728322110e-18 -1.7285315553606333e-17  1.2037693266857794e-14 1.2208450161580418e-19 -6.5791749171012044e-17  2.2187201204342808e-15 7.3539363210370337e-21 -8.8223199409697877e-16  -8.0514778149858645e-05 -2.6564826188739633e-05 -5.1192075810606434e+00  1.2071630389377203e+03 3.9976301231274124e-02 -6.4206654203732241e-02  3.0339546938684987e-13 2.8858893318808003e-18 -1.6834354435971336e-17  2.5395563472526242e-14 4.0696089756101760e-19 -7.9103570397273770e-17  1.3411813939593408e-15 2.2405015121681761e-20 -1.0172476614182939e-15  -1.0485837694950383e-04 -2.5707335386601103e-06 -3.3761632417936678e+00  8.3023956658352904e+02 6.2883367398441831e-02 -6.3586144709389045e-02  2.2707710016440689e-13 1.2307254816429502e-17 -2.0975078767690889e-17  2.0914499722973848e-14 7.3638016133184705e-19 -5.1258823387374640e-17  2.3842286835716765e-15 7.7049770522359927e-20 -7.9995568859066200e-16  -1.0328864099076398e-04 -1.5107058844567226e-05 -2.9984574412908516e+00  6.0223847151259304e+02 7.4299092782560971e-02 -6.2607100320687725e-02  1.6627072708789201e-13 2.2865978916242892e-17 -1.9021357334149964e-17  1.0518614916789618e-14 1.1900896444435160e-18 -4.6818567065527055e-17  2.6932618858063692e-15 1.0509010140268239e-19 -5.5469600779254182e-16  -9.5841724921221500e-05 -8.3966967991286596e-06 -2.8864678418485563e+00  6.0718602466049367e+02 2.5677574413803944e-01 -1.7423236881265278e-01  1.6208198600467931e-13 2.3980269112260632e-17 -2.3015655494166737e-17  1.4167865431112444e-14 1.6838303432519630e-18 -1.3758449166376050e-17  2.8935317929036708e-15 1.7963001144467601e-19 -9.4508806011305197e-17  -2.5788435767844036e-04 -1.0518215352209145e-05 -8.2992263409463494e+00  2.3230265429327292e+03 -3.0382623781013651e-02 -7.4215416748605975e-02  4.3484259923056762e-13 -6.0893101773766527e-18 1.2023195212278466e-16  3.8451991558304780e-14 -2.5623075846022491e-19 1.7106781259486545e-15  2.4701665541650770e-15 5.4499761442455208e-19 6.9238799443955022e-15  -5.9253881780771041e+00 3.8434315189627890e-03 1.1398482693920024e-03  1.1064854496492278e+03 9.4807269517752546e-04 -3.9528973619661477e-02  1.1380442750174141e-12 -1.0577460208194319e-17 -1.1848283423835487e-17  6.7808061105202193e-14 -7.4782925575994990e-19 3.9219601452187655e-16  4.2240849951958541e-15 -1.2013062379309500e-19 5.3601941445473612e-15  4.1010812353676335e-01 -4.6430656249693336e-04 -4.1615880554644812e-05  9.4466768188315405e+02 4.9906933480165653e-03 -3.9416742125181578e-02  3.4550897772262654e-13 -1.1776240741231472e-18 -1.3396274832694452e-17  9.3251605256755533e-14 -3.3664953119833811e-20 1.0309901445486448e-16  1.2548414211803679e-14 -1.1212511349927910e-19 1.1629368736375596e-15  3.7124462626316646e-01 -4.4036141790936111e-06 -3.8306648767779782e-05  8.4408282829424365e+02 8.1561901292212021e-03 -3.5787315412590684e-02  2.3102337598745295e-13 2.0375044201136499e-18 -1.6019569096973804e-17  5.0251356619631235e-14 8.3228905691385104e-20 4.6998266312885947e-18  5.7745938440768654e-15 8.6507843128596551e-21 1.1694544557734887e-16  5.0070986242308857e-01 2.7518965508729135e-06 -3.5520005134129015e-05  7.9181214244863088e+02 1.0327114240838745e-02 -3.5018786612104912e-02  7.0044967862432273e-15 1.4161618202264087e-18 1.4374937778390324e-17  3.2576005432949317e-14 3.2901308368495024e-19 -1.5640525862932280e-17  8.4074994602610384e-15 4.2327819173189568e-20 -1.7714218417822970e-16  5.5245793060126691e-01 4.2283493387246442e-06 -3.4312000207608473e-05  6.0358151946886073e+02 1.9988150615637038e-02 -3.2103327101866114e-02  4.3322558988519240e-13 2.2681426334932317e-18 -3.5058238264668096e-18  9.6735393843238996e-15 4.1821840803402269e-19 -2.4601082825530747e-17  1.9012365913032782e-15 8.2606549368200889e-20 -1.4312401170857146e-16  7.5949284578633602e-01 4.4328563187323333e-06 -2.9331509168924360e-05  4.1511978329176435e+02 3.1441683699220895e-02 -3.1793072354694502e-02  4.9658008518009527e-13 1.9952094924819156e-17 -6.5017041458329756e-18  2.1946174013097314e-14 1.4484848330597128e-18 -2.2483221278621192e-17  4.5967323311277063e-15 4.6958079478227681e-20 -1.2879706392883406e-16  8.7043290676900720e-01 5.3341986104190064e-06 -2.6365528102547314e-05  3.0111923575629658e+02 3.7149546391280500e-02 -3.1303550160343883e-02  2.7121652599786511e-13 1.7928614838030092e-17 -9.6946665364405558e-18  2.9552015031391534e-14 2.3147478010249654e-18 -1.7161155177665222e-17  4.3558205616460519e-15 3.0852272819992051e-19 -1.0021726207984412e-16  9.2487673630188716e-01 7.3427629940417363e-06 -2.5599791648495337e-05  2.0239534155349807e+02 8.5591914712679837e-02 -5.8077456270884342e-02  3.5910947489626519e-13 3.8555369204364326e-17 -6.3482612960064083e-17  3.4558696024727875e-14 2.7677203555677927e-18 -1.0919020285363374e-17  4.9931353796643181e-15 5.6977929961537896e-19 -6.9636875941462132e-17  2.0818506137106243e+00 2.4336534896900168e-05 -4.3507113118962008e-05  2.6897301483905712e+03 -1.5112183929890083e-02 -4.6254910064136075e-02  6.2702516298674585e-13 -2.8539241196464312e-18 3.6471459570173808e-17  3.3987130488648826e-14 -1.4019062921561397e-19 2.3381997569465043e-16  2.4852739008389997e-15 1.6270538522791922e-20 1.5270565604147469e-16  -1.1625240939902855e-01 3.2380194319812356e-06 2.5933681324693882e-05  1.2864244771500564e+03 1.9149154481650887e-03 -2.6351374323719753e-02  5.5202705840267326e-13 5.1283192943432334e-19 2.5556470843595899e-19  2.9449360282013664e-14 -2.7508978698095754e-19 1.8548089047247009e-16  6.5933183218666981e-15 -4.3470708869209501e-20 1.2171642328934600e-15  1.5821382017081612e-01 -1.0209961155576742e-06 -6.2512645786812845e-06  1.1081781830493894e+03 6.8712155809963855e-03 -2.6669906471459618e-02  2.6023427259540917e-13 5.9039899830073435e-19 -1.5822070789949700e-17  1.1850905573141405e-13 -1.7384592987711625e-19 3.2125947559462714e-17  2.1260040187189320e-14 -1.7058834735390600e-19 3.1544118488821983e-16  3.3276525603533369e-01 9.0884111045541905e-07 -1.7709707113091939e-05  9.8554601177304653e+02 1.0449097403657548e-02 -2.4336548672619841e-02  1.3155163301837936e-13 3.9146379402504539e-18 -1.4545853333326167e-17  5.3551062641529848e-14 2.0472722120565831e-19 2.9197834328819431e-18  1.1960709878436140e-14 1.1565897954131263e-20 4.3839093593956994e-17  4.5195209343897308e-01 1.1688163159873138e-06 -1.7606472598152971e-05  9.2314118312799712e+02 1.2829422815386161e-02 -2.3801872393810077e-02  4.2094428987983621e-13 5.4844760540194052e-19 -5.8560172500912382e-18  1.4683300796459096e-14 4.1242423455205633e-19 -4.4675021114494730e-18  6.3924498182796435e-15 6.0293708469253273e-20 -1.4252514557589136e-17  5.1227031599761153e-01 2.2351827419646144e-06 -1.7459135681070607e-05  7.0808353942774500e+02 2.2199925516246100e-02 -2.1815448421113250e-02  2.0075656568272943e-13 1.1031545562554525e-17 -1.2398748221286671e-17  2.1419454046090624e-14 4.3982426926093096e-19 -4.1195016789069114e-18  -2.4085031980928523e-16 5.4574968372141823e-20 -1.8629382316954124e-17  6.9287910959730359e-01 5.2469226705234223e-06 -1.7271913803387154e-05  5.0853267457240361e+02 3.3716993010931222e-02 -2.2166968436559853e-02  2.2134724234617689e-13 -1.6338799859403849e-18 -7.8596419034922518e-18  5.7901188072389776e-14 1.0845748877042972e-18 -4.3809513722437628e-18  7.1560340903739553e-15 1.5992517461815075e-19 -1.9204925329646964e-17  8.1010324462564143e-01 7.9105284386344107e-06 -1.5954850390375288e-05  3.8882727735805832e+02 3.9138207127260530e-02 -2.2010489471812104e-02  3.4020116125404567e-15 9.8335980935498400e-18 -5.8368611535702132e-18  2.8018500958443958e-14 2.3482156674302233e-18 -4.6198590848355481e-18  9.1227892894955907e-15 5.4167578752829261e-19 -1.4884877318237577e-17  8.6996815217958745e-01 1.0353838530841121e-05 -1.5016252557074997e-05  3.0396377522508106e+02 9.2310345166951788e-02 -4.3287692827984982e-02  1.7566338843426636e-13 3.5451807747873701e-17 -2.5894432677615885e-17  4.4700284565847561e-14 6.0751301483496359e-18 -7.1526495453148032e-18  8.8202604453304588e-15 7.0079356357626832e-19 -1.5397485776609292e-17  2.0161882433027078e+00 3.1415900095973134e-05 -2.5406519176696826e-05  2.8586491910768295e+03 -1.5130574578449456e-02 -3.6715737898749469e-02  4.1753327774622702e-13 -2.5425726042881256e-18 2.7120774445740013e-18  2.3656940366263684e-14 -6.3263881129075311e-20 1.2545529231550895e-17  2.1942335901222375e-15 9.0127811382261100e-22 1.7960564493555292e-17  -1.1147129242362792e-02 -1.4487438205661779e-06 -1.8521769298222409e-05  1.3710304332738083e+03 2.1973294490636101e-03 -2.0510491730488113e-02  2.2449475870199932e-13 1.1586011665986747e-18 -8.6878871409048635e-18  4.7223396363866548e-14 -2.6903761873106627e-20 3.3254470831270647e-17  6.7955862787181085e-15 -1.3705704780078893e-21 9.3882902968845000e-17  7.4285057487658568e-02 5.8557687438769388e-06 -2.0509284383925066e-05  1.1873139975624215e+03 8.1466008930186230e-03 -2.0729173533111309e-02  3.8223896137408567e-13 1.2446729715216508e-19 -1.5798135936139787e-17  8.2450500501316072e-14 7.6850248219803968e-20 1.0181720690975006e-17  1.2377683757767507e-14 2.5219314108058644e-20 7.5476090434691877e-17  2.9266371738160729e-01 2.1401328598098096e-06 -1.8526524962170527e-05  1.0587127812601263e+03 1.2484289331795698e-02 -1.9903430283016731e-02  6.2935636587290324e-13 7.6589137574233683e-18 -2.4842142013025738e-18  -6.0036666747270460e-15 3.2017102943374977e-19 1.7523057345533995e-18  7.0420391551861133e-15 3.0187005449057359e-20 1.4841717279089725e-17  4.1685516302173120e-01 3.1120665550755136e-06 -1.7092553755811105e-05  9.9287343820622118e+02 1.4866369509210312e-02 -1.9406630312239281e-02  7.0379869047932760e-13 5.3695578802438919e-18 -6.1932116428066562e-18  3.8540618016249078e-14 7.1721168758553527e-19 -1.4901847478955001e-18  1.3446397245313803e-16 8.1538728913290200e-20 2.2305915697580172e-19  4.7789469054129707e-01 3.7019987894325476e-06 -1.6485484608385544e-05  7.7053970453390082e+02 2.4144283344363950e-02 -1.8241477580200973e-02  1.7227694757555849e-13 3.8564400361935526e-18 1.2451504984177686e-18  3.9144780469224338e-14 9.6970304406223359e-19 -7.6879790777529223e-19  6.8008998524482816e-15 8.8156810548728559e-20 -1.9988256156792938e-18  6.5808148289692614e-01 6.4735164661133704e-06 -1.4528351426992826e-05  5.7358630224505760e+02 3.5503962153447394e-02 -1.9154053565701559e-02  3.7054658550259835e-13 1.2482835125204440e-17 -4.7071399219260971e-18  2.1298567806449942e-14 9.9090684609460895e-19 -1.3683492986827091e-18  6.9355925911562530e-15 2.3178649746989368e-19 -2.4416081621470955e-18  7.7893266774350023e-01 9.3148233426420157e-06 -1.3128002378018625e-05  4.5271289491443315e+02 4.0705866951659224e-02 -1.9139668292135936e-02  1.5977633592021216e-13 9.6314372562838042e-18 -1.5996702874647269e-18  1.6141851697655145e-14 1.9442361172859067e-18 -1.6373189030831545e-18  4.3509655172339237e-15 2.0017082289932771e-19 -2.0287682355610999e-18  8.4115762945787187e-01 1.2211286201950776e-05 -1.2371529267737277e-05  3.9711210500975460e+02 9.7769880958659947e-02 -3.8763753551981778e-02  1.3226388914749170e-13 5.1126132070734434e-17 -2.6911930691491591e-17  4.0822299457463373e-14 3.3119061882094760e-18 -1.7006612747955642e-18  2.9502352211556533e-15 5.6271271155465206e-19 -2.5352258160898911e-18  1.9748468983290535e+00 3.5215227304260979e-05 -2.1230455861756362e-05  2.9253833830355070e+03 -1.1228804125060719e-02 -2.1605173628529539e-02  9.3543121946754412e-13 -4.3560525763744024e-18 -6.9305222134888693e-18  4.3217726429210500e-14 -1.5227941457075091e-19 3.9002986121825688e-19  1.5449559907566889e-15 6.5007551685767926e-21 4.9581527802830573e-18  -2.3927016461201982e-02 2.3874437532666926e-06 -1.7244915190573518e-05  1.4040794828133719e+03 2.6688328765171495e-03 -1.3554157027857278e-02  8.5653353368218525e-13 -5.3353161450685125e-20 -9.9944493353167436e-18  3.9174935827319686e-14 -9.0901602135414948e-20 1.8189301156466509e-18  3.3837701238288099e-15 -2.0819449417537622e-20 6.2524970490748986e-18  6.3689888646394646e-02 3.8561491660366453e-06 -1.1526619774923619e-05  1.2169071500895382e+03 8.6773096145767951e-03 -1.3005037329023948e-02  -1.7822513206617090e-13 2.1853122555808177e-18 -5.0504994351201114e-18  2.6671062203899046e-14 1.8507117595687649e-19 1.7575901782322266e-18  6.0821051022110018e-15 3.3185196576979500e-20 9.4601240660787905e-18  2.6975755515325711e-01 3.3217506454016559e-06 -1.1928571814406797e-05  1.0884102883490582e+03 1.4520527239863660e-02 -1.4227683208198665e-02  -1.1243267312150511e-13 4.4954862393370664e-18 -8.7130082899447123e-18  1.1965417515836452e-14 5.7571280824393889e-19 -5.9373353468571113e-19  6.6266069001430903e-15 3.0906994997713061e-20 3.1482130096002794e-18  3.9593245180337100e-01 3.8860703056005380e-06 -1.0898357280911804e-05  1.0195065356927254e+03 1.5925922152190766e-02 -1.2984065231925667e-02  2.4121673178271723e-13 6.8501455642785332e-18 -3.1697459333613295e-18  6.2058449512841237e-14 1.2060193931980355e-18 -1.0728981201670069e-18  8.6473172247579688e-15 1.7364940961688522e-19 5.2226346239724976e-19  4.5784716648826274e-01 4.5160372153443372e-06 -1.0515358488579938e-05  7.9609143805444057e+02 2.4804273943437854e-02 -1.2103680170063099e-02  3.5744587032112380e-13 1.7658513745285496e-17 -3.1719790197729480e-18  8.6897610325625666e-14 1.1824021641477192e-18 -6.0228320819566646e-19  1.5425308898835218e-14 1.5038713698687621e-19 -2.2979076204960835e-19  6.4091472599956167e-01 7.4235588060830349e-06 -9.3973753530841348e-06  6.0410510712905875e+02 3.6260180837703743e-02 -1.3242226663453805e-02  2.1081261288474385e-13 4.8251177875841639e-18 -6.8355835324109000e-18  3.7247655079608957e-14 1.5435724178492987e-18 -6.2298727080585339e-19  6.5265769132052659e-15 2.2072383259220486e-19 -2.0197035497396180e-19  7.6402272261774340e-01 1.0400929225887361e-05 -8.5771401080060358e-06  4.8643778179788336e+02 4.1079756608941871e-02 -1.3333577189384736e-02  -5.7502415704681364e-14 1.6865342594402052e-17 -5.1319150560912043e-18  5.9497827409590660e-15 1.2754425746325387e-18 -7.2081397353467281e-19  6.5106414634205350e-15 3.3757766853263957e-19 -3.6084079666092444e-19  8.2752490300360981e-01 1.3374075219362168e-05 -8.1386751348918896e-06  4.5626627850441616e+02 9.9848958601926829e-02 -2.7860364266350177e-02  4.4643763941591833e-13 4.1113527523103219e-17 -1.3304168736752041e-17  3.7695491372056556e-14 5.0291946496915011e-18 -1.9519431402185909e-18  6.0033702130513616e-15 5.1459806767180341e-19 -3.8372054267168210e-19  1.9530485201349306e+00 3.7387071995070868e-05 -1.4477722037678615e-05  2.9628565503708178e+03 -9.3641993467072897e-03 -1.7702965839793236e-02  6.3987007761305479e-13 -1.8343694892017783e-18 -3.5601675258994262e-18  5.8456391388271516e-14 -1.3084738828072984e-19 -2.9486735387206726e-20  2.7498768405041722e-15 -5.6465239553034773e-21 3.2321840017684605e-19  -5.2231830879415894e-02 -4.7820539358297236e-06 -1.4818309979007900e-05  1.4231166455129301e+03 2.8622069683102739e-03 -9.9754545067113100e-03  4.2726801272267932e-13 -2.2165431246135653e-18 -8.1126968485499911e-19  3.1967642032443580e-14 -7.8379750846134409e-20 -4.0644603703092556e-19  1.1714231450410804e-14 -3.7565782238689065e-20 5.6344591102058355e-19  4.3952723198354561e-02 2.6472371653281074e-06 -9.1100475442111616e-06  1.2362616887356894e+03 9.3059743271798109e-03 -9.9435090146602328e-03  3.6347557029922632e-14 3.0431721756439696e-18 -1.6219141707516991e-18  1.1357620966616655e-14 -1.1841734684842158e-20 -5.0307821291527018e-19  7.6101221584104929e-15 1.7177105135910326e-20 8.8999503803605562e-19  2.4928163811552603e-01 3.7445181691967459e-06 -9.2553574109682381e-06  1.1084214056869309e+03 1.5818906263488412e-02 -1.0965209866383179e-02  6.2289805393511536e-13 1.8713094625704927e-18 -5.2728514176511156e-18  2.7032590412727103e-14 5.1596473361994412e-19 -8.3680533522610205e-19  4.3891085347046335e-16 7.3251822204282691e-20 5.0703868264553051e-19  3.7771962057384972e-01 4.5835599218299756e-06 -8.8508198805352877e-06  1.0383254229378565e+03 1.7983033456063727e-02 -1.0385888000333588e-02  6.2164629070362301e-13 4.8062692951626007e-18 -7.3964603266052260e-18  3.8883598400492340e-14 6.0518330200038290e-19 -6.5617844539990786e-19  7.1614026667664693e-16 1.5701853350475592e-19 -2.3911050842956925e-20  4.4066644600647986e-01 5.2509117191459826e-06 -8.5233143814545032e-06  8.1520207086882772e+02 2.5101884087534877e-02 -8.7904773289529652e-03  9.2778571320910006e-15 9.5478492953862174e-18 -3.8588710951717802e-18  2.5171511263400234e-14 1.2569038353836188e-18 -1.1154232154195298e-18  7.1236280388994386e-15 1.9282895863129960e-19 -1.6042437746327829e-19  6.2657396382325581e-01 8.2038732505605102e-06 -7.4477001482399077e-06  6.2971749543636031e+02 3.7235513698259601e-02 -1.0041838228963058e-02  3.1144023132353028e-13 -9.3895262630008725e-19 -1.7582317329517566e-18  5.7997548107054928e-15 7.7431250984331476e-19 3.3435449365938466e-20  8.2761497382356363e-15 3.6737170357935175e-19 -1.1256595896221134e-19  7.5121454187540615e-01 1.1226101774453976e-05 -6.7273746703931495e-06  5.1530439525283975e+02 4.1693994477796134e-02 -1.0093536704315361e-02  2.9604615350743531e-13 7.4124754905404716e-18 -4.1552047567063982e-18  1.1819468928704136e-14 1.4428062657109541e-18 -6.8918117169240998e-19  4.1007455322155043e-15 2.3607175790217994e-19 -1.3600491141599255e-19  8.1538026802465224e-01 1.4214574242624136e-05 -6.3683770636429821e-06  5.1526694065856248e+02 1.0170017413126624e-01 -2.1153267802364747e-02  3.2944987217780041e-13 4.8355483413338304e-17 -3.4897870406862052e-18  5.4467046703866225e-14 6.4304820383175727e-18 -3.4757066566012299e-19  -9.5827621747647099e-16 5.7324932569693128e-19 -2.6754725418914937e-19  1.9307088811689881e+00 3.8931838232446552e-05 -1.1312608854097208e-05  2.9917563148661129e+03 -6.6306791525826778e-03 -5.6528476052224580e-03  7.9911194005486710e-13 -9.8562923904209624e-19 -1.1470499956706408e-18  2.8069512170160803e-14 -6.1949293546071154e-20 -1.5485713596193273e-19  2.8667788263808575e-15 -3.5513572986898792e-21 5.8456865943180295e-21  -8.8050377731618792e-02 -3.0139560225236889e-06 -5.8036993406259681e-06  1.4373987416899795e+03 3.1681001519045788e-03 -3.7610847044259100e-03  3.6528974647206228e-13 4.0668947587150086e-19 -4.7948783765868000e-18  6.7401307399266037e-14 -1.2341059848279508e-19 -5.1919453834130634e-19  7.7187486590949120e-15 -2.0169712602551878e-20 -1.3458481413143129e-20  2.2885332419983511e-02 1.2313568100210276e-06 -3.