<?xml version="1.0"?>
<VTKFile type="UnstructuredGrid"  version="0.1"  >
<UnstructuredGrid>
<Piece  NumberOfPoints="405" NumberOfCells="1536">
<Points>
<DataArray  type="Float64"  NumberOfComponents="3"  format="ascii">0.45 0 -0.2  0.475 0 -0.2  0.5 0 -0.2  0.525 0 -0.2  0.55 0 -0.2  0.4532326175128499 0.02783448734519746 -0.1985399641599002  0.4770006474844057 0.0262034423614584 -0.1992347280751758  0.5013939998941239 0.02515837385681264 -0.2000421286143489  0.5262534019856276 0.02404781264146241 -0.2009625799117911  0.5515685164149897 0.02217768363954134 -0.2018877917471798  0.4563158138934322 0.05458705707106828 -0.1984885823140286  0.4801109231415606 0.05211101142529215 -0.1992507980849675  0.5043957996861511 0.05017027484815319 -0.2001402897666895  0.529137793451355 0.04817422515515278 -0.2010914253927214  0.5541689175118713 0.04539753662634412 -0.2020613737390134  0.4600445019624797 0.08059642872454904 -0.1987280839347051  0.4838943877374747 0.07752098052187548 -0.199425231547968  0.5081597026593541 0.07489838763704799 -0.2002141377475291  0.5327805684611738 0.07220293416548292 -0.201028944150399  0.5575569310254056 0.06884038380580064 -0.2018382666295894  0.4641165487077171 0.1059896637507712 -0.1990276892284278  0.4880241700440553 0.1025196781632345 -0.1996093119086871  0.512273200481022 0.09940506305155222 -0.2002631929864265  0.5367837868981886 0.09621342740990702 -0.2009251628602064  0.5613700075058655 0.09250784063042787 -0.2015710572217066  0.4682408426757872 0.130944713578859 -0.1992696820655964  0.4922486731903646 0.1272484506885765 -0.1997602562189189  0.5164939471886042 0.1237944193182878 -0.2002996177436956  0.5409201048629432 0.1202777111957366 -0.2008386175443443  0.5653808002487339 0.116403407292136 -0.201361712534968  0.4722987171258555 0.1556081103278563 -0.1994314552369372  0.496417711459566 0.1518008255566945 -0.1998702963120183  0.520684084933985 0.1481377769054367 -0.2003321709903896  0.5450585715513661 0.1444296926519356 -0.2007874969732746  0.5694462758334937 0.1404983422890048 -0.2012336445705014  0.4762567602776026 0.1801065058853715 -0.1995349502646752  0.5004811981398425 0.1762534340676709 -0.199955244717328  0.5247805068884235 0.1724786043559869 -0.2003667373354215  0.5491298231015468 0.168677797409816 -0.2007678298820834  0.5734793236253279 0.164749187681531 -0.2011774153467202  0.4801531567514683 0.204520571316164 -0.1996180353013257  0.5044108067495839 0.2006602157498062 -0.2000362440656765  0.5287317436452968 0.1968502107042369 -0.2004026751003741  0.5530966299475445 0.1930126741204675 -0.2007546699647007  0.5774494217668613 0.1890880066001494 -0.2011540973349647  0.45 0 -0.175  0.475 0 -0.175  0.5 0 -0.175  0.525 0 -0.175  0.55 0 -0.175  0.4536437610762797 0.02762918597847702 -0.1741235751687341  0.4774729404569851 0.02606032205554737 -0.1745395803554661  0.5019049404968281 0.02513743142321628 -0.1750401227339261  0.5268525726049171 0.02421343484180657 -0.175595698359956  0.5524408868066808 0.02240859029108053 -0.1761457745177057  0.4568742918157989 0.05446815017200564 -0.1739289233522533  0.4807272656447011 0.05200403777619883 -0.1744852739302145  0.5050580922270316 0.05007178939234643 -0.1751321618615709  0.5298535229435598 0.04808041155630091 -0.1758122879766331  0.5550069150858742 0.04526040893499443 -0.1764556359817629  0.4605948957351619 0.08052742953460768 -0.1740096461585953  0.4845182549334094 0.0774365298216611 -0.1745698055288508  0.5088066534143352 0.07475414974494178 -0.1751927804476857  0.5334354549920586 0.07198783189413481 -0.1758313861818271  0.5582402101187691 0.06858016414760704 -0.1764491436181069  0.4646096806729956 0.1059425011795424 -0.1741650952513766  0.4885938255356345 0.1024438460394013 -0.174683118332967  0.5128512297303485 0.09925400252406805 -0.1752349777696932  0.5373453571680226 0.09598486122843904 -0.1757929963464828  0.5619223021509534 0.09225078374637269 -0.1763428405990382  0.4686845694508025 0.13089736066394 -0.1743089386430946  0.4927558281787995 0.1271738057522846 -0.1747851040737131  0.5170023451517898 0.1236557658677957 -0.1752710114783479  0.5414057303421721 0.1200768440576362 -0.1757569607257506  0.5658456911897709 0.1161850851799794 -0.1762443066433209  0.4727205918573184 0.1555573958960271 -0.1744166245534299  0.4968814410050274 0.1517264059472199 -0.1748679630411537  0.5211420959725146 0.1480156470758135 -0.1753078992374213  0.5454953499675699 0.1442620866522852 -0.1757428785813378  0.5698629904199353 0.1403172848854346 -0.1761887760241788  0.4766839130751108 0.1800498546660513 -0.1744976332033578  0.5009235924455857 0.1761814951162842 -0.1749407381181331  0.525208387742685 0.1723706647633067 -0.1753490430559562  0.5495407018188738 0.1685316084065024 -0.1757487597499137  0.5738786359001455 0.1645866466538487 -0.1761745090697119  0.4805798985274598 0.2044623375318992 -0.1745894675122296  0.5048629213993038 0.2005948201856718 -0.1750206125317881  0.5291617476169821 0.1967454942732781 -0.1753932421880863  0.5535045479239675 0.1928651669866693 -0.1757574501101992  0.5778515067691907 0.1889221289252088 -0.1761695652975636  0.45 0 -0.15  0.475 0 -0.15  0.5 0 -0.15  0.525 0 -0.15  0.55 0 -0.15  0.4539858121534087 0.02763705683050425 -0.1494926862298612  0.4776913654462995 0.02602129459714416 -0.149746592941288  0.5020888351109629 0.02512688243287516 -0.1500321579228392  0.527070193165995 0.02422457242406346 -0.1503471358138791  0.5527733170283881 0.02230571398564274 -0.1506551216374954  0.4573295617995335 0.05442012658374044 -0.1492857179707281  0.4811005513017724 0.05194312719226222 -0.1496637149291554  0.5054126888864398 0.0500353303430421 -0.1500940665341034  0.5302560797012484 0.04805678080275503 -0.150542970717324  0.5555017168464689 0.04517213049926723 -0.150955726069345  0.4610923211491113 0.08045969503178185 -0.1492637201702372  0.4849677061850119 0.07736501285200713 -0.1496915293234722  0.5092469495361179 0.074685077301213 -0.1501505040181076  0.5339033381847468 0.07191091368631919 -0.1506206878120157  0.5587583972803035 0.06848613753826768 -0.1510696585098263  0.4651122436474893 0.1058694420243941 -0.1493116644486099  0.48906872400872 0.102366215204442 -0.1497509257141111  0.5133163852801526 0.09916187098521616 -0.1501963205807028  0.5378173204338809 0.09587379312515623 -0.1506472123326675  0.5624121598451254 0.09213973497396495 -0.1510926916552714  0.4691805337848364 0.1308298252655463 -0.1493727840927334  0.4932325863573758 0.127094916938679 -0.1498131502901098  0.5174663556334919 0.1235533989693816 -0.1502380886713847  0.5418633441392483 0.1199512464333148 -0.1506638392355641  0.5663019057684135 0.1160606967029653 -0.151096679361837  0.4732158171221872 0.155499713758357 -0.1494282836484998  0.4973573387419431 0.1516491962410006 -0.1498718527852269  0.5216016122690181 0.1479101401960978 -0.1502815884792996  0.5459412136243171 0.1441307240060127 -0.1506876944999113  0.570297076028174 0.1401804681047261 -0.1511125400706622  0.4771940800760285 0.1800065109267404 -0.1494821214503677  0.5014092188289351 0.1761066709298069 -0.1499344121547905  0.5256733078119665 0.1722628288628146 -0.1503298612973343  0.5499873266711767 0.1683941446690078 -0.1507182677224905  0.5743077841481824 0.1644334139861169 -0.1511421451554898  0.4811348251228666 0.2044318418496577 -0.1495772486953594  0.5053813406271785 0.2005191741374792 -0.1500210841976122  0.5296547342391835 0.1966307936141325 -0.1503838542452121  0.5539721209242232 0.1927155293474466 -0.1507421824686221  0.5782940974155567 0.1887475238947771 -0.1511574444403282  0.45 0 -0.125  0.475 0 -0.125  0.5 0 -0.125  0.525 0 -0.125  0.55 0 -0.125  0.4541776567696365 0.02768244082328328 -0.1247004107562127  0.4778189631907819 0.02602323577167695 -0.1248483115097257  0.5021924756137716 0.02512361949247742 -0.1250151016885296  0.5271858243356055 0.02421549921327843 -0.1251996136318398  0.5529365931007073 0.02221316016714991 -0.1253870224893261  0.4576310927699749 0.05444168549742555 -0.1245393084005811  0.48134644809045 0.05193037743113548 -0.1247808561296832  0.5056398160116409 0.05001961301511419 -0.1250545106233731  0.5305015745288147 0.04802877616001087 -0.125336955676609  0.5557830911953303 0.04507031286880885 -0.1255958362522244  0.461462376537931 0.08045445810449643 -0.1244726511770387  0.4853013080723881 0.0773346148782771 -0.1247769996163826  0.5095670289815242 0.07464659248447909 -0.125100130979078  0.5342343503450192 0.07185727356244601 -0.1254273525787547  0.5591086791335309 0.06838998393982704 -0.1257410708916377  0.4655253954445844 0.1058476832757056 -0.1244536095899476  0.4894584110951636 0.1023215293991126 -0.124799451551682  0.5136932273136429 0.09910165259080858 -0.1251466430875352  0.5381942838293333 0.09579569505262722 -0.1254945918525311  0.5627938847143925 0.09203750488243258 -0.1258405787179358  0.4696237881957792 0.1308011433924419 -0.1244550458413542  0.4936579711916299 0.1270412138482684 -0.1248327354505373  0.517876628250904 0.1234770948338421 -0.1251948581204605  0.5422650786953667 0.1198534997485932 -0.1255547092926921  0.5666977281950629 0.1159446601590102 -0.1259225448733457  0.4736876705174465 0.1554718015571159 -0.1244686240378276  0.4978103700084041 0.1515906611647424 -0.1248736535087133  0.52203614385131 0.1478225997771812 -0.1252466480217272  0.5463612006325759 0.1440172702254802 -0.1256143105092113  0.5707040232969429 0.1400470673972664 -0.126000706252282  0.4777018258475861 0.179985596243107 -0.1245000676401326  0.5018931674858013 0.1760452374054452 -0.1249291614926494  0.5261341609131051 0.1721660315292071 -0.1253031509606448  0.5504288604338284 0.168266233507831 -0.1256695152594224  0.5747312022914237 0.1642797748191659 -0.1260720004281627  0.481700175236368 0.204416684784297 -0.124593126945011  0.5059097506211693 0.2004526588189731 -0.1250186749384553  0.5301523444490369 0.1965235631944931 -0.1253646054654821  0.5544445983673443 0.1925718156569269 -0.1257054465422449  0.5787434670953006 0.188570280472195 -0.1261052048415421  0.45 0 -0.1  0.475 0 -0.1  0.5 
[...]
<PointData  Vectors="traction"> 
<DataArray  type="Float64"  Name="traction"  NumberOfComponents="3" format="ascii">3.4845427260106540e+03 -4.5573936752784899e-02 -1.1132307660350418e-01  1.2106526798990516e-13 -1.8024513532332252e-18 1.5986673554886833e-16  1.8959937713883135e-14 -2.2443685023877201e-19 6.2626745982394064e-15  4.4969359619566381e-16 -4.6026816648273121e-20 8.7200906650649809e-14  1.2296728639035194e-01 1.6315458260429825e-02 4.4180480242582860e+02  2.2129727871400532e+03 1.8961347331446191e-03 -7.9057904786056898e-02  4.7501102153873724e-13 -6.6638160401774623e-18 1.0799831749674277e-16  1.6328094585807970e-14 5.7611247334970372e-20 7.6969852370993990e-16  2.5112322932583442e-15 -1.5694512161372182e-18 3.3552055494568744e-15  5.0376271758118298e-02 -2.3579420093477452e-02 1.4619737325312735e+02  1.8893372531570280e+03 9.9813621897376775e-03 -7.8833452005426574e-02  3.0624930755996302e-13 1.8687803281757217e-18 1.5484990023014911e-18  1.7638538167425351e-14 -7.0287910559788148e-20 1.2313369389125530e-16  1.5855770777530364e-15 -1.4291356685185393e-19 2.0441405862734444e-15  1.3815387616065644e-04 -2.2686103671127968e-04 -7.0837400683269482e+00  1.6881672284450865e+03 1.6312353175669082e-02 -7.1574633013677613e-02  2.9927101282616405e-13 2.6831119030561449e-18 -1.0731306154502648e-17  2.3994044424507650e-14 1.9480228777510076e-19 2.4573831129087734e-17  2.6197190053538006e-15 -4.0543773615086401e-21 -9.0390360056581472e-16  -1.4827551772069687e-04 -7.0661986722700068e-05 -6.0538555972483401e+00  1.5836254272424560e+03 2.0654180486511822e-02 -7.0037577802427878e-02  3.2880695871006523e-13 4.1797147382200483e-18 -9.9794591297906668e-18  1.5457308548481712e-14 3.1691569328127699e-19 -4.5212463531892870e-17  1.7037973038952264e-15 1.8455638301193267e-20 -6.5236980360526357e-16  -8.0634234692790349e-05 -2.6552235574677030e-05 -5.1272702294247825e+00  1.2071628485040824e+03 3.9976172587475371e-02 -6.4206646493785005e-02  3.1491107126187992e-13 8.7694199379414543e-18 -1.7298581795391361e-17  1.7129069933303116e-14 4.6492892929963774e-19 -5.1541245514299666e-17  1.7682035390329930e-15 3.1918056738664836e-20 -6.9261482215363666e-16  -1.0484986754037660e-04 -2.5958201031580144e-06 -3.3839031807476410e+00  8.3023898253591756e+02 6.2883182585544609e-02 -6.3586093943078820e-02  2.0260278814509613e-13 9.6076557697586374e-18 -1.6273368385902982e-17  2.0408387673039159e-14 8.8690425164894012e-19 -4.7365842235734514e-17  1.5889864310165471e-15 5.5478972276040390e-20 -5.0329314322822646e-16  -1.0325898556879478e-04 -1.5088176752840415e-05 -3.0063256311859856e+00  6.0223778298519028e+02 7.4298897904802264e-02 -6.2607028880802149e-02  1.5662950971759207e-13 1.9761840406099962e-17 -1.9515885823812626e-17  1.2715622713530622e-14 1.3094321095007953e-18 -5.0558327497013331e-17  3.2619846324600621e-15 1.2676956641500278e-19 -8.6567432807359805e-16  -9.5831175466523565e-05 -8.3874948576394523e-06 -2.8944274565461305e+00  6.0718257412671289e+02 2.5677497500780955e-01 -1.7423192647946084e-01  1.8581899165350789e-13 3.8989358486104997e-17 -1.7575920664437586e-17  2.0788126293877318e-14 1.9174748730418328e-18 -3.3626550672613835e-17  2.3677483573323810e-15 1.6118101835029091e-19 -1.5753092551619606e-16  -2.5787630376427625e-04 -1.0535834312414243e-05 -8.3240031344748875e+00  2.3230284840071008e+03 -3.0382624501856602e-02 -7.4215384402336104e-02  2.5390670411039126e-13 -6.3253200942794423e-18 1.4457048987809822e-16  6.5138768602845412e-15 -6.2179242988965713e-20 1.6882942931798110e-15  1.3131021937840585e-15 7.4684868147773374e-19 6.9460336105704852e-15  -5.9174037426310582e+00 3.8436618259600664e-03 1.1399196005396045e-03  1.1064863935700253e+03 9.4806736657230075e-04 -3.9528952393028463e-02  3.1711212469839893e-13 1.1460805784641057e-18 1.7069869346328950e-17  7.5487540216858560e-14 -5.1084874839947325e-19 3.9295186693457819e-16  3.5599709053716142e-15 -2.1921652103363528e-20 6.5771342293385343e-15  4.1304457902112662e-01 -4.6437698960773448e-04 -4.1587828134862287e-05  9.4466862657851391e+02 4.9906810948688405e-03 -3.9416726002713329e-02  7.8693910055659578e-13 1.2642583793170883e-18 -3.1156591096443210e-18  2.1808721146056957e-14 1.0938804437671825e-19 1.1882308545035826e-16  6.4220720980558210e-15 -7.1363059788306792e-20 1.1753591513669603e-15  3.7480912829203988e-01 -4.3157020657516005e-06 -3.8288546535503401e-05  8.4408361422254450e+02 8.1561765878345408e-03 -3.5787316506838827e-02  7.1840612066802580e-13 2.8605390908527042e-18 -7.1523001780599333e-18  4.6861035389599814e-14 1.2859688154919092e-19 1.0002089738597914e-17  2.4984951947981687e-15 8.3844244363208602e-21 1.6238829730662916e-16  5.0477910073666765e-01 2.7628655186241171e-06 -3.5522706785991465e-05  7.9181271362122823e+02 1.0327090243255909e-02 -3.5018788901213946e-02  -8.3977847887438304e-14 1.0678333973127035e-18 -1.2816150172660765e-18  1.6276304539625418e-14 4.7327802070310631e-19 -1.1836142139485169e-17  4.3122520480151402e-15 5.8343830408914391e-20 -1.2009485707582664e-16  5.5657056703106189e-01 4.2314002319259683e-06 -3.4311835478912545e-05  6.0358142425204164e+02 1.9988086293737696e-02 -3.2103323246892537e-02  1.3647016552682468e-13 9.6844822395797708e-18 -2.3390938971390904e-17  1.7716350836526270e-14 5.1608466070979963e-19 -1.8480745945417592e-17  5.0258385603733417e-15 7.5551811453814751e-20 -1.1062052879773746e-16  7.6357549708210959e-01 4.4286792115415494e-06 -2.9328990646731837e-05  4.1511949126795901e+02 3.1441591292772290e-02 -3.1793046971539431e-02  5.9061496858211463e-13 1.4029390270088439e-17 -1.4168555850879155e-17  2.1002607748518921e-14 9.1085754758084967e-19 -1.5592171442387282e-17  4.1087744471116733e-15 1.5068418125477504e-19 -1.1176979826088161e-16  8.7441454661830187e-01 5.3364112984819215e-06 -2.6363539139291437e-05  3.0111889149259531e+02 3.7149448952401146e-02 -3.1303514440401102e-02  3.1782519068037655e-15 1.9058907288612436e-17 -1.9805854372142576e-17  2.0807331657128754e-14 1.7867346113684841e-18 -1.8710803841778299e-17  4.6982593730195569e-15 2.3717954220069688e-19 -1.2041651648711880e-16  9.2891659168952190e-01 7.3390235147204006e-06 -2.5592718601400364e-05  2.0239419137557121e+02 8.5591658335936557e-02 -5.8077308826486970e-02  2.2156678365343493e-13 2.8491219595372587e-17 -2.2189655632545482e-17  -1.1085192197259871e-15 3.3603496827088680e-18 -7.5785229936452444e-18  3.4300752709928027e-15 5.1335450260107467e-19 -5.3394911374186188e-17  2.0903340945130995e+00 2.4333440397777090e-05 -4.3498814126886521e-05  2.6897327015701176e+03 -1.5112182298027214e-02 -4.6254884311175290e-02  1.0066683764509962e-13 -1.1137749557145766e-18 4.9282336750893587e-17  3.5668547468491072e-14 -2.4455646541004435e-19 2.5713821038722653e-16  2.0979064676641166e-15 1.1629314295074136e-19 5.6067149562331068e-16  -1.0790929696154938e-01 3.2253759755424283e-06 2.5895224204857938e-05  1.2864258034546924e+03 1.9149112861779776e-03 -2.6351359790012567e-02  1.1503160959459725e-12 -3.3175247875185248e-18 3.6636908327602083e-18  1.0296167148974740e-14 -7.9266102812842242e-20 2.0467933302266204e-16  2.8381972420706403e-15 -2.6195553178956721e-20 1.4730460919268082e-15  1.6230248268261030e-01 -1.0066861356062245e-06 -6.2281244529750754e-06  1.1081797246422648e+03 6.8712036511327764e-03 -2.6669889169929632e-02  5.7251277178332193e-14 -1.0159915482251087e-21 -7.9586831921853302e-18  3.9215753585729415e-14 1.9447509636477751e-19 3.3564937513144797e-17  5.4894114431751801e-15 2.6150845723303682e-20 3.2412199601492479e-16  3.3697114972722630e-01 8.9524536829318654e-07 -1.7691603307252792e-05  9.8554730264095997e+02 1.0449078269676716e-02 -2.4336539386999607e-02  3.3387456592450298e-13 2.3360240033810509e-18 -5.1263378325215274e-18  4.2634598672435319e-14 2.1885360371814315e-19 4.8441901557608772e-18  9.1647099522058237e-15 5.5623578120778266e-20 6.1991733450540924e-17  4.5615829843265526e-01 1.1670829071161108e-06 -1.7598875377626014e-05  9.2314220828758914e+02 1.2829396504373959e-02 -2.3801867813043914e-02  4.1711061782815141e-13 7.2375995209592717e-18 -1.4855530101689357e-17  4.8877627781161327e-14 5.1133866624548481e-19 -2.6480839683617049e-18  9.8067246120773099e-15 5.3945014076870638e-20 -4.9534367016815644e-19  5.1646876041539436e-01 2.2343690614404703e-06 -1.7454208219678251e-05  7.0808384657356225e+02 2.2199869320872308e-02 -2.1815438798540712e-02  4.0276564689525832e-13 7.0224323565491889e-18 -2.1348173724535564e-17  2.4921372279710629e-14 8.1205059777521380e-19 -4.5833611654522816e-18  2.6644046373041294e-16 5.7112248824058853e-20 -1.5876509250370539e-17  6.9701948528862767e-01 5.2451713364484993e-06 -1.7267364983954375e-05  5.0853293165605226e+02 3.3716914206586998e-02 -2.2166940022493687e-02  2.5590617365404687e-13 1.6015940979371982e-17 -1.4083245320265310e-17  3.5898456253605526e-14 1.8137173061073208e-18 -5.1611821328154634e-18  -1.6441695609687416e-16 2.3204673294786668e-19 -1.6656437622804454e-17  8.1419203672822071e-01 7.9085232981096308e-06 -1.5950269812000045e-05  3.8882749275020757e+02 3.9138121336044066e-02 -2.2010451365289598e-02  -4.1354923428078335e-14 2.8262750363568347e-17 -1.4636682193253294e-17  3.6339945967615389e-14 2.9318579566522495e-18 -5.8382214962901325e-18  8.4532295526455275e-15 3.0521204616496090e-19 -1.4992295344838796e-17  8.7402111051930098e-01 1.0351726474315207e-05 -1.5014883319578480e-05  3.0396340628771787e+02 9.2310145262049684e-02 -4.3287583893716890e-02  2.0012328607864010e-13 3.8440367708467308e-17 -1.7062411419478705e-17  2.3789056699676423e-14 3.4091403033312784e-18 -7.6978055404240712e-18  7.4976970747819007e-16 5.7621073087749639e-19 -2.2027152284487569e-17  2.0245054498204196e+00 3.1407135588161080e-05 -2.5397495389312794e-05  2.8586522529276986e+03 -1.5130567186320684e-02 -3.6715721080817436e-02  4.9098184753408296e-13 -3.0521597249041593e-18 -6.7825771664536857e-19  2.7559147397114552e-14 -9.3035224972326749e-21 2.2262838952719581e-17  3.0266430246430815e-15 3.3947858096340145e-21 4.3201449487193896e-17  -2.3486075332530645e-03 -1.4447995374010178e-06 -1.8530820859507361e-05  1.3710320275398121e+03 2.1973248042297723e-03 -2.0510480332617265e-02  9.3572924845056759e-13 -1.3072706438297803e-18 -7.8262534270215918e-18  3.3973528945149259e-14 -1.2737622240644131e-19 4.0523266512487766e-17  -7.3564823456593171e-16 1.7319993859307576e-20 1.3147303994075158e-16  7.8620792982184842e-02 5.8554186303292391e-06 -2.0499812680449230e-05  1.1873158013632888e+03 8.1465868579477085e-03 -2.0729161606736348e-02  3.5627272034232521e-13 6.6843093883071605e-19 -7.5454799779618527e-18  5.0584834620182834e-14 -3.0537311009859996e-20 1.2274874953165809e-17  1.4178290310651998e-14 -9.1608923600006876e-21 8.7779594908269718e-17  2.9696063471994205e-01 2.1368877954718263e-06 -1.8524320866880745e-05  1.0587143293296169e+03 1.2484265489910868e-02 -1.9903421798170139e-02  4.3193690884708138e-14 1.0997875545675669e-18 -8.1200941562202284e-18  2.9336033825532700e-14 2.0415132399619655e-19 2.5950754352877310e-18  2.1373774048456674e-15 8.1967000053040818e-21 1.5499908045024915e-17  4.2114072553694432e-01 3.1105485155088297e-06 -1.7089021620411775e-05  9.9287474832511032e+02 1.4866338737880970e-02 -1.9406623101628676e-02  8.1129689257542856e-14 -1.6505877534493576e-18 -1.1278278014303119e-19  2.2962920447839241e-14 3.0416157566622460e-19 -3.5562456893336079e-19  3.9943259961897390e-15 7.0487937384263234e-20 1.5639195371168209e-18  4.8216952507873384e-01 3.7006611435833107e-06 -1.6481973872232782e-05  7.7054056919396101e+02 2.4144229369671182e-02 -1.8241459929317319e-02  -1.8174066318437525e-13 7.1824294389411766e-18 3.9888854942031348e-18  1.4723619177082677e-14 4.0747328680781618e-19 -1.4539704514038212e-18  6.9709901959785055e-15 1.3806720326886238e-19 -1.1122133235701971e-18  6.6228653492953271e-01 6.4722590408722427e-06 -1.4525100475609118e-05  5.7358732400899873e+02 3.5503887793756191e-02 -1.9154021710978516e-02  1.7360715212809320e-13 6.7285397243065079e-18 -5.5371469499367828e-18  1.6058979492232431e-14 9.3026161198722729e-19 -1.7816881321405765e-18  7.2266889784976090e-15 2.0233174351654380e-19 -2.0210361214181090e-18  7.8307332448254174e-01 9.3129162849510355e-06 -1.3124298997446109e-05  4.5271393496296906e+02 4.0705785350788538e-02 -1.9139628969632661e-02  1.5649602077054237e-13 1.2686429002739004e-17 -6.4052728155652481e-18  2.7706593213642662e-14 1.8679951940268841e-18 -1.9130288245618998e-18  5.7953745622663817e-15 4.1672555507635488e-19 -1.8521353718830602e-18  8.4525416311742008e-01 1.2209038302947166e-05 -1.2368320790159560e-05  3.9711264752836303e+02 9.7769666981437298e-02 -3.8763650819823345e-02  8.8081270333163830e-14 5.8697658464922259e-17 6.1357170298745829e-18  5.2583934798735383e-16 5.8639648673387213e-18 -2.0957584956608235e-18  4.9109176756809372e-16 7.8681389762344116e-19 -3.2576140420625912e-18  1.9831374178993659e+00 3.5206178665664614e-05 -2.1224494495255516e-05  2.9253867555058732e+03 -1.1228792160049910e-02 -2.1605161510490085e-02  6.3389245115934789e-13 -1.8919656134807962e-18 -4.8970485055612888e-18  3.7169533688256297e-14 -5.9280275455402363e-20 1.2489582428648308e-18  2.2668131475404465e-15 2.5408131983346705e-21 5.7528994995721191e-18  -1.4956231906686865e-02 2.3835995111958725e-06 -1.7239087255334714e-05  1.4040812247657932e+03 2.6688267975832950e-03 -1.3554148072920009e-02  5.5424082116501371e-13 7.4213497220349679e-19 -6.1505772945336211e-18  4.0972206418791646e-14 2.4788656585632199e-20 3.2109635686083336e-18  5.3459278943957326e-15 -2.9965366316541767e-20 7.7909952423008601e-18  6.8174339836654274e-02 3.8533676343339448e-06 -1.1524826011087154e-05  1.2169090110553504e+03 8.6772928232644406e-03 -1.3005029048918235e-02  4.3266119544661113e-13 8.2523573960611559e-19 -9.7086557600719475e-18  9.1217389856386185e-14 -4.8876816959186114e-20 1.8689641635069226e-18  1.6007369060489605e-14 -1.4025981968415181e-20 1.1445487491468966e-17  2.7415733227386146e-01 3.3210977534789794e-06 -1.1927711530101483e-05  1.0884119952613137e+03 1.4520498948494654e-02 -1.4227675182120597e-02  3.9699236437776634e-13 -3.8211638792915973e-18 -5.4603551517289490e-18  6.1427845630416084e-14 -2.4052927999833126e-20 -4.0475969340579353e-19  7.2141467812611295e-15 4.2280997673377992e-20 3.5390901989105001e-18  4.0030173084298976e-01 3.8854834865218434e-06 -1.0896277011506170e-05  1.0195081734474575e+03 1.5925891540585057e-02 -1.2984056365688950e-02  6.0243292746903203e-14 -1.5320661607380221e-19 -2.3464831623430873e-18  8.0870099690991244e-15 -6.0725939658054558e-20 -3.8868213669769776e-19  4.9661734083463158e-15 3.7381673894949354e-20 6.0487245060982239e-19  4.6220505002181472e-01 4.5153639766837078e-06 -1.0513025288614258e-05  7.9609309795038587e+02 2.4804220406013738e-02 -1.2103658748072146e-02  3.4057621319752493e-13 1.4873011743908360e-17 -8.1535408323566520e-18  8.4812245448242940e-15 2.4987739756895582e-19 -2.4381124062003357e-19  2.2110462696051015e-15 -3.5204753358607039e-21 -5.8185634023253304e-21  6.4520359987099063e-01 7.4224793590658253e-06 -9.3948677063603752e-06  6.0410664418350518e+02 3.6260104802820811e-02 -1.3242199272489102e-02  4.6060533916341490e-13 6.4258557360967474e-18 -1.1646863521675353e-17  4.0040241067522719e-14 1.7914265416910517e-18 -1.5899288135630931e-18  -4.1738027084339253e-16 1.5154315737763292e-19 -1.6882026362007818e-19  7.6823662438954310e-01 1.0399205836031476e-05 -8.5747292144274803e-06  4.8643923500732268e+02 4.1079678629684854e-02 -1.3333546907937210e-02  1.4555192307092456e-13 2.0847017368071306e-17 -8.8892269755825159e-18  3.3400449407727690e-14 1.6570120828272562e-18 -1.3445896135841722e-18  4.7555483758352483e-15 2.1506406012350819e-19 -4.1859925219267178e-19  8.3170217537974112e-01 1.3373286169371261e-05 -8.1364405684939044e-06  4.5626655586728310e+02 9.9848684391879092e-02 -2.7860325245521313e-02  2.2402491306611844e-13 1.2120702260943635e-17 -1.5651640355078625e-17  1.0756186886004953e-14 3.1979363461157319e-18 -1.3175702888564499e-18  5.4432114005911922e-15 3.0047829490918813e-19 -4.9945909919238654e-19  1.9614594623172823e+00 3.7377485798319769e-05 -1.4474890621201572e-05  2.9628601951043743e+03 -9.3641856814789051e-03 -1.7702956356583067e-02  7.9596384076835940e-13 -1.7905651360660586e-18 -4.1131848379762903e-18  5.7973641833577365e-14 -2.9486919061274620e-20 6.0816770563878904e-20  2.6322823077762112e-15 -3.1120500700445946e-21 3.9946154412954795e-19  -4.3166683159506204e-02 -4.7832290674284537e-06 -1.4817965550766537e-05  1.4231185026371979e+03 2.8622006017985815e-03 -9.9754473159909957e-03  1.0802329999223123e-12 -5.1436812622095869e-19 -2.5447850169422098e-18  5.2255912779886893e-14 -2.4529342567722542e-19 -2.7147209473353444e-19  7.5021938594444264e-15 -1.1024438027272514e-20 7.6854252157985209e-19  4.8497479124207550e-02 2.6469227442767159e-06 -9.1092826126328575e-06  1.2362636233029243e+03 9.3059543760448185e-03 -9.9435020017312106e-03  4.1162623324102922e-13 -1.6617351803978626e-18 -2.9535909364402158e-18  8.9021159626989129e-14 1.2077305858701138e-19 -5.1503086434302102e-19  9.0775259007963959e-15 2.2683857943548518e-20 1.0944459602497920e-18  2.5379594478685596e-01 3.7436301312572542e-06 -9.2534952247886800e-06  1.1084234231079988e+03 1.5818876444187259e-02 -1.0965199280489639e-02  -8.0742393902105495e-14 1.7166038356936875e-18 -6.7378699216300758e-18  3.7891551288488549e-14 6.0524781904308443e-20 -6.4616116425422679e-19  1.3325779062909978e-14 4.2559583643975566e-20 5.5055150299399635e-19  3.8219017901087687e-01 4.5832078095121926e-06 -8.8488818109003977e-06  1.0383275680326308e+03 1.7983001173027195e-02 -1.0385875579557655e-02  7.5581361721946763e-13 9.0006043818036361e-18 -7.8730008142783067e-18  2.8388067158960556e-14 5.2014911704628530e-19 -7.4894598755076313e-19  5.5199473937716613e-15 -2.2640189089237529e-20 6.5423910670269750e-20  4.4512046620492846e-01 5.2506452258001711e-06 -8.5214099850592351e-06  8.1520440479517947e+02 2.5101824825791996e-02 -8.7904593968599083e-03  2.1710166400323060e-13 1.0193109241828383e-17 -3.7500328092346269e-18  5.1375473947836439e-14 8.2835971476241870e-19 -5.8195156620657286e-19  3.6531010142295448e-15 3.3059402205655946e-20 -1.7263667023909927e-20  6.3095777411781373e-01 8.2034570234843232e-06 -7.4457112142672448e-06  6.2971950979607550e+02 3.7235427566780353e-02 -1.0041813679886352e-02  3.7866386334416057e-13 2.1964407622656745e-17 -3.9651594860660764e-18  4.7477407583852014e-14 2.0979388639192163e-18 -5.7899655344898688e-19  6.9280018271959508e-15 2.6836312583916629e-19 -2.1375773962569360e-19  7.5552695494335986e-01 1.1224974287213718e-05 -6.7255740498361975e-06  5.1530610557810007e+02 4.1693902666587533e-02 -1.0093515641830045e-02  -3.8621153688479842e-14 1.8224789667686190e-17 -8.2054547766878733e-18  1.8548182648014523e-14 1.6466781470183352e-18 -1.3936986885482876e-18  1.0396003203033448e-14 2.9889654057158410e-19 -3.0607213462513624e-19  8.1966755614866027e-01 1.4213758267845617e-05 -6.3667848437503390e-06  5.1526346771571627e+02 1.0169994687977628e-01 -2.1153264323884379e-02  1.2851964421924954e-13 4.3157093983929239e-17 -1.8928453083260409e-17  1.5499581626266023e-14 5.7154416321629744e-19 -2.5522250681490695e-18  4.3443246405280299e-15 5.0086549293743064e-19 -3.8203777788204933e-19  1.9393637664569954e+00 3.8924384593787076e-05 -1.1312614492171642e-05  2.9917604750205642e+03 -6.6306705730865036e-03 -5.6528462033953357e-03  9.1660598634349061e-13 -1.4504101714365347e-18 -1.4313332282137551e-18  6.3217637730787613e-14 -1.4423212586552853e-19 -2.1165368063403418e-19  3.5695650865285871e-15 3.9368781660301926e-22 1.6677464393308717e-20  -7.8714474786849523e-02 -3.0136681467421854e-06 -5.7987714674209519e-06  1.4374008546975772e+03 3.1680916766488078e-03 -3.7610819517217477e-03  6.4172185856324812e-13 -1.0141498443707089e-18 -3.5844707801222004e-18  4.1307374057754377e-14 7.7271247914594139e-20 -2.8001708082672878e-19  1.2062880749833872e-14 -2.1674035614962922e-20 1.9996715352072413e-20  2.7547325008537307e-02 1.2312330881413767e-06 