<?xml version="1.0"?>
<VTKFile type="UnstructuredGrid"  version="0.1"  >
<UnstructuredGrid>
<Piece  NumberOfPoints="405" NumberOfCells="1536">
<Points>
<DataArray  type="Float64"  NumberOfComponents="3"  format="ascii">0.45 0 -0.2  0.475 0 -0.2  0.5 0 -0.2  0.525 0 -0.2  0.55 0 -0.2  0.4513073490873402 0.02584108770565486 -0.199840269935525  0.4758401377334192 0.02527699186977964 -0.1999393281985735  0.5006141966759373 0.0250033364175163 -0.2001031950635457  0.5255596158807394 0.02473559280547701 -0.2003040317172859  0.5506704311754281 0.02424103894899032 -0.2005059281592859  0.4520757105320956 0.05125229215596499 -0.1998460719025394  0.4767244935460755 0.05058094444612864 -0.1999715257614393  0.5015016319136005 0.05007704274316236 -0.2001525244505612  0.526434576809982 0.04958102266175544 -0.200350506090027  0.5514953081870776 0.04888396970493965 -0.2005490988783483  0.4528379050849822 0.07651682585108573 -0.1998351902159687  0.4775960708234058 0.07578956768251692 -0.1999860641651563  0.5024326112448078 0.07513732102756158 -0.200161548689215  0.5273737622744896 0.0744778668228222 -0.2003400327649858  0.5523951551377145 0.07368310171529456 -0.2005163180302511  0.4536167062128166 0.1016694842202013 -0.1998123822927489  0.4784514796259883 0.1009045902930299 -0.1999762448027209  0.5033425441496523 0.1001652996410998 -0.2001501943209995  0.5282967978650549 0.09940864266774047 -0.2003194900744885  0.5532960850071973 0.09857365669507583 -0.200485999037379  0.4543919779591863 0.1267493385818232 -0.1997787647849492  0.4792903062279134 0.1259612107355376 -0.1999565860377208  0.5042200198492558 0.1251701454155065 -0.2001341127234711  0.5291847701176524 0.1243619435489167 -0.2003046078325505  0.5541726396101796 0.1235156284828694 -0.2004734460609887  0.4551778666161629 0.1517808053793641 -0.199749819878992  0.4801162456199351 0.1509758480420456 -0.1999380831917902  0.5050722293879643 0.1501608095832483 -0.200121305246819  0.5300438958255121 0.1493300333843656 -0.2002979880319719  0.5550259814438147 0.1484832559658254 -0.2004752797158827  0.4559855673169513 0.1767864783862982 -0.199737860327348  0.4809439587764434 0.1759712612451954 -0.1999285659892697  0.5059130142600973 0.1751465608512754 -0.2001142823906835  0.530888236478511 0.1743084816652086 -0.2002961086049478  0.555867480560148 0.1734626610819466 -0.2004820860242695  0.4568034050050048 0.2017802798208858 -0.1997367605537911  0.4817696209875672 0.2009594390382669 -0.1999267674003465  0.5067493430712785 0.2001318077000285 -0.2001110360927494  0.5317305580823607 0.1992928204609556 -0.2002932624823129  0.5567096509392033 0.1984462226272969 -0.2004837507126488  0.45 0 -0.175  0.475 0 -0.175  0.5 0 -0.175  0.525 0 -0.175  0.55 0 -0.175  0.4513283593291477 0.02584586946511215 -0.1748699534253755  0.4759365875576709 0.02528741026939399 -0.1749629485246162  0.5007281580813597 0.02503872293446969 -0.1750714353293361  0.5256927173846062 0.02480735737767387 -0.1751991172646772  0.5508556797302343 0.02431817042766269 -0.1753280478335978  0.4521598866483856 0.05126480956030807 -0.1748392364857148  0.4768590284811827 0.05059002913242468 -0.1749732482023261  0.5016581237151037 0.05009323376800019 -0.1751205556882161  0.5266028270049782 0.04960051873326726 -0.1752768672310617  0.5516835701354443 0.04889197177710997 -0.1754312142212881  0.452961002772311 0.07651812779734056 -0.1748171485040329  0.4777542777073274 0.07578733132702685 -0.1749754488580616  0.5026025190420657 0.07513422167407396 -0.1751341360034323  0.5275472516529239 0.07446877309244619 -0.1752935657434906  0.552571528125573 0.07366426139882824 -0.1754557918667794  0.453766539918035 0.1016627621003752 -0.1747898641898968  0.4786243615118911 0.1008937329613549 -0.1749634480376891  0.5035188376869626 0.100153025003544 -0.1751293782637873  0.5284712671708374 0.09939225118085472 -0.1752918021441185  0.5534676623827186 0.09855149549142542 -0.1754589006250862  0.4545623388627955 0.1267367838401587 -0.174759978635757  0.4794723636921538 0.1259471689965257 -0.1749449922402193  0.5044015010593761 0.1251563750504697 -0.1751195504091733  0.5293629561199578 0.1243470238389164 -0.1752889861839731  0.5543475712709237 0.123497466113817 -0.1754632546225404  0.4553636475154116 0.1517706358760076 -0.1747362023955927  0.4803058024845798 0.1509642092436185 -0.1749294923463864  0.5052591522331515 0.1501490190194044 -0.1751121426862862  0.5302280337473967 0.149318121197378 -0.175289944222465  0.5552088028921403 0.1484691825345348 -0.1754728229177606  0.4561777136209983 0.1767799846415337 -0.1747255240869945  0.4811375218283039 0.175963753651465 -0.1749228761704343  0.5061039705183512 0.1751373925593896 -0.1751096821733103  0.5310779961992387 0.1742978978381282 -0.1752929692748665  0.5560584645336393 0.1734499467978415 -0.1754832577267806  0.4569932691784759 0.2017738984771045 -0.1747303574656936  0.4819657627680208 0.2009548594644588 -0.1749270245290397  0.506943287557825 0.200123945494888 -0.1751115970567887  0.5319239208620768 0.1992812304222911 -0.1752931843771841  0.5569059180957115 0.1984327965991431 -0.1754851683988071  0.45 0 -0.15  0.475 0 -0.15  0.5 0 -0.15  0.525 0 -0.15  0.55 0 -0.15  0.4514635432501181 0.0258739314671163 -0.1498887354410753  0.4760191069441966 0.0252871776007836 -0.1499785001677053  0.500789996599508 0.02504361331965092 -0.1500513598914734  0.5257562525320101 0.02481746648741402 -0.1501330491984343  0.5509471248382536 0.02430537589016627 -0.150215753774688  0.4523360347912595 0.05129252928861142 -0.1498342221169917  0.4769982219842952 0.05059758982204424 -0.1499684497211026  0.5017788473721325 0.05010107652300535 -0.1500873222845942  0.5267270879731067 0.04961114851521441 -0.1502094044019634  0.551824824662861 0.04888583181259933 -0.1503316667389892  0.4531583926339024 0.07654432689776761 -0.1497976951960049  0.4779265552133415 0.07579813123795399 -0.149960456582956  0.5027613003829654 0.07513987587404762 -0.1501024106193119  0.5277057277601555 0.07447036167578182 -0.150243835285663  0.5527343082314992 0.07365455205629558 -0.1503906763025516  0.4539763106651979 0.101683136196663 -0.1497662461817056  0.4788155192627851 0.1009032750745184 -0.1499463067449071  0.5036990607981995 0.1001548115843909 -0.15010436043174  0.5286482196255757 0.09938646107577867 -0.1502595059636354  0.5536421726558759 0.09853600120850117 -0.1504227151404283  0.4547747763484327 0.1267525664281969 -0.1497384070465002  0.4796726531863703 0.1259550863766428 -0.149930362242654  0.5045934442452472 0.1251556780987477 -0.1501019494670156  0.5295507791431167 0.124337687707968 -0.1502697582486677  0.5545310483409162 0.1234789430396645 -0.1504459877632138  0.4555769761312676 0.1517828774924045 -0.1497186927885939  0.4805108648085717 0.1509704568093563 -0.1499186459217806  0.5054582149651654 0.1501471686782058 -0.1501009893952918  0.5304234751146704 0.1493076263805239 -0.1502796736600401  0.5554005393716898 0.1484498143360612 -0.1504668625512298  0.4563933480937448 0.1767918117936793 -0.1497106783588278  0.481346858485443 0.1759697560302581 -0.1499159862752453  0.5063088227192485 0.1751353411334103 -0.150103848343166  0.5312801254210172 0.1742871628436036 -0.1502886456131497  0.5562583155387466 0.1734304518050781 -0.1504842323557992  0.4572131532245848 0.2017878214537952 -0.1497231960687041  0.4821809015254311 0.200961283522129 -0.1499276541506283  0.5071553145279816 0.2001218643695178 -0.1501113333937342  0.5321337452244777 0.1992702020716658 -0.1502920398102507  0.5571141871246972 0.198413103715448 -0.1504882147933371  0.45 0 -0.125  0.475 0 -0.125  0.5 0 -0.125  0.525 0 -0.125  0.55 0 -0.125  0.451562317781241 0.02591082362488098 -0.1248954048037509  0.4760908451542649 0.02529304307579197 -0.1249700568784334  0.5008442358257111 0.02504499919483294 -0.1250301861893151  0.5258071187702443 0.0248158634028101 -0.1250925045782571  0.5510112142425455 0.02427772622491264 -0.1251571218933477  0.4524891401568967 0.0513339919767507 -0.1248301061549836  0.4771259303211753 0.05061222852296426 -0.1249488815414512  0.5018885035627215 0.05010685070879351 -0.1250528284665772  0.5268327418711416 0.0496093495645231 -0.1251539997548149  0.5519376892182132 0.04885775075688359 -0.1252555922578153  0.4533418552119124 0.07658378717906146 -0.1247823510137372  0.4780926745986951 0.07581778226869514 -0.1249338406121948  0.5029128772140603 0.07514740232100278 -0.125066060070917  0.5278522636328097 0.074466761771821 -0.1251939928820783  0.5528811958254806 0.07363028940736924 -0.125327034197719  0.4541785647281582 0.1017179082580055 -0.1247458360294725  0.4790055403875773 0.1009232260366649 -0.1249196663947485  0.5038779240493817 0.1001617056571192 -0.1250733706250197  0.528821380707671 0.0993803936906289 -0.1252223324077166  0.5538118244910873 0.09851354495219185 -0.125379150301868  0.4549867757056936 0.1267822156555038 -0.1247182755988513  0.4798762689845981 0.1259739003263189 -0.1249081544682767  0.5047886772787822 0.1251613168025011 -0.1250789404436508  0.5297406705286286 0.1243298910320129 -0.1252452804151088  0.5547163548554064 0.1234574222095486 -0.1254203522050245  0.4557942292993017 0.1518090522612885 -0.1247014722580239  0.480722312546242 0.1509873893162555 -0.1249023790162411  0.5056636567647826 0.1501516234923299 -0.1250858243277605  0.530624584888164 0.1492989237671498 -0.1252654907676815  0.5555976805690706 0.148428781667122 -0.1254546642798787  0.4566168145323756 0.1768178099291125 -0.124697297129716  0.4815653462536883 0.1759860834623644 -0.1249057475863071  0.5065225422511767 0.1751392808873491 -0.1250953985026999  0.5314906078642702 0.1742779664433779 -0.1252819503562767  0.5564661333007908 0.1734089763941746 -0.125481363302198  0.4574464897820443 0.2018162038085659 -0.1247164450767907  0.4824089248325124 0.2009777008283396 -0.1249244390542157  0.5073793939242736 0.2001254523053001 -0.1251086037052642  0.5323552787888867 0.1992604556342998 -0.1252896238571058  0.5573341148558963 0.198390050610811 -0.1254896039910521  0.45 0 -0.1  0.475 0 -0.1  0.5 0 -0.1  0
[...]
<PointData  Vectors="traction"> 
<DataArray  type="Float64"  Name="traction"  NumberOfComponents="3" format="ascii">2.3206729763773760e+03 -5.7709383901683980e-02 -4.0406225878209932e-02  2.3017974582424484e-13 -6.4449309417603520e-18 -5.5668298108778375e-18  2.2013031889259885e-14 -2.7917008309743432e-19 1.9330131478967145e-17  1.9708902321335543e-15 4.9707568788961723e-19 4.5769344095447239e-15  1.4748199539008132e-02 3.1324872681535000e-03 2.1242255385829619e+01  1.4341574623288839e+03 1.0378406898634417e-02 -2.9863219686888973e-02  5.2171028591058353e-13 -2.5171107272664200e-18 -9.3591088150252803e-18  1.8962851028503797e-14 -1.7933241410670862e-20 -4.9327312228493418e-17  1.7255444339351514e-15 1.4320234326819917e-20 -2.4204440345877874e-15  2.1365646880349932e-03 1.2722493057223258e-04 2.3958034466870299e+00  8.8226421694041630e+02 2.5183766587852360e-02 -2.3733279201623176e-02  2.0233979960253912e-13 2.7586665168070020e-18 -5.7938201102296969e-18  1.3169515606946139e-14 1.4319477186756234e-19 -1.1651742578279379e-16  1.4504532687577207e-15 2.9477348188127345e-20 -1.2053838558403281e-15  -1.3348028332158359e-04 3.0799744808205745e-06 -6.5120612047908004e+00  6.1518777202941351e+02 2.3552416334122167e-02 -1.9042587090963500e-02  1.1130958213542154e-13 4.4730554926716824e-18 -1.1266381248448123e-17  5.7231094166898443e-15 4.2809295811758762e-19 -9.6035324848462144e-17  2.0323195865169175e-15 3.1940173175118476e-20 -1.4505496988075525e-15  -1.3428201973775039e-04 2.2079797259487984e-05 -6.4990907252066590e+00  5.0393202084681366e+02 3.3980163122828193e-02 -2.4927250270726582e-02  9.7095903532987304e-14 3.8502851694120870e-18 -9.8612051014858124e-18  7.1269723217502988e-15 3.6956420380793920e-19 -1.1583329120147147e-16  2.8904511592218535e-15 3.5551070154353071e-20 -1.0816223682989043e-15  -1.1180827563572817e-04 -9.7335635615453119e-06 -6.3843008360059059e+00  2.6361164483760496e+02 3.1072354470656201e-02 -1.7179746888216902e-02  5.5384007012046200e-14 2.8466286498790201e-18 -1.3047047978612170e-17  6.3950794289052684e-15 5.6071733101644174e-19 -1.0820947696770888e-16  2.8851077373627221e-15 3.6046123674800359e-20 -1.5226390237622810e-15  -1.0302211652147555e-04 -3.1173847395806656e-05 -6.4668511388524372e+00  1.4637122194110424e+02 2.3970414691305033e-02 -1.1963240571564334e-02  2.0593134421484789e-14 7.4666940690245962e-18 -1.4121952112241254e-17  2.2478389747596633e-15 3.1985853826861055e-19 -1.3669883465224664e-16  2.2220487143011443e-15 2.2201196700366775e-20 -1.7136540010958864e-15  -9.7554706968862881e-05 -4.5037355520933137e-05 -6.5780225846468117e+00  1.0211961501625396e+02 1.2721153846363886e-02 -6.0125477809027826e-03  4.0710646805534107e-14 3.3234391800399300e-18 -1.3290737177668446e-17  2.9688645812551967e-15 3.5744306170128208e-19 -1.1420917365953665e-16  4.9588382417230263e-15 2.6416997473605331e-20 -2.1664252739547029e-15  -9.3759017132513772e-05 -4.6610148644649198e-05 -6.5964403930411351e+00  1.3571859926787889e+02 3.9824176656780376e-02 -1.6821104500122055e-02  3.2959064603024850e-14 4.5104333299782352e-18 -6.8297353382605739e-18  3.0795497449596270e-15 4.8042945263935554e-19 -1.1935393701846270e-16  2.1731881050753130e-15 5.0046142342241238e-20 -8.9379728024525779e-16  -2.6249545268491734e-04 -1.3319984718157557e-04 -1.9615314444136807e+01  1.5471153175849172e+03 -3.8472922601122672e-02 -2.6937483918806633e-02  2.1708646668780538e-13 -3.7451411274090298e-18 -6.1623552513657342e-18  2.2740166442846877e-14 -5.4105699687321113e-20 9.8352257234806964e-17  3.0661703142380986e-15 5.4946349658422265e-20 3.9364146097216053e-16  2.1593781422735012e+00 1.5632508008682100e-05 -3.1427267509541227e-05  7.1707873116444114e+02 5.1892034493171823e-03 -1.4931609843444485e-02  6.5577125700246916e-13 3.3598897186060933e-18 -8.8840438385749369e-18  4.5702451109700036e-14 1.0310242165732199e-19 -3.2383273255756275e-17  4.2877941943019680e-15 -2.5406118023972938e-20 2.4610828612019736e-16  1.1457157601490469e+00 -1.5230602039517864e-06 -1.5499761097009383e-05  4.4113210847020827e+02 1.2591883293926170e-02 -1.1866639600811586e-02  -1.2822175325442762e-13 3.1529716379549213e-18 -9.7295891826933850e-18  3.4115705850391066e-14 4.4226595728576907e-19 -2.4885644213076892e-17  9.1409958192497964e-15 2.4838296357710575e-20 -2.1501377586091009e-16  1.4839072515312210e+00 8.2146512729434098e-06 -3.2949245393989897e-05  3.0759388601470675e+02 1.1776208167061080e-02 -9.5212935454817536e-03  1.1815182557487775e-13 1.1671748048040604e-17 -7.1627898090093581e-18  2.2398309972379915e-14 5.2524915374603669e-19 -3.4247982202852412e-17  4.4105128655379213e-15 5.1135358620827228e-20 -1.6129582340562286e-16  1.7136002034024183e+00 2.3807043457207690e-06 -3.3529038923740130e-05  2.5196601042340697e+02 1.6990081561414107e-02 -1.2463625135363293e-02  1.3070808255728652e-13 6.2871300162635257e-18 -1.1768739812360214e-17  1.7680009273191933e-14 7.1936706211177509e-19 -2.5045110937484941e-17  4.2237881350840629e-15 7.4745402143064430e-20 -1.3146974958604353e-16  1.8074570542436996e+00 4.2944040662119914e-07 -3.1886899140946701e-05  1.3180582241880265e+02 1.5536177235328104e-02 -8.5898734441084510e-03  1.1430117254386433e-13 1.8721740144653042e-17 -1.4112611123090662e-17  1.6693727266877763e-14 8.2482725172328978e-19 -3.7262784077852138e-17  4.9104160282761052e-15 5.3235943687735905e-20 -1.6307303369637997e-16  2.0433641268635649e+00 -3.1895808295600998e-06 -2.6401100393137976e-05  7.3185610970552105e+01 1.1985207345652499e-02 -5.9816202857821662e-03  3.9635049314496310e-14 6.4810008330026275e-18 -7.9676406171596912e-18  5.6275481701332031e-15 8.3201321594670076e-19 -4.4832722127741527e-17  3.4033612729845565e-15 5.2858514120951996e-20 -2.4817708816114152e-16  2.1827737267739344e+00 -3.3471773003273390e-06 -2.1345455842275212e-05  5.1059807508126951e+01 6.3605769231819508e-03 -3.0062738904513848e-03  5.9662951299764633e-14 6.3877066790668820e-18 -6.9908893052301809e-18  5.6712322897324760e-15 8.4276073059505321e-19 -4.9419139893281564e-17  2.3277980618501770e-15 1.4368714124640373e-19 -3.4663145220333097e-16  2.2519837380959085e+00 -2.2647998109532495e-06 -1.7839605126947516e-05  4.5239533089293005e+01 1.3274725552260131e-02 -5.6070348333740177e-03  1.2569933991106880e-14 8.8556704730154361e-18 -5.9644514002933179e-18  8.5237830557726428e-15 1.0562799524163336e-18 -2.1593722058025589e-17  2.7412214296840838e-15 1.1726816746348616e-19 -2.4645098316935120e-16  4.8188873115047111e+00 2.2900750474711825e-07 -1.6977836223731475e-05  1.8936260531021007e+03 -5.6639176088547896e-03 -1.5696124605852832e-02  5.2242720800717823e-13 -1.5672805244129753e-18 -1.5107881393833312e-18  2.1766971361460110e-14 -2.7970312686961928e-20 1.2999175988655533e-17  3.2597413146905194e-15 4.8303924580789056e-21 -6.4583817007302326e-18  2.0013104997768463e+00 -5.1369449151688656e-06 -3.7152391589688430e-05  8.7823110682274660e+02 6.5015141490439915e-03 -9.2363464553426190e-03  7.9300285350651316e-14 2.4844157560106163e-18 -2.2780277665922278e-18  5.1117798143680973e-14 -1.4867139233947307e-19 6.3637613072509570e-18  6.0835086157020124e-15 -2.7653223729743178e-20 5.8926621036579175e-17  1.0776185546322059e+00 3.5799365895114693e-06 -1.5687283052508699e-05  5.7655196183388193e+02 1.3980193675030077e-02 -7.9352748341091732e-03  2.1088027746338588e-13 7.7260663809124839e-19 -6.7965127805058570e-18  2.1093046561979188e-14 6.4828482452256293e-21 -7.2455674093024899e-18  1.2010521765102270e-14 6.4396008954725603e-20 -1.8938996498914167e-17  1.3524134016405585e+00 4.2742780152084187e-06 -1.7027510112332717e-05  4.1791633764893083e+02 1.4323724733811095e-02 -7.0517439014545283e-03  2.6402727581493454e-13 3.9165911135659053e-19 -5.7919342623029220e-18  1.9016059107648543e-14 7.2075074566571779e-19 -5.6846480706830120e-18  -3.1724666234341775e-16 9.3717886092660033e-20 -1.7116498269067624e-17  1.5307736391017230e+00 2.1860864127802965e-06 -1.8219298264676252e-05  3.4675717052379554e+02 1.3399908793300013e-02 -6.1577253658483440e-03  6.1951619554997242e-14 8.4175872284094281e-18 -5.1764630677196386e-18  7.8865599068665113e-15 6.2319905582872645e-19 -5.3642847971903490e-18  5.2249759047712066e-15 2.0316977645202127e-19 -2.2399322787319630e-17  1.6134745177419973e+00 1.2368919103268868e-06 -1.7830768347457609e-05  1.8206492279223605e+02 1.6721853194945298e-02 -6.5177595713073969e-03  1.0987724578186534e-13 5.3700033063221952e-18 -8.1803393595671999e-18  1.7973468341262605e-14 1.1680538559345723e-18 -6.2332165485270133e-18  4.2243691244136363e-15 1.4979600928260369e-19 -2.3319104497699416e-17  1.8445993722885483e+00 5.8146024383361875e-07 -1.4780499822728444e-05  1.0455503935354977e+02 1.5768941561560879e-02 -5.7017187939824897e-03  7.9581408401624043e-14 3.3731560803678030e-18 -3.9397424073460603e-18  1.1756902480474300e-14 9.4276776272925972e-19 -8.3152717161741562e-18  4.9533094379269541e-15 3.0892144401580506e-19 -2.3914421045073901e-17  1.9966778444888593e+00 2.1483814437269649e-06 -1.1432385391437618e-05  7.2598141022287464e+01 1.2629893302949089e-02 -4.3062261397858312e-03  -6.7480066029065178e-16 4.2784917509138928e-18 -5.3985373841783252e-18  8.2412851952219140e-15 9.8086585270280358e-19 -1.1154205273684445e-17  3.3480526949139688e-15 2.0423456920188072e-19 -3.5687696686738193e-17  2.0788412455469341e+00 3.7205143505716722e-06 -9.6735630069839870e-06  5.6336492589852824e+01 1.2325655210825818e-02 -3.6222963845220142e-03  2.1701422200680006e-14 -7.0069235049130563e-20 -1.5749815262890640e-18  6.5588587442558325e-15 1.5175654982046493e-18 -9.2913860444569701e-18  3.0556900731105229e-15 2.9407894633562883e-19 -6.0868828306668471e-17  4.5741428255200267e+00 1.4753351766606384e-05 -9.3111685013243500e-06  2.0604141444058378e+03 -6.6889882767143223e-03 -1.1374786350568936e-02  3.3126587770030133e-13 -1.3091383472965271e-18 -2.1060051673900653e-18  1.8498399578995797e-14 -5.9888075419236679e-20 7.8683307624513315e-20  2.8308561334583539e-15 1.3561659618072647e-21 8.1979401260107228e-19  1.9269784985861615e+00 -5.1653711127789806e-06 -1.5528448710198403e-05  9.6100774818603122e+02 6.6594986689199427e-03 -6.3378778642908824e-03  8.4567992290861430e-14 2.1039875516386939e-19 -7.5943622515927931e-19  2.3711362626132306e-14 -6.4826272903896170e-20 1.3888470463768756e-18  6.9535513698341074e-15 -9.5113519617521108e-21 2.2200271915624259e-18  1.0343804587554917e+00 1.6458000918472178e-06 -8.9178428340217126e-06  6.6304602898480732e+02 1.4018816688548971e-02 -5.5497628480190497e-03  1.9476480144846731e-13 5.2265530800600444e-18 1.3256302547312131e-19  2.1577290670524783e-14 5.1360469204749329e-19 -4.6928347496725277e-19  2.6271883071792412e-15 4.4392091783481733e-20 1.2691610603294469e-18  1.2652332373914370e+00 2.9472687452749754e-06 -1.1281605732257868e-05  4.8635630121374999e+02 1.4716307333411371e-02 -4.9086397546687192e-03  1.8307682173154853e-13 8.9744592558734005e-18 -3.4235171008909341e-19  8.6173111373886970e-15 4.9702471138351022e-19 -9.4376313767908248e-19  3.3915185944162707e-15 5.9535165321594467e-20 -2.7036560132483173e-18  1.4226991288251658e+00 2.5518267555010323e-06 -1.1458680104158603e-05  4.0682017396564027e+02 1.3973952570586692e-02 -4.3633372527887432e-03  -5.3521304498132221e-14 2.4500108870604960e-18 -3.5623863480808734e-18  2.0049192579608312e-14 8.0126554758320899e-19 -1.2111555628416950e-18  6.8278463863526493e-15 1.0222763206393539e-19 -2.2180160856781001e-18  1.5003558813471967e+00 2.4103423956889683e-06 -1.0989106561163679e-05  2.2005348283280006e+02 1.8080902885430458e-02 -5.0978742567993427e-03  1.4885865767681804e-13 8.5306587972296633e-18 -2.4765287586683373e-18  2.1978761126048052e-14 8.7275435880268113e-19 -1.2820061934785620e-18  2.9593322367741824e-15 1.4732151852948507e-19 -3.1700580866655836e-18  1.7319104631208697e+00 3.3358938487773385e-06 -8.1666142422886354e-06  1.2764325665800745e+02 1.7638752419968609e-02 -4.6956912042891152e-03  -1.5697456901376388e-14 -5.2804132654644603e-18 -3.3662608571199060e-18  1.0890409584379903e-14 7.4217500428019120e-19 -1.4020220879946962e-18  3.9172075243857346e-15 1.3432949439020624e-19 -2.9800448155164266e-18  1.8980634061649977e+00 5.8085018144307454e-06 -5.4068952516209807e-06  8.9557150446547027e+01 1.4200414195163392e-02 -3.5917567093771761e-03  9.0133680213368507e-14 1.1043838649902910e-17 -3.1486589615813014e-18  1.0136015126183371e-14 1.0210842369354570e-18 -1.6478633235154253e-18  3.4466305375321860e-15 1.3914205744695932e-19 -3.7258004864795500e-18  1.9904257124087970e+00 7.7792959260296403e-06 -3.9645309162508080e-06  7.2695650964804145e+01 1.6982136707550881e-02 -3.8406607701740487e-03  4.3422170128956664e-14 1.2619158276380648e-17 -3.0437817423357506e-18  6.2459196989314717e-15 1.1636201628375684e-18 -2.1941916590892430e-18  2.4223212077793542e-15 2.4764331195254019e-19 -6.0119665496852465e-18  4.4470862686989490e+00 2.3958704624410919e-05 -1.4277792009154423e-06  2.1460632183467642e+03 -5.8824477886463295e-03 -6.2035911976694941e-03  1.4547971994003039e-13 -9.6846111830566473e-19 -9.3652160952866216e-19  1.3654262069705441e-14 -2.9286253030433217e-20 -2.7857771521435428e-20  2.0087481855857498e-15 5.8440007968589333e-22 1.3746446807180522e-19  1.8498470560042335e+00 -3.3071947236544391e-06 -1.1619571628041690e-05  1.0045919172280551e+03 7.0866058166454650e-03 -4.3430028637422777e-03  -1.2640848151427070e-13 3.7899592352358646e-19 -1.9288403551371868e-19  8.7726101760261940e-15 1.5462059778255119e-20 3.4158123115349778e-20  5.3005308564494404e-15 -6.3960973214103798e-21 2.3025950357077366e-19  9.9389621302992803e-01 1.1315197957150028e-06 -5.9907581695903715e-06  7.0156156988603061e+02 1.3677595743865187e-02 -3.5086989100719711e-03  1.2692750566005616e-13 1.9367600350960718e-18 -3.8735200701921432e-19  2.5927161982182714e-14 4.2061458153089702e-19 -5.3033232995653154e-20  2.2671059373096571e-15 3.7871473171269697e-20 2.3596835039557572e-19  1.2120813976871845e+00 2.5243306646697608e-06 -6.5133931098508646e-06  5.2041359211370832e+02 1.5862433488659743e-02 -3.4323276921642979e-03  2.4760717636261701e-13 9.9126181637231748e-18 -2.1264794483294849e-18  2.9105050304423812e-14 7.7036330974857195e-19 -3.6729057565064308e-19  5.4616764799870712e-15 1.0490313791793178e-19 -1.9620996181102536e-19  1.3621050198181752e+00 2.9836944030719453e-06 -6.3253112789142000e-06  4.3926206171110096e+02 1.4641308186156096e-02 -2.9891952633914532e-03  1.8046248357698931e-13 8.4882815973191879e-18 -1.9698957702019335e-18  3.3225662361090659e-14 1.1664694764854953e-18 -3.4392552234726886e-19  5.4122067137048460e-15 2.0696403064047232e-19 -2.9125275524535489e-19  1.4380051843915533e+00 3.3044257214794025e-06 -5.9535361234504975e-06  2.4520790680808310e+02 1.9116015737667542e-02 -3.5238775242011013e-03  2.1940039391208087e-14 1.1650836368434645e-17 -1.5526873385243040e-18  1.3151377006546658e-14 8.5630812081982289e-19 -3.5389073640050401e-19  3.0338314760026370e-15 1.0676229616594056e-19 -3.2809876382703689e-19  1.6732509945620548e+00 5.3335579726524945e-06 -3.9143753122580964e-06  1.4457903304435797e+02 1.9090252607875648e-02 -3.3448665180850993e-03  9.0851474888677380e-14 5.1490529678467048e-18 -1.2872632419616762e-18  9.5784293020138710e-15 6.6900438439503269e-19 -4.0857130772027457e-19  4.4938475957892331e-15 1.4847148176420126e-19 -3.9254375336535949e-19  1.8448747163201371e+00 8.1738982142717369e-06 -2.0104706313473631e-06  1.0220958082443302e+02 1.7170393547193064e-02 -2.8949889339092796e-03  9.0277855088761224e-14 7.5351794851230553e-18 -6.5028324632475387e-19  5.1445258796842134e-15 9.7457963268048541e-20 -3.8257775854808047e-19  2.3243720092717678e-15 2.6761167795939407e-20 -4.5205378044425328e-19  1.9415975150020093e+00 1.0596174230737295e-05 -9.6298551909526645e-07  8.3603664914208977e+01 2.0806279521680873e-02 -3.2185249197883982e-03  7.0932375102440722e-14 9.5207719488159843e-18 -4.2601706301057302e-18  6.8695665794564858e-15 8.9231325401855196e-19 -7.5136558312166749e-19  3.6462533434640955e-15 2.9135861107601268e-19 -6.6444985145742564e-19  4.3769193732965634e+00 3.0290217873816583e-05 2.4976294932800792e-06  2.2079505404770707e+03 -6.7566450998160291e-03 -3.9628021478790220e-03  2.6127372677616325e-13 -1.0461874487455184e-18 -5.0751555063554644e-19  6.7509289356081278e-15 -3.8629125222630077e-20 -2.9431714455337198e-20  2.2032127544590572e-15 3.2443668243381712e-21 3.4780120730348860e-21  1.7873740878235884e+00 -2.4699639820961197e-06 -8.0119614093541205e-06  1.0355797566341164e+03 7.1566028999305066e-03 -2.7285250963128564e-03  -3.1634075613034904e-13 8.4683392214248805e-19 -3.0992126637759625e-19  1.2609899412715857e-16 8.0054486374741581e-20 -4.3836424596888782e-20  3.1025693797625161e-15 -5.2499435821296624e-21 6.5606830771710791e-21  9.6154140584126302e-01 8.8135175877177593e-07 -4.0058284109708075e-06  7.2610639420080679e+02 1.5222804347297730e-02 -2.5263839488261536e-03  5.8409336523156688e-13 4.6569796549214680e-18 -7.2084756887809549e-19  1.8232828257055741e-14 7.0901725843372871e-20 -2.6527382246355286e-20  0.0000000000000000e+00 2.6027393188944774e-20 4.7683773781272882e-20  1.1735667580629205e+00 2.4499655604557358e-06 -4.0368690341788971e-06  5.4310846146397012e+02 1.7248386423072033e-02 -2.4493164325911010e-03  1.8867029135623272e-13 7.4312498777066560e-18 -1.9610276546191023e-18  2.1746732233617163e-14 7.1173806882698199e-19 -1.3787129488333928e-19  3.9356098740294645e-15 6.3573580235521759e-20 -1.9136199771871709e-20  1.3205716303030335e+00 3.4255895971424063e-06 -3.7308540105227070e-06  4.6085257022994119e+02 1.5260678146748006e-02 -2.0527395945645591e-03  1.5895202925194635e-13 8.9162503178993544e-18 -1.6952046270074500e-18  1.9263442595643408e-14 9.4263154963200442e-19 -2.0716732776541211e-19  5.5090980246567034e-15 1.9112365690025803e-19 -8.0019106799022496e-20  1.3958013739060000e+00 4.0150125154503880e-06 -3.4323272748264447e-06  2.6021345342471130e+02 2.1379730476600068e-02 -2.5615401488450020e-03  4.9219411244200794e-14 2.4862207844067063e-18 -1.0799549788595618e-18  1.1727117965454447e-14 9.4371439720164137e-19 -2.1228267140419795e-19  3.7905496897966728e-15 1.8250884780619570e-19 -7.7540849766706188e-20  1.6325276550870675e+00 6.7026997963969619e-06 -2.0351072782616757e-06  1.5575383782132712e+02 2.0976656840584289e-02 -2.4472992401358496e-03  -1.6666972970857439e-14 1.5175286192045316e-18 -1.1188455402057323e-18  1.4765242950711546e-14 7.6931683963871054e-19 -1.8348305672865355e-19  2.7618860517713311e-15 2.3197826099014852e-19 -7.1116374395204504e-20  1.8092825476316108e+00 9.8853463719840352e-06 -7.0635370280720292e-07  1.1062473486713922e+02 1.9011386364753847e-02 -2.1726602540591343e-03  1.0020039902218865e-13 -3.5368125823647895e-18 -1.5084667931382887e-18  6.6487009940170414e-15 3.0435337802202033e-19 -1.3999526138454154e-19  3.1063922634184940e-15 1.0137432074583980e-19 -7.7749637189520448e-20  1.9096076555865751e+00 1.2432871416205675e-05 3.0907427006969058e-10  9.3282145322623904e+01 2.0559596422267623e-02 -2.2444088803746836e-03  5.8030041117622082e-14 2.8924093117350178e-18 -2.6619675148066013e-18  1.5820191209802899e-14 1.3040385649707571e-18 -3.0671979850430198e-19  2.7622304386073874e-15 2.5364467832501191e-19 -9.5851576757136007e-20  4.3324132516882239e+00 3.4262521999141908e-05 2.9553265578393724e-06  2.2859515086283718e+03 -7.7067973404003100e-03 -1.5164607535483059e-03  5.3694123810199891e-13 -1.5716308622322742e-18 -4.2938580213677468e-19  3.7551668791661889e-14 -9.1422617513693585e-20 -2.7278437232350245e-20  2.9736111636231782e-15 2.1564831566740916e-21 -3.2041701035684853e-21  1.7072874217244436e+00 -1.6719510440359552e-06 -2.9720568355949289e-06  1.0719186464193660e+03 9.3826709649829226e-03 -1.1519252346353700e-03  6.8514766833200988e-13 -3.6378067820844611e-19 -3.9451611777450695e-19  1.9663807818299898e-14 1.2664420079137082e-19 -4.5762233100610555e-20  3.8257163308475625e-15 8.7304255839505445e-21 -6.3013877130422722e-21  9.2100433327746056e-01 8.3793330057684