<?xml version="1.0"?>
<VTKFile type="UnstructuredGrid"  version="0.1"  >
<UnstructuredGrid>
<Piece  NumberOfPoints="405" NumberOfCells="1536">
<Points>
<DataArray  type="Float64"  NumberOfComponents="3"  format="ascii">0.45 0 -0.2  0.475 0 -0.2  0.5 0 -0.2  0.525 0 -0.2  0.55 0 -0.2  0.4528414109195142 0.02734959957741565 -0.1989144889894196  0.4767948271324565 0.02593307215849175 -0.1994587685750168  0.5013005075972307 0.02508621183648215 -0.2000971359870524  0.5262074159318491 0.02420993269163189 -0.2008214336954975  0.5515112722609884 0.0227029064333109 -0.2015488021997654  0.4552229051893917 0.05370495012695276 -0.1988704176768059  0.4793193532501443 0.0517019372326835 -0.1994754153044593  0.503781901940126 0.05015376050764658 -0.2001877023192827  0.5286317850073113 0.04857390704949455 -0.2009400128281867  0.5537599270857636 0.04637774009577125 -0.2016876085081667  0.4579399568245809 0.07955558823001524 -0.1989701398225781  0.4822141797392792 0.07716388586630232 -0.1995722530239322  0.5067394613864253 0.07509518845834885 -0.2002329375297109  0.5315433489221981 0.07297674853960966 -0.2009032774100361  0.5565145341843398 0.07037125875960798 -0.2015582775055522  0.4608665361159362 0.1049972166725016 -0.1990917839218823  0.4852779490958897 0.102351348322663 -0.1996559008063052  0.5098687459699652 0.09992718600717172 -0.2002511136972278  0.5346397057636868 0.09744720340852023 -0.2008401603276224  0.559502680163967 0.09461916260244342 -0.2014122669045847  0.463851415814491 0.1301483097221126 -0.1991884536877263  0.4883857784275724 0.1273547327729472 -0.1997211524160416  0.5130253780202922 0.1246986474574102 -0.2002639954393375  0.5377732939374252 0.1219970797885744 -0.2007953460660899  0.5625673703072348 0.1190679401461156 -0.2013136599126789  0.4668377427129497 0.1550959343373285 -0.1992622657834975  0.491460608330369 0.1522273275420627 -0.1997742303202459  0.5161411284247626 0.1494407788221811 -0.2002824062086878  0.540875307348468 0.1466195881776723 -0.2007784542735887  0.5656276356699821 0.1436610335688571 -0.201268609206652  0.4698076563648789 0.1799178834541661 -0.1993332149247898  0.4944854288974543 0.1770223854380792 -0.1998280956904673  0.5191921530702089 0.1741748791074185 -0.2003094097413468  0.5439179901530173 0.1713021410995618 -0.2007818894124479  0.5686458000527727 0.1683494517478193 -0.20126220571448  0.4727399534260638 0.2046790575412838 -0.1994027460265568  0.4974262454789283 0.2017815965926162 -0.1998885531512695  0.5221475268877913 0.1989155793014054 -0.2003404400297906  0.5468884140516542 0.1960267277833073 -0.2007861179954126  0.5716182126311279 0.1930814126898422 -0.201265226537824  0.45 0 -0.175  0.475 0 -0.175  0.5 0 -0.175  0.525 0 -0.175  0.55 0 -0.175  0.45317576964784 0.02722905096898296 -0.1743138896543092  0.4771845762541435 0.02584891230505615 -0.1746640632748631  0.5017169604922519 0.0251086918457268 -0.1750706580535838  0.5266835623334464 0.02437812129834757 -0.17552174541671  0.5521773298367424 0.02290990485261263 -0.1759670707802526  0.4556997136900857 0.05367069477583306 -0.1741396953648658  0.479842523012072 0.05166041750587269 -0.1746218678664671  0.5043401333845031 0.05012828511409522 -0.1751614382049461  0.5292234361780461 0.0485608326634993 -0.1757221192157219  0.5544244593511931 0.04632953562922364 -0.1762517520215464  0.4584535481046557 0.079544968457228 -0.174140330023487  0.4827727752687535 0.07713310709545192 -0.1746602093541288  0.5073154284953916 0.07503328736517864 -0.1752079280849964  0.5321246976349635 0.07287556721380274 -0.1757595237449158  0.5571072691300973 0.07023664168907665 -0.1762952135015658  0.4613817486924452 0.1049858479892947 -0.1741848082734407  0.485829324401525 0.1023164759556174 -0.1747070814467246  0.5104232544343543 0.09985247542124313 -0.1752318743323104  0.5351843706457697 0.097329847114233 -0.1757520250142566  0.5600367284620545 0.09448008616691893 -0.1762675834383695  0.4643598916062583 0.1301246353374025 -0.1742322253771828  0.4889169268134543 0.1273145656842947 -0.1747477801987862  0.5135531519379002 0.1246257056592024 -0.1752513720124262  0.5382877468037329 0.1218906755148498 -0.1757467787838301  0.5630668399486576 0.1189472457105237 -0.1762447092882513  0.4673438754818703 0.1550679926230329 -0.1742768951879992  0.491976263012747 0.1521868797975668 -0.1747864691688977  0.5166491061935153 0.1493745253710994 -0.1752760093381046  0.5413717811675804 0.14652819110751 -0.1757567817361577  0.5661125194662909 0.143558221380872 -0.1762464063938535  0.470310963365168 0.179890824411325 -0.1743269959624617  0.4949903535676708 0.1769859744869663 -0.1748314597695085  0.519687080178862 0.1741153327632326 -0.1753082380605053  0.5444058870430651 0.1712191351504062 -0.1757775723332138  0.5691299518050652 0.1682539121132717 -0.176266285962189  0.4732360495344684 0.2046539489809154 -0.1743932763762216  0.4979349155250519 0.2017513892394711 -0.1748890667801528  0.5226450711356631 0.1988576902289244 -0.1753448886844986  0.5473780298421094 0.1959403170570914 -0.1757941195842991  0.5721091219716281 0.1929822785665572 -0.1762778552439949  0.45 0 -0.15  0.475 0 -0.15  0.5 0 -0.15  0.525 0 -0.15  0.55 0 -0.15  0.4535129123935312 0.02727031825368357 -0.149559246176618  0.4773991172064315 0.02582932364908916 -0.1498053262395743  0.5018907069040492 0.025109184344244 -0.1500546521928788  0.5268754594869884 0.02439571738985923 -0.150327782783231  0.5524592766556891 0.02284041031115626 -0.1505948446917444  0.4561566073304594 0.05368369086531934 -0.149358942403193  0.4802146811597808 0.0516377776025605 -0.1497311922063666  0.5046814911790101 0.05011895727006839 -0.1501202282119741  0.5295915149284181 0.04856143031750738 -0.1505199075589268  0.5548561959049696 0.04627416494952177 -0.1508946194490892  0.4589733970525456 0.07954660807737578 -0.1492896188860465  0.4832364176292971 0.07710906918926518 -0.1497304099595376  0.5077571577410636 0.07500481743017244 -0.1501683510096386  0.5325774988860073 0.07283845474474993 -0.1506088512460378  0.5575856168664213 0.07017373554164918 -0.1510386242283831  0.4619272873456237 0.1049757319269831 -0.1492733461654964  0.4863380405416659 0.1022890620946211 -0.149747506218122  0.5109124004225037 0.09980845624206856 -0.1502021411434969  0.5356705626192098 0.09726680588643011 -0.1506541515488756  0.5605242921731705 0.09440228300406077 -0.1511082053431975  0.4649062728217194 0.1301084291327623 -0.1492775612628284  0.489441183333944 0.1272848240784479 -0.1497688817690443  0.5140607712387387 0.1245739281488951 -0.1502319893562069  0.538785700918202 0.1218159885136018 -0.1506897723084074  0.5635554856272733 0.1188598644764491 -0.1511576860867785  0.4678870740467921 0.1550494265205251 -0.1492950393123612  0.4925048171641984 0.1521556010003792 -0.1497963635726789  0.5171641100069637 0.149319744902621 -0.1502653961604963  0.5418756062320995 0.146449035261953 -0.1507282007045932  0.5666043634282585 0.1434641291021807 -0.1512078351284587  0.470857346997078 0.1798762828117642 -0.1493278502267567  0.4955252714920361 0.1769551195144516 -0.1498366123502128  0.5202105455237866 0.174059067848812 -0.1503048455907158  0.5449186712884857 0.1711366323298915 -0.1507671032419696  0.5696314086542482 0.1681517563107346 -0.151257458850879  0.4737978165833006 0.2046473458392325 -0.1493969174528106  0.4984880729209085 0.2017211532428308 -0.1499005599149251  0.5231896443562284 0.1987985334571002 -0.1503496870482687  0.547910748721716 0.1958520125911523 -0.1507931556427964  0.5726290736610611 0.1928697588799985 -0.1512804013154221  0.45 0 -0.125  0.475 0 -0.125  0.5 0 -0.125  0.525 0 -0.125  0.55 0 -0.125  0.4537344038338867 0.02733935788735048 -0.1246898762803664  0.4775512563731808 0.02583934587653514 -0.1248613154381945  0.5020118607372531 0.02510970832113051 -0.1250308764925797  0.5269995954242939 0.02438812908794676 -0.1252130766441167  0.5526235572432616 0.02275427486409997 -0.1253984277168929  0.4565042845658591 0.05374835448348678 -0.1245095204844173  0.4805030366295888 0.05164774288803374 -0.1247906349529983  0.5049405481858034 0.05011552980450554 -0.1250759304312288  0.5298557378723913 0.04854066765863273 -0.125363102466025  0.5551460271067474 0.04617883210665772 -0.1256359942795088  0.4594074131670128 0.079593483718803 -0.1244076578080823  0.4836285551648407 0.07711257868345545 -0.1247685767709692  0.5081246137082703 0.0749889468603618 -0.1251196028056858  0.5329434937311635 0.07279992370821972 -0.1254677889207184  0.557959124804092 0.07008429883461333 -0.1258125157908038  0.4624157411253684 0.1050046499667887 -0.124351828559583  0.4867975295156511 0.1022848529777202 -0.1247670417109845  0.5113504276851937 0.09977991098173797 -0.1251606593773018  0.5360999958141589 0.09721216813085873 -0.1255491876341964  0.5609488837259506 0.09431240768389772 -0.1259440551512012  0.4654206542120302 0.1301243811296493 -0.1243244007428103  0.4899384594155266 0.1272749908410341 -0.1247772954781264  0.5145404004161584 0.1245363259228963 -0.1252021362559231  0.5392534181445688 0.1217501047923329 -0.1256209614685826  0.5640124550827756 0.1187660739016114 -0.1260526226488637  0.4684177779300171 0.1550586705452394 -0.1243207467431988  0.4930242618719438 0.1521410619538084 -0.1247998979217319  0.5176695350500085 0.149276077606738 -0.1252471108697849  0.5423688266066931 0.1463755733614745 -0.1256882456549508  0.5670853773359846 0.1433644651079235 -0.1261485251180732  0.4714077556820367 0.1798858888455546 -0.1243428088916506  0.4960654109606999 0.1769382750316499 -0.1248407057359665  0.5207381652232013 0.1740110970627965 -0.1252967051820086  0.5454347808376842 0.1710567123378975 -0.1257471474455456  0.5701358004396966 0.1680431658864707 -0.1262290168919786  0.4743779737959312 0.2046610452060552 -0.124416700178976  0.4990563537824886 0.2017021447100566 -0.1249129054151965  0.523746111447576 0.1987455682775378 -0.125350967685825  0.5484556991885066 0.1957645546674475 -0.1257835896119791  0.5731624108452974 0.1927487120067549 -0.1262653671702008  0.45 0 -0.1  0.475 0 -0.1  0.5 0 -0.1 
[...]
<PointData  Vectors="traction"> 
<DataArray  type="Float64"  Name="traction"  NumberOfComponents="3" format="ascii">3.8278059537408931e+03 -6.9703954104578580e-02 -7.2931235754573581e-02  5.2761396642014552e-13 -4.9460844354442196e-18 8.9688997762721864e-18  2.7640617485791408e-14 -3.5042245142093494e-19 3.5827556142449577e-16  3.5702764643760118e-15 1.0687491342103374e-18 1.4433208552249553e-14  2.9893766667878727e-02 5.0000345189230100e-03 6.3888378689186702e+01  2.4490819243172023e+03 1.0130009021553381e-02 -4.9602973690720392e-02  4.9004359179312418e-13 -4.2063445726811652e-18 -1.7158740414365003e-21  3.5711135635185762e-14 3.2875132769296574e-20 1.7590333337538837e-16  3.1693519002114922e-15 -9.4152285963266279e-20 2.3043653786602908e-16  5.3380545193574868e-03 -8.9252720192196656e-05 1.4463728760737160e+01  1.7309496446646772e+03 4.0168106023559268e-02 -4.4931245563719371e-02  5.5731885351492512e-13 5.4360659860078681e-18 -3.3255175791852114e-18  1.7559382047991398e-14 7.4605200581311050e-20 -4.2263525813728219e-17  2.0621924951115911e-15 2.4988150817876910e-20 -2.9754964506860490e-16  -8.0394007607506750e-05 1.6480912129082095e-05 -4.4246138906563095e+00  1.2250126662015446e+03 4.7956505675998302e-02 -4.1718819175278220e-02  1.1893542925029335e-13 1.1910957213343354e-18 -7.5995195005127465e-18  1.7052126992618896e-14 1.5682163026771734e-19 -6.9581355631612396e-17  1.1160888506306923e-15 3.5943769716878980e-20 -9.9701590672733295e-16  -1.0935336325119713e-04 2.2257144030865834e-05 -4.2677401629632987e+00  1.0173913279169340e+03 4.7434644019854158e-02 -3.8016338909563803e-02  1.9612074278048139e-13 7.1866659904358428e-18 -1.3246024074491438e-17  1.0199177106910724e-14 5.5211034837881136e-19 -9.2738495451681803e-17  2.0319924137945200e-15 2.5161784867889756e-20 -1.0685789230746277e-15  -9.4483306663317593e-05 1.4439457682181205e-05 -4.4113320043816460e+00  5.6529435646634090e+02 6.4318728111022030e-02 -3.7675257439053700e-02  1.9103041161143620e-13 8.5662154441512172e-18 -2.1177588181373846e-17  9.4586061636077275e-15 5.5142412567180556e-19 -9.8152434171109958e-17  1.8404301043050749e-15 4.8386351730111119e-20 -1.6032916158713854e-15  -1.0257780571955674e-04 -9.2925916736447390e-08 -4.9054265844464000e+00  3.2177952082216513e+02 5.6887339419543367e-02 -2.8413578288143320e-02  1.2181572215350741e-13 7.6019607577914855e-18 -1.9694618712398396e-17  7.2603981960993334e-15 9.8003538324970768e-19 -1.2100796415481331e-16  9.8572528800924384e-16 6.0412633806861629e-20 -1.3330969465852239e-15  -1.0422050307441379e-04 -7.7685697031134968e-06 -5.3153689808110451e+00  2.2973962478493235e+02 3.5079554338034266e-02 -1.6504010484684032e-02  8.2234618261790240e-14 1.5120770360122636e-17 -1.2984521850714562e-17  8.1904374305183269e-15 8.7296401574249296e-19 -7.1364321300034379e-17  2.2018844811976342e-15 8.7886893990307550e-20 -1.2806414974049913e-15  -1.0379118633939039e-04 -1.1072367583560029e-05 -5.5148991478548455e+00  3.2532430200958873e+02 7.5277601250078346e-02 -3.1843825437166719e-02  9.6678479715369450e-14 1.6498406422588210e-17 -7.0750393333061947e-18  7.4416741928624016e-15 1.1462486450772968e-18 -4.3727496772572055e-17  3.7479246492567995e-15 1.3665890966223549e-19 -5.7161010746397609e-16  -3.0785315654706434e-04 -5.2227619903905050e-05 -1.7517897968783856e+01  2.5518706358272616e+03 -4.6469302736385720e-02 -4.8620823836382408e-02  5.5341774411735209e-13 -8.4512890037336477e-18 -5.9363820981465966e-20  4.7667351355624969e-14 -2.8371584720704406e-19 3.0777462947871739e-16  3.5823403329065112e-15 1.1043745171381775e-19 1.6686418916067214e-15  1.9559953210746612e+00 1.7499675201233933e-05 -1.7256817227443407e-05  1.2245409621586018e+03 5.0650045107766628e-03 -2.4801486845360196e-02  8.0339362020317563e-13 -3.8993647168157811e-18 3.9659987506952166e-18  6.4213211967547349e-14 -3.9532162055838667e-19 2.8283014855696719e-17  9.7425818660203296e-15 3.6422668797718469e-20 1.0019914164141188e-15  9.2892276046040145e-01 -1.1049345182854409e-05 -7.0400643969766957e-06  8.6547482233233893e+02 2.0084053011779644e-02 -2.2465622781859686e-02  3.0327295970151119e-13 4.9447172074151583e-18 -1.0881027279223648e-17  4.3421389003334763e-14 3.1152810535734264e-19 7.6110037650558494e-18  7.3607817146017122e-15 -2.9401798191264262e-20 6.8470359916503378e-17  1.1260616554459135e+00 9.3052866805200736e-06 -3.0266406674576726e-05  6.1250633310077228e+02 2.3978252837999155e-02 -2.0859409587639103e-02  -1.2080798185110354e-13 2.7031164720830896e-18 1.8733449583090724e-18  1.9258785545313034e-14 4.8356442291969507e-19 -2.1910649446483464e-17  8.9209184576003373e-15 6.0479036174153010e-20 -1.3474504338124441e-16  1.3415379046263045e+00 7.9274102333978504e-06 -3.2047118380036995e-05  5.0869566395846630e+02 2.3717322009927082e-02 -1.9008169454781895e-02  2.7852102279806888e-13 1.1650798101928429e-17 -1.9250626967449262e-17  1.0102738953267263e-14 3.7794998548171991e-19 -2.8022813131313460e-17  9.8221853455106742e-16 1.9845471471057167e-20 -1.8812907453586625e-16  1.4459789555714380e+00 6.1357336612198707e-06 -3.1257660944952783e-05  2.8264717823317079e+02 3.2159364055511043e-02 -1.8837628719526850e-02  1.1957559794406305e-13 8.1646091522596233e-18 -5.0065806078081297e-18  1.7550412922039256e-14 6.3297720610604114e-19 -3.9341967887206254e-17  4.7929177628582831e-15 1.0754843886624333e-19 -2.2450620859776224e-16  1.7438196363067666e+00 4.1424071047485644e-06 -2.8726355118399336e-05  1.6088976041108239e+02 2.8443669709771708e-02 -1.4206789144071655e-02  -2.4173241042721156e-14 1.5698855631706033e-17 -1.3113265121035712e-17  6.3231358216256423e-15 1.2384506737362177e-18 -3.5877100374968473e-17  4.8402087380490745e-15 1.6556331533049796e-19 -2.5359612518404665e-16  1.9469117643649327e+00 5.0545538912319214e-06 -2.5599433522505394e-05  1.1486981239246617e+02 1.7539777169017130e-02 -8.2520052423420195e-03  1.5527948445526807e-13 2.2713926937514064e-17 -1.3562827654291494e-17  6.0271855553020998e-15 1.2899905751325801e-18 -3.5370956106398666e-17  1.7749343684857180e-15 1.5997634248862613e-19 -2.5536701348384251e-16  2.0531260298892091e+00 6.5220910476675314e-06 -2.3155127941495239e-05  1.0844143400319638e+02 2.5092533750026132e-02 -1.0614608479055576e-02  1.3217017769452694e-13 1.8357160591207905e-17 -1.0470740253474718e-17  1.4384006875858271e-14 2.5101892085299934e-18 -1.8851197484626981e-17  2.9089648839873678e-15 3.6034499595109081e-19 -1.6449750714810985e-16  4.6002935231861626e+00 2.1973804031828805e-05 -3.1193917094363895e-05  3.0672977269780940e+03 -9.2658018377778026e-03 -2.7693247622096535e-02  6.2047240604110997e-14 -1.5700220366632612e-18 2.9499541713766954e-18  1.4989844901418439e-14 -1.7944816551803844e-19 4.8953082759272546e-17  4.0434266377673494e-15 -2.0029315147839955e-20 4.8251784322540085e-17  1.6714818796215696e+00 -1.8138589507239939e-06 -4.3118656252286775e-05  1.4654789280402240e+03 7.5925192959623161e-03 -1.6398568713893103e-02  4.6981058871994593e-13 -1.6286763245456847e-18 -3.0275112556223482e-18  5.0481487552660874e-14 -5.8491871261575676e-19 3.1056328779854547e-17  9.3479948833737536e-15 -9.1299508280345720e-20 2.1220208100285116e-16  8.9885543768563703e-01 3.4144904073913742e-06 -1.6451862852900470e-05  1.0586904521392250e+03 1.9854177607624715e-02 -1.3169093684904338e-02  3.6108697583401869e-13 -3.9254817178423861e-18 -1.1460656135136663e-17  3.2656421951210856e-14 -3.0876099915976464e-19 1.6355232932124367e-18  1.2316292974647304e-14 -3.9223299944524386e-20 3.4948888443334325e-17  1.1184743379163897e+00 5.4916457260899068e-06 -1.4067918211550389e-05  7.8158685710642851e+02 2.4536653549629611e-02 -1.2522142209754512e-02  1.2860668826706999e-13 3.9317711877345369e-18 9.2119333044231547e-19  5.4920620879550371e-14 1.0886239219563436e-19 -4.1811474614352843e-18  7.9133828427507859e-15 9.7804453627818746e-20 -1.5079395129782128e-17  1.2901698067587699e+00 5.2778325891538865e-06 -1.6336838088908823e-05  6.5860107137217312e+02 2.5167235525295137e-02 -1.1906959189397472e-02  9.3332520584196061e-14 -4.4650061362306430e-18 -1.1401892036165065e-17  2.1906165281440963e-14 6.4492211220068041e-19 -6.1847216643641780e-18  1.7585980728807924e-15 7.3239030295327948e-20 -2.6071827794338063e-17  1.3784974566097141e+00 5.1315038940294554e-06 -1.6736784457790308e-05  3.7795084439168369e+02 3.0614170717901276e-02 -1.1887040202675130e-02  2.7132465489447692e-13 1.7363321669932686e-17 -6.8296703020307094e-18  1.7102959475811907e-14 1.3523184836134892e-18 -7.8221049664101178e-18  5.7594870016487838e-15 1.7938850656053123e-19 -2.7378987542440967e-17  1.6511979781109540e+00 6.0340873997439466e-06 -1.5368507394487787e-05  2.2495963915072727e+02 2.3364969498704310e-02 -8.0628788416927354e-03  8.1595037027269588e-14 1.5129347429764955e-17 -1.9425965785147856e-18  2.1229406895044825e-14 2.0972910608976423e-18 -8.9526605487455397e-18  2.8601775929743885e-15 2.1366400729978100e-19 -3.2460917087223468e-17  1.8492110996310631e+00 8.5777939830977469e-06 -1.3157447759550057e-05  1.6285956260105991e+02 1.9207159304608881e-02 -6.2465107921032756e-03  -6.6811446594005067e-14 -2.6081109892720530e-19 3.1399354295678568e-19  8.4784625750414945e-15 1.9437214721030486e-18 -8.4753829124493319e-18  1.1865211436341544e-15 3.3753926484398582e-19 -3.5633151114093957e-17  1.9589653648587024e+00 1.0903334392751699e-05 -1.1793635724617246e-05  1.3736667869762172e+02 3.5268875277276221e-02 -1.0068396297747164e-02  9.2072961974236777e-14 1.5094840344119159e-17 -7.7676299108349927e-18  9.5887989001140994e-15 2.9444975714028736e-18 -7.6735122835065178e-18  4.9044437015855653e-15 7.1975404400532527e-19 -3.5007586033092844e-17  4.4782745686087848e+00 3.3601020156685442e-05 -1.5703023202736609e-05  3.3506168758661474e+03 -1.0986801405097153e-02 -2.1026028560873940e-02  8.2058302707547386e-13 -2.5757507344772161e-18 -4.3589627814229812e-18  3.5822152129879129e-14 -1.3572106941281156e-19 2.2630533231015600e-18  3.1692092016164855e-15 -5.6970827363216333e-21 4.6741785589274958e-18  1.6351564614018594e+00 -5.6929078887874458e-06 -1.4925638057584277e-05  1.6021136853841842e+03 8.7013214920088813e-03 -1.2988649643082849e-02  1.1701462168217140e-12 1.2558389639869009e-18 -6.3147524645752433e-18  5.4087674338454065e-14 -1.5551401698514573e-19 5.5182932616756128e-18  -1.1767822170859251e-15 -4.0081587004396920e-20 1.4589307581162483e-17  8.8469071257130361e-01 1.8154181893029956e-06 -8.9729955990565150e-06  1.1727833733262969e+03 2.0958840445896725e-02 -1.0313041769781322e-02  2.6685395734274091e-13 3.1111003467142598e-18 -4.6225976843185839e-18  8.5518510441657840e-14 -2.0753128001809617e-19 6.9276628725465189e-19  1.3469438455203519e-14 -1.9433872147981528e-20 9.9522991545740568e-18  1.0989371684887737e+00 4.4212848770575385e-06 -1.1267353186235604e-05  8.9714594270620717e+02 2.5255390323858103e-02 -9.7508248731059746e-03  5.4912597332492069e-13 2.5635494472774409e-18 -2.7340896263757809e-18  6.8591139226691719e-14 4.4225940983861895e-19 -7.5699342527235930e-19  9.6902806655122406e-15 -5.7295971210297956e-20 1.1614108902127703e-19  1.2566818402683346e+00 5.2256203714393652e-06 -1.1641045857697896e-05  7.6699438451221624e+02 2.5910672460976985e-02 -9.2701189645025134e-03  5.0972458881407556e-13 9.0058505039493438e-18 -2.0639159515917279e-18  4.8353128213252562e-14 1.1193702395560159e-18 -9.2134823466928487e-19  7.9611425687586305e-15 1.2609184473648147e-19 -2.3434327952832722e-18  1.3393344861706777e+00 5.5704430200620433e-06 -1.1407579355975933e-05  4.3860505531875953e+02 3.0731395664699269e-02 -8.8753334426240026e-03  2.1987339288827078e-13 2.1247898897928337e-17 -4.1029695684817624e-18  2.5336246577655975e-14 1.5028882909813867e-18 -1.6079554760095650e-18  5.1805416398010083e-15 7.9086557125219411e-20 -2.9955863125558107e-18  1.6019984681994506e+00 7.8491069113111882e-06 -9.6376306138279966e-06  2.6641266585831471e+02 2.6663830778558564e-02 -6.7899813765028762e-03  9.9006731069223025e-14 2.4567598414450032e-17 -1.2761610669084437e-18  3.9564941695658659e-15 2.2027754240378628e-18 -1.4318952355680071e-18  4.3255731180191695e-15 3.5521483779297592e-19 -3.0808620413749995e-18  1.7982934832223345e+00 1.1266674613855016e-05 -7.5868671265378758e-06  1.9466221817693437e+02 2.1963905689760321e-02 -5.2782504967780778e-03  -6.3748321009322035e-16 4.7840413704407905e-18 -2.7813892293224126e-18  2.4112059915399692e-15 1.6437659699429671e-18 -1.5368248363430548e-18  3.1339623359271965e-15 3.3604495755346354e-19 -3.7355692067186453e-18  1.9094320687747928e+00 1.4291744825967813e-05 -6.4097090340967203e-06  1.6836390094928515e+02 3.5161574050116627e-02 -7.6086936516126412e-03  8.4578507604277653e-14 2.1471366678078946e-17 -5.1837240185295818e-19  9.5590190881302362e-15 1.6387622812448101e-18 -1.5900105460605520e-18  8.5097362468037825e-16 1.8549752909641338e-19 -5.0300835699490139e-18  4.4041785959239483e+00 4.1498268890502896e-05 -7.3671604499271720e-06  3.4975971207939360e+03 -9.6807920204379384e-03 -1.1559589789662657e-02  8.1663577225703196e-13 -2.8204162635254984e-18 -3.4850058107323098e-18  6.0660762778958270e-14 -6.5127272118376275e-20 -5.1220446869904838e-20  3.8854591926744617e-15 4.6240387699480702e-21 7.3286477085783520e-19  1.6096667071970616e+00 -3.5714124668040493e-06 -1.2397154872311287e-05  1.6776149702052267e+03 8.4563503645424826e-03 -8.2852698034755184e-03  8.5657669673344093e-13 1.1242690296742091e-18 -3.8442126856790030e-18  4.9169275158598079e-14 9.1135790502415947e-20 1.2668369199550819e-20  9.3502864269855067e-15 -2.4885008418022446e-20 1.2060934079934880e-18  8.7301836172450242e-01 1.5211563552867909e-06 -6.4334271976791362e-06  1.2308351359059450e+03 2.2395828239498743e-02 -7.5088969564960344e-03  2.2842862794697142e-13 5.2283163745186936e-18 -4.2601096384967124e-18  8.9383310921475584e-14 4.2956577013261977e-19 -4.3807991689352082e-19  2.0789452519985078e-14 3.2074159575259180e-20 1.2379582804164276e-18  1.0893341120951379e+00 3.9917493197021023e-06 -6.7313733834748290e-06  9.5211204155343933e+02 2.7530616660446875e-02 -6.9847886490083978e-03  6.7382163015430374e-13 5.3462814519005672e-18 1.6512445228626918e-18  5.6080763947484432e-14 9.8515840851092803e-19 -2.7324142174959297e-19  1.0407702691314271e-14 6.5134437902755608e-20 2.2093686713736979e-19  1.2430347858000428e+00 5.2355798568118397e-06 -6.7688522801484055e-06  8.2005600654733837e+02 2.9034034906880484e-02 -6.7602610843591655e-03  2.9547344277950209e-13 1.1347404425409584e-17 -2.5306452472911850e-18  4.1533495137211565e-14 1.1370146614108692e-18 -9.6630633371412056e-20  1.1451768569057994e-14 1.5000790764368639e-19 -1.1806026837851019e-19  1.3230754918312415e+00 5.9592859613404683e-06 -6.5976452391726918e-06  4.7814122624111593e+02 3.3895685776206143e-02 -6.5000778076465668e-03  2.6871635166033416e-13 1.4175297752906273e-17 -2.0852247456774091e-18  5.2778580426205429e-14 1.0895583212395173e-18 -5.9683667478613609e-19  1.1194657836373335e-14 2.4576720489636485e-19 -3.2144374966646302e-19  1.5795931491237343e+00 9.2708995369931796e-06 -5.2835773967998493e-06  2.9181564631733460e+02 3.1579944042480851e-02 -5.4192514608729465e-03  9.1178997170890200e-14 7.9501776272051311e-18 -4.9688610170032054e-18  3.4262774780779173e-14 2.0229083458138469e-18 -7.5943422000065401e-19  6.5810617395816578e-15 4.5149202767396694e-19 -3.9789307502423396e-19  1.7744053773267894e+00 1.3160676572951546e-05 -3.8356313284767384e-06  2.1559325643416528e+02 2.4274614955631907e-02 -3.9560974127071666e-03  2.8827194015900598e-14 1.1532119951941745e-17 -1.6031622543004729e-18  1.9267064758864685e-14 1.7833954498169259e-18 -3.8906566151340170e-19  5.2693500288103137e-15 4.2525776283534353e-19 -4.1745472507818695e-19  1.8855897329218281e+00 1.6607538055783964e-05 -3.0064930974401706e-06  1.9112778980712821e+02 4.9333788699228234e-02 -7.2582835541688956e-03  1.2346712973896704e-13 2.1408161645410031e-17 -1.8207026850364810e-18  7.2590979731007763e-16 2.4562393336407152e-18 -4.1834457659865059e-19  1.1116086979370043e-15 3.2807984242279808e-19 -6.3339497553883019e-19  4.3609964875060232e+00 4.6653051435063513e-05 -2.4151266210610142e-06  3.5995558421319156e+03 -1.0571719675153626e-02 -8.6212494882485207e-03  7.2480457076591914e-13 -3.1587462313803486e-18 -9.5601497619943262e-19  2.9447544913074101e-14 -8.2868952576491502e-20 1.6573790515298300e-20  3.4164230304725591e-15 5.2067781774181029e-21 4.1263860426810319e-20  1.5955183023158708e+00 -2.8247105901998307e-06 -8.4762226947566679e-06  1.7297957886621784e+03 8.6222633695069422e-03 -5.5920816279836048e-03  -3.6911295164981831e-15 -1.4529241674374948e-18 1.0695996660468582e-19  3.7047898622146415e-14 -7.5805486150404070e-20 -1.6056031742397076e-19  9.7897909083585350e-15 -9.9242228583036546e-21 7.9824101678240019e-20  8.6558147989546796e-01 1.2623637071078793e-06 -4.4280495225563165e-06  1.2772318801482886e+03 2.7671561581143513e-02 -6.2413055798289435e-03  7.8154114182354863e-13 1.2677077594550245e-17 -2.5544565348626837e-18  7.8411812467935937e-14 1.5056270147869761e-19 -2.4779117480297540e-19  1.3214746369890336e-14 2.9547398070439558e-20 1.3815405043746061e-19  1.0796800309678105e+00 3.7984249551337845e-06 -4.4997576869311354e-06  9.9437430645159725e+02 2.9115424440085937e-02 -5.0509300853110598e-03  1.7727409450735835e-13 7.7177364396343776e-18 -1.0261637555482883e-19  6.6694915132052535e-14 1.1498435195328352e-18 -2.0013562868291095e-19  9.6180721714833876e-15 1.0549302207710518e-19 1.8238785038252373e-22  1.2312094726047642e+00 5.4355595002807213e-06 -4.3619213102555076e-06  8.6060443702604425e+02 3.0854626598608090e-02 -4.9743791754915520e-03  5.5627514448487803e-13 1.2706280631736051e-17 -2.0239243797302722e-18  5.8215306278216906e-14 1.1823736294216978e-18 -1.5006004776387840e-19  1.3304976680858854e-14 1.5826879523638992e-19 9.0757182282114038e-21  1.3099816742994952e+00 6.3747009146695557e-06 -4.1806695971334291e-06  5.0383162112735522e+02 4.0142959943977596e-02 -5.2829371260253869e-03  1.1432937193659731e-13 2.1004977614413933e-17 -2.3264085683507463e-18  3.5022001501766759e-14 7.0357097489953391e-19 -3.3325293446189405e-19  7.1482427594147526e-15 1.8767042591681245e-19 -6.6797981194489630e-20  1.5626688326497533e+00 1.0286561023620223e-05 -3.2055377390554644e-06  3.1068416522683225e+02 3.7045589048421916e-02 -4.3499518805455717e-03  2.6766035063105442e-14 -2.6855025457873547e-18 -5.2038855951102745e-18  1.6781600089560844e-14 2.2600352116923244e-18 -5.8273936303955686e-19  9.5792057880652520e-15 2.6463934575889566e-19 -1.0134331050568901e-19  1.7553902670663377e+00 1.4524270132313769e-05 -2.1924942001176197e-06  2.2963545727650794e+02 3.2497759476287642e-02 -3.6112810374307859e-03  3.0290887979028651e-14 2.2828648487190403e-17 -1.9169971738404189e-18  4.1718629572460023e-15 4.0740849191855489e-19 -3.4902207935395127e-19  4.1744073215246642e-15 1.6418322180585399e-19 -1.5806461130293782e-19  1.8656160289551671e+00 1.8144512984225354e-05 -1.6256395456344594e-06  2.0293525753525145e+02 3.3088793297463441e-02 -3.2765718902277702e-03  1.3136327634908413e-13 3.5459294020840645e-18 -2.0875572538560176e-18  2.5244978069886902e-15 2.7229512753428430e-18 -4.3380486302960014e-19  2.4223656824128624e-15 4.3832595027396933e-19 -1.3432037270519886e-19  4.3195708111124427e+00 5.0074809258833917e-05 -8.4764093710620194e-07  3.7101300260005901e+03 -1.1805235234357158e-02 -2.9478039501085714e-03  8.3831731854103155e-13 -1.7719611162264741e-18 -6.6947197615096729e-19  6.7007428625200003e-14 -5.4143266090833179e-20 -3.0365899074520485e-20  4.8851632524830960e-15 8.6955717231408519e-21 3.9831591595461275e-21  1.5764345084037086e+00 -2.0794850179322249e-06 -3.2894350217042457e-06  1.7873537193636041e+03 8.8543123904093936e-03 -2.0299721283766380e-03  9.7699518068080686e-13 1.8420181592717720e-19 6.3233715061309961e-20  4.4131235691477032e-14 1.3871741487710174e-19 -7.2332935594474820e-20  8.5337597001550278e-15 -6.0907663811201101e-21 -4.8243289333451630e-21  8.5588581627118321e-01 1.1949955391852421e-06 -1.6