/*--------------------------------*- C++ -*----------------------------------*\
| =========                 |                                                 |
| \\      /  F ield         | OpenFOAM: The Open Source CFD Toolbox           |
|  \\    /   O peration     | Version:  2206                                  |
|   \\  /    A nd           | Website:  www.openfoam.com                      |
|    \\/     M anipulation  |                                                 |
\*---------------------------------------------------------------------------*/
FoamFile
{
    version     2.0;
    format      ascii;
    arch        "LSB;label=32;scalar=64";
    class       volScalarField;
    location    "0.300000000000000044";
    object      p;
}
// * * * * * * * * * * * * * * * * * * * * * * * * * * * * * * * * * * * * * //

dimensions      [1 -1 -2 0 0 0 0];

internalField   nonuniform List<scalar> 
7248
(
4.98018097301344653
-7.44991686326920899
-0.510672288773054817
-1.01871628422054528
-1.90817464875722997
-1.88960052991075633
-1.82646333450246079
-1.22585631331170397
1.73136586544455895
-2.58696919110677737
-2.62986061599620857
-2.57440230462217112
-2.48276432811882408
-1.92485801693504044
-3.1710675032274569
-3.20575064364299722
-3.23728298876517107
-3.24547592385413175
-3.58455024360236463
-3.68208523486674588
-3.70703654182753795
-3.79646709892145262
-3.84963476708438002
-3.88738495980344201
-4.13358381012682141
-4.17930520451534271
-4.26447936036140618
-4.31356935280879927
-4.37476239322558147
-4.58009209971956466
-4.63247882181371562
-4.71372965194077231
-4.77281948428596703
-4.90720929259607974
-5.01930902436759485
-5.07319405987204508
-5.14904166587261081
-5.24286333399452076
-5.37611103157951931
-5.44263130811879048
-5.49406311994954688
-5.56293592575553308
-5.65546794617648807
-5.74396388309591543
-5.85052782509169411
-5.89763740736944886
-5.95895270910599706
-6.03373718088465605
-6.10935929085487395
-6.24432062729372905
-6.28528629949001161
-6.33722058850143988
-6.40053837123654024
-6.47516919852897921
-6.58043135207125651
-6.60065178309361755
-6.62652072528086578
-6.65939664570807732
-6.70067664478275216
-6.75183774716698526
-6.81542388870365112
-6.96700886378363471
-6.98145560187750647
-6.99995953616722844
-7.02349906422607617
-7.05327253556392186
-7.09081859861459129
-7.13850552395604776
-7.34988592359675508
-7.3575193538277599
-7.36753937619520283
-7.38060907403100597
-7.39765025923572228
-7.42003035243903408
-7.4499630494579403
-7.73250342276065883
-7.73279913200410451
-7.73364766117840308
-7.73529757743878044
-7.73812845978909891
-7.74275427624497947
-7.75048160367183314
9.18977381352232214
-0.0834828415004267299
-0.620708680942591684
1.84528124831854257
-2.06191902480043554
-2.10897617187052155
-1.95584323462221343
-1.50845111282989564
2.12335652427418609
-2.65530911028143723
-2.69206923871134274
-2.61420400735860259
-2.66320434446030241
-2.4079132910777119
-3.19858719738002639
-3.20569681482222002
-3.19718676849343986
-3.22552988250169559
-3.36010601270174458
-3.67871262509946639
-3.69026592492262351
-3.73223736864696631
-3.73942785890277252
-3.76355291685857818
-4.12450733591513696
-4.1532733816263061
-4.21700088732642442
-4.26262221401957841
-4.31579841144590404
-4.57591381747337955
-4.61829936187871848
-4.685866772649673
-4.75555134911123822
-4.87763093460009856
-5.01854473966703551
-5.06693278287974369
-5.1345982733658877
-5.22586475990556742
-5.34125979612058099
-5.44281649203836881
-5.49116024430142602
-5.5552360893813173
-5.64165779208994067
-5.72161631077282351
-5.85166103852049346
-5.8970485497869376
-5.95551878421367764
-6.02620115086778174
-6.0960230651116829
-6.24651789115681666
-6.28667350403899317
-6.33717358168318334
-6.39875498397535569
-6.47148289013433597
-6.62957844036090105
-6.66223889969312832
-6.70280669761557935
-6.75242337894009204
-6.81266682129076706
-7.00384226296232093
-7.02769711219578674
-7.05750108262809572
-7.09434141346464742
-7.13946398122683679
-7.37199807793034356
-7.38583688157409224
-7.40368519875754494
-7.4267730182945888
-7.45726509000987914
-7.7381221216758842
-7.74069722565609908
-7.74462330124736198
-7.75067345863552415
-7.76032748047768273
15.7393446412185369
11.9670704656148246
-0.255121665191314406
2.38484785702939917
-2.12332286732306486
-2.18886190541379921
-2.03733430480231936
-1.65458051696852015
2.32641079894619907
-2.66842592944541224
-2.71159688294868628
-2.63353514206795003
-2.75548893839630793
-2.65117695604155301
-3.1818902382063694
-3.193960199124247
-3.17730743238885527
-3.21310447534282728
-2.9205854040614927
-3.65725822513573018
-3.66198031112333267
-3.67753581202599245
-3.66406690987558958
-3.68638494088247093
-4.11009554861470416
-4.13318507738299434
-4.17811637307190775
-4.20632137391833272
-4.2605209721065922
-4.56631826501799321
-4.60401608026529807
-4.66014951734624461
-4.72181991655707112
-4.82750028882473448
-5.0132436672590881
-5.0587012509607554
-5.11961477846920676
-5.20507847740455354
-5.31229157265333907
-5.44058288790215716
-5.48685219745883046
-5.54690407672610153
-5.63033645550944328
-5.70194149523784688
-5.85121807453240361
-5.89534345551757788
-5.95163726215035727
-6.01913659860130767
-6.08335020737138343
-6.247538287899145
-6.28707582930612574
-6.33662630245249492
-6.39749639425123195
-6.46971169456147432
-6.63175909299640853
-6.66417097814810688
-6.70413617464106526
-6.75260928324853449
-6.80985730295949754
-7.0070195594438891
-7.03107187127854605
-7.06083736313814381
-7.09704492815782473
-7.13952491116670096
-7.37592259785317861
-7.39043902986413581
-7.40899251139111392
-7.43273556402623914
-7.46364839866583019
-7.7422142817838111
-7.74568687354699215
-7.75072174982741213
-7.7581727518186252
-7.76984035521832794
26.4108318693076285
21.3839094748850584
-0.855368235148581846
2.00996036293736324
-2.14730326250017889
-2.21876031105455152
-2.12264301175813452
-1.77933732169179404
3.1353529331424852
-2.66977312667391509
-2.72015670713696345
-2.60350781179231294
-2.73192770417525521
-2.17951534603639629
-3.17114302742301701
-3.18852969936912212
-3.14604460819185894
-3.22991390054699901
-2.96879927881694883
-3.64078080741269661
-3.64388496370445303
-3.64778592783460764
-3.6549353484436029
-3.70048162490425092
-4.10294617175460985
-4.11863935471126474
-4.14974133828482827
-4.1725667788875791
-4.2395237718603207
-4.56021866091565276
-4.59147014757857796
-4.63850802924911587
-4.68714548433167177
-4.7859034824651232
-5.00707251915315954
-5.049565812367101
-5.10685856720874831
-5.18263146720148349
-5.28833440798519039
-5.43678380697151109
-5.48186081771795486
-5.53961643626676725
-5.62221072445365433
-5.69124000387210405
-5.84961003285978087
-5.89301264788705303
-5.94808152517487621
-6.01434856467020396
-6.07368245966634479
-6.24761783109799573
-6.28673999601718325
-6.33581159982362507
-6.39653558708808045
-6.47006603043214668
-6.63321155623964032
-6.66541650476945335
-6.70502324162430963
-6.75278615313799158
-6.8076179746186547
-7.00956087329515043
-7.03381566864894481
-7.06365847907053102
-7.0996324195863334
-7.14059854222241785
-7.37930764704784803
-7.39448454370091923
-7.41377717825753102
-7.43826609130910921
-7.46956485202021536
-7.74584768062276563
-7.75018335411873949
-7.75633155054485979
-7.76531310610829539
-7.77929746701427405
36.5121592799237078
33.5939689908911987
-0.12741055726100825
4.33933900867373268
-2.16601721658405966
-2.21254833746100754
-2.0986048111012896
-1.08728535515832547
7.21502312774350685
-2.67143142883646245
-2.67433714981796644
-2.53024955248251038
-2.5602282532626095
-1.21196757210668693
-3.15803461948118391
-3.15695863977581404
-3.08145056763259673
-3.22569048441889272
-3.02967094170370999
-3.62328975678096121
-3.63008775234801417
-3.62952726236916279
-3.67895223458915588
-3.77861048384360743
-4.09027132572277186
-4.10645802842698338
-4.13481121375160221
-4.15017087242927296
-4.2427905906086627
-4.55202405441501767
-4.58204010721717214
-4.62457027634067241
-4.65633564630816288
-4.74316830478184226
-5.00130294640691453
-5.04175951489882745
-5.09642297945960632
-5.16317497522187185
-5.27207414217845294
-5.43295000175669163
-5.47697811302368986
-5.53295883658960896
-5.61434273673101991
-5.69265426112654982
-5.8475609858865214
-5.89023242063354768
-5.94439762657130899
-6.01213103274224547
-6.06646295340323327
-6.24716541116271973
-6.28579891812438962
-6.33429751336587898
-6.39509435908483059
-6.46561132743094724
-6.63405456116963155
-6.66604766952950545
-6.70525231588692794
-6.75205773657351571
-6.80575059240655023
-7.01153083891699325
-7.03600372753721892
-7.06602011726999812
-7.1021097834667577
-7.14313893185754978
-7.38213305000633468
-7.39795507031783384
-7.41807760305161601
-7.44356638627987444
-7.47558684824412545
-7.74894960239856712
-7.75412359538845219
-7.76138795838964235
-7.77205351573135772
-7.78865946749686522
47.6220099978930875
41.8604514197461413
0.0657732891372688755
5.97565269959704892
-2.16409103692446747
-2.22198582833952507
-2.15926086461006772
-0.674092699147671226
11.1705640931932066
-2.65852461292206188
-2.6742241571458818
-2.58137046904512424
-2.4724417719371985
-0.140281509184433162
-3.13406055911748105
-3.11666669111859207
-3.04409490865050092
-3.17521125867640475
-3.11997461944748267
-3.60504759762641269
-3.60816875633183276
-3.56624956569270157
-3.65245179944223164
-3.75732484895262431
-4.07909702974201505
-4.10255746487177575
-4.12814591750559323
-4.13817938391103102
-4.25421034426284628
-4.54311363129710699
-4.57463212432824573
-4.62167111110162221
-4.63672664328466499
-4.7163256114153187
-4.99476721749991714
-5.03412617544909136
-5.08656269645712467
-5.15049685871758456
-5.25941163871987172
-5.42918989759486692
-5.47212764602681201
-5.52611624889276776
-5.60567432550540357
-5.69413244824437026
-5.84565796757995937
-5.88758534215835994
-5.94062561226421959
-6.00997293547616973
-6.06415384386464407
-6.24662275052457172
-6.28481087114107684
-6.33247322636021259
-6.3937341079494141
-6.4629873900738195
-6.63457593238916044
-6.66640066316121693
-6.70534902802048993
-6.7521875127835127
-6.80671786634938414
-7.01300808807641118
-7.03770915656675999
-7.06797889210702035
-7.10449395698200892
-7.14687015522487723
-7.38437076283420257
-7.40081734644465339
-7.42183003681962017
-7.44857959873928888
-7.48208989065552998
-7.75143167974784042
-7.75736780129476955
-7.76575405830327004
-7.77815945688590649
-7.79745827621245091
51.8745475484262215
52.5541617419999056
-1.5400711489442358
4.19302427788602472
-2.14016293145293668
-2.18046474147325142
-2.21624302979208121
-1.16520267889878681
8.95135273059304382
-2.64614669338516606
-2.66638569531688274
-2.66326459346275524
-2.6995692289226767
-0.335934843935206118
-3.12492312639176451
-3.12803487279938341
-3.08578304957673311
-3.19702180942508019
-3.17060523703095498
-3.5923055578287455
-3.58933383923263438
-3.53428142509349019
-3.61295967735400492
-3.84820211985156524
-4.06803336100626289
-4.08303845877931337
-4.09139624832487847
-4.10895672645572319
-4.26779585370696424
-4.53540750440452012
-4.56434023436878444
-4.60276592649155969
-4.62242410343564814
-4.70029151661028699
-4.98910708125066016
-5.02696638854878941
-5.07622414113646059
-5.13433423101156805
-5.24772379646289444
-5.42589658840653133
-5.46814908601367122
-5.51952561135450637
-5.59635192105937396
-5.6924649132127394
-5.84403595896911643
-5.88520651754649027
-5.93568134560546845
-6.00156037236566853
-6.05975800664023723
-6.24620534557451546
-6.28396017617957625
-6.32997878177393059
-6.38716238646546408
-6.4648157372003654
-6.63492956096479958
-6.66662861482468561
-6.70494333271615517
-6.75292772173261113
-6.81385989497661182
-7.01403630040655734
-7.03895098425764143
-7.06945660086838856
-7.10680152978166468
-7.15187351632737123
-7.38595255242455195
-7.40293024672033706
-7.42478899482804966
-7.45295098782647081
-7.48830399071746555
-7.75319345508723501
-7.75974270259781296
-7.76907809634641477
-7.78304155898798022
-7.80470635975669591
59.3051151114943877
51.2374869987615966
1.0009566726303234
5.81120503332476801
-2.10790333092519777
-2.08991057850040285
-1.82119266347671172
0.268521293268939587
11.3741454992905346
-2.62287155191182686
-2.62263408994396885
-2.42916397401679518
-2.1310506695610778
0.605439496527765186
-3.1164414302796839
-3.13420216928697082
-3.06602492599793441
-3.05762821144901675
-2.64982250142281117
-3.5880793029273601
-3.59023700563626758
-3.5565837990497311
-3.5631408461233316
-3.42124377735791363
-4.06150054675047212
-4.07259012901326223
-4.0765330884465536
-4.09074643204947908
-4.15663735972409754
-4.52982565837475537
-4.55598987085872587
-4.58911378958673577
-4.61769327846163691
-4.69042454476444526
-4.9855963745690719
-5.02214283468135481
-5.06785512785529235
-5.12106762238104185
-5.23707765958539007
-5.42394293724742571
-5.46556440502315688
-5.51445263180486922
-5.5865000544555663
-5.68837043594406833
-5.84317058733052619
-5.88410437389836716
-5.93274470298491163
-5.992972832524468
-6.06401759799359219
-6.24612135838078597
-6.28396214332838987
-6.32911595128863258
-6.38327395448008517
-6.47112074920328695
-6.63520103061314881
-6.66703799287568089
-6.70540795317934002
-6.7553202044081031
-6.8149363764733808
-7.01460400361287473
-7.03972877064937652
-7.07065139804325948
-7.10975211767635162
-7.15663307745049337
-7.38678827299060803
-7.40409907002507861
-7.42656878683072463
-7.4559537463183263
-7.49322727381754472
-7.75411922157393718
-7.76102538332249026
-7.77094011864913181
-7.78586515381640609
-7.80913837938816435
-1.06874567215956073
-0.566954354609071842
-1.11534093607346385
-0.961348968797612002
-1.198630527641253
-0.843033407399687462
-0.822559359940731483
-1.10004586334179777
-1.28211910069714996
-1.93460822260857435
-1.56395486008681495
-1.41892409351115401
-1.76270316167203145
-2.21576518473347583
-2.78874632059800653
-2.55905438894515047
-2.41948306455459905
-2.58739276076358582
-3.09425905739800111
-3.58964047631218985
-3.55981331957046798
-3.51550154295910211
-3.61864791147448539
-3.9004288230260773
-4.18817228588938928
-4.34876840780588658
-4.43938879551351917
-4.4466802252001747
-4.54622407171574672
-4.62588995640247092
-4.74814235120248362
-4.86691800957561416
-4.94286711548756408
-5.01158569735848847
-5.02337122649868384
-5.09233222878792091
-5.1701075617233565
-5.25627408636617854
-5.36573054393897486
-5.42297714571444711
-5.47501120801708385
-5.53620858908290536
-5.6091790038235434
-5.70475328283434635
-5.81934457557461382
-5.86032027487228202
-5.90748532990293906
-5.96223780649527502
-6.02812837832151249
-6.20665992107248599
-6.23733897115724822
-6.2727149718945352
-6.31217841639497035
-6.35403158982794913
-6.55388053076850152
-6.56860519468706716
-6.58661577559124645
-6.60785932692130373
-6.6318619262241949
-6.65740323216655128
-6.68163250832515132
-6.94216023190598452
-6.95064521898018839
-6.96093253321614736
-6.97293485712415606
-6.98629322669606978
-7.00001203868705701
-7.01178321199193277
-7.326982080830029
-7.3291091287930703
-7.33192232780121866
-7.33534491554605861
-7.33912741882257169
-7.34272936524745301
-7.3451487260611632
-7.7125125082642878
-7.7083238077836489
-7.70384618434046153
-7.69913823887263948
-7.69426548947998068
-7.68930582661720585
-7.68443230571332858
-0.910151066677382659
-0.477349431611403752
-1.3996769644316549
-1.19556283762452198
-1.34087195943331494
-1.1257467816713973
-1.42217774272011077
-2.06824300590724475
-2.20305042126007855
-2.11819453066258356
-1.88384945358736466
-1.9618534145934956
-2.61955276002984849
-3.27837137795455646
-3.00779185073010602
-2.88639117858917205
-2.78494279717806892
-3.06786877817838377
-3.81459912692297998
-3.75634490047131431
-3.83510510920502279
-3.84088478877593476
-3.85314605518161102
-4.28054842351265119
-4.20109909081513599
-4.35954064463346658
-4.51925048563995269
-4.54791659899797551
-4.71818676785633961
-4.59315479003540794
-4.69185463376630096
-4.8012314007578647
-4.91248455200806156
-5.06507173114513076
-5.00693001367020596
-5.07358449375775944
-5.15426868763250301
-5.25545312869927006
-5.40341767650295157
-5.41788126989086471
-5.47104467595045207
-5.53753106170383269
-5.62102893591900976
-5.73878508546919708
-5.81903720301445837
-5.86122234400293607
-5.91241787141050512
-5.97574351262426617
-6.06218383251560322
-6.20818663435179374
-6.24031571587901546
-6.27834514642629404
-6.32238311832772482
-6.37555012684852507
-6.55513365882964472
-6.57016953057607722
-6.58873235991412365
-6.61102020018834224
-6.63680096786124007
-6.66517202901881856
-6.69519493502292118
-6.94324218153260286
-6.95206539806372792
-6.96290452970566776
-6.97579242969736946
-6.99046747337275498
-7.00617180483034652
-7.02135396784634569
-7.32797074358586542
-7.33036172421732246
-7.33355126038396943
-7.33752973506815387
-7.34213004834098193
-7.34694103665373621
-7.35116543055903637
-7.71341673580167342
-7.70940906308025653
-7.70514314280419832
-7.70068203988633559
-7.69610490183513285
-7.69151937940451536
-7.68709588468278593
-0.641387841247530233
-0.352906728178338014
-1.2719082215803188
-1.03940335920424598
-1.61030691600915277
-1.50926097183191321
-1.70499121651068064
-2.02563053270308968
-2.14063689595877182
-2.36120148565543619
-2.27724338804435966
-2.46338977177422702
-2.99936271111728203
-3.43142704489589612
-3.12807397795373099
-3.09738868862267047
-3.16036774691275735
-3.44591718044224748
-3.98605599935984767
-3.72221690526297211
-3.78419668447959268
-3.86820242483083288
-3.99052602479390295
-4.33613048274945889
-4.13450099182192421
-4.22290821715139941
-4.36398627051803789
-4.5039476525518527
-4.73118206635751548
-4.55448232946254894
-4.63073784829295665
-4.74226549891139459
-4.88076108596967284
-5.07398033065776399
-4.98961806647158834
-5.05206130869941017
-5.1415721918314885
-5.26261547607791069
-5.4255029829081014
-5.41461178863686854
-5.46906510008086588
-5.5428496627864412
-5.64065113950264951
-5.77244669230937735
-5.82101724886460126
-5.86578968279497825
-5.92350245356716876
-5.9985522499531152
-6.103905856521191
-6.21209672432756488
-6.24675101046460313
-6.28974031651137633
-6.34262409749484046
-6.41262433043667723
-6.55741791403873187
-6.57316896232265613
-6.59294660088047735
-6.61735065208879281
-6.64677352639415897
-6.68132263986589958
-6.72258735322399836
-6.94536685917314589
-6.9548491917895916
-6.96671668272937872
-6.98122285102108364
-6.99844416980403139
-7.01817456272786089
-7.03989972934738706
-7.32982568230733733
-7.33272879840391045
-7.33664934485997566
-7.34168799095154778
-7.34784288501238958
-7.35495390515407532
-7.36260346472873994
-7.71495093989365888
-7.71128276812712521
-7.70742994650167645
-7.70347128358215993
-7.6995069549894195
-7.69566702178303697
-7.69214989076294131
-0.646741142273105751
-0.407945107819556618
-1.02990347829622708
-1.01664697094288847
-1.7700723514731449
-1.67175094332028706
-1.69722490726467168
-1.53023318744469572
-2.04501590646066322
-2.50697730316107492
-2.43313118393011729
-2.55466884119599635
-2.72259462243415129
-3.12851197254470925
-3.15731099599105702
-3.1317245301979808
-3.25108770484576004
-3.47458948592307681
-3.77626099752717659
-3.68091744473300553
-3.70635829196711963
-3.81814605042774069
-3.99937201297578415
-4.19107156936054626
-4.10845771731283893
-4.16370982297589265
-4.27651414524474216
-4.41792343272344024
-4.57471645213852085
-4.53444681209921274
-4.60312850183386768
-4.71456143979619391
-4.8503011259939397
-5.03124713587894679
-4.983944947498677
-5.0458470300806546
-5.14077377888599418
-5.2682520162222426
-5.42744820718920007
-5.41593567421905497
-5.47222983838942856
-5.5507851997758344
-5.6557258771778427
-5.79131627605092625
-5.82528226053268927
-5.87284483531548585
-5.93604157735483096
-6.01985060202604938
-6.13298918655372027
-6.21759453394945272
-6.25508966639781949
-6.30316157564918633
-6.36496533399780251
-6.44810601386084414
-6.56056511992041624
-6.57725785329684154
-6.5985633596932125
-6.62550153395753316
-6.65916839582325348
-6.70057090066646133
-6.75371096979696794
-6.9483055890145291
-6.95866498777551001
-6.97185207720995681
-6.98839375241742022
-7.00881261137367595
-7.03359577307926553
-7.06341798026825085
-7.33243067750799149
-7.33603796705488875
-7.34094068478904305
-7.34738288570531672
-7.35558596887442384
-7.36571963353093651
-7.37788940421371819
-7.71710865183126771
-7.71392762682425381
-7.71066772940252232
-7.70743261984188877
-7.70435383101881222
-7.70159642993922144
-7.69940719105499127
-0.896250557629885147
-0.655573743048810442
-1.46423901784798449
-1.53644747408032667
-1.7842200048822654
-1.69778148057300005
-1.94014086437149791
-3.12103767332453241
-3.77405449417457239
-2.50872439608314401
-2.44202599616112304
-2.59929674451766957
-2.90019072330910888
-3.19270494695328377
-3.13386670580160498
-3.13317089179431996
-3.27072387739491433
-3.4307810891454289
-3.6315182570982909
-3.67197777414317095
-3.72129083979719644
-3.85349148039446598
-4.02493401042672794
-4.17256851074118273
-4.10672995587164369
-4.17963404812149086
-4.29368925837015958
-4.40277989737928266
-4.50983063935462347
-4.53757624417310979
-4.60994004568371452
-4.7207353315007019
-4.84569582557696243
-4.97110581048919897
-4.98956316261119426
-5.05369289191700943
-5.1488770523782339
-5.26742254285045064
-5.39981047172545736
-5.42124107296738256
-5.47896589746604779
-5.55924221962106024
-5.66139820290761264
-5.79053876774635246
-5.83106592245568489
-5.88073032915449279
-5.94692593526591473
-6.03465570497424864
-6.15052905418347606
-6.22391645232803992
-6.26372148950314234
-6.31546037250162406
-6.38257567967948702
-6.47235116162183211
-6.56437311495836173
-6.58208063128954191
-6.60491886319401811
-6.63424557593584829
-6.67171336181489316
-6.71947271085443809
-6.78248836806141941
-6.95184269259030252
-6.96317958027178641
-6.97777681670350169
-6.99641990316985929
-7.02006340971841869
-7.04995168400444783
-7.08805194337585487
-7.33559643083680335
-7.34002722063055835
-7.34604923703924229
-7.35405999974703395
-7.36452516216409858
-7.37800470880838422
-7.39523138961012183
-7.71977131760582935
-7.71719361776638557
-7.71466559717229572
-7.71232159420705621
-7.71033673086740912
-7.70893882181152268
-7.70846594894517967
-1.16005446996705386
-1.10088425187081107
-2.97879447088610405
-3.11436459622869322
-1.80935062308624839
-1.74078691646382655
-2.15170135290839148
-4.59936028735316338
-4.11134069413556347
-2.51439602695026965
-2.47529963864473146
-2.60642083630223853
-2.96858470355510384
-3.33480956812872043
-3.12054722808945284
-3.13758602318074198
-3.2941877467556564
-3.36879156526823031
-3.62493305434907676
-3.67673583507950852
-3.76794450340681619
-3.90221076858166827
-4.0082621370480469
-4.17871090949239754
-4.12031754767478731
-4.22059346904150168
-4.33258913929335598
-4.41789965634400961
-4.51037610664642141
-4.55428265171402469
-4.62923754143144262
-4.73560356020290474
-4.85605745603031025
-4.96037949394110456
-5.00010261286777791
-5.06513206236103475
-5.1580679267012286
-5.27161502265103099
-5.38213038152523193
-5.42826781373540435
-5.48625457542344463
-5.56562621824580805
-5.6620713011595516
-5.77056404410782608
-5.83733688744259283
-5.88795746686411103
-5.95543119580074887
-6.04225278559833967
-6.15724494496522823
-6.23028490571703308
-6.27156016588051202
-6.32511298008844403
-6.39417324801498133
-6.48390966084410358
-6.56856878936512167
-6.58721120554114847
-6.61135870284589089
-6.64255706683781533
-6.68278643498986114
-6.73476157799792929
-6.80372388201727141
-6.95572984854997767
-6.96803210800591355
-6.98395385688626202
-7.00447278418464947
-7.03085378273823025
-7.06491918805368613
-7.10978718640016183
-7.33912113495265928
-7.34441991015825391
-7.35158600645960458
-7.36115114802099413
-7.37380071624817113
-7.39047733247325578
-7.4125785456814155
-7.7227943102276102
-7.7209021748997495
-7.71919573200345965
-7.71784349596609598
-7.71707578971788877
-7.71721473252443602
-7.71876518991090244
-0.894783481537341441
0.711452072692509319
-3.74323157731867573
-5.64382792429205438
-1.76182813537255645
-1.74804506922354852
-1.80070775557148499
-1.13746242678184828
3.15408852749828839
-2.52101730381257827
-2.52382614423976825
-2.40612422969293505
-2.29628874304891539
-3.48136546382585355
-3.10150472908765629
-3.11568316689147018
-3.20042800291472318
-3.48430439294007233
-3.7922722537275706
-3.68211173717132123
-3.7784944904551141
-3.88125884385537123
-3.95506644665006402
-4.11298466339013125
-4.1348541239106158
-4.23253988432117811
-4.33496989235960672
-4.39398133822506942
-4.44990006535201132
-4.57070268980155348
-4.64270617525398421
-4.73810307605358183
-4.84783505498446488
-4.99829878293751051
-5.00996514923010761
-5.07293365358577564
-5.16161048950921852
-5.28028448756537383
-5.40136001658617282
-5.4348701982983405
-5.49157172975754548
-5.56890475371745719
-5.6647620376031016
-5.75338302923799905
-5.84305647000180972
-5.89338458998338854
-5.96008575288060793
-6.04321225968676856
-6.14253772347084404
-6.23606681224887183
-6.27794673187621655
-6.33202926852312586
-6.40028724344948863
-6.48602797134770892
-6.57284549909203442
-6.59223614554017434
-6.61732244486340448
-6.64968651219811679
-6.69125509592903001
-6.74468449094086608
-6.81500241299765364
-6.95970530577489654
-6.97287533424179795
-6.98991331455893672
-7.01188984633571799
-7.0401965672407778
-7.0768575674898031
-7.12551399834375943
-7.34279872441625692
-7.34894741424284703
-7.35719239247488943
-7.36815334450346793
-7.38267017083548005
-7.40197967160187353
-7.42797670795883391
-7.72602373677400234
-7.7248606706355023
-7.72401524675614048
-7.72368828165486132
-7.72416861908191521
-7.72587812676458707
-7.72954701713653591
1.498272131330463
5.58638458629229717
-1.33407464102509232
-0.97135031957850515
-1.82282342691429822
-1.71756024260359919
-1.5278888982019323
0.452182408528872593
7.56725952745409813
-2.49165075427635019
-2.54151551606305404
-2.5179324009950026
-2.62442124534450372
-2.98111255965552857
-3.12742774367035414
-3.1792687068004124
-3.25081668494047715
-3.47464321217468886
-3.84657218089295183
-3.68645111633556288
-3.74155892417082603
-3.84246823425335737
-3.93399893783172327
-4.02272187356977184
-4.1388534130470136
-4.20747288226591465
-4.30311754113872791
-4.35373053083726091
-4.40801022479871385
-4.57882007188893869
-4.64243795826620254
-4.728226794087389
-4.80798241100182278
-4.96155506786614087
-5.01644210532991686
-5.07535350452748268
-5.1572554791939007
-5.26466969974091104
-5.41344185733962746
-5.43975029169240809
-5.49425927563680894
-5.56816300916647222
-5.66664146321770712
-5.75550548750415025
-5.84755378883943155
-5.89656692684229178
-5.9609349803357663
-6.04004704300333017
-6.12556943345635663
-6.24083330576060824
-6.2825153926681514
-6.33589765380843062
-6.4018314332109032
-6.48129962239259072
-6.57689928403446444
-6.59680732409949933
-6.62243721836188737
-6.65529466791705193
-6.69706056501444102
-6.74974424186027999
-6.81726052962687223
-6.96352871662098316
-6.97741791498176767
-6.99531263870548159
-7.01827157525168577
-7.04764144385466462
-7.08530267861814878
-7.1345823216654658
-7.34643794674902839
-7.35337426824075191
-7.36257679955150035
-7.37470179963528238
-7.39066838730730158
-7.41186800088479281
-7.44048272939859334
-7.72930684721419503
-7.72888162319623895
-7.72889533568285536
-7.72957779671767931
-7.73127052439727613
-7.73448155067521981
-7.74020010719806617
23.7700443257635818
38.552177247782069
18.2547054003331226
32.3675619763177878
7.37951549848643751
14.9536656331823785
28.6755384296165161
2.31609347866264237
5.70819821731286581
13.0507862327626096
26.2994765529978238
27.3658673019559728
43.6342258538274379
20.0513014366390294
35.4143388169897264
7.13102931056817368
15.1978170757107023
29.5540922941456543
2.14647037667216445
5.17902301794923581
12.192262315654169
25.3530992701670428
37.8010737356593296
54.4442736019388747
26.878164871120056
42.2079446761629669
9.36946473505364352
19.4859143325943691
33.2299891559374458
2.29102861145846504
5.99960102469882983
14.4680554604877258
26.943888327817433
51.5409992200767419
60.0006496249850443
34.5823535312587751
41.0211673934436476
12.1637523855465517
22.9937684219636935
26.9760717857290047
2.81584368553845188
7.58631803903904256
16.4495628938556138
18.515278322381107
50.4475283889916
34.6963692688954097
27.730695172998935
18.134138321741716
12.1206155391982975
13.1189016939255225
9.47933504609068223
2.59313786079076181
3.42628419128084261
9.01550606233297458
1.43302022221075731
15.1859498743415315
-2.53315901659073006
10.0096131698832096
-2.43523560421285623
5.22461366207949141
-2.85371059662088555
-2.18301822818466817
-2.94814246133626057
0.526760533243191276
-3.9774423929815157
-1.84241236712145628
-1.26494122323895697
-1.9321795216458808
-1.73144931405940294
-2.05278967770401799
-1.44615256635108835
-2.059154705586411
-2.237848552894798
29.8544107582650895
-2.06496947975139733
-2.28169282005185892
-2.33633609453243185
-2.73457547806751489
-2.68503482714478992
-2.7481981561362181
-2.61968179524435607
-2.23647651110602963
-2.62176352547481528
-2.58014781149703376
-5.04288519290986414
-2.42859571069245384
-2.57394263798612766
-2.55006993740015719
0.768194847076420828
3.73014885654683681
10.5127045921342415
22.3183485237719239
0.0214737642859521571
2.33795359692030758
8.34435370298454515
19.7036447164684105
-0.748442809928619113
0.948328344852161109
6.75364669394755879
19.2668971605156258
-2.61638974772605692
-1.89785487215905846
4.85328265469253495
17.98952754858351
-3.88590984510708282
-3.65290772663499297
2.0443250293990971
11.7529883399079296
-4.39126584061407144
-4.40010696249870037
-1.74741056402946526
3.74384432440911041
-4.78923872335360201
-4.91228914109414649
-3.87199749493760592
-0.907241587445319908
-5.19120779183833214
-5.31136367734077197
-4.91621787937461541
-3.29567844108189334
-5.51922018691948502
-5.62826166912091708
-5.43855857329621539
-4.51414565436644466
-5.81220387281362605
-5.87992549069092796
-5.74003145022217875
-5.20729623759889115
-6.09572244415202125
-6.11984077930124748
-6.01813899667188679
-5.71767969999338899
-6.38913271082858358
-6.39091652761363083
-6.31979864905842703
-6.17742937564000627
-6.69669542234581616
-6.69184099671341848
-6.65287602050779014
-6.579455846532972