/*--------------------------------*- C++ -*----------------------------------*\
| =========                 |                                                 |
| \\      /  F ield         | OpenFOAM: The Open Source CFD Toolbox           |
|  \\    /   O peration     | Version:  2206                                  |
|   \\  /    A nd           | Website:  www.openfoam.com                      |
|    \\/     M anipulation  |                                                 |
\*---------------------------------------------------------------------------*/
FoamFile
{
    version     2.0;
    format      ascii;
    arch        "LSB;label=32;scalar=64";
    class       volVectorField;
    location    "0.540000000000000258";
    object      faceTraction;
}
// * * * * * * * * * * * * * * * * * * * * * * * * * * * * * * * * * * * * * //

dimensions      [1 -1 -2 0 0 0 0];

internalField   uniform (0 0 0);

boundaryField
{
    inlet
    {
        type            calculated;
        value           uniform (0 0 0);
    }
    outlet
    {
        type            calculated;
        value           nonuniform List<vector> 0();
    }
    top
    {
        type            calculated;
        value           uniform (0 0 0);
    }
    bottom
    {
        type            calculated;
        value           uniform (0 0 0);
    }
    left
    {
        type            calculated;
        value           uniform (0 0 0);
    }
    symmetry
    {
        type            symmetryPlane;
    }
    interface
    {
        type            calculated;
        value           nonuniform List<vector> 
181
(
(1525.09319931624373 -0.0177706250015724244 -0.0543302859092254509)
(1411.17869861396775 0.00090968529905902627 -0.0570822639443610072)
(1298.11869336075506 0.00222651147398276799 -0.0562545288954149764)
(1188.30919692328757 0.00211922393373757591 -0.0553419094710316181)
(1082.86130356299486 0.00232204095894581516 -0.0538232497462988665)
(981.843471277397384 0.00261597721188404657 -0.052092662718587722)
(884.458652003957127 0.00283966057539161839 -0.050385768800541339)
(789.776936030658021 0.00312495032269719539 -0.0489278145706584094)
(696.474721517394414 0.00398028621824715687 -0.0482909934524367104)
(603.832978010660668 0.00525690882489537274 -0.0466538086817178607)
(513.567185037316108 0.00664565077458700512 -0.044457879931620807)
(425.827741245462789 0.00841955160778432368 -0.0434049172307711811)
(339.000832813623163 0.0107441220268538699 -0.0426049044272070049)
(255.187572569052094 0.0136539862513964418 -0.0415205545931872227)
(178.647996398252531 0.0155160987075921297 -0.0413001587823634622)
(121.775764675597358 0.0138639831216086501 -0.0404850637912582551)
(1697.25714649095039 -0.0115332275795692833 -0.0356644742904767692)
(1580.13507439063665 0.00183524493341515743 -0.0389302118274460901)
(1462.92182326026659 0.00312106974308006295 -0.0382077114346600077)
(1346.16332600043006 0.00373947697113758814 -0.0381952921093377876)
(1231.71765528532501 0.00442304114193676871 -0.0367905201415852368)
(1121.0307867901588 0.00530581239058024266 -0.0360851716521534832)
(1012.98792448230142 0.00606908803628261606 -0.0353924805336256962)
(907.271927443848654 0.00679716184699916039 -0.0346079069348643742)
(803.615656924424798 0.00763889077728917894 -0.0336938891510073502)
(701.934067985109778 0.00862763629862553852 -0.0328361850673830544)
(602.331465543875993 0.0098674710208302898 -0.0319065964474754757)
(505.302566394905625 0.0113419241710777212 -0.0309817682108423052)
(411.109410148761185 0.01344318444533831 -0.0306464118139448231)
(320.910963483635669 0.0159408733754138054 -0.0305882054491187286)
(237.047564141339535 0.0182679964845755827 -0.0303401520461889194)
(166.295968613927158 0.0171310457443220737 -0.0301116371688743209)
(1777.90837603406112 -0.0113415947072571782 -0.0286016834903816131)
(1660.6137348891998 0.00205969876447635331 -0.0314754563385550787)
(1541.95850283238087 0.00427751967164936072 -0.0313875759748472802)
(1422.52305423661642 0.00532839929592971925 -0.0313594412776401141)
(1304.74843924577567 0.00619420162070532902 -0.0301395317714434931)
(1190.51963262037384 0.00704339019753689836 -0.0296085506928155037)
(1078.19841949118268 0.00783643875379589315 -0.0291580112783115797)
(967.682176308165594 0.00861937765500948687 -0.0285961844245947207)
(859.175685063864762 0.00950438973340020019 -0.0280063609245182511)
(752.764482373489614 0.0105936898505847917 -0.0274630622885294919)
(648.619509110171862 0.0119193749055018696 -0.0269664867939946422)
(547.523164116756902 0.0133451028861812284 -0.0263481793323561732)
(450.146055167492307 0.0150323527278531134 -0.0258564205510592379)
(356.661918578084908 0.0173519483322827454 -0.0259965497167025175)
(268.381179065493995 0.0199158379790590478 -0.0258409217812389652)
(189.962731414873218 0.0188933492823176903 -0.0257080720966540513)
(1809.90912002115579 -0.00801141299087882071 -0.0174433309293450418)
(1692.09357043233126 0.00251573431129206845 -0.0206891743371483694)
(1572.96075052196466 0.00463062012266744673 -0.0204583822749128778)
(1453.82841950325951 0.00587209433576685053 -0.0201136117842782569)
(1336.18775016987979 0.00708855504092619979 -0.0198957239401585523)
(1220.51779754287622 0.00815404244514916603 -0.0197141787961336995)
(1106.53583422495058 0.00909955237519655298 -0.0194887708420056413)
(994.382767405180175 0.00999341912241481084 -0.0192444618037775524)
(884.277681808431566 0.0109742671005123894 -0.0189964132137197539)
(776.398844628349821 0.0120752289472555192 -0.0187766370034536667)
(670.874082525196172 0.0133431314335038208 -0.0186052454224136625)
(568.327521303293452 0.0146457331210206078 -0.0183342041719976798)
(469.498745128483449 0.0161619654337773894 -0.0181419108630886255)
(374.856630357929305 0.0179356481678424502 -0.0180737076294522694)
(284.967561414549266 0.0207150840538057671 -0.018410033562427177)
(203.711823360450836 0.0198572363905423557 -0.0184570823527856302)
(1827.0404587618516 -0.00664219727857812831 -0.014139132728029264)
(1709.47819860233767 0.00274294969597048844 -0.0158009146651357443)
(1590.63654059955979 0.00491671438274526168 -0.015896027367315959)
(1472.08424554507906 0.00640724576789282116 -0.0158802737883526647)
(1354.55447198688853 0.00783439571391005354 -0.0158974980777190703)
(1238.41089874325394 0.00899617765691144468 -0.0158344242132862495)
(1123.85595078351207 0.0100609150220571427 -0.0156926504339118603)
(1011.19094877172608 0.0110489490506738321 -0.0155461353939359559)
(900.622683353784396 0.0120628832012627703 -0.0154117759887866818)
(792.318336731104637 0.0131468901386823014 -0.0152893211669836489)
(686.528448129214667 0.0143083914406871675 -0.0151444906104615945)
(583.581173569713201 0.0155641994520044728 -0.0150096460566380586)
(484.19790252022392 0.0169319096664280674 -0.0148555510648497313)
(389.01868136169071 0.0184459529486127559 -0.0147776534679880597)
(298.422908670423794 0.0210543729757799829 -0.0149787940076740091)
(215.895113300736284 0.0204588756812596195 -0.0151030832742551115)
(1834.73805038150795 -0.00541325100662723175 -0.00758421334914079724)
(1717.40871506020858 0.00296383489982565999 -0.00996004327869338436)
(1598.49306386126682 0.0050314724502444827 -0.0100509447810932934)
(1479.89640733796818 0.00667989693432841612 -0.00988839941993249587)
(1362.50300286538618 0.00819073900902276587 -0.00983229961520909121)
(1246.41405356572909 0.0094262109748905077 -0.00981804489982505621)
(1131.8133552811812 0.010546563298735958 -0.00977875349400680882)
(1019.08447437990674 0.0116368980007134377 -0.00972767023635676131)
(908.478725682654158 0.0126689072890617087 -0.00970631978244956319)
(800.199192406364318 0.0137193380760344558 -0.00967095178978426284)
(694.329059764010481 0.0148555647619217687 -0.0095735608287684671)
(591.066368304128559 0.0160999544136387999 -0.00948774758861703829)
(491.563085970878149 0.0172553435327574174 -0.00932705201474347094)
(396.510605932721546 0.0186533923336024733 -0.00931036401347302457)
(305.693098124477785 0.0211031218139519465 -0.00946746635487963686)
(222.042816651516603 0.0206030828929546529 -0.00951095890230269428)
(1839.80155967803194 -0.00500302799772689086 -0.00448192897997332605)
(1722.2275399304433 0.00319286840444130702 -0.00589043593735784268)
(1603.28905872732139 0.00526378922293902363 -0.00593285859604324433)
(1485.00776954996741 0.00687789929417871419 -0.00589177190551231755)
(1368.01981929466046 0.0084636170961344178 -0.00592985184581126205)
(1252.19008681291939 0.00977577353807550231 -0.00597654947932800985)
(1137.75597184454227 0.0109425108513237467 -0.00599901909977967104)
(1025.22173944377255 0.0120364885446529284 -0.006015111514941625)
(914.972225885751755 0.0129572483686808231 -0.00605206528021838119)
(806.860332702939104 0.0140608560521213108 -0.00607968299439729572)
(700.057649252726151 0.0154022826741950364 -0.00606539343490820806)
(596.236955323475513 0.0161103080406083364 -0.0057596589946480696)
(497.225346184895216 0.0174453580853963716 -0.00568767771623951944)
(402.199227994596072 0.0188174613695585753 -0.0056519381750195271)
(311.273171738326596 0.0212512682343133849 -0.00569523771667397247)
(226.596446297667853 0.0206125644403571499 -0.00560712839514804912)
(1841.668713774764 -0.00420494998262407795 -0.00144715134223140232)
(1723.91432777367731 0.0033505264638532253 -0.00187042737815690469)
(1604.90422287416368 0.00548484031609831023 -0.00187748302664650217)
(1486.75902653637513 0.00717898035236795747 -0.00187554023082084917)
(1370.00567989741216 0.00858783846851569194 -0.00189920296031430942)
(1254.38725682665836 0.00992013366581016159 -0.00193088487184289725)
(1140.07690044516494 0.0110806352605930022 -0.00195039925082662316)
(1027.68560281839291 0.0120827134415898776 -0.00197106172432289992)
(917.741267134936038 0.0129185247704287215 -0.00199440712849609713)
(808.966648132512091 0.0143150329382470357 -0.00202164237448318376)
(701.603146273463722 0.0151738120582648114 -0.00191937286825570055)
(598.238009325871417 0.0161135214973166484 -0.00184486069032784397)
(499.124507179706086 0.0174923361816315646 -0.00182381554368539543)
(403.852715944918202 0.0189213840998652717 -0.00179971903926053468)
(312.585712478018763 0.0215353520706385235 -0.00178351589369442863)
(227.53307873836556 0.0209323506176496248 -0.00169550117427294793)
(0.0779451467632089195 0.0405687739100807285 253.843769524101191)
(0.0748636156589872065 -0.00279452788260134725 142.592892010857128)
(0.0723646892900501049 -0.00778595247064386552 56.3551833317332509)
(0.0677144601888658992 -0.0120132911987558648 -8.25224151457556943)
(0.0596832343118550643 -0.0167950774653937811 -50.0379513025871674)
(0.0491962702885666292 -0.0210118551241494644 -68.836952697980152)
(0.0410611184302585516 -0.0237723327215592049 -67.3974233123027204)
(0.0340939052419242661 -0.0232558603626216477 -41.1368689131826955)
(0.0237921164927055104 -0.0182720571193631803 -1.16426496100085775)
(0.0248173289710389711 -0.0156496972404121214 1.66002586638785643)
(0.0206505826142936444 -0.0122869333885888034 -0.171512200103021317)
(0.0159776551202416052 -0.0088450300522391976 -3.55488973376347772)
(0.010526376651613982 -0.00619094468200997918 -11.0614196094581843)
(0.00559188091032799747 -0.00481596088231259125 -29.062073458173078)
(0.00433210595459151884 -0.00530137929221910151 -55.0152188679720098)
(0.0586718570364482619 0.0252831813224740701 384.868078288305014)
(0.0535190137599839133 -0.0123145260350449558 282.830016431695014)
(0.0460694732249731023 -0.0225852905532255011 186.571846438780824)
(0.0353663517196574143 -0.0317248423779037184 88.3342880292725852)
(0.0158490903299941047 -0.023207803243952909 15.1276521608352592)
(0.00459428876220959945 -0.0115045379728001985 -10.1163846424380335)
(0.000776552927673809096 -0.00577936491344309324 -3.51505317849535448)
(-0.0011525446012411295 -0.00409852801364283398 4.26709636734786901)
(-0.000322252460545772122 -0.000318524785213104649 2.27473030942354759)
(-0.000284047490907836191 -0.00016052914125606695 2.00195922746658228)
(-0.000270675931106054515 -0.000175943639797673871 1.35191248783503215)
(-0.00034377666271949187 -0.000175731188894063004 0.312746013466242478)
(-0.000506113881915368083 -0.000237018054153210236 -1.91176690888194667)
(-0.000738437730556145951 -0.000268442593881335848 -8.45235182057205847)
(0.0490699636158831165 0.00784458814995559438 506.218696492553192)
(0.0387978753506679347 -0.0186953920978865512 374.915050218463421)
(0.0243785151348849607 -0.0253595108569158734 231.011697540627637)
(0.0134627731672798054 -0.0179870083975907195 110.0772022728666)
(0.00606334528157649599 -0.00644611111166678522 44.7540171277588996)
(0.000972420128676609831 -0.00111417026372189875 19.7035286730140875)
(8.62752358482203716e-05 -0.00038633919138893934 11.4415871931837341)
(-0.000104709135808690604 -0.00020804921262306881 7.96417979269126164)
(-0.000158334894416699848 -0.0001734702858097506 5.41235745309314087)
(-0.000159241796779566603 -0.0001986821401670848 3.74069452952884562)
(-0.000110585786409360577 -0.000197576957796353819 2.64451636872889617)
(-8.79264429747916794e-05 -0.000206217981236365348 1.87754358870179927)
(0.0541177995390950545 -0.00642173519236253175 381.44780068555616)
(0.0467290964715233806 -0.0231048802434694785 253.219479859532697)
(0.0419630814175023376 -0.0210983682987406183 140.000896809499892)
(0.0161295937352650826 -0.00594356552067871243 72.4857181742775936)
(0.00729461146794545354 -0.00315248666589220284 40.4173137363921455)
(0.00180611791560510962 -0.00134542176222321626 23.0575984075723177)
(0.000270486444651847743 -0.000529225808524533812 15.1752163924394416)
(3.69463079978528096e-05 -0.000386160763646546906 10.2266025418991866)
(-3.92250174114342105e-05 -0.000232304322070485804 6.73992098429339226)
(-4.51953030638723412e-05 -0.000123761626427614082 4.51687724035009275)
(-5.05143099041456919e-05 -8.40104986923496396e-05 3.10705290852879523)
(-7.37813718847152192e-05 -7.75570523970058046e-05 2.36526623478898923)
)
;
    }
    procBoundary0to1
    {
        type            processor;
        value           uniform (0 0 0);
    }
    procBoundary0to3
    {
        type            processor;
        value           uniform (0 0 0);
    }
}


// ************************************************************************* //
