/*--------------------------------*- C++ -*----------------------------------*\
| =========                 |                                                 |
| \\      /  F ield         | OpenFOAM: The Open Source CFD Toolbox           |
|  \\    /   O peration     | Version:  2206                                  |
|   \\  /    A nd           | Website:  www.openfoam.com                      |
|    \\/     M anipulation  |                                                 |
\*---------------------------------------------------------------------------*/
FoamFile
{
    version     2.0;
    format      ascii;
    arch        "LSB;label=32;scalar=64";
    class       surfaceVectorField;
    location    "0.540000000000000258";
    object      Uf;
}
// * * * * * * * * * * * * * * * * * * * * * * * * * * * * * * * * * * * * * //

dimensions      [0 1 -1 0 0 0 0];

internalField   nonuniform List<vector> 
20789
(
(0.0354386891419528963 -0.00991233353266425359 -0.0311397348292738255)
(0.0184989162380158056 -0.0162853750523447686 -0.0293028863658287494)
(0.0169980890973217905 -0.00704010042613255858 -0.0284535669271541898)
(0.0176001711295674414 -0.00686383817859042341 -0.0295232600137413717)
(0.092263481895689517 -0.0137072324550251094 -0.034362663286138781)
(0.0653448438602612647 -0.0259991392795816019 -0.0327838762184454388)
(0.0623929915752481495 -0.0128235861175708798 -0.0321103518984658665)
(0.0640857596811368752 -0.0125516559661466697 -0.0335979189570677905)
(0.154178234384510532 -0.0147999681528966642 -0.0376137088558717234)
(0.121369310037505368 -0.0282632871452177352 -0.0353109279826471639)
(0.117090958093828454 -0.0145875553473838425 -0.0345296239143839737)
(0.119836877740619241 -0.0143742710981650066 -0.0360209823640432816)
(0.215029236835602239 -0.0142396381899915665 -0.0425415625061811437)
(0.183023845190040446 -0.0277322338794868638 -0.039199740047493617)
(0.184154991395564543 -0.0149244500604049785 -0.0385703143915406069)
(0.188380429686840906 -0.0148695794081406228 -0.0399450579350994622)
(0.268502893579304347 -0.0124390015290208426 -0.0496172609092526001)
(0.237380123225298445 -0.0243772479817161991 -0.0449555051804776812)
(0.240337300913925023 -0.0133736958640235104 -0.0444508722387305655)
(0.246913656963249128 -0.0134776179445334383 -0.0456733033629898866)
(0.314470794787321595 -0.0104936012966985737 -0.0594439543467590453)
(0.285467328598552339 -0.0210150505512880503 -0.0532018335969257766)
(0.287551099355478401 -0.0112712211199568133 -0.0527504210113535141)
(0.296932503685023774 -0.0114684331240586228 -0.0539202414844617353)
(0.35449780163678335 -0.00887348279895078598 -0.07314372531956502)
(0.3288178927254235 -0.018313763794781935 -0.0645678602265585266)
(0.328896925909572202 -0.00947937378352540702 -0.0640370082611933372)
(0.341815453090377086 -0.00971995298476768105 -0.0650849606663268104)
(0.388665803013813982 -0.00740210153594644728 -0.0914799354653490493)
(0.366922354449501054 -0.0159426808909254453 -0.0803645095947035371)
(0.364108049177762072 -0.00801901071244494508 -0.0797489687097246019)
(0.38146863537972675 -0.00832314860558612014 -0.0812626557081564393)
(0.416751767643554483 -0.0059787833069795274 -0.116413688167878504)
(0.399474967933864833 -0.0132573555929352202 -0.101069679643360111)
(0.392922809977580223 -0.00651206217986305316 -0.100023835963859525)
(0.416149613962442877 -0.00686854740311027782 -0.101573102642754709)
(0.436976818651736765 -0.00451035071579255608 -0.14883528024714876)
(0.425301628500491136 -0.0107896151747129861 -0.129574890204339627)
(0.41380075439291919 -0.00510522943992936136 -0.12808638600689079)
(0.444742113815463302 -0.00557716195287332687 -0.131687666971876893)
(0.450854469847088934 -0.00338218875395469376 -0.193282836364256555)
(0.444416903368098692 -0.0079342905819293208 -0.165655772497116105)
(0.426848033671297256 -0.00355329918108537651 -0.162954880031953103)
(0.468044647558560234 -0.0040163332941783314 -0.16648763292801938)
(0.454168251609827434 -0.00256572691175141736 -0.250333264606751205)
(0.455479009634312981 -0.00679956662799935906 -0.217213505894922221)
(0.430398749368693934 -0.00275400697285189565 -0.21260838053352718)
(0.484743288168794695 -0.00345047438842915801 -0.223261798696510277)
(0.455612393865109877 -0.00290604425911603027 -0.33533934096621193)
(0.459927682118492609 -0.00513890081398960148 -0.280041626640708141)
(0.425105445558791595 -0.00190366780638978974 -0.272575764380865948)
(0.504314243591228006 -0.00227786000632834978 -0.281569820355256406)
(0.421381795664077241 -0.00468167889638351244 -0.446756843717895369)
(0.449838236087203247 -0.00813088955735687471 -0.385746940093090129)
(0.405581709781482669 -0.00338166879417639912 -0.362702028445655855)
(0.500448468975905003 -0.00503141310934155685 -0.409390938062349052)
(0.377124781094937689 -0.00165839386176069425 -0.709667134665600829)
(0.442348541656831962 -0.0121057875799774964 -0.505002606046032976)
(0.377886195948274495 -0.00650050726198770235 -0.466481670045542862)
(0.602270553333408065 -0.0087296721311116935 -0.530032666667402119)
(0.219491197824323497 0.00340373413997707968 -0.927497211210297934)
(0.2217707752025109 0.00449268048079758987 -0.69082071130793965)
(0.487657542444796754 -0.00188710857062008067 -1.01923520396412615)
(0.0400928741431380159 -0.031979273528663435 -0.0309470277550003628)
(0.021052047639755142 -0.0347437865024503578 -0.0295096257415066246)
(0.019469386588369466 -0.0243775608359537432 -0.0285109540730717793)
(0.0200727013622782544 -0.0237866055605105882 -0.0297901311225951641)
(0.0966165091428574929 -0.0408331448185476689 -0.0337321409149538148)
(0.0698620107646500399 -0.0519714674437742261 -0.0326796777446164977)
(0.0667050893237377263 -0.0396703875721299073 -0.0312168937767251138)
(0.0683701241232681223 -0.0388673298000639308 -0.032918703768698869)
(0.153263002133689402 -0.0411640174937905612 -0.0368969591742690645)
(0.125758506722769003 -0.0542917558874755207 -0.0352547331389094359)
(0.122854067988412086 -0.0418812803018257795 -0.0337541801282613893)
(0.125672973593705883 -0.0412959452126546653 -0.0354588842039671587)
(0.205749242238613295 -0.0381868473328241115 -0.0416136827217901614)
(0.180672179499041935 -0.0518189859705144931 -0.0389434857386330019)
(0.177530378985399612 -0.040112378376885284 -0.0376072401056891034)
(0.181858772465501251 -0.0399201553661190089 -0.0391265211558529946)
(0.255308845973805376 -0.0337299869626410259 -0.0485400778681508716)
(0.231854390940237604 -0.0470504467673600185 -0.0445434403419693245)
(0.227888527372203109 -0.0357736156111706088 -0.0434010544922822719)
(0.234155185246581216 -0.0359315595315660638 -0.0446946583588866825)
(0.301033702578458406 -0.0294572706879702058 -0.0583257394767252788)
(0.279400357049506054 -0.0418910474171861336 -0.0526593579287771771)
(0.274234825851288055 -0.0311591811670198851 -0.0516331225540729577)
(0.282987366087950887 -0.0315295670673508485 -0.0527407431676452793)
(0.342172354890448782 -0.0257477815455633072 -0.0717886445016970715)
(0.3231216377672253 -0.0371298684001191009 -0.0639939604344653412)
(0.316298943403751531 -0.0272625687537366157 -0.0629528066422530008)
(0.328266511812308592 -0.0277641261612544543 -0.0640169836519401819)
(0.378095803327394175 -0.0221018857383689683 -0.0899542537727145708)
(0.362203362574155863 -0.0325229229444161938 -0.0794608103006079897)
(0.353168885766001417 -0.0237372514027323102 -0.078230320446435464)
(0.369268088860837174 -0.0243892590912194868 -0.0794584212674809276)
(0.408314253633918212 -0.0183309475933818682 -0.114230881679821247)
(0.395855526563929527 -0.027574704504177365 -0.100191841102682255)
(0.384021084613526298 -0.0199226514788145258 -0.0985143737222663185)
(0.405518993858690724 -0.0206974314079310696 -0.100287831393737897)
(0.431531111541787693 -0.0144789192468488814 -0.146395382454306999)
(0.423210505860755148 -0.0225277671509806418 -0.127877336526900143)
(0.407934859529479832 -0.0160725190910042046 -0.12539352412033386)
(0.436363830209808401 -0.0170341128953499545 -0.12823220723440934)
(0.447802693081706338 -0.011369350420302498 -0.189586442027781799)
(0.443512172616904232 -0.0175088350415599468 -0.164389570001083202)
(0.423859498971593751 -0.0121124912003673455 -0.160599920560588305)
(0.462093558805489302 -0.0131345799589523433 -0.165284979106836261)
(0.454457507552207485 -0.00943160683249745155 -0.246921867928879185)
(0.45584786159752172 -0.0140355283994525355 -0.214067180191598594)
(0.430696291672265308 -0.00960359357486990917 -0.207842808003035534)
(0.481093221343938282 -0.0110056795892896197 -0.216399050942352233)
(0.454695694136816042 -0.00996293211980007164 -0.33044922576758623)
(0.460237212808007057 -0.0124403399448652571 -0.278863869680879839)
(0.426700444296424231 -0.00791920998300675236 -0.268872628837750816)
(0.501148080464427714 -0.00929904645105882922 -0.2832635213843816)
(0.425259022587623992 -0.0165748691318496413 -0.443992702421227847)
(0.449510912616627234 -0.0142483219239670725 -0.38021932749508025)
(0.409085919017368405 -0.0102234031873331046 -0.357922160635680331)
(0.503830092330223023 -0.0136851279609341552 -0.396322541311705578)
(0.376682403128395016 -0.00774324619918443594 -0.722832682590728748)
(0.439918084171715185 -0.0308067666729763164 -0.505301313985474509)
(0.370872096502542048 -0.0207792615729639751 -0.455623339151048801)
(0.578211820637981377 -0.027237723609583122 -0.536204285921453638)
(0.214646134038565112 0.00884511838224359692 -0.932039670415717114)
(0.225262741014453483 0.0116947653587940632 -0.721780824228397622)
(0.467874168324741935 -0.00708442893508098252 -1.04572688112266921)
(0.0451569156442796216 -0.0548357717624762125 -0.0312422757311227525)
(0.0233400795041781052 -0.0556569436182065488 -0.0297459080956197046)
(0.0221095356852061588 -0.0448004824426198878 -0.0282281888628667862)
(0.0227200164220853346 -0.0436650042216194523 -0.0299153476028584039)
(0.100039913031925026 -0.0661526291474770628 -0.0342022699685721118)
(0.0740195410668427339 -0.0774397961050004024 -0.0331930179532414077)
(0.0714269546789592091 -0.0649572270526663081 -0.0312669693120587455)
(0.0731013900479579315 -0.0634419058259511476 -0.0334190068646486732)
(0.155289595675582981 -0.0655898196894532381 -0.0373012597032733872)
(0.128600407012430418 -0.0798905418434663894 -0.0357089429976666234)
(0.125796656793149497 -0.0670588909117190018 -0.0338871398129997753)
(0.128577130836862841 -0.0659473014559290027 -0.0359740686463982245)
(0.207500687459306055 -0.0610840487081461131 -0.041873243358812165)
(0.182409427605783159 -0.0759220093769103488 -0.0392033660173768811)
(0.179356570009809979 -0.0635080087609227184 -0.0377234220877977547)
(0.183597642032733932 -0.0630422096403414206 -0.0395198170634551149)
(0.256718636601092121 -0.0553093513878823509 -0.04866272040259563)
(0.233208367053743898 -0.0696514201559370466 -0.0446140940552703993)
(0.229387489393330674 -0.0578775326792887179 -0.043476916751665852)
(0.235570348542176927 -0.0579792558464828356 -0.0449296822857072134)
(0.302501607204054113 -0.0494829206976381969 -0.0583275788865172465)
(0.280747340998195538 -0.0628183343063770522 -0.0525966099167039722)
(0.275676534943219531 -0.0519543902840209973 -0.0516697025413827421)
(0.284359784839091634 -0.0524378517000500255 -0.0528281533806738909)
(0.344034061456474582 -0.0437831035854642711 -0.0716661262333762455)
(0.324736716635456446 -0.056094787315407027 -0.0638215631573105791)
(0.317944193882775339 -0.0462971900084071589 -0.0629205917434406958)
(0.329843148632866789 -0.0470348965497832949 -0.0639323780231724065)
(0.380473274449858179 -0.0378587753538968952 -0.0896983976305756603)
(0.364317027290623874 -0.0492745186411697664 -0.0791787403824016911)
(0.355272370971826623 -0.0405891655973303483 -0.0780907893717627116)
(0.371303019719218197 -0.0415294649310974165 -0.0792032947859657582)
(0.410999051937425197 -0.0316000412412280121 -0.113838295949761192)
(0.398461707904295415 -0.0419320154103978299 -0.0997975252925577122)
(0.386583563218382165 -0.0344082475363465951 -0.0982529708596024676)
(0.408017672261782371 -0.0355120243951104544 -0.0998333545701133307)
(0.434318583670228131 -0.0253063952402869906 -0.14587152407367629)
(0.42607477488335721 -0.034216987857622741 -0.127365882394744639)
(0.410749980082772137 -0.0279362654567693568 -0.124982573569266356)
(0.439137308366951695 -0.029217038134240314 -0.127632298291365603)
(0.449977049348599834 -0.019911234211997024 -0.188870308164900025)
(0.446090086372912809 -0.0266998700178951685 -0.163759624037198376)
(0.426431734765911341 -0.0215887276195550447 -0.160061662816972039)
(0.464599439236673961 -0.0230664740852851921 -0.164524860668461531)
(0.455841692451455283 -0.0167384351738951165 -0.246009181943599498)
(0.457617624881635487 -0.0208648425828194574 -0.213165718754003197)
(0.432700817394834902 -0.0167559541686581742 -0.20700655671616619)
(0.482992409704877002 -0.0185953437949278842 -0.215451969839404289)
(0.453667258675233442 -0.0164745372811225393 -0.328633971408373915)
(0.46014891327698032 -0.0185692302761172531 -0.277765941593183907)
(0.427089547888334198 -0.0145193919112889796 -0.267923267811020438)
(0.500965934654357903 -0.0171474077103934593 -0.282113582259926221)
(0.423507041861767908 -0.0275049753987155025 -0.441527939059327246)
(0.44709526894756918 -0.0195816534053549658 -0.37757929511661803)
(0.408191063409187538 -0.0153374213789892796 -0.355775747540105769)
(0.501767007261052833 -0.0197700528027846198 -0.393251064216461277)
(0.363111159373785075 -0.0144176022556340225 -0.714508301810462765)
(0.434372560970108679 -0.0427038896065854712 -0.501992895300522157)
(0.366396106765620622 -0.0336340046303947246 -0.455014164186750947)
(0.571573152150446462 -0.042772408763228853 -0.532493420927248384)
(0.200397441858646996 0.00914228457960951368 -0.915726035629720325)
(0.207041656220549708 0.0173962604426681072 -0.709083903420008266)
(0.450938502864549395 -0.0129353858891788943 -1.03125483461629019)
(0.0489427989722299728 -0.0784354290232414098 -0.0316966503177383563)
(0.0250013228041313165 -0.0785410396202671501 -0.0299994101920357317)
(0.0240602681898274655 -0.0669267607226239764 -0.0279868856485166809)
(0.0246716854430261076 -0.0649340178896029574 -0.0302506174795072087)
(0.103037597411057197 -0.091385524735642959 -0.0346996909823359123)
(0.0772424975644200318 -0.102776777605691788 -0.0335834671161043541)
(0.0750240715185511997 -0.0899939384103670414 -0.0313748440877281015)
(0.0766373254075800314 -0.0874889474915760135 -0.033964778833859649)
(0.157186963136765251 -0.0903487428644934448 -0.0376110493117701242)
(0.131248773337654945 -0.105164494914952333 -0.0359331771189102672)
(0.128519944332125741 -0.0922866429443437858 -0.0340083420321211083)
(0.131151640736336283 -0.0904485764397233577 -0.0364236924535569981)
(0.208888816818486811 -0.0845171808471452402 -0.0419442167138351155)
(0.184218070298396291 -0.099905222083669476 -0.0391808133226157831)
(0.180971555096263698 -0.0874691833253952167 -0.0377518664594711159)
(0.185030294286795238 -0.0866612306887433459 -0.0397612654065298624)
(0.2578920815613443 -0.0771831081180008732 -0.0485479835693787276)
(0.234739875658371983 -0.092193943911122081 -0.0444098729396048622)
(0.230540796328846664 -0.0804111431043269542 -0.0434182497325531214)
(0.236560758754492589 -0.0804881396410314365 -0.0449448115988660968)
(0.303848048383336233 -0.0695075127484774541 -0.0580905941874973186)
(0.282457660622753459 -0.083782428326666547 -0.0523021870105008432)
(0.276875380778075331 -0.0728444527632932243 -0.0515585579484623135)
(0.285426336108383527 -0.0735014631450793127 -0.0526367405838135752)
(0.345877580978160015 -0.0616682329340348945 -0.0713341773063360385)
(0.326904142114574969 -0.07516780183793971 -0.0634772154692946067)
(0.319511091046392581 -0.0652209062389916133 -0.0627617418969545066)
(0.331293469371631844 -0.0662308780830738603 -0.0635479173949122789)
(0.382926587708729893 -0.0533772705392291658 -0.0892778680443837569)
(0.367119354919556107 -0.0661291287444165932 -0.078779294843089237)
(0.357417536546973058 -0.0572888382336333088 -0.0778535378828913854)
(0.373337765023663504 -0.0585284014964805727 -0.0786301737846483578)
(0.413857339586223061 -0.0445137382320782773 -0.113325111737541159)
(0.401861742445302816 -0.0562709913503400688 -0.09933676995028759)
(0.389295238455621695 -0.0486547680623133777 -0.0979134449934691981)
(0.410618269000978919 -0.0500573546505611103 -0.0990973068090944958)
(0.437220032020306237 -0.0355171693285440404 -0.145253982358266698)
(0.429748944958700196 -0.0457379282787638008 -0.126813176249718773)
(0.413756752777872827 -0.0394278115013683358 -0.124494831943202364)
(0.442025990501020816 -0.041006748273191243 -0.12676976465436765)
(0.452146185848213811 -0.0275461477423072643 -0.18805503462630152)
(0.449418353481780608 -0.0354275656290909124 -0.163066247095613737)
(0.429184891596287088 -0.0303259684822796693 -0.159404666643649606)
(0.467163471540267106 -0.0321698945370693448 -0.163592262525588145)
(0.456656148689900288 -0.0225870209067695893 -0.244922478403587635)
(0.459753777964595545 -0.0270193041458757117 -0.21212638796703262)
(0.434520898142715495 -0.0229074816660109516 -0.206026627845328603)
(0.484535103899306541 -0.0252372401083910784 -0.214326553851713508)
(0.451422132394647846 -0.0216684386145500757 -0.326711265301428189)
(0.460036816729344766 -0.0233615907263271007 -0.276341483301737578)
(0.427091251165391761 -0.0193232664206986794 -0.266644430989938119)
(0.500097234749090735 -0.0228072922709110712 -0.280881332778940951)
(0.419417899113785686 -0.03480214720745093 -0.438044251357813108)
(0.443335117999060335 -0.0238702466520011036 -0.374618928180857957)
(0.405115407128698368 -0.0195886112304818095 -0.353389623904834138)
(0.497696732880868131 -0.0253328201866289543 -0.39041479776090654)
(0.353010220936122554 -0.0193036171763720787 -0.703210629119780162)
(0.427157248482192275 -0.0510640031813580642 -0.496772763381480131)
(0.361965450515450482 -0.0414208968632896746 -0.451905974029331692)
(0.560760305173543472 -0.0534180187228693523 -0.5276551121813291)
(0.190473431129957349 0.00832340678790925367 -0.897218046658418422)
(0.196217938371454403 0.0207139651636878801 -0.695870738420871437)
(0.436754266676634528 -0.0200153590138166596 -1.01129505315316948)
(0.0516888862383051359 -0.103009969024559181 -0.0318862269904017295)
(0.026306112051419632 -0.102887084042106183 -0.0297925808158436625)
(0.0254518808801694092 -0.0906843988578265592 -0.0275735656440750654)
(0.0260303590877554447 -0.0874255358769031599 -0.0303201844373015839)
(0.10575507098510166 -0.116641100874278106 -0.0348169532526787159)
(0.0800673824008026197 -0.128169556355739178 -0.0332536645005148193)
(0.077906869396638101 -0.115335203538356135 -0.031393649328476457)
(0.0793397664656172036 -0.111557963755954823 -0.034120626390249105)
(0.15927075936133972 -0.114856818914128592 -0.0375029411297559331)
(0.133999088678030814 -0.13015399500889277 -0.0354213390478826107)
(0.131121735731621197 -0.117266348509376658 -0.0340262136243648095)
(0.133471599977314503 -0.114575033957606154 -0.0364359555243848748)
(0.210767402991638708 -0.107707128353933757 -0.0416464695483855368)
(0.186561318134278509 -0.123745324054026565 -0.0385754241652903965)
(0.182962935224273315 -0.111137026961474858 -0.0376724266285866569)
(0.186746036627139483 -0.110016500973571685 -0.0395779406775363871)
(0.259901969934894062 -0.0988931004665933727 -0.0481640763807269778)
(0.237088660861335981 -0.114668996081587579 -0.0438461540748276979)
(0.232392394756399556 -0.102680472041570103 -0.0432892170073595206)
(0.238209972462116198 -0.102832033809299145 -0.0445639784368934699)
(0.306280043605232644 -0.089518298174957045 -0.0576888082922981521)
(0.285205165054655485 -0.104714573210149514 -0.0518535619029650424)
(0.279034850664333478 -0.0936436730913888238 -0.0514359815021686526)
(0.287450119901709433 -0.0945571689799492299 -0.0520750064453282605)
(0.348987093166878481 -0.0796535986831113096 -0.0709223330060477913)
(0.330296965315631019 -0.0942355484175024238 -0.0631198166492083212)
(0.322261196072558431 -0.0842716813965508488 -0.0626410967283160536)
(0.333936735930490447 -0.0855757799270658592 -0.0628145771629844279)
(0.386786607656087855 -0.0689749074236660487 -0.0888381967489930841)
(0.37130304099523026 -0.0829573550201645193 -0.078447098705983806)
(0.360924871212589038 -0.0742288289721452083 -0.0776806173482173234)
(0.376741335931377874 -0.0757088433560134527 -0.0777374575842164212)
(0.418217331827891725 -0.0573684753216949089 -0.11282483446246519)
(0.406770167479621081 -0.0704727203875622071 -0.0989697792324244624)
(0.393507945626851041 -0.0630848965826034253 -0.097623276351454083)
(0.414711562101110931 -0.0646351909473477926 -0.0980882823470541065)
(0.441574481909424277 -0.0454393547081146168 -0.144625440987065867)
(0.434997038612458198 -0.0569640117973609361 -0.126318150855724065)
(0.418312040910439942 -0.0509431516376565655 -0.124001894229546064)
(0.446426254032932013 -0.0525945047331531843 -0.125692161691834448)
(0.455586305373898992 -0.0346327498009912915 -0.187137600436344753)
(0.454290600411186962 -0.0435843740072940494 -0.162305804781862573)
(0.433418700806644575 -0.0387888387177810212 -0.158619866181421321)
(0.471126373272365062 -0.0407279249311261818 -0.162478591498905617)
(0.458165831487279462 -0.0275196081133158438 -0.243545392865182564)
(0.46314532250948437 -0.0322764115920103761 -0.210848418760765988)
(0.437481928990916979 -0.0284731095551561952 -0.204792287130057454)
(0.487104760645411916 -0.0310525241483341208 -0.213013623962406806)
(0.449357619484086812 -0.0254716561561835163 -0.324249146181167458)
(0.46054889310739483 -0.0266959486708124825 -0.27443002848365633)
(0.427687278535660631 -0.0230335624559376284 -0.26485462365828194)
(0.499559658003431883 -0.0271436900050433388 -0.279352835959017554)
(0.414037064002777122 -0.0401083709436108604 -0.433347440204524814)
(0.439475255622059136 -0.0264919222266128337 -0.370926945000585095)
(0.402009857042852414 -0.0222795336148759494 -0.350382764970799343)
(0.493280007115747821 -0.02937365701328018 -0.387022260974458243)
(0.342029503099351595 -0.0231323704900160826 -0.69078018092011928)
(0.417560752547772307 -0.0563421726647894486 -0.490138029895596739)
(0.355790099428458184 -0.0471769093361117456 -0.446838305338435771)
(0.545863210144383881 -0.0621399190940435733 -0.521401238268143996)
(0.179796499831090362 0.00827493667042060108 -0.876143299763158301)
(0.186900890966651467 0.0239087186408372364 -0.685429821970206299)
(0.423083392633709643 -0.0263232591369066127 -0.989552848507049276)
(0.0540890531468985608 -0.128199543412314015 -0.0311600183259567454)
(0.0277970127104091268 -0.12829085946008903 -0.0286174460062858793)
(0.0266437695714422731 -0.115618141763094373 -0.0268445080276358515)
(0.0271120953174422211 -0.110760533184940599 -0.0295730955928027485)
(0.108662963285783967 -0.141768286983926101 -0.0338580502957187071)
(0.0832610401628465779 -0.153584568570368091 -0.0315510260616969629)
(0.0807122695169081167 -0.140728609903635615 -0.0308588377228562923)
(0.0818402369126485507 -0.135591420050654665 -0.0331790020904967412)
(0.16194583484777475 -0.139135697992021801 -0.036493822083417074)
(0.137421526713647629 -0.154767469173035188 -0.0337424483192451038)
(0.134121946345035409 -0.141919567053481077 -0.0335610878348272038)
(0.136135430541805158 -0.13851140071078924 -0.0354257274464556959)
(0.213463841806685595 -0.130787293937413895 -0.0407751086917325645)
(0.189815960490056029 -0.147277583612602569 -0.0372541079637491584)
(0.185718965490472482 -0.134590818295052372 -0.037297413655307185)
(0.189250965561902879 -0.133408094678666655 -0.0385681584564599098)
(0.26293444034585356 -0.120552612500426287 -0.0475356395970657694)
(0.240483893743136057 -0.136895735443028799 -0.0430259607982877851)
(0.235234682139741136 -0.124880321238364095 -0.0430889645590898165)
(0.240915983196338446 -0.125319684819303778 -0.0435683122629198019)
(0.309913674012559037 -0.109480895773765033 -0.0572845702598752254)
(0.289105190849152816 -0.125429182139999595 -0.0514815904717632611)
(0.282377866427150681 -0.11449033351742853 -0.0514227164887740215)
(0.290706343313659077 -0.115739745723150655 -0.0510923270700318968)
(0.353450648033751924 -0.0975523960336249774 -0.0706445823491443359)
(0.334977685665082126 -0.113136058965525921 -0.0630039709103365625)
(0.32638956649642703 -0.103453781480034535 -0.0627228507776536742)
(0.33795239239661895 -0.1049699538632103 -0.0618242038308943059)
(0.392144440372376668 -0.084395543176391738 -0.0885786811894152121)
(0.376955055962526708 -0.099657713000361664 -0.0783740439631619018)
(0.365988080637919488 -0.0913242830461407362 -0.077713491204986232)
(0.381636075167788469 -0.0928065076525709937 -0.0767196640502825072)
(0.424212753218575267 -0.0699111969354100221 -0.112463095625683282)
(0.413377223470374977 -0.0845183312396821373 -0.0987464999275096678)
(0.399424975241683189 -0.0775973750419125669 -0.0974578807386893009)
(0.420395716197649594 -0.0789213588156589124 -0.0970438958552910791)
(0.447635652587357713 -0.0548462551382701488 -0.143998514650520854)
(0.442193538006542708 -0.067932147753155106 -0.125729219598146369)
(0.424671158799764137 -0.0623698048021784079 -0.123481861911422769)
(0.452482866148916307 -0.0636446238351051213 -0.12459786177837251)
(0.460656702852488553 -0.0408859561764414597 -0.186016623106283724)
(0.461267574017536153 -0.0512056330182551964 -0.161149572168890615)
(0.439454477616031902 -0.0468185423803716 -0.157608249380256221)
(0.476733797255749658 -0.0484153550930587415 -0.161276601129612951)
(0.460803902320908065 -0.0311169313369750698 -0.24173305437923992)
(0.468464123766946627 -0.036505083070260104 -0.208929027894239089)
(0.441969527848801724 -0.033098398438956407 -0.20314799439201861)
(0.491076109452315834 -0.0356091652852697366 -0.211474542056496267)
(0.44760677150660827 -0.0274695140969330245 -0.321107827303074078)
(0.462260314755539803 -0.0283041447577010719 -0.271723769399176807)
(0.429155062441135993 -0.0251190666646192093 -0.262468142996751641)
(0.499712596114318341 -0.029632526168106979 -0.277415400065546214)
(0.40753632083031055 -0.042592200154208025 -0.427717534691656853)
(0.435944727082140104 -0.0269370901428478381 -0.366329629425448111)
(0.399056375576347988 -0.0231234310250358413 -0.346525621549307716)
(0.488847318672139486 -0.0313894955916758853 -0.383034357697272176)
(0.327803225803544707 -0.0247122026579150791 -0.675501148738636203)
(0.40612358966205736 -0.0578115138529364456 -0.482350787488409094)
(0.347185883419917574 -0.0496480826176537507 -0.440649382991048943)
(0.527448603216974954 -0.0681982329857199338 -0.514461888423016545)
(0.168060385487408925 0.00900718056839431257 -0.849632618425486319)
(0.175122097887176725 0.0276898464181066506 -0.672971472071793642)
(0.405895387520499862 -0.0286178702539504094 -0.962887916672129252)
(0.0570339315765510182 -0.15381783022827647 -0.0290084537420260968)
(0.0301583595938650847 -0.154603077419523588 -0.0259723745139707717)
(0.0282593554519955728 -0.141464600326940887 -0.0256041374699568051)
(0.0285171586094464802 -0.134916682321813003 -0.0275319514100164746)
(0.11247873193968401 -0.166651789620543639 -0.0314354240852233527)
(0.0875261726473620105 -0.178860927160045119 -0.0283025000101612897)
(0.0842950108380731006 -0.166039288558679249 -0.0293841570429509494)
(0.0851384328504443538 -0.159918832170867581 -0.0306529086908146932)
(0.165707431505931285 -0.162982563224027044 -0.0345027341995771883)
(0.141870656175820425 -0.17881482796491216 -0.0310373741541230645)
(0.138136147963918765 -0.166052733882376152 -0.032359110597044688)
(0.14001663707520115 -0.162465339331397812 -0.0331396358086311349)
(0.217294163252990946 -0.153462311407792484 -0.0395049600703043791)
(0.194044673566286796 -0.170267093751902604 -0.0355349375691602493)
(0.189636307073006993 -0.15758894016912825 -0.036585318436179938)
(0.193203127468703412 -0.156783014166300194 -0.03670939611828275)
(0.267132839269881961 -0.141842682402461895 -0.0469719116729852906)
(0.244801397244826913 -0.158658846838930223 -0.0423296311637755968)
(0.239326290307874279 -0.146807805607271191 -0.0429267769946349922)
(0.245111913890950911 -0.147701291779860522 -0.0421516860493905549)
(0.314798338999689287 -0.12913817156792104 -0.0572009911222246051)
(0.293940971670757945 -0.145821453605986917 -0.0515387308581804551)
(0.287080331035148462 -0.13526601718622086 -0.0516676845789969252)
(0.295411993185346555 -0.136725504710672963 -0.0500826833380683609)
(0.359330140887525407 -0.115240718608150411 -0.0707334325243541145)
(0.340751125881705974 -0.131937276888464156 -0.0633681036986547819)
(0.33204252964186165 -0.122762702276516047 -0.06309019612632491)
(0.343412554529517966 -0.124146308650152803 -0.0611086765728235809)
(0.399191981818655728 -0.0996722441478029575 -0.0885418627012563436)
(0.384046857312106971 -0.116496033256646328 -0.078580031668955802)
(0.372791792102775854 -0.108692223186239181 -0.0778876742816063949)
(0.388072964822509414 -0.109689881620803037 -0.0761314340399317085)
(0.43226594567993859 -0.0822880279166390699 -0.112012623899972685)
(0.421953626711814078 -0.0988274240264205156 -0.0983622070103567642)
(0.407361116153056535 -0.0923923232796497462 -0.0971598162544604627)
(0.427844874403272568 -0.0929289119710758338 -0.0963788845499278651)
(0.456107271224611754 -0.0638879852880767374 -0.142880277116516186)
(0.451950146301800082 -0.0790839021884301996 -0.124395732818898139)
(0.433360274331619666 -0.0738981724234886173 -0.122502791719302354)
(0.460621704163751922 -0.0742565805037154886 -0.123614093754281631)
(0.468234868001580984 -0.0463143800511345155 -0.184061976956846146)
(0.47119863372540971 -0.0585516992740869255 -0.158745292276765926)
(0.448005422874074022 -0.0544784937420800253 -0.155863181417671415)
(0.484688337847210715 -0.0553109439419961768 -0.159775155963684495)
(0.46544613828923187 -0.0332053018452366649 -0.238919742914176336)
(0.476575830632906594 -0.0395766585845733279 -0.205585306231747977)
(0.44875254903281625 -0.0366282607375794447 -0.200634493165799316)
(0.497299194213274842 -0.038803853376821365 -0.209256382465120822)