/*--------------------------------*- C++ -*----------------------------------*\
| =========                 |                                                 |
| \\      /  F ield         | OpenFOAM: The Open Source CFD Toolbox           |
|  \\    /   O peration     | Version:  2206                                  |
|   \\  /    A nd           | Website:  www.openfoam.com                      |
|    \\/     M anipulation  |                                                 |
\*---------------------------------------------------------------------------*/
FoamFile
{
    version     2.0;
    format      ascii;
    arch        "LSB;label=32;scalar=64";
    class       volVectorField;
    location    "0.149999999999999994";
    object      faceTraction;
}
// * * * * * * * * * * * * * * * * * * * * * * * * * * * * * * * * * * * * * //

dimensions      [1 -1 -2 0 0 0 0];

internalField   uniform (0 0 0);

boundaryField
{
    inlet
    {
        type            calculated;
        value           uniform (0 0 0);
    }
    outlet
    {
        type            calculated;
        value           uniform (0 0 0);
    }
    top
    {
        type            calculated;
        value           uniform (0 0 0);
    }
    bottom
    {
        type            calculated;
        value           uniform (0 0 0);
    }
    left
    {
        type            calculated;
        value           uniform (0 0 0);
    }
    symmetry
    {
        type            symmetryPlane;
    }
    interface
    {
        type            calculated;
        value           nonuniform List<vector> 
352
(
(2360.35274460842447 -0.0429817815660199498 -0.0449718310074618682)
(2265.27832589719446 0.0093697518444857894 -0.0458802705152317886)
(2089.60315297595389 0.0237435375073387876 -0.0448798190311642253)
(1858.21160198901293 0.0316362119927971266 -0.0439609289237205964)
(1601.04187383259205 0.037153489666491131 -0.0415591555841622121)
(1354.3268447049295 0.0413493478689253083 -0.0394380829751566839)
(1133.07546560311721 0.0443573699250145795 -0.0385878217961735451)
(941.036108756766566 0.0438746739861640561 -0.0351632126744009926)
(777.42756658692565 0.0549652440525098401 -0.0401476927086328872)
(643.659171506269217 0.0579850796780777764 -0.0376985250509722439)
(522.86901501354123 0.0594916075662897323 -0.0348477293682526584)
(404.686846079454085 0.0572889128964197206 -0.0308016380288547442)
(297.629967784461996 0.0526179445961067194 -0.0262811392376181875)
(212.497665944822899 0.0324468337849647334 -0.015265384497808461)
(148.765936502220029 0.0233773656211384226 -0.0103734969144305498)
(100.302904381255971 0.0232093390920865734 -0.00981798211270241798)
(2837.0970325683893 -0.00857040340985257623 -0.0256148693880581882)
(2710.98946898160648 0.0140454014456007012 -0.0303357122638308156)
(2501.86928479712014 0.023058104003165495 -0.0275226619100270818)
(2239.97408127220842 0.029793072197770696 -0.0251259809863371604)
(1958.47146741235338 0.036728243156345014 -0.0243615064077045695)
(1691.02478959493533 0.0417980145086636196 -0.0234993582447593254)
(1445.85752696118357 0.0453903554014598379 -0.0231647108738249063)
(1218.34612193138196 0.0465568689982434128 -0.0220266838044663668)
(1016.58235348414678 0.0503796134909442542 -0.022284500052677441)
(846.824550399342115 0.0525594065794384377 -0.0216550625828097372)
(699.171267040175167 0.0566331544110454943 -0.021989835670928732)
(553.08997824971982 0.0575342231724239594 -0.0211284660906152222)
(416.152836464931681 0.0432228570756532093 -0.0149155195692474239)
(301.273904855701119 0.035531323997595933 -0.0115554203143118442)
(205.635576662485249 0.0324985892954008024 -0.00991138486379461794)
(127.057309461364881 0.0326219461877165356 -0.00931276315560120027)
(3099.15307933239001 -0.0101622419596445988 -0.019448025117380318)
(2963.75010659219879 0.0160965746280672291 -0.0240277029747389126)
(2741.68797606955604 0.0312578599579807284 -0.0262768831085809021)
(2462.58594386302821 0.0357115661645359267 -0.0219522939269500665)
(2169.53196231631773 0.0387717589408643412 -0.0190780959699184648)
(1903.17987388537404 0.0453862252436701558 -0.0190970033812426707)
(1659.6302794122098 0.0467199465601050579 -0.0180380509327587556)
(1418.86291190914449 0.0479321529855612841 -0.0171487930724331696)
(1190.40664697601414 0.0528965130973549011 -0.0175347027659796192)
(987.710776880637241 0.056405392073901342 -0.0173698852274810391)
(811.375491834172067 0.0568500088401271489 -0.0164184793355101229)
(646.607540279624118 0.0551495404509621603 -0.0149514400906959281)
(492.836790571297342 0.0493254205572556323 -0.0125607865483927123)
(360.105637405510038 0.0406310291354874883 -0.00976423559398973198)
(248.503271525890824 0.0346497376898680723 -0.00786873412133208376)
(155.728190183040539 0.0325226979176552466 -0.00703766119305908149)
(3235.10245687834777 -0.00895424857930406104 -0.0106920425759484596)
(3103.4199333826482 0.0156434025393671558 -0.0153269206094493512)
(2880.32306811771969 0.0313710565208330655 -0.0181324897185048996)
(2586.26710964361155 0.0501587852642842585 -0.0212744269354208856)
(2276.92191791241157 0.041430042660248842 -0.0138907084798220413)
(2006.38447951394141 0.0469203965223642314 -0.0132038505297214243)
(1761.31206566970855 0.0509288877601607251 -0.0129211605218006332)
(1517.02160651192025 0.0537100611742381828 -0.01250580697995601)
(1282.81389938085749 0.0573906534965875001 -0.0123733660594484516)
(1073.03254810972612 0.0596241765918078051 -0.0120617509513201038)
(884.513454423441544 0.0627036291174037502 -0.0120244939363653852)
(704.94955710905424 0.06498374162671057 -0.0117955214487990775)
(539.829764122438519 0.0584197384841854753 -0.0100250732774688767)
(398.825965077561705 0.0449056102064233978 -0.00731838460376696247)
(279.152821305679765 0.0415016504761403712 -0.00640917871940795483)
(176.783649182102494 0.0456312878573509745 -0.00671354937342849133)
(3329.4091761799159 -0.00977831211353335193 -0.00797422471415547285)
(3199.94922944616019 0.015950325007250906 -0.0103447918036068693)
(2977.45304665647927 0.0313170810924829207 -0.012019763623857465)
(2679.64253892182478 0.0526636302767996209 -0.0149523699354472354)
(2362.75125508631936 0.0511896217689574301 -0.0115457911921255756)
(2086.74622665521974 0.0487386925788504469 -0.00933091512729847597)
(1839.49302950480956 0.0538606236717149717 -0.00934371556481692483)
(1592.03214805447874 0.0570779737447650801 -0.00920210403674181013)
(1348.73133912841695 0.0606117039231555896 -0.00913074943939777735)
(1127.79306484562562 0.0641357663524591282 -0.00902459506900263331)
(932.038115923492796 0.0742604616003640638 -0.00977290538943435122)
(747.519065449765321 0.0760274692518933398 -0.00946019262406683735)
(574.734637253117398 0.0685306351806757724 -0.00804697598382126539)
(424.802632415811445 0.0601176052551844128 -0.00668050879114320036)
(295.552922709459153 0.0510651820052705624 -0.00533449732151210047)
(187.704966457229972 0.0306054793604886785 -0.0030306651698661616)
(3390.98293454134455 -0.0099405179678144634 -0.00478700757241123497)
(3266.09460233467371 0.0159771017020275546 -0.00683035542902888423)
(3043.72787879829184 0.0332747314153401808 -0.00800403800812320154)
(2738.14674004652579 0.0552413286882990351 -0.00913206095963257393)
(2414.18133578240486 0.0553195793865067301 -0.00701336685941183254)
(2138.60242629790673 0.0503157305255833021 -0.00547723775301545753)
(1893.01669683687214 0.0544193895261778637 -0.00555336963773733587)
(1640.29865616945676 0.058224734038720638 -0.00565422753002459751)
(1388.08375677782874 0.061719400872396947 -0.00565870348183167629)
(1159.95074650824472 0.066303411740787202 -0.00563410253350376047)
(961.031813304164189 0.0737485757234541822 -0.00580922438964479818)
(773.720905246081202 0.0813114143730006983 -0.00601708911573523367)
(596.174392807838785 0.0740577630849237889 -0.00518504421182316814)
(440.665595022327693 0.0637044888547005084 -0.00425712009687185221)
(306.069746512890902 0.0564070500986383061 -0.00360087350840542549)
(192.367137495470331 0.0498624151573576202 -0.00305870844666462915)
(3431.68476754924404 -0.0109192523300186538 -0.00272657126365292296)
(3306.42564545072946 0.0163795924910183632 -0.00375524544028393945)
(3072.5594924725774 0.0411931001921317999 -0.00501962975027162115)
(2750.67155107834878 0.0580023944071428391 -0.00446700436950078078)
(2439.08796089440511 0.0476934514464263243 -0.00275142512966962665)
(2176.43268977044181 0.0519572614536471869 -0.00264620951896850365)
(1928.47582439019288 0.0563054500226488272 -0.00271949872706464535)
(1670.52953587994853 0.0593572840539713237 -0.00280669751995229165)
(1411.63724727204635 0.0627078982779272626 -0.00296081769939686695)
(1175.53574310878071 0.0669211018914679656 -0.00311497491930873673)
(972.141341566328038 0.0759226945922571034 -0.0032682707842356792)
(785.837501944531141 0.0834810838812841544 -0.0032494701103557796)
(609.225575975372294 0.075580810421333286 -0.00271364373492905464)
(452.752025545981894 0.0654220615690931789 -0.00217143170771423154)
(316.239436410385565 0.0584117776409467035 -0.00180468197780932443)
(197.804986574204861 0.0532738922459293843 -0.00161048215928477818)
(3449.3509411676846 -0.0104814720310738609 -0.000933351754590765865)
(3323.48329278625715 0.0167494851900480933 -0.00125452239290688877)
(3089.40574335440488 0.0419753314030130026 -0.00165905801558848963)
(2763.55273101762441 0.060806615227820944 -0.00154902581440744718)
(2452.33678836591798 0.0499872484491447541 -0.000952170388969723089)
(2191.99257245700528 0.0528367859713392424 -0.00083637877101688015)
(1945.24456194249137 0.0568335987184762845 -0.00082593083090671236)
(1688.94767720779305 0.0593384213339172781 -0.000872008710829918761)
(1427.93429872537672 0.0623599445187115395 -0.00101052656001795896)
(1182.53134331988213 0.0673274696258233663 -0.00119172747697167403)
(971.103764633039987 0.0760090271292975517 -0.00124994399577960298)
(788.713308925263618 0.0804492267790855864 -0.00115813959892140496)
(617.142080815713598 0.0811877925679647117 -0.00101340735661860251)
(456.469496970285832 0.0748926902604983846 -0.000777515634872526402)
(315.30792084664381 0.0625298578676156264 -0.000523290711592067537)
(199.784799434479396 0.0433609708373634342 -0.000337513334757689185)
(0.128177081609068433 0.0339918302910595868 -382.681989933824866)
(0.134523502985744225 0.00886647041972320367 -441.655076679328715)
(0.13696941322803538 0.00924636920043465232 -386.832437366787417)
(0.106667765769941733 0.0103529507220469861 -290.872154150247866)
(0.0768540736742951563 0.012455816832739287 -205.669003547906868)
(0.0428847227901149042 0.0111572527384243506 -149.853687376250804)
(0.0146761631925350477 0.00542086035431881864 -97.112589570881056)
(-0.000994552175344553873 -0.000506632350983363708 -26.8042140047456776)
(-0.000516083888754280428 -0.000523510952802952781 -9.63770466577944873)
(0.00106341913380075337 0.00166953840449290372 -10.9356213742358932)
(0.00343981892059381329 0.00676086982588896927 -8.96524690963464366)
(-0.00404614701141567737 -0.00922763947938774927 -7.74905237601586983)
(-0.00198752155793523221 -0.00526370148872243489 -7.25603197833562685)
(-0.00014254178365587892 -0.000447438139096904169 -7.49057409997213242)
(4.26191962416353208e-05 0.000168439549565016668 -7.27420929566766983)
(2.47990407166913381e-05 0.000129942823725242012 -8.04082194155324892)
(0.102657070018131111 0.0276349690076407098 -146.887084293622337)
(0.0972294831847566321 0.00106538876108767575 -150.927988030425837)
(0.0361172786028343129 -0.00435848449218403673 -99.2202705580126434)
(0.00752505879896668908 -0.00128241901620125337 -43.4542105453769949)
(5.02304109821405368e-05 -1.54348101478315768e-05 -10.6983120368730411)
(-4.83204311448240642e-05 -1.95241043947789557e-05 -4.07423687105488952)
(2.1683041065287095e-05 1.3682973090634269e-05 -3.51716400113896466)
(-3.15000465968234524e-05 -6.64634801927013323e-06 -4.35121237650404247)
(-0.000247031919063943263 -4.2724874069721881e-05 -5.17799679460877549)
(-0.000230211775885113667 -6.08211287666595861e-05 -5.41821075578071376)
(-0.000216594418490258554 -6.63634453244612681e-05 -5.25837704480891421)
(-0.000190523717691430759 -5.63709447020320262e-05 -5.22614052955985464)
(-0.000165616189235953996 -4.14782332629015058e-05 -5.33362540170845278)
(-0.000159199546723534397 -3.30042126100179407e-05 -5.52008699776571365)
(-0.000159474751003876652 -2.48426468732659108e-05 -5.74584336207798696)
(-0.000160581797379916028 -1.9660529739002279e-05 -6.099646741913058)
(0.0566117697108634438 0.0144918914317473911 70.4611456793243462)
(0.0314828232242459483 -0.00163942109808838839 28.4957870801784452)
(0.00192661420316911076 -0.000991012006666607687 3.70615584236750717)
(-8.19480564879814427e-05 -6.13268096050005417e-05 -3.65755472829570438)
(-0.000180800029198076279 -7.60105225783737411e-06 -3.64854331354006778)
(-0.000148691248682506638 -2.66065254519663539e-05 -3.40830475001820821)
(-0.000125441756105161101 -1.1784965097463818e-05 -3.6246166555274657)
(-0.000105535003662800273 1.7396076863426032e-05 -4.14188251560386966)
(-6.76984223645941334e-05 2.04130917090757304e-05 -4.68270782528411544)
(-8.04057083445749852e-05 6.0731179045218503e-06 -4.92662289742044202)
(-8.89133802603437012e-05 -8.49579262326126145e-06 -5.05054729546470682)
(-8.2996625324331056e-05 -1.15410478243191018e-05 -5.15411122159038193)
(-7.82057722958990671e-05 -2.12562692432185858e-05 -5.21822352833855252)
(-8.10375509587562827e-05 -2.39942063353028418e-05 -5.32716340384983766)
(-8.63914168029559528e-05 -3.00806325835294462e-05 -5.49937861869789213)
(-9.52048580494976567e-05 -3.18421564910200032e-05 -5.69199896706049646)
(0.0184334929863023168 0.00308318795218522025 39.39570391237541)
(0.0049374335276787789 -8.25543035417727948e-05 13.3782259172437694)
(7.67336631456204193e-05 -8.96425998984574815e-05 -0.734314957398213286)
(-8.29305236480825986e-05 3.60211595954159093e-05 -3.8118977820497264)
(-7.43604373379370368e-05 1.5244019673794354e-05 -4.09254661816255272)
(-0.000105565335274781973 9.76175676317831509e-06 -3.95919001702470608)
(-0.000101146393340371054 2.05867453713493072e-05 -3.94744626373289709)
(-8.73923344988541994e-05 1.33557763831334946e-05 -4.08026153745280151)
(-9.30452586482974559e-05 6.98539239446356526e-06 -4.21514705682119128)
(-9.46525534375653626e-05 7.53891857822656606e-07 -4.36341497903942521)
(-9.48793414004670574e-05 -8.59518266853880037e-08 -4.53727431928369018)
(-9.7176572892538021e-05 -2.281213503618347e-06 -4.72728299413129971)
(-9.63987543171594018e-05 -7.18553854689484788e-06 -4.91645053880117988)
(-9.60016578083180885e-05 -1.02413863964138553e-05 -5.10100596680832741)
(-9.64448038130817154e-05 -1.38063669846186781e-05 -5.26463568577419583)
(-9.4916259051343877e-05 -1.61026456767056198e-05 -5.40105990874219177)
(1.8091978722280051 1.61863245773816417e-05 -1.5961693093264366e-05)
(1.71841421457569266 -2.04401836537634319e-05 -1.3023415144223867e-05)
(1.79666407422680741 4.92785454278404369e-06 -3.70570627729161319e-05)
(1.92645526686313273 1.54552578899034361e-05 -4.93237589417115072e-05)
(2.0831014564093886 1.72138498302939551e-05 -5.59898257095377538e-05)
(2.27551313589509707 1.72866901059421421e-05 -5.86171210761545053e-05)
(2.48171096976819161 1.46649161907626512e-05 -5.92839642894139312e-05)
(2.6749164699115946 1.13504936998905985e-05 -5.78235469800052331e-05)
(2.8579006033854184 9.12449154281316399e-06 -5.6747047787996688e-05)
(3.04126057251080573 7.79760613288554193e-06 -5.55715502243008956e-05)
(3.22589194520387768 7.66303890307430377e-06 -5.31408843315549952e-05)
(3.41153636613407452 8.12932656395139857e-06 -5.03294768024898029e-05)
(3.60159207289868988 9.35041924338988408e-06 -4.73563920714526138e-05)
(3.7980778426920403 1.20652162290800518e-05 -4.28346711762776859e-05)
(4.01659746441198529 1.60566084855750268e-05 -3.63117043901115788e-05)
(4.25504149427102529 2.03246700392399295e-05 -2.88528136157692712e-05)
(1.54603716455597029 -1.67772883647216649e-06 -3.98826011006837294e-05)
(1.66279267417465371 6.31646580463329566e-06 -3.04343010925079651e-05)
(1.78416702285466466 8.91431554891688395e-06 -2.51532912676444853e-05)
(1.92204275465257091 9.57398395188982935e-06 -2.43608802788458223e-05)
(2.06906567771152394 1.01589954286937407e-05 -2.60242418999173403e-05)
(2.22473793903506989 1.0191649790016681e-05 -2.84319265097608185e-05)
(2.38668512552304257 9.76346250667574079e-06 -3.02215167806474878e-05)
(2.55008244498230319 9.49276905356502207e-06 -3.09613775683260142e-05)
(2.71448228487149912 9.56620983044670852e-06 -3.06698990446640742e-05)
(2.88233110263345038 1.01075338993796051e-05 -2.97645444237562989e-05)
(3.05455113970744785 1.11624582807862572e-05 -2.84302018289140896e-05)
(3.23271038108685538 1.31079306452865339e-05 -2.66115185617332298e-05)
(3.42085561320750786 1.58680610893324735e-05 -2.43399626102457848e-05)
(3.62389002845210673 2.01700782931511964e-05 -2.18170467267815979e-05)
(3.86139445673944293 2.60833492564960053e-05 -1.85008931013151509e-05)
(4.14218006223468116 3.10792635939259682e-05 -1.45245113112563423e-05)
(1.51243796897364735 -5.26565515173393783e-06 -1.38054689213830135e-05)
(1.63658934918565002 3.35834210839162734e-06 -1.65991445587701784e-05)
(1.76351404282161117 5.53120759073322505e-06 -1.79714999806305374e-05)
(1.89527616053780834 6.96930418373618e-06 -1.97654076904788373e-05)
(2.03292386798737512 8.17893489406877516e-06 -2.08434766592813578e-05)
(2.17626215192646644 9.05271383967369577e-06 -2.14037857540239852e-05)
(2.32473573631238351 9.66687512512567937e-06 -2.15347707321641806e-05)
(2.4776348659671239 1.03047625428127203e-05 -2.11028810506138394e-05)
(2.63462047278499556 1.12833702640776924e-05 -2.03071245838865528e-05)
(2.79614300446118946 1.26520855572090617e-05 -1.92632628953574458e-05)
(2.96353696632215735 1.45200628752344632e-05 -1.78286528725096786e-05)
(3.13871449909420841 1.73217596543067702e-05 -1.6045549111673635e-05)
(3.3266631146129968 2.08422213681702965e-05 -1.40349454973683868e-05)
(3.53225838402646941 2.64382987535575304e-05 -1.18573207421600943e-05)
(3.77866408330432613 3.26110663126811458e-05 -9.33047088128367261e-06)
(4.07364499229983856 3.83838238102703617e-05 -6.81425505814934668e-06)
(1.48886122082191896 -3.30337796117040354e-06 -1.14667483991454429e-05)
(1.61499666735415115 2.81398714164504176e-06 -1.190119697299214e-05)
(1.74502002382079136 4.91327810467862863e-06 -1.19629173173486137e-05)
(1.87841486890613285 6.21137280923691203e-06 -1.21880474576821162e-05)
(2.01515917396478983 7.38433706651693337e-06 -1.2452367622101223e-05)
(2.15544037736798311 8.51488451075523271e-06 -1.25956065370331051e-05)
(2.29949005025148789 9.68529917711624016e-06 -1.25216998330497357e-05)
(2.44755735233860072 1.10240830998836619e-05 -1.22049839279453488e-05)
(2.6000758041376435 1.26398616865524442e-05 -1.16384331677216466e-05)
(2.75779306954577841 1.46579791625662226e-05 -1.08312476666456945e-05)
(2.92208936656399043 1.71502370534835764e-05 -9.77408982633879569e-06)
(3.09510575398278842 2.04848807707949367e-05 -8.50783939288052871e-06)
(3.28247250751683017 2.4345935592302902e-05 -7.09553439454750782e-06)
(3.48815244693207704 3.07222846493943687e-05 -5.56171158095246538e-06)
(3.73639948771844832 3.69214866688101108e-05 -3.87090480844028788e-06)
(4.03370370111868137 4.3151739924861752e-05 -2.23387136814908607e-06)
(1.47577465372706351 -2.61271606040533514e-06 -7.84008218151528843e-06)
(1.60123917965861962 2.33524662177886895e-06 -8.19144881177727488e-06)
(1.73021068100156339 4.16750400990815903e-06 -8.16087735725888545e-06)
(1.86220422169283384 5.61434227767733638e-06 -8.27115313061655414e-06)
(1.99730008928734382 7.02670632450197254e-06 -8.32410174505486776e-06)
(2.13570920495798555 8.49297494704395053e-06 -8.26133796668362322e-06)
(2.27761440337153864 1.00552415195692513e-05 -8.06911823184245148e-06)
(2.4233350992866276 1.17925592220471078e-05 -7.73382068773719707e-06)
(2.57340260213687122 1.37953238982201387e-05 -7.26480650748442353e-06)
(2.72868887322592002 1.61738602083489174e-05 -6.65909081568883318e-06)
(2.89078107351876668 1.90291092375948882e-05 -5.92992426347855858e-06)
(3.06177463685506623 2.27471360533165461e-05 -5.05086110921335707e-06)
(3.24729645504601638 2.68684473177671176e-05 -4.05589502079734571e-06)
(3.4512030919641532 3.3565534569518149e-05 -3.0072705954688799e-06)
(3.69856720496182767 3.98601570486761415e-05 -1.8796826313808029e-06)
(3.99538702173843552 4.63166948239581436e-05 -7.8402548477617699e-07)
(1.4653107171767894 -2.16525968358127447e-06 -5.26948193491588658e-06)
(1.5906630433161435 2.22815482843584138e-06 -5.35766648257226958e-06)
(1.71908660147588499 3.94461314125825571e-06 -5.2511885240877273e-06)
(1.85031882573407258 5.46766912794487933e-06 -5.23730909308042628e-06)
(1.98442927967059579 7.01271363502611595e-06 -5.19431263450617107e-06)
(2.12163615765788327 8.643727403175996e-06 -5.09278167098134227e-06)
(2.26215389214069695 1.04136508469841783e-05 -4.9250495986781405e-06)
(2.40633284276480008 1.23726506942882557e-05 -4.68095885157006977e-06)
(2.5547908489483615 1.46011660356595742e-05 -4.35754131523144439e-06)
(2.70845269098640085 1.72245761771117691e-05 -3.94965005420529785e-06)
(2.86890382402463651 2.03152346191435046e-05 -3.44527349756386239e-06)
(3.03820305801472124 2.42531382416487663e-05 -2.86564073172635297e-06)
(3.22204944274355221 2.85658101367635634e-05 -2.23170839312102747e-06)
(3.42403013763776132 3.54897190398239439e-05 -1.55748181006261691e-06)
(3.6699653741544549 4.1871977464814702e-05 -8.28385866010654994e-07)
(3.96467368345655435 4.83136551887403619e-05 -1.27515537642010267e-07)
(1.45812309854800737 -1.92341966733641264e-06 -3.04256292332534638e-06)
(1.58330317152005318 2.21062224793878396e-06 -3.03698018571310466e-06)
(1.7113552155594367 3.89705347288120323e-06 -2.95691039761144295e-06)
(1.84207217301164961 5.46006434148838285e-06 -2.93068882278643585e-06)
(1.97553089153094441 7.07906928092868191e-06 -2.88472028815665451e-06)
(2.11196041613803454 8.81272436056457688e-06 -2.80675483988992218e-06)
(2.25160089950645848 1.06883921647314612e-05 -2.69459060070728415e-06)
(2.39484226238184439 1.27717998980153327e-05 -2.54601122259188895e-06)
(2.54229769979393305 1.51440917208549061e-05 -2.35107791470643687e-06)
(2.69487708683172666 1.7908875866091926e-05 -2.10380941241495459e-06)
(2.85414973997104893 2.11394951609434694e-05 -1.81716372505119633e-06)
(3.02219087494980743 2.52087302236053378e-05 -1.49148434727686681e-06)
(3.20471361162963886 2.96736358491652907e-05 -1.12817558111577447e-06)
(3.4052573240452233 3.67144658650664954e-05 -7.44181352223208129e-07)
(3.65008005363942933 4.32430232522445368e-05 -3.16804997130901053e-07)
(3.94298108027751626 4.95714060893198623e-05 9.41329693666184713e-08)
(1.45437628347596304 -1.83903006397170856e-06 -9.94814349417586236e-07)
(1.57947733372212618 2.19978465236789469e-06 -9.89416800509072268e-07)
(1.70735291743278306 3.88853257280190146e-06 -9.6094256748664512e-07)
(1.83782144021461646 5.48092827395765616e-06 -9.48481589194752701e-07)
(1.97095668865323681 7.13026818698671943e-06 -9.27850417424415669e-07)
(2.10700581258434427 8.89929214321911011e-06 -8.98866947891698415e-07)
(2.24622601498555863 1.08286819314864349e-05 -8.60906378512242475e-07)
(2.38900426024525858 1.29767656380773427e-05 -8.08451938479680481e-07)
(2.53594200629753441 1.54137475693425668e-05 -7.41142725457026437e-07)
(2.68795247859798714 1.82420912739345122e-05 -6.59557176625211626e-07)
(2.84661541001094109 2.15422192408590503e-05 -5.65127515692966512e-07)
(3.01402705660536041 2.56712587510021736e-05 -4.58943808879798248e-07)
(3.19574329916862032 3.02108532538883381e-05 -3.46001497432412628e-07)
(3.39546353418582436 3.7295866148305647e-05 -2.29632081465703747e-07)
(3.63961525038054079 4.39303302052071592e-05 -7.14856392050836666e-08)
(3.93116580319836029 5.01340920337425296e-05 6.71789765800389387e-08)
(5.30442492845274168e-05 11.9599076629636638 -8.14614506862103413e-05)
(-2.89990008514228476e-06 12.2361531357466049 6.34392045438220522e-06)
(1.3477431837238954e-06 12.0192425730339369 -8.28879401765138184e-06)
(-1.28931906814368624e-06 12.4119107517898986 2.18430265028204468e-06)
(9.96598779341638068e-07 12.0300799523403565 1.11278207088483087e-06)
(-9.76617520582696285e-06 10.5430109773092351 -5.22692223847698403e-06)
(-3.22221058204942511e-05 9.39586990715777581 -6.90584143337071484e-06)
(-4.66926093576928441e-05 9.59178437829371511 -2.07344670914098128e-06)
(-0.000156201060014344179 7.4104464309996807 1.48308194180764103e-05)
(-0.000156607622134884205 7.55529126785691396 1.23561226360609827e-05)
(-0.000159415634400711154 7.56535888949588919 1.09542696005689615e-05)
(-0.000164764368598775305 7.56669209774187035 9.48850188665235612e-06)
(-0.000162950501664551754 7.37792939486014454 5.04175328098368698e-06)
(-0.000159381777898513261 6.9521126555365953 3.27768907657846733e-06)
(-0.000162339711690817992 6.55009980671606407 4.81660882021410281e-06)
(-0.000163166635493010526 6.42823315217533509 2.47682817614412592e-06)
(-5.91229456114325481e-05 6.3255907833976357 1.23022378345163059e-05)
(-5.67751153760487733e-05 6.48313435892504142 9.0301354492441906e-06)
(-5.71878227928283766e-05 6.50399908700978724 8.91294808380501828e-06)
(-5.73847570696094884e-05 6.47604962631644021 8.09087860981682746e-06)
(-5.65011734150506773e-05 6.38069488302062471 4.91707457749520797e-06)
(-5.71255598360848789e-05 6.20144105165218562 3.62770886102654122e-06)
(-6.67811822806076778e-05 6.04912064973378083 1.07721681005057573e-06)
(-7.69795906460585613e-05 5.99424844837410387 -6.21412049209267508e-07)
(-6.50609900565688636e-05 5.57540847709493104 8.42250100607921694e-06)
(-6.67697017450589097e-05 5.66445368335807675 8.18237335986906875e-06)
(-6.75746508195328285e-05 5.68983828082777165 7.47854595016388444e-06)
(-6.94301584620346496e-05 5.68205656462561581 6.52108625198123125e-06)
(-6.9908293117353559e-05 5.64361693009158394 4.81178736251691957e-06)
(-6.92422380650598382e-05 5.58402340977894962 3.55636692477965638e-06)
(-6.99794248010928365e-05 5.54022383261984608 2.5680743898830782e-06)
(-6.8713016768930785e-05 5.52119588074166678 9.19361808046836464e-07)
)
;
    }
}


// ************************************************************************* //
