/*--------------------------------*- C++ -*----------------------------------*\
| =========                 |                                                 |
| \\      /  F ield         | OpenFOAM: The Open Source CFD Toolbox           |
|  \\    /   O peration     | Version:  2206                                  |
|   \\  /    A nd           | Website:  www.openfoam.com                      |
|    \\/     M anipulation  |                                                 |
\*---------------------------------------------------------------------------*/
FoamFile
{
    version     2.0;
    format      ascii;
    arch        "LSB;label=32;scalar=64";
    class       volScalarField;
    location    "0.149999999999999994";
    object      p_rgh;
}
// * * * * * * * * * * * * * * * * * * * * * * * * * * * * * * * * * * * * * //

dimensions      [1 -1 -2 0 0 0 0];

internalField   nonuniform List<scalar> 
29184
(
3125.20118400241881
3119.81410310295223
3105.4667880272018
3083.7327047150302
3054.58395095187143
3016.44639933140661
2968.29917086030582
2909.50900175061906
2838.98142176842657
2756.64381462492975
2666.07492194684801
2565.55677501339142
2472.31264945100656
2409.18982311462833
2414.01682983656792
2396.308904915521
3125.03951762490033
3119.33871081438019
3105.12808734593864
3083.42301304248213
3054.1001534057973
3015.85362296784615
2967.53039887356636
2908.35473243419847
2837.16667009322418
2753.77576340502901
2660.91730643407345
2557.74281054110725
2457.99238457493993
2382.83486162183317
2372.52708400679194
2369.49923700782665
3124.54896634931265
3118.38879854284551
3104.29773440078816
3082.63013683820054
3053.1186045757072
3014.62746320716587
2965.87824297257293
2905.93720838685613
2833.43676832675192
2747.86657922192944
2651.17462570739235
2542.05057719767319
2431.34079318627073
2339.35073252425673
2300.72213611030247
2252.83433924036399
3123.66004531567023
3117.13992754186984
3103.10989276513646
3081.4456295617465
3051.7071947802815
3012.84156744555094
2963.45964655538182
2902.42933116302356
2828.04211536388311
2739.34720895591772
2637.23102719201461
2519.80737292674485
2393.87158699851398
2269.37211564380732
2209.65955987021425
2074.204500210471
3122.43365862124938
3115.67205414319687
3101.62503010221462
3079.90881892042034
3049.90718443878404
3010.56942130588141
2960.38019652996172
2897.97477264871577
2821.20426759001839
2728.51395587773277
2619.60551181148458
2491.64392665122341
2343.81038992105459
2174.16910778550846
2045.13223701492916
1853.79411733549978
3120.94163622122869
3114.00777096421416
3099.90306637581443
3078.09127267585063
3047.79616988948737
3007.91514329775418
2956.78562385386203
2892.77891109210304
2813.22228461780423
2715.83122928933835
2599.04599519485282
2457.9572843217743
2280.85970296903542
2065.2843880108444
1834.16773149520577
1628.42287052757092
3119.25625957786406
3112.19530392578872
3098.01479912746754
3076.07590804219808
3045.46708889121737
3005.00009783170344
2952.8467919497989
2887.08447175681113
2804.46704588063722
2701.81808137230973
2576.34133039188418
2420.19997383606324
2196.58332462657563
1943.87108233537265
1609.4040820474147
1430.37277296828802
3117.45307604325535
3110.29584233495825
3096.03518671416305
3073.9539882722006
3043.02667345395776
3001.96065921941772
2948.75456780452305
2881.16182448448671
2795.3434234347128
2687.07311619863458
2552.30586360337429
2382.7028372813279
2110.81436795302398
1793.43990833486987
1421.14652893868242
1239.31930908110235
3115.60963151563556
3108.37942204776346
3094.04143269404904
3071.81852907743678
3040.58530658904965
2998.93757663544238
2944.70483452696863
2875.2926230110852
2786.27905645916826
2672.20876462001297
2527.85912761314421
2340.78714282682631
2046.67856362339603
1603.08117855005889
1183.56954405545594
1161.6742837009549
3113.79511033197878
3106.51724147237428
3092.11049803421156
3069.76209550759131
3038.25135660723072
2996.07036757104925
2940.88886219913957
2869.74638213921571
2777.67830312750266
2657.84752922078815
2504.19387548894019
2296.67094615398082
1982.18752273429664
1315.12452831082669
935.539355613200087
1060.72574732028397
3112.06098488760972
3104.77483970201138
3090.31694510905072
3067.87520002720839
3036.12376871167908
2993.4885042545875
2937.47599492739073
2864.75123661078578
2769.86744165531672
2644.54585379762375
2482.40921322333361
2251.88560504460429
1724.24739440277949
1029.99881410291209
776.639991144211422
967.238713476784937
3110.46987042635465
3103.19990593040939
3088.69608024436502
3066.20357971764815
3034.2494248208136
2991.25942373042517
2934.5587893594784
2860.45324393196597
2763.06808165398934
2632.78233927245765
2463.45277585381336
2209.86028908195203
1558.27831874151161
686.063910940027995
619.698921335600289
849.024171770107159
3109.13430234113366
3101.81837028883319
3087.18125226550319
3064.68139385412951
3032.56391252500498
2989.32870062816028
2932.10281895384605
2856.88230141623399
2757.39699056815607
2623.06801616995335
2448.32345525250457
2172.81329453027547
1156.84521584033064
526.196748755573594
479.389202930084139
720.076857238345383
3108.01832752947894
3100.61394603200961
3085.59234856193098
3063.14960242137886
3030.86587418495446
2987.55538818653622
2929.91382804763043
2853.77209104668646
2752.3766784591071
2615.89996210454728
2436.76013303914124
2142.42767339444481
752.863691333599718
394.929038842917862
354.777717091200543
481.583893040957093
3106.29564535801501
3099.2176357670769
3083.51422717608102
3061.28092316814582
3028.62921990242012
2985.59813015082091
2927.26952942800881
2849.90676897963021
2746.12569182196103
2609.43547600189186
2426.22775384588886
2109.97419908293205
556.437045623964536
263.85733601465563
235.490369286287716
349.778913001215528
3102.16144412551148
3096.26634399693239
3079.90214618913706
3058.04229964894603
3024.66270356812265
2982.26817395588341
2922.39559912518143
2842.91115196541887
2736.04889888226899
2599.66682735670383
2405.79426642331146
1980.67586248088082
553.991841497369023
150.159333304683116
135.397142130496235
310.406019099581897
3128.48577885000077
3123.37559592224488
3109.66008935521859
3088.96659018654282
3061.38891010479392
3025.58203439012368
2980.86427823822396
2927.12853158866938
2864.13565506527129
2793.25971983651243
2720.28248184012864
2648.24772678853788
2599.86891357391869
2613.34871631296528
2707.15531922581886
2872.21443043343106
3128.31266409743421
3122.89072277806781
3109.30496966053806
3088.63107751225698
3060.86923301071693
3024.93411912091506
2980.00855042821013
2925.83951680902919
2862.10981079652083
2790.03706627515021
2714.59579026397478
2639.36403417808742
2583.74704712438233
2583.59837848697907
2675.15349650707049
2810.28435953521193
3127.80041429571293
3121.92081504115549
3108.4444268482107
3087.79194087387214
3059.81953676950161
3023.60443634954072
2978.19724843120366
2923.1784454373701
2858.00252682447217
2783.54199140653691
2703.94241129397597
2622.14283060943853
2553.07373259662654
2529.601111742581
2592.73761605432037
2650.92098592685124
3126.88097078125566
3120.64047991849566
3107.21147501016458
3086.5399062116835
3058.30753706468886
3021.66704364521911
2975.54710801903866
2919.31605796490794
2852.06523792237749
2774.18449636270225
2688.68627511608292
2597.78404121805534
2513.04952957700698
2452.77274517615797
2467.19003589127487
2430.39129134320865
3125.61548942542731
3119.1296946824632
3105.66646576334051
3084.91510531594895
3056.3760185453566
3019.19785505350728
2972.16679597405937
2914.4022319392775
2844.52714475490711
2762.26951810107994
2669.37926090642532
2566.85304857802794
2459.09544400304003
2359.1893179396061
2279.2231074935039
2189.13384378259434
3124.07580706252065
3117.41183005802804
3103.86936606240761
3082.98991594473273
3054.10395246900134
3016.30383859937774
2968.20577348021015
2908.65006055489494
2835.69560628151794
2748.27638968350311
2646.78478661642112
2530.01166775883485
2388.27476715160537
2221.02298785806988
2040.73380346231261
1948.74289853505707
3122.33474902196212
3115.53580266579002
3101.89103445307592
3080.84855363893348
3051.58605057503837
3013.11019924497668
2963.8402010314885
2902.31234894276213
2825.94987691723372
2732.76005660952706
2621.70250132803812
2488.92599214575694
2289.2093217525985
2084.17429145646884
1751.55031502417614
1727.03904553322241
3120.46930753877496
3113.56374183995013
3099.80681599923264
3078.58426936331625
3048.93116192145953
3009.75803685730625
2959.26762084030861
2895.67039642593818
2815.72096837244817
2716.36647392987834
2594.94391110805282
2447.20809284347615
2211.97311724130896
1919.397311872214
1449.72291826895639
1509.56129300429711
3118.56009262968882
3111.56675576925363
3097.69488030172397
3076.29241917544323
3046.25211562254162
3006.39328980869868
2954.69028797147348
2889.01817857830019
2805.48025111272727
2699.73699607443223
2567.47837732345215
2394.58855684220953
2135.77631655178675
1755.77890678569815
1266.71819211269599
1336.21797640066529
3116.68149602618359
3109.61617190454172
3095.6349887602928
3074.06805693411843
3043.66163630336723
3003.16006933254585
2950.30453173355181
2882.64408818852189
2795.67934562811479
2683.48505551750804
2540.59717947948184
2353.50154186705095
2068.98056364014246
1604.9250042522051
1091.58724956784522
1184.3173983858826
3114.89313188402593
3107.77620895746622
3093.70958514050471
3072.00633243332686
3041.26796473155127
3000.19113043795824
2946.28551332039206
2876.80441801539519
2786.6610497136885
2668.20194146543645
2515.51137408152681
2304.88142159723157
1987.02496376236127
1240.47849580777824
907.661977329765023
1072.15746302882962
3113.27069609986802
3106.09572080695807
3091.96805419129669
3070.15968349751938
3039.12726894076332
2997.5551626457036
2942.73015529055192
2871.6608345620175
2778.6995073020712
2654.38959854476889
2493.13900776984474
2256.85581905116169
1628.17641938961697
922.14179900378474
729.443156556261329
947.24295608639261
3111.94927652190108
3104.60499145617359
3090.35995789475419
3068.45668969533926
3037.17521746408011
2995.18342068896345
2939.59294468296366
2867.2596400569646
2771.94195102399954
2642.84176708856785
2474.31697423108653
2214.68929830957995
1088.1940008966983
602.782560253842348
571.511356951691141
722.617772548425137
3110.92941068694881
3103.2726257451186
3088.75065340295896
3066.70095053999239
3035.25212368264738
2992.84991779392794
2936.68442757349703
2863.36176598713928
2766.1334040265674
2633.57036072798792
2461.08931018624435
2179.82538655376857
836.231208887892308
457.810391375664494
438.077153995887613
563.137112473358229
3109.42693165902847
3101.68491035655006
3086.88077252183712
3064.51603406550021
3033.02277964770019
2990.00700279147577
2933.43063558530002
2858.78840933865922
2759.57909172509562
2625.00246585732248
2448.67205698507178
2156.8668861446472
642.50339399996335
313.522883425164594
301.104140236906574
455.078148051295216
3105.62823399952686
3098.54745189566393
3083.85458282369609
3060.92291295847326
3029.39513088211879
2985.40344721556676
2928.2521644413232
2851.11897386433475
2749.58947252632652
2613.24998773683228
2428.45094429943219
2118.90142956553927
648.91073632453265
178.354017748187857
170.490236734516941
390.616908022126267
3131.59098010672687
3126.74748014775878
3113.62943361760517
3093.91844209941974
3067.82166443915503
3034.20489527099971
2992.68778492755428
2943.63161559840501
2887.46360743032665
2826.810818964188
2768.54536742636174
2718.98751330390132
2702.69988671355577
2760.98304014457472
2910.48505698025701
3133.55262829406365
3131.4069972420516
3126.25417724945555
3113.25935858890853
3093.55904589681313
3067.26890448404492
3033.50608878214189
2991.75374609070468
2942.21795253709433
2885.25753659185693
2823.26511054215189
2762.43052942999839
2709.27313064185728
2685.3154270839791
2726.93517620159309
2877.94090304513929
3073.26739192595687
3130.87475233246641
3125.2662250941371
3112.37163792501542
3092.67742317547845
3066.15640837460842
3032.08110415864303
2989.79776194310762
2939.33438585483418
2880.81827589313889
2816.23160858070651
2751.00291180530712
2691.04001082553441
2651.79696657303703
2667.53565765134636
2779.91466377829283
2933.60083273619421
3129.92760229365604
3123.95722456734211
3111.0985061941783
3091.36338271488057
3064.5516163993907
3030.00429660371265
2986.93658444708308
2935.15034247779568
2874.39726811531318
2806.11021781010095
2734.68721389365282
2664.84521198204584
2608.83175338891988
2582.82152766944046
2642.59194973123613
2678.51804987084006
3128.6269671943578
3122.40699449853628
3109.50074319087662
3089.65756420289836
3062.49880098580797
3027.35384700394798
2983.28240771585843
2929.82404224016364
2866.22871340558368
2793.22585297210753
2714.0091122487861
2631.53964896468869
2550.51079637260091
2483.1647138862445
2469.18446177132955
2398.42016970411896
3127.04456934037944
3120.63928251845982
3107.63920458644816
3087.6325837849854
3060.07846099292919
3024.23919296644726
2978.99025899445996
2923.57456721658582
2856.63491565455479
2778.067947053235
2689.70868199966253
2591.78148995250785
2476.26023659086923
2337.62200706534759
2229.85150411776976
2162.49011852908052
3125.25288183116436
3118.70316021532562
3105.585996291622
3085.3728603312511
3057.38730289698879
3020.78903722494215
2974.24314838260443
2916.66251793248648
2845.99779789169179
2761.21520957377697
2662.57119497886288
2546.79364703417832
2378.85160831914163
2208.56049562298904
1911.69280316227332
1929.85436267347541
3123.32819979147826
3116.66086356143069
3103.41807497787431
3082.97157966529767
3054.53660502276853
3017.14881913061026
2969.2466298940908
2909.37961782239699
2834.77514697343486
2743.32207312475293
2633.47608281159
2498.26912155365562
2296.57870446175457
2063.1929716002187
1666.14872991980951
1698.94641065901874
3121.34987610456801
3114.58376002974546
3101.21515055614191
3080.52339398046752
3051.64165280331554
3013.46998763689953
2964.21278226978347
2902.02980842599982
2823.45098226184382
2725.06257354278114
2603.56683661053376
2444.12264442340393
2201.43304725088819
1892.90139653288043
1405.27577019208979
1503.42562352879054
3119.38858930495689
3112.54361673376252
3099.05808863366701
3078.12276232324166
3048.81708532280572
3009.9041505309192
2959.3470975731675
2894.91303401017512
2812.48432519691323
2707.09572067403587
2574.18918049604008
2401.47106533697797
2129.16599242077564
1642.15855118344552
1184.04196906510651
1326.04175994025513
3117.49466470060179
3110.60548765498015
3097.03127624594481
3075.86736755068796
3046.1735881362406
3006.59265909139003
2954.8309045577912
2888.292051128617
2802.24853226627965
2690.05598458103941
2546.54088758306307
2349.80467309975666
2048.35537271616522
1318.29594134610466
985.513004362234142
1160.45780784000226
3115.73580438428871
3108.82129129851228
3095.18690454263151
3073.81612586031088
3043.77209464998714
3003.61208832297189
2950.76669504311894
2882.3431682066057
2793.02637821297094
2674.52855296182224
2521.501986679531
2298.26687449498877
1684.30600166916474
1016.05689114908682
799.983670284024242
998.152122954702577
3114.25735030189662
3107.22567608697364
3093.46773640437823
3071.90459017255671
3041.54668775927985
3000.91037549656039
2947.1204320271695
2877.11688864326106
2785.01087570087748
2661.17992691258678
2500.09301198007552
2251.79981576446835
1174.29498515306091
661.512492448004195
639.061014400220984
818.65652544030047
3113.06041835052793
3105.79312773976017
3091.71434766760603
3069.96256943740536
3039.29243976642601
2998.32317844931367
2943.66768316601747
2872.37745324884008
2777.90143853613381
2650.37864135153359
2483.84008753021726
2213.62844170737844
908.91324946372572
508.909918474614358
494.966577185670133
639.203080112880457
3111.3003232156525
3104.15643193234564
3089.67348300656295
3067.7075967310584
3036.55790543577041
2995.41622173764108
2939.65746893895221
2867.01464101217198
2770.03916611691511
2640.3563800650586
2469.43183288305954
2177.32172990311574
728.745616432525935
348.9621697617427
345.510654091765275
496.008537121410711
3107.18642604386514
3101.12061550080898
3086.58851211618594
3064.23794719582975
3032.25532468724577
2990.88437401191368
2933.39729185321949
2858.83411059255923
2758.86617735802065
2627.23599821712742
2446.63731743848302
2147.09079882487913
652.743293735501538
202.837890943562257
200.672076116797228
400.778657321814762
3134.39768633963149
3129.79348837753423
3117.21337438903402
3098.38458672221122
3073.61156443803475
3041.94074868547523
3003.24489327023821
2958.24769284065906
2907.9137374991933
2855.66528379888723
2809.19371578931441
2776.00274887302567
2782.22553582305363
2868.9476065316112
3039.60823557381809
3269.21528752622453
3134.20410838614407
3129.29272085952971
3116.8298068295544
3098.00382775220896
3073.02926845367165
3041.19667179834914
3002.24020775964073
2956.72865141494549
2905.54616330184035
2851.87706252824819
2802.74193275873949
2765.91719999713996
2764.70942885834347
2832.47129243598511
3005.69892775047811
3206.46610732597037
3133.65390890284107
3128.28885845697505
3115.91783872107453
3097.08464415036451
3071.86066949532051
3039.68596272223203
3000.15364210133293
2953.64815885173175
2900.81213244606079
2844.40273884538874
2790.66350108301322
2746.96674863799444
2730.72389326448956
2770.32835067290353
2912.32145721617098
3067.96323191616375
3132.68186949445999
3126.95478394716702
3114.60878445801609
3095.71599434754307
3070.17278942202938
3037.48303074975729
2997.10111954553759
2949.17605070641093
2893.9600019854297
2833.6339317392667
2773.41796520909566
2719.55098380326535
2682.64853522190879
2685.72108383111845
2763.2100825634393
2881.73809363573037
3131.34973563928224
3125.37059962243893
3112.96360936206838
3093.93941584280446
3068.01113800932353
3034.66774277455943
2993.19749699705972
2943.47586433191282
2885.23004489626192
2819.92042547003666
2751.53062030976662
2684.49407355312496
2622.30885698002839
2578.43640117962104
2587.7062502008589
2515.14293123573316
3129.72950434515451
3123.56125591208729
3111.04362355350759
3091.82859725350909
3065.45728243246458
3031.3513951292739
2988.60082518635454
2936.7708984922433
2874.96021493183025
2803.75963578794699
2725.70308885281702
2642.41480236336065
2545.23075753576313
2440.34611402015526
2351.58317193251287
2267.80301732256885
3127.89431421879681
3121.57725775992367
3108.92140302616599
3089.46944416434553
3062.60906419627327
3027.66495609468075
2983.49667003758123
2929.32899688407451
2863.54699110227057
2785.72496936795505
2696.75496917397641
2594.64195445332007
2455.16274454005315
2309.75224567305577
2078.37648032211564
2047.75223283478476
3125.92170543611292
3119.48261165230997
3106.67446555641845
3086.9569753102478
3059.57883976929907
3023.75616825185762
2978.09268953412038
2921.45359259351835
2851.45956160582773
2766.47243067869795
2665.68342513137395
2542.71846206464215
2365.52465040490597
2175.07824493582348
1893.39727614346498
1821.22235038733379
3123.89332890974129
3117.35082238596169
3104.38354925269414
3084.3881073056732
3056.48322284599953
3019.77829497625089
2972.60377271336074
2913.46186105753486
2839.18445233335569
2746.71698187592756
2633.66328033577156
2490.25933480556751
2253.30409495314916
1962.5425056200886
1691.07291043565601
1610.22309204913176
3121.8850974050988
3115.25521633979861
3102.13061985473587
3081.85924292838536
3053.43926311678297
3015.8820340372763
2967.23888969463178
2905.66849251593021
2827.20046991550089
2727.14851300005012
2601.93526440697588
2440.3204230238598
2141.50666181783527
1669.6086698707511
1250.45237676072315
1418.14627519201554
3119.9558878841076
3113.26075228754644
3099.99873486491106
3079.46715355349534
3050.5612923649951
3012.20223471436293
2962.18306024620324
2898.36096347910598
2815.92278991026387
2708.38634277619849
2571.71100995579309
2383.75691602121742
1920.67974343890592
1325.96781002999387
1049.81927470013306
1258.54160937923712
3118.17746246497563
3111.42072473465942
3098.03852881768535
3077.26603702192597
3047.9119705660828
3008.80960646529138
2957.54482978912256
2891.742433695008
2805.65171217849866
2690.98371960359418
2543.95222901268062
2329.16298165043145
1788.79542505760196
967.92755462718776
850.02595541466701
1106.39553232759681
3116.69868877539511
3109.77029907604447
3096.2022540988828
3075.18252362134308
3045.42743023510548
3005.65426656233967
2953.29960407284807
2885.86855083047203
2796.52658369721439
2675.54818914020416
2519.65682705146992
2279.7332414255452
1436.82676774913625
736.126569891161125
688.339538064687872
913.294419540757644
3115.52735186423615
3108.23720539770147
3094.34273453482274
3073.01357429782138
3042.94180824697014
3002.51672155028973
2949.24493271663414
2880.54683064909023
2788.27420219666783
2662.14267490086786
2499.73634405004168
2236.90139571947748
1070.30631538426474
566.303087042870061
549.146243393427653
697.217591850413214
3113.81841428511734
3106.31062646570581
3092.16543264197117
3070.39517057285639
3040.11147143793869
2998.71247430264293
2944.7230007070948
2874.93861904623509
2779.34522985297508
2649.21952500569796
2480.53261304814851
2196.93239843405991
729.557791537222329
391.518123463914208
393.019553234904492
566.208114665894414
3109.85673666932917
3102.76517638667019
3088.79630857385837
3066.38911320057377
3035.82264986400151
2992.74003582505202
2938.21314813853451
2867.06317697733448
2767.17410099055041
2632.7537529179076
2454.67242183137296
2148.67442445996994
654.27152311359464
225.81207541494922
235.027759033781479
509.586923036949315
3136.80080494539516
3132.39141786644268
3120.26678434934456
3102.18311788075789
3078.52347054565234
3048.47810981302473
3012.11718063083708
2970.42639642983886
2924.77170367177678
2879.01749681963065
2841.60315143048228
2820.52590595787706
2841.83629376525141
2945.77428177447428
3126.27544888995953
3363.52468102925241
3136.59932107855093
3131.88422230149581
3119.87267923194122
3101.78587519779558
3077.91753616988171
3047.69740376442587
3011.05526362354203
2968.82652219997181
2922.2840325202651
2875.06678109976338
2834.97560986868621
2810.11582186866372
2823.3920717078654
2909.89038328452489
3088.21144829574496
3302.38645712405651
3136.03391867767687
3130.86674245305858
3118.94123182158273
3100.83618149005633
3076.70257030344055
3046.11545060712888
3008.85966035819865
2965.58528284854901
2917.30307575301958
2867.25095154051678
2822.39456803819303
2790.21729920223834
2787.86625701564526
2843.54401628465939
2999.57081900450748
3158.77460737250067
3135.04028714752212
3129.51090134171636
3117.60339422854759
3099.42285453995828
3074.94602899705706
3043.80742010521453
3005.6475467943078
2960.87371892760439
2910.08383689357561
2855.96662130708182
2804.32721351977307
2761.55381253811356
2740.52183289753657
2756.42342617426812
2852.27196502210563
2980.7063120122275
3133.67964882722254
3127.89651220884571
3115.92086745232837
3097.58845153204766
3072.69498365479149
3040.85520800066524
3001.53768270143291
2954.85781874418444
2900.88112846572585
2841.55320275182612
2781.36809694698286
2725.47901647151775
2677.1476638840677
2647.7044362762058
2658.5470513344535
2648.80699555207138
3132.0227709943606
3126.04880282061686
3113.95619605620232
3095.40766389291866
3070.03259640971373
3037.37286213461266
2996.69155582602616
2947.76792633222976
2890.0345560577307
2824.5166100411534
2754.28746321454128
2682.40899832986088
2603.18426924830237
2518.56635546501184
2458.83164303523699
2353.06831607172808
3130.1410579416015
3124.01844801733114
3111.78357983410933
3092.96749197499958
3067.0586499289484
3033.49450523399173
2991.29966642462887
2939.87979641688662
2877.9465676410091
2805.45360927305046
2723.93616049974071
2633.33528192803942
2511.43368888684108
2373.79334034232807
2202.12085657322268
2134.5714480907809
3128.10905363396023
3121.86990349121425
3109.48280584645909
3090.36429880433707
3063.88785018013277
3029.37168038756499
2985.57652801669474
2931.50112409250369
2865.08161700443998
2785.04894622547044
2691.26991193543427
2580.10620267390004
2395.00747470998976
2231.95573857836189
1942.2603903182237
1907.67636492854763
3126.0026508135652
3119.67831825835719
3107.13830303744544
3087.69769421882711
3060.63995464837853
3025.16300981778568
2979.7449680872528
2922.95069938096503
2851.93084040040549
2764.01805086086506
2657.40948905590903
2528.00212114813939
2293.60893549805905
2046.44408368960808
1631.20420619597098
1686.66051787369042
3123.88967139515489
3117.52247208007611
3104.83634673346751
3085.06840085725207
3057.43459763145211
3021.0273431928681
2974.02305586182092
2914.54164316067272
2838.96596566233256
2743.0456086064346
2623.66277316768537
2464.38470189885447
2209.39121183033512
1798.43910268753643
1361.7095327185109
1488.91028579441672
3121.82589887719359
3115.47751439629747
3102.65997896575618
3082.57620676039596
3054.38532932884573
3017.11166853035729
2968.60455352814552
2906.55694056728862
2826.58878767102715
2722.77928201000441
2591.2266999268536
2408.8283965020205
2067.24000695840641
1469.67646468391558
1114.65618226043625
1358.32183493650996
3119.88407307654643
3113.60758004875424
3100.65976299267322
3080.28027370892278
3051.55668918913443
3013.49972887845206
2963.60292064867326
2899.19167623679732
2815.10687850651448
2703.85400152065131
2560.82697481862033
2349.26037477287082
1801.00468707557229
1085.28190862047745
887.313444320656686
1199.44034404497711
3118.16751342170801
3111.96813735815113
3098.81484484099883
3078.13772688862173
3048.89833251210393
3010.14947443470783
2958.99810905412414
2892.48727864559851
2804.6836027676809
2686.90668901725439
2533.60847259060711
2293.88654805754413
1453.59010990246247
772.110398873450094
719.546402780778521
995.596038580986942
3116.62357296472419
3110.54670172974875
3097.00972583700786
3076.02009925883067
3046.22534616024632
3006.88392508480183
2954.59215307915156
2886.24329282928329
2794.94380402848356
2672.26049459304977
2510.7050048772162
2245.04372056525381
1138.68953136892605
604.940256224759651
585.650005754069639
807.794581023071032
3114.57033038532336
3108.94943838392737
3094.85921836174839
3073.63147880048882
3043.07081824977831
3003.2158640656171
2949.67380351618613
2879.56217010086812
2784.25197922584402
2658.58052790549527
2488.4874700014775
2195.67905389298949
878.543871033109099
417.553595841794674
426.075191054636832
633.032379428687705
3110.67828482484674
3105.98704295976268
3091.37580642380226
3069.99610776049212
3038.29454966334833
2997.81591052353178
2942.55188146506862
2870.39253000350209
2770.16273760592458
2642.12246819557868
2458.62106023557408
2141.53550938296485
677.402499389920763
242.443985165718516
259.677483520565204
400.861334183955819
3138.70841645376959
3134.44097721583694
3122.67140506314036
3105.16755931119815
3082.36960106936476
3053.57615918914644
3018.9980793939053
2979.80958671349708
2937.63309580038822
2896.62612939415521
2865.65767767348734
2852.95469360720563
2883.56520943025134
2996.38588935092139
3186.46239082326701
3425.09881742751986
3138.50165218277198
3133.92964321130512
3122.26907535363171
3104.75740717274584
3081.74551671378185
3052.76681454435538
3017.89170624873077
2978.14307837200658
2935.04965409971192
2892.53786491557184
2858.84250337964022
2842.17955343316544
2864.15457765788869
2960.06739589001472
3145.67231658901528
3368.69290515425928
3137.92691210646399
3132.90391123730569
3121.32290001260753
3103.78380953906981
3080.49386868556303
3051.12732017737835
3015.60727820146394
2974.76873890192201
2929.87026607236385
2884.43416176056598
2845.84245224250753
2821.47158880209645
2828.36651195899867
2890.08315950805763
3056.85939506930617
3235.31344811578219
3136.92109786201218
3131.53526721798335
3119.96319599096842
3102.33541164731196
3078.6825182313105
3048.73341186451262
3012.26290437521811
2969.85828353119223
2922.35230446818923
2872.71148236015506
2827.12188765081282
2791.90245597837384
2779.50733900596015
2801.44488233920447
2906.15073531820735
3051.09362758360976
3135.54613007705257
3129.90390268608735
3118.25181494757453
3100.45561368538029
3076.3595505928738
3045.66796224903965
3007.97886257541677
2963.58069057566627
2912.7586812260638
2857.72078215896772
2803.31866879305608
2754.66639375729437
2714.92921298329202
2686.1114527025311
2705.01947725605805
2719.46263376707611
3133.87379100831913
3128.03592559449135
3116.25153783769883
3098.22001134957372
3073.60899180455681
3042.0460082139366
3002.91797447684212
2956.17023223876686
2901.43618274009805
2839.98841911497357
2775.2468879223602
2710.06210049189895
2635.75087679527633
2554.55097487673584
2488.93096805604546
2408.26376208482861
3131.97738568724481
3125.98284946247577
3114.03691017523533
3095.71693366214822
3070.53158144157987
3038.00267705134365
2997.27200239730973
2947.90783378911101
2888.80258204797292
2820.121228184335
2743.77980652209362
2659.32037858335889
2539.65288829794963
2416.92806648274836
2188.56238507405533
2187.22825559002968
3129.93495290479586
3123.80999486863539
3111.68826203970821
3093.04459863961256
3067.24308606171098
3033.69028857309422
2991.25615252590433
2939.10793999726866
2875.32845625889968
2798.82750292338778
2709.86593491624444
2604.39130002214551
2429.36780439607173
2273.39190989088456
1950.62624749403085
1958.59755630765244
3127.82819467800527
3121.59324416175059
3109.29144012933739
3090.30531282965512
3063.86511314151949
3029.26781126170954
2985.09341135800014
2930.09882636542989
2861.51859133232165
2776.84817443248585
2674.58891197960656
2549.8779386664869
2325.77335300360437
2098.90231293384386
1671.79180397880532
1727.88918537729751
3125.73279373203786
3119.41055086935103
3106.93663241702779
3087.60239247307618
3060.51935916590082
3024.89288373833324
2979.00246037428269
2921.20708393506584
2847.86940166524437
2754.87529053208073
2639.26511433351925
2481.66882960725388
2232.99249589253304
1850.67562491779563
1451.76198686700513
1526.88625410265945
3123.71443065609174
3117.33179261356418
3104.71273536685567
3085.03496159584938
3057.3182212492643
3020.7070599842541
2973.17883903007851
2912.73739302809145
2834.81111894311289
2733.52199137931484
2605.12593501254332
2428.08544594281739
2101.47079679638955
1530.22197805532505
1137.77368464885217
1375.72765894480222
3121.86572702079548
3115.41651300240574
3102.67420076182361
3082.66222563034626
3054.32734566989575
3016.78854712918019