/*--------------------------------*- C++ -*----------------------------------*\
| =========                 |                                                 |
| \\      /  F ield         | OpenFOAM: The Open Source CFD Toolbox           |
|  \\    /   O peration     | Version:  2206                                  |
|   \\  /    A nd           | Website:  www.openfoam.com                      |
|    \\/     M anipulation  |                                                 |
\*---------------------------------------------------------------------------*/
FoamFile
{
    version     2.0;
    format      ascii;
    arch        "LSB;label=32;scalar=64";
    class       volScalarField;
    location    "0.149999999999999994";
    object      rAU;
}
// * * * * * * * * * * * * * * * * * * * * * * * * * * * * * * * * * * * * * //

dimensions      [-1 3 1 0 0 0 0];

internalField   nonuniform List<scalar> 
29184
(
2.78546783700236352e-05
2.59897488914034138e-05
2.43450658479705104e-05
2.28394543017490107e-05
2.14410580116898768e-05
2.01092295887737602e-05
1.88217064358281885e-05
1.75729565759827148e-05
1.63725115037421926e-05
1.51762672893072223e-05
1.40905978891421708e-05
1.30431302384804959e-05
1.20871863126995802e-05
1.12659719260222789e-05
1.31334951661623925e-05
1.52645256367224941e-05
2.62131655019933606e-05
2.44045729437762734e-05
2.30041658335677424e-05
2.16686118929679146e-05
2.03821958175247952e-05
1.91241677297316526e-05
1.79008761819940625e-05
1.67114987113723659e-05
1.55751172097081418e-05
1.44434853033068559e-05
1.34281751284056712e-05
1.24968174945234626e-05
1.16032065211180327e-05
1.10070829962694164e-05
1.20962077990640487e-05
1.25250337783921346e-05
2.4735808341139531e-05
2.30364099788532423e-05
2.1803099263290673e-05
2.05672680600634497e-05
1.93493496634225558e-05
1.81539167734479082e-05
1.69884461450611692e-05
1.58485884032246507e-05
1.47672788958851929e-05
1.36816712809147674e-05
1.27319034230994445e-05
1.18830168956877801e-05
1.10922121546577669e-05
1.09617171406411679e-05
1.27933286556233674e-05
1.15470987785268024e-05
2.34145555457074354e-05
2.1851071962181468e-05
2.07374057207895637e-05
1.95896298421563336e-05
1.84376423375568556e-05
1.72999113926191142e-05
1.61862907940774372e-05
1.50932237516986921e-05
1.40573399527457136e-05
1.30100389940700858e-05
1.21184080506358016e-05
1.13061428525952652e-05
1.05267128914327184e-05
1.0787479840574264e-05
1.33286160793283931e-05
1.13008831910506248e-05
2.22352331842005861e-05
2.08105464607607284e-05
1.97887843173571454e-05
1.8717900831555198e-05
1.76273111800682608e-05
1.65426698897949806e-05
1.54757490424464733e-05
1.44253905885454225e-05
1.34264107882303325e-05
1.24125873541081187e-05
1.1573209629722468e-05
1.07597538038347968e-05
1.00455942985294213e-05
1.07320261322102262e-05
1.46610514806833458e-05
1.16755596448550342e-05
2.11818205797162024e-05
1.98880794555503748e-05
1.89426669233865582e-05
1.79392440170638578e-05
1.69051940096633879e-05
1.58694661234512961e-05
1.48449139216654079e-05
1.38327173570433798e-05
1.28651295678873433e-05
1.1881834468503049e-05
1.10835551283142043e-05
1.0252915642583689e-05
9.66033584037160443e-06
1.10173719517152026e-05
1.74540654341148112e-05
1.28721475035515955e-05
2.02392089968885148e-05
1.90653925904754905e-05
1.81862006379028017e-05
1.72426182420151337e-05
1.62603628475250467e-05
1.52698742017456296e-05
1.42839204243676268e-05
1.33059716599355394e-05
1.23652150730714071e-05
1.14075214705202593e-05
1.06384069112919492e-05
9.77898955065529803e-06
9.43354326681188998e-06
1.15050248789594721e-05
2.01230924072850509e-05
1.45002523641587182e-05
1.93938836430806452e-05
1.83288406342849618e-05
1.75085112648048816e-05
1.66186839211521731e-05
1.56837764886922418e-05
1.4735401060713203e-05
1.37848831203331115e-05
1.28378161309846275e-05
1.19205337853237518e-05
1.09845619828703469e-05
1.02335589422625405e-05
9.31054306997534775e-06
9.16764877171849242e-06
1.22595314486511869e-05
2.31211650018551266e-05
1.58835328081048466e-05
1.86341287400494317e-05
1.76678432269113595e-05
1.69005689243262465e-05
1.60595019827201414e-05
1.51678308249337199e-05
1.42591378597645656e-05
1.33414245408233791e-05
1.24227070242312169e-05
1.152683356093887e-05
1.06084275979964944e-05
9.8661217834815215e-06
8.93551481134529032e-06
8.92970048229365201e-06
1.34314597386472208e-05
2.73271058079946099e-05
1.67844852748205112e-05
1.7950177473560278e-05
1.70741216815659221e-05
1.63549567280535476e-05
1.5558269216755184e-05
1.4706084270514218e-05
1.38354854206854546e-05
1.29484004447478775e-05
1.20566031072737486e-05
1.11811949882940371e-05
1.02761986264078149e-05
9.53844936668619807e-06
8.61691550913352529e-06
8.95446883783833468e-06
1.64481454516548733e-05
3.3334587715966134e-05
1.87725022555302626e-05
1.73344105082300702e-05
1.65412197209820327e-05
1.58655546560060453e-05
1.51090251502907335e-05
1.42931041744902352e-05
1.34599470723710014e-05
1.26017064764959617e-05
1.1736893958812821e-05
1.08820107947788148e-05
9.98747581878151562e-06
9.2543357958704983e-06
8.36909820865975344e-06
9.91532716193198815e-06
2.17070421564043717e-05
3.79299392220872251e-05
2.10678291525483175e-05
1.67812274841885509e-05
1.60641273249069932e-05
1.54272005361890812e-05
1.47065153472569826e-05
1.39244247456412238e-05
1.31290045291099506e-05
1.22982193065549681e-05
1.14624994919927123e-05
1.06289889366112604e-05
9.7441873309367941e-06
9.01848605166702959e-06
8.31854089725803638e-06
1.10414339489347608e-05
3.05296708315360438e-05
4.5598277917989633e-05
2.35868261266358983e-05
1.62870559740533868e-05
1.56390782432218962e-05
1.50355456601221493e-05
1.43463164670150042e-05
1.35965352880415955e-05
1.28400400564901605e-05
1.20357922561403363e-05
1.12338275138531757e-05
1.04230774145440745e-05
9.55074809501429915e-06
8.84271217704285952e-06
8.30568232552811582e-06
1.31518528916827277e-05
4.02835940903564454e-05
5.72548600324425175e-05
2.63763481403178363e-05
1.58505030653207025e-05
1.52631501185504125e-05
1.46874151743529133e-05
1.4024681359283698e-05
1.33072753441425853e-05
1.25910233363207673e-05
1.18136212128776406e-05
1.10524987799333036e-05
1.02671430067160222e-05
9.41452222321826691e-06
8.73571004127834049e-06
8.59038522174970761e-06
1.69710352969372046e-05
5.23242278803551727e-05
7.67622687689926519e-05
3.16423723817169602e-05
1.54716085199703562e-05
1.49321523587905199e-05
1.4382105128155654e-05
1.37377287054807166e-05
1.30578913076854003e-05
1.23800525520624603e-05
1.16344739215125929e-05
1.09222393857932619e-05
1.01675783813387752e-05
9.34577224336568419e-06
8.71636815748562145e-06
8.87847123560253153e-06
2.4229352184087633e-05
7.41809225449316807e-05
0.000106727755169354902
3.44953849363398843e-05
1.51484568149727065e-05
1.46405539242982947e-05
1.41236406652556153e-05
1.34846001741259094e-05
1.28572057134510791e-05
1.22089111749063365e-05
1.1509690451010213e-05
1.08525083510911367e-05
1.0137641839197279e-05
9.35866476916671839e-06
8.7961144896434925e-06
9.79044375624642074e-06
3.42038552359525707e-05
0.000123579738800131902
0.000161045888908299413
3.37994658798444877e-05
2.78728751370947122e-05
2.60200350464713893e-05
2.43867529856165435e-05
2.28930127163530315e-05
2.15075846261651524e-05
2.01908717281280519e-05
1.89214459882084753e-05
1.76966446355790964e-05
1.6523343945738807e-05
1.53724735468200543e-05
1.43326492859228845e-05
1.33849863770469703e-05
1.25339872298229238e-05
1.20131242207023093e-05
1.41625667272696096e-05
1.92209539778111371e-05
2.62331841138824661e-05
2.44357450092241416e-05
2.30458236679375563e-05
2.17212454517093938e-05
2.04471326400102822e-05
1.92037133186733877e-05
1.79982898421530922e-05
1.68315492823270288e-05
1.57233080942392841e-05
1.46324342137508483e-05
1.36663826365290875e-05
1.28253547721580368e-05
1.20638506098446313e-05
1.18507958641855472e-05
1.27541916332672264e-05
1.52128465424388968e-05
2.47571876330382404e-05
2.3067926435507815e-05
2.18442247954377164e-05
2.06187263729406792e-05
1.9412699714052334e-05
1.82313975014502825e-05
1.70832495963023722e-05
1.59653103639318716e-05
1.49110467204837542e-05
1.38649424781886386e-05
1.29613738786782866e-05
1.21998551611940546e-05
1.15588068936421413e-05
1.19087147575172382e-05
1.32222920683752051e-05
1.40291011966088919e-05
2.34369955274834752e-05
2.18824997528859533e-05
2.07777328094947647e-05
1.96396367859051164e-05
1.84990352258942165e-05
1.73747636409242378e-05
1.62777686891136604e-05
1.52054242422132158e-05
1.4195609198472662e-05
1.31848930166222988e-05
1.23369903476375393e-05
1.16012573430308211e-05
1.09366827927434333e-05
1.17076778112708589e-05
1.40609736084562489e-05
1.36263328017731795e-05
2.22585446968659293e-05
2.08416159949853524e-05
1.98281845593254069e-05
1.87662689215533705e-05
1.76865108972909914e-05
1.66144958036550665e-05
1.55633128200229064e-05
1.45322977071209275e-05
1.35582942717000502e-05
1.25769065158903729e-05
1.177954635959857e-05
1.10321349470146567e-05
1.0400305349886918e-05
1.15696252059395899e-05
1.59194865282676057e-05
1.3716835653549329e-05
2.12059518484911204e-05
1.9918616302576994e-05
1.89811472961716723e-05
1.79858533760947088e-05
1.69620934174921879e-05
1.59379662942097207e-05
1.49281063791524217e-05
1.39339500479480862e-05
1.29894951617791691e-05
1.20342844197566897e-05
1.12787756104701869e-05
1.04967499942233834e-05
1.00128501460891804e-05
1.22128560381256789e-05
1.85464763747474781e-05
1.45279294088556848e-05
2.02642730607104914e-05
1.90952689870417327e-05
1.82239201489271199e-05
1.72874095320754564e-05
1.63150093966987059e-05
1.53347942530889939e-05
1.4362469082686823e-05
1.34012123055920241e-05
1.24809900466114004e-05
1.15486375609084561e-05
1.08232613216233366e-05
9.98646795867340563e-06
9.81372794247159966e-06
1.28406090781706547e-05
2.14108746633518579e-05
1.55335503818613615e-05
1.9420205718838022e-05
1.83579262974827182e-05
1.75458220489195959e-05
1.66616622809281055e-05
1.57364026044847438e-05
1.479648213373602e-05
1.38586738413897981e-05
1.2926609444429267e-05
1.20271697799422551e-05
1.11152756001439309e-05
1.04055120033464053e-05
9.49872281711961066e-06
9.53331941114627842e-06
1.42429984514477664e-05
2.4845471066026725e-05
1.6782101527800408e-05
1.86622780330787023e-05
1.76959584197415762e-05
1.69380766193430548e-05
1.61007390033035266e-05
1.52188701576359745e-05
1.43160425470307516e-05
1.34104097884590477e-05
1.25044954582138857e-05
1.1624284470258199e-05
1.07279885452175984e-05
1.00222926578864214e-05
9.15390184213481995e-06
9.38956232010612091e-06
1.55371988214591579e-05
2.76352821860152863e-05
1.81403897374969334e-05
1.79809747889211694e-05
1.71010005415473277e-05
1.63935479748400852e-05
1.55978794361189562e-05
1.47561286089610873e-05
1.38876985327902328e-05
1.30125401940045149e-05
1.21309659734409396e-05
1.12688383575731666e-05
1.03813315567142577e-05
9.67780494411941306e-06
8.76194746363324674e-06
9.0728891149209858e-06
1.64419107777608648e-05
3.14164814301923548e-05
1.98176836345063619e-05
1.73688386883080051e-05
1.65665269536140789e-05
1.59063190015816536e-05
1.51470893277568774e-05
1.43427707019819302e-05
1.3506686705729204e-05
1.26610596032522107e-05
1.18034951989175979e-05
1.09573836678070569e-05
1.00750496911418933e-05
9.37898935611811392e-06
8.50322950279459636e-06
9.09525570584798217e-06
1.98617517940361247e-05
3.50759909107271079e-05
2.18451230656808811e-05
1.68203024977762055e-05
1.60875378301748394e-05
1.54712527203512019e-05
1.47429231605227778e-05
1.39742502986649565e-05
1.31691506960855172e-05
1.23531304288478285e-05
1.15205722442426749e-05
1.06880257574579782e-05
9.81362881492406473e-06
9.13255724829378528e-06
8.33530113005560276e-06
1.06600386016722546e-05
2.73843167758719765e-05
4.01483557265580013e-05
2.38237982762487284e-05
1.63316237109859348e-05
1.56606209273444966e-05
1.50838026240076272e-05
1.43806170803003148e-05
1.36470711502879284e-05
1.28720470397557539e-05
1.20870166424638773e-05
1.12816926763023764e-05
1.04620930207152616e-05
9.60397158465190548e-06
8.94253986587807969e-06
8.38185708376111884e-06
1.39189561788717876e-05
4.04142044173329986e-05
4.93513892309085605e-05
2.63155326085156216e-05
1.59012039207367443e-05
1.5284242531154954e-05
1.47394983056719099e-05
1.40567195284603498e-05
1.33587267127838621e-05
1.261345627862553e-05
1.1862026838896466e-05
1.1087706294089904e-05
1.02832352274264752e-05
9.4540954893334183e-06
8.81820850847240432e-06
8.77960355814547216e-06
1.80822759995339513e-05
5.35184516186493022e-05
6.28412292277666005e-05
2.82544181597247599e-05
1.55285805540602235e-05
1.49579059001658941e-05
1.44325623630320742e-05
1.37708050604409345e-05
1.3107413057221109e-05
1.23945613612533584e-05
1.16790948407845935e-05
1.09426150727625563e-05
1.01567969014110833e-05
9.37522002814789519e-06
8.79683805498826677e-06
8.64789508605764143e-06
2.3904514502051203e-05
7.60472119204955686e-05
8.5595375222565268e-05
3.02689064682678066e-05
1.52113205488460054e-05
1.46798015476133436e-05
1.41589382387504188e-05
1.35293067005040273e-05
1.28954456069466473e-05
1.22240222815612432e-05
1.15445192401678841e-05
1.08582780428870405e-05
1.00942815072164567e-05
9.38108135953992812e-06
8.86300084615755024e-06
9.12821414622900677e-06
3.05262934941883087e-05
0.00012777402465658511
0.000130078639885621131
3.20687701224850485e-05
2.79003997406918523e-05
2.60582854029716114e-05
2.44360819549975347e-05
2.29545125870778866e-05
2.15828295468143524e-05
2.02823814759783457e-05
1.90330231768907745e-05
1.78335746014574015e-05
1.66931044339414083e-05
1.55859951241990782e-05
1.46105760269855868e-05
1.37592884399940777e-05
1.29951822753547779e-05
1.26934735420927624e-05
1.51644010251127831e-05
2.27362754291862168e-05
2.62613415985664888e-05
2.44736759033408286e-05
2.30940235679243348e-05
2.17807664764768802e-05
2.05196517807535868e-05
1.92918547818020539e-05
1.81057989042984154e-05
1.69630922419825696e-05
1.5888457436928574e-05
1.48331442624996259e-05
1.39424956967382726e-05
1.31879319432053554e-05
1.24998138303257872e-05
1.26467552725077507e-05
1.31316466348515876e-05
1.70181287901361303e-05
2.47855027077582545e-05
2.31052805486575812e-05
2.18909304003299219e-05
2.06760913164745743e-05
1.9482555221941232e-05
1.83161904409654966e-05
1.71868088885293435e-05
1.60912521064908642e-05
1.50702540677737162e-05
1.4055520629052653e-05
1.32305556736454269e-05
1.25381165917930295e-05
1.20340139652730403e-05
1.26906993272053065e-05
1.35347523161430705e-05
1.53179482187880639e-05
2.34651944992918485e-05
2.19189475248092065e-05
2.08226498104424896e-05
1.96946402815702643e-05
1.85659497589303351e-05
1.74558675652254886e-05
1.63767606814304601e-05
1.53251048085049668e-05
1.43472784084140935e-05
1.33661891638510553e-05
1.25904881713791442e-05
1.19199856349003422e-05
1.13903974821914017e-05
1.25469331245672219e-05
1.4253414985542546e-05
1.5584947990889102e-05
2.22863752866852218e-05
2.08769829925173757e-05
1.9871071734808279e-05
1.88187971674830372e-05
1.77503110191433768e-05
1.669172946689911e-05
1.56571383680233712e-05
1.46455316450209566e-05
1.37009637308933209e-05
1.27469828927446888e-05
1.20118002241594504e-05
1.13268672488708072e-05
1.08287479867703836e-05
1.23914744660390967e-05
1.63154664436287325e-05
1.55834486660677583e-05
2.12331842892716091e-05
1.99528464217205425e-05
1.90217683790588827e-05
1.80358852593318527e-05
1.70227046943234403e-05
1.6011218918080122e-05
1.50164444705768884e-05
1.40405642458985678e-05
1.31216059404228683e-05
1.21922744647333483e-05
1.14898540527313169e-05
1.07680576566976138e-05
1.0406349913021379e-05
1.32397492029363992e-05
1.94396615462851643e-05
1.60327160749438661e-05
2.02906736032750168e-05
1.91284219913241683e-05
1.82619888764086389e-05
1.73350437022747254e-05
1.63724492789507381e-05
1.5404072793621083e-05
1.4445205951826602e-05
1.35005674683913141e-05
1.26025874484464876e-05
1.16955165886917868e-05
1.10141850947397315e-05
1.02447217434173324e-05
1.01582598255491646e-05
1.38666801033472921e-05
2.22724753146441734e-05
1.66030737901293617e-05
1.94455070447238762e-05
1.83901993884812151e-05
1.75809412962110454e-05
1.67071735113959329e-05
1.57907939155849725e-05
1.4861985617761093e-05
1.39356720196707761e-05
1.30182675544826599e-05
1.21383687645783061e-05
1.12494825929602652e-05
1.0577662865556387e-05
9.7543492468155039e-06
9.78924958965565391e-06
1.46759693136995905e-05
2.4121796758876837e-05
1.7477822897196848e-05
1.86861445538060559e-05
1.77277211890453537e-05
1.69696646052460874e-05
1.61446718738714323e-05
1.52704833438878879e-05
1.43781584777450128e-05
1.34814231407882623e-05
1.25879566429390153e-05
1.17250876141801495e-05
1.08492844702088133e-05
1.01797991121990185e-05
9.35913985970031472e-06
9.6049791439079615e-06
1.5849103176206372e-05
2.71838033165422741e-05
1.8623648680976448e-05
1.80030034652244896e-05
1.71327994876234002e-05
1.64207532554476323e-05
1.56411826591724095e-05
1.48054403757328853e-05
1.394694843261068e-05
1.30770764730736421e-05
1.22056988950770815e-05
1.1359327972198332e-05
1.04906270927282235e-05
9.820547460516115e-06
8.9043123377042145e-06
9.34309765623510874e-06
1.78840929867366614e-05
3.09274606554833602e-05
2.04876088094958101e-05
1.73886462727433527e-05
1.65989186433236652e-05
1.5927890026072382e-05
1.51912861510209124e-05
1.43905247708854387e-05
1.35635849031880701e-05
1.27183714821439649e-05
1.18690888736318063e-05
1.10382603563359422e-05
1.01736367409294926e-05
9.50288792481714616e-06
8.5722198115943891e-06
9.3219663772123471e-06
2.15958464120923268e-05
3.4330609357068505e-05
2.26274668073606549e-05
1.68377050588915412e-05
1.61205838591181521e-05
1.54853565424287072e-05
1.47903291077137298e-05
1.40214252262296128e-05
1.32241473032710407e-05
1.24023812313447672e-05
1.15771897870073423e-05
1.07611258520585151e-05
9.90107235597271542e-06
9.23326053439427981e-06
8.36861451968175189e-06
1.06995753723474318e-05
2.89416498812488922e-05
3.87417917447960682e-05
2.42718514506802779e-05
1.63467071034306237e-05
1.56930711001596347e-05
1.50879489153778077e-05
1.44345039305549261e-05
1.36947264613427939e-05
1.29258505036103261e-05
1.21276631885209056e-05
1.13305336308955972e-05
1.05293312385005314e-05
9.67779109990673597e-06
9.01994723623551376e-06
8.39278737254126492e-06
1.37759463078948997e-05
4.3247260730089748e-05
4.66275399071585108e-05
2.5931841865651914e-05
1.59156061129675851e-05
1.53121005217286516e-05
1.47313373561250554e-05
1.4120681164849796e-05
1.34085049802620325e-05
1.2667387661739963e-05
1.18946025101936584e-05
1.11308735186764611e-05
1.03449481825334498e-05
9.50957261136166553e-06
8.8775404717253271e-06
8.71453662419751965e-06
1.76659397362614103e-05
5.68085538189361342e-05
5.79605854783610312e-05
2.7720948001549981e-05
1.55471530782357956e-05
1.49715578116676139e-05
1.44125255499647399e-05
1.38459987958161044e-05
1.31644792430753115e-05
1.2449186493953512e-05
1.17068685545478683e-05
1.0981952841193622e-05
1.02109663464124142e-05
9.40634339974246549e-06
8.83920703986485941e-06
8.5743352677035222e-06
2.25620173401039639e-05
8.06380234559394573e-05
7.71287991846439564e-05
2.97437547945071591e-05
1.52413821187286322e-05
1.46623469941040294e-05
1.4132814852133498e-05
1.36113156502578464e-05
1.29721483847102456e-05
1.22764662971240947e-05
1.15746350408655501e-05
1.08933342337226541e-05
1.0136699390079624e-05
9.38140031638315658e-06
8.89385961541506502e-06
9.01131338982676153e-06
2.87678055064531621e-05
0.00013398752612509945
0.000113233177513221073
3.09159881027658054e-05
2.79361300553703037e-05
2.61027577974469228e-05
2.44909487419178535e-05
2.30211256076989639e-05
2.16631037969125551e-05
2.0378970098431602e-05
1.91498722065054004e-05
1.79750951141223784e-05
1.68669665615587171e-05
1.58002940185206011e-05
1.48813355256335207e-05
1.41256224395362257e-05
1.34535872486342402e-05
1.33220249772734967e-05
1.65294256527291827e-05
2.53528295627164027e-05
2.62965565026053472e-05
2.45166782779079542e-05
2.31468073776362827e-05
2.18445023709695407e-05
2.0596250810373725e-05
1.93840887351888095e-05
1.82173303813694911e-05
1.70983741654173397e-05
1.60556365012163756e-05
1.50348317828179601e-05
1.4205812385960271e-05
1.35323028527595859e-05
1.28773675909029093e-05
1.32272536082544079e-05
1.39148840708617556e-05
1.84117118938889756e-05
2.48199792163573365e-05
2.31469461685052171e-05
2.19415332344451776e-05
2.07368717149490777e-05
1.95556164045520057e-05
1.84041769603506888e-05
1.72932683482744675e-05
1.6220209767190018e-05
1.52300644979763668e-05
1.42462134914386767e-05
1.34882677552126655e-05
1.28616407778718449e-05
1.23344472941075984e-05
1.32334834959021913e-05
1.39818294297645493e-05
1.58457167575465356e-05
2.34989370958134032e-05
2.19591100809597227e-05
2.0870981500749536e-05
1.97523708166467706e-05
1.86353560954933637e-05
1.75394215050612173e-05
1.64778782763510077e-05
1.54474393518817865e-05
1.44986003186242168e-05
1.35474632131663536e-05
1.28368536215749305e-05
1.22161857275508175e-05
1.17610688341864821e-05
1.30529430156351941e-05
1.4575403055829313e-05
1.54683597376921783e-05
2.23194652939186671e-05
2.09155560205519464e-05
1.99171265576522153e-05
1.88734075867876888e-05
1.78160167555323594e-05
1.67707551011879067e-05
1.57527728229631977e-05
1.47609910686671706e-05
1.38430739317534647e-05
1.29191015100651863e-05
1.22410772403940397e-05
1.15988548034733996e-05
1.11778832161284122e-05
1.29992892755711013e-05
1.66282879008994442e-05
1.66619666008901476e-05
2.12657896725511995e-05
1.99897608107703997e-05
1.90656151730651825e-05
1.8087295149575883e-05
1.70847169596782018e-05
1.60856889212251845e-05
1.51066077884975016e-05
1.4148774518917208e-05
1.32546833489227175e-05
1.23542962124258329e-05
1.16996770823797406e-05
1.10285971740198204e-05
1.07426844827977559e-05
1.37648179038912457e-05
1.98870466211645378e-05
1.68481187106405932e-05
2.03230644211949597e-05
1.91635669545513193e-05
1.8303770790476219e-05
1.73831155536054003e-05
1.64308300516091354e-05
1.54740552531105056e-05
1.4529927937844217e-05
1.36013888690392956e-05
1.27272063218082526e-05
1.18450378743343663e-05
1.12062040867749345e-05
1.04993989069290688e-05
1.03842101839602878e-05
1.41815418132821759e-05
2.20721171877861082e-05
1.72883995214347454e-05
1.94780784532460449e-05
1.84233654929522754e-05
1.76208860171640259e-05
1.6751654238254947e-05
1.58456994453206301e-05
1.49276252096968526e-05
1.40150359853423377e-05
1.31121760344838672e-05
1.22538841592760797e-05
1.1384242005902168e-05
1.07563370392287286e-05
9.9984678847007487e-06
9.99799859300055577e-06
1.42605010857723192e-05
2.28521017322988621e-05
1.83877284053014639e-05
1.87194549111153842e-05
1.77585341701440765e-05
1.70081015433588693e-05
1.61851425202691815e-05
1.53222251830054244e-05
1.44396250631265583e-05
1.3555835746477069e-05
1.26756253768186776e-05
1.18300205099431568e-05
1.09703942447660429e-05
1.03467624108539189e-05
9.48941724644635781e-06
9.73035117285791685e-06
1.51260114302302353e-05
2.48023757357778224e-05
1.98053694926047333e-05
1.80377543549711687e-05
1.71606785971506855e-05
1.6458140023603888e-05
1.56770566411321693e-05
1.48545080138298034e-05
1.40044507164721233e-05
1.31475176019722826e-05
1.22875803788295151e-05
1.14527097585916581e-05
1.06009433009686241e-05
9.97242321109612557e-06
9.03009626012602128e-06
9.79494367660305999e-06
1.89392622723838436e-05
3.11753104723824483e-05
2.14515065982156359e-05
1.7425667930228423e-05
1.66231283452084641e-05
1.59648390368043575e-05
1.52218648839635623e-05
1.44374893530560804e-05
1.36175023001082609e-05
1.27865438725748019e-05
1.19451947755874874e-05
1.11202548773729509e-05
1.02746740131262466e-05
9.63705151384062705e-06
8.69833669855865903e-06
1.04993036288492162e-05
2.54570497859932842e-05
3.31838867187203926e-05
2.24145056151861795e-05
1.68780610645778429e-05
1.61403518513120406e-05
1.55226030158427663e-05
1.48148321244221147e-05
1.40667646458914083e-05
1.32752502672137698e-05
1.24707083909157214e-05
1.16469579031627658e-05
1.08319225569466183e-05
9.99298594716183986e-06
9.35222859759392794e-06
8.49737001262920425e-06
1.13541533313315184e-05
3.54252598531813653e-05
3.76502893069881767e-05
2.3229347658597871e-05
1.63903200401671927e-05
1.57077536068168907e-05
1.51262998611674166e-05
1.44520939938192534e-05
1.37387376685562704e-05
1.29755109325968194e-05
1.21991649309237577e-05
1.13923193819208604e-05
1.0587817376186814e-05
9.76082472192342007e-06
9.12979770278868651e-06
8.42469742624022085e-06
1.29595025864213134e-05
4.75449501031847366e-05
4.41829574923293923e-05
2.47392134198552999e-05
1.59606201023380792e-05
1.53221235663728355e-05
1.47714102717749676e-05
1.41311368696919979e-05
1.34506961604590845e-05
1.2718152283176245e-05
1.19723669042674322e-05
1.11811484700027074e-05
1.03888293521810602e-05
9.58564392512978086e-06
8.98207640763971275e-06
8.59403710402860952e-06
1.54592799337178336e-05
6.10949724448450347e-05
5.33522762385535364e-05
2.61502198614551378e-05
1.55906642025704242e-05
1.49818899960039533e-05
1.44531740549717095e-05
1.38522359976080123e-05
1.3200571351506841e-05
1.25069776149994821e-05
1.17921405055290593e-05
1.10148102142115515e-05
1.02378382677394687e-05
9.47846734582156223e-06
8.92821591415872407e-06
8.70266702721848246e-06
2.05696982902544048e-05
8.46737329090312151e-05
6.84913249417272175e-05
2.70593804150343763e-05
1.52789099939233664e-05
1.4686059761451665e-05
1.41682142771775383e-05
1.36215362873176771e-05
1.29907379863181188e-05
1.23530100616910282e-05
1.16635492611989639e-05
1.09014308569836895e-05
1.01445611411881063e-05
9.45349941509642993e-06
8.9605242296490116e-06
9.25220744410257952e-06
2.76643164629384568e-05
0.000149248026221170327
9.66500882747881729e-05
2.8338984828751378e-05
2.79782873009651758e-05
2.61515230174422937e-05
2.45489398778022438e-05
2.30898929223997895e-05
2.17446919306399619e-05
2.04759371262811702e-05
1.92656073498321219e-05
1.81133451583983473e-05
1.70315539780838311e-05
1.59981431856308647e-05
1.51092396151356222e-05
1.43952331841449213e-05
1.38229110759984467e-05
1.38841357222433834e-05
1.74403332363079723e-05
2.72415006804035315e-05
2.63368375187203405e-05
2.45628086910998228e-05
2.32016604794470882e-05
2.19094092134250065e-05
2.06732182980643582e-05
1.94756683265043397e-05
1.83267677594706404e-05
1.72291040544738188e-05
1.62120577736008583e-05
1.52245130234803973e-05
1.44221732724259671e-05
1.38074673777522721e-05
1.32579251639963281e-05
1.3714865093150301e-05
1.44788975249914473e-05
1.94887475629686277e-05
2.48584698247176791e-05
2.3190981576216663e-05
2.19935024051242755e-05
2.07982042994204322e-05
1.96283348669996003e-05
1.84907995115356921e-05
1.73966962773377008e-05
1.63440864905354416e-05
1.53784452358283837e-05
1.4426240137683771e-05
1.36947666976841218e-05
1.31378718272220942e-05
1.27088181528735044e-05
1.38630294005808054e-05
1.41999940200061455e-05
1.64896722982466288e-05
2.3535856757826882e-05
2.20011853980862518e-05
2.0920047195384712e-05
1.98101139015142496e-05
1.87037912798360848e-05
1.76210110496976994e-05
1.65750998863596304e-05
1.55643571743225572e-05
1.46381117709517158e-05
1.37161719458725967e-05
1.30366107464258234e-05
1.24866678173601718e-05
1.20334762755639567e-05
1.36965977553654006e-05
1.47379816762339338e-05
1.55729587499582077e-05
2.23551752097403746e-05
2.09559517966987054e-05
1.99633234114668221e-05
1.89276059206993131e-05
1.78801918719536975e-05
1.68472599499345263e-05
1.58438248343076677e-05
1.48704853669376119e-05
1.39737372093820749e-05
1.30767725529217779e-05
1.24356843786062258e-05
1.18344439595245561e-05
1.14296704204062242e-05
1.3514857394006231e-05
1.6887956873273338e-05
1.67318776892420139e-05
2.1300872530340645e-05
2.00289242180479473e-05
1.91089825908631741e-05
1.81380381919311424e-05
1.71446660146482649e-05
1.61571260584902603e-05
1.51914191772797321e-05
1.42505208359964382e-05
1.33770389397173199e-05
1.25012036971390456e-05
1.18858349490993775e-05
1.12198173125009156e-05
1.08788153966615762e-05
1.38646136163186145e-05
1.94584436888931776e-05
1.74682697285080491e-05
2.03584542988360147e-05
1.92021499625572851e-05
1.83443115909153239e-05
1.74305332939720361e-05
1.64865761357717243e-05
1.55404741026344438e-05
1.46083124454978221e-05
1.36956666030773317e-05
1.28405502317292546e-05
1.19809343730464445e-05
1.13800754236504586e-05
1.06541527321169689e-05
1.05194026654128136e-05
1.44649888472741061e-05
2.16657948141604918e-05
1.78966944202200733e-05
1.95152392990292568e-05
1.8462294737318587e-05
1.7658519127946074e-05
1.67959034571697544e-05
1.5897218022292718e-05
1.49890740719509942e-05
1.4086877982782011e-05
1.31990678021217257e-05
1.23579347082726879e-05
1.151102853201545e-05
1.09147490035951701e-05
1.01163291345377762e-05
1.03380653355068038e-05
1.50054900180021368e-05
2.35302759266814092e-05
1.88289695730765126e-05
1.87606415752150262e-05
1.77990801510370324e-05
1.70425863639560951e-05
1.62263602265277893e-05
1.53694160673133214e-05
1.44962400171078781e-05
1.36209885923377966e-05
1.27550155554425938e-05
1.19257949306619624e-05
1.10890088794479023e-05
1.04849490504992396e-05
9.60485622083653074e-06
1.00008404225362061e-05
1.63661986811247738e-05
2.6554458967544668e-05
2.00294123752772438e-05
1.80863411013550532e-05
1.72044596709596483e-05
1.64889964801990883e-05
1.57152830864731958e-05
1.48972890390563e-05
1.40565509063704802e-05
1.32055656329962955e-05
1.23594315435220878e-05
1.15422092268417428e-05
1.07111826992803019e-05
1.00913913406613371e-05
9.20625389633494382e-06
9.80370499552834978e-06
1.86584363689253146e-05
2.95104250087574428e-05
2.15143815279276737e-05
1.74864891530100908e-05
1.66720063610380279e-05
1.59913431311099614e-05
1.52569758791228884e-05
1.44760759828477551e-05
1.36655153864512835e-05
1.28365120400955846e-05
1.20100163722185937e-05
1.12060096081307303e-05
1.03760267777394838e-05
9.73996927472690002e-06
8.82039276597036707e-06
1.00835743196169831e-05
2.35773167140846303e-05
3.28639896547315035e-05
2.24393581322807211e-05
1.69585160953721837e-05
1.61963219836061207e-05
1.55438244455577998e-05
1.48465626754033644e-05
1.41019837014759054e-05
1.33193525930779247e-05
1.25109099611033151e-05
1.17062415844414786e-05
1.09172148149993024e-05
1.008600359050972e-05
9.43801162683016654e-06
8.59269025661492234e-06
1.13304127494858703e-05
3.37581188828313045e-05
3.69484548000341938e-05
2.37041503561711022e-05
1.65011855370163672e-05