/*--------------------------------*- C++ -*----------------------------------*\
| =========                 |                                                 |
| \\      /  F ield         | OpenFOAM: The Open Source CFD Toolbox           |
|  \\    /   O peration     | Version:  2206                                  |
|   \\  /    A nd           | Website:  www.openfoam.com                      |
|    \\/     M anipulation  |                                                 |
\*---------------------------------------------------------------------------*/
FoamFile
{
    version     2.0;
    format      ascii;
    arch        "LSB;label=32;scalar=64";
    class       volVectorField;
    location    "0.149999999999999994";
    object      U;
}
// * * * * * * * * * * * * * * * * * * * * * * * * * * * * * * * * * * * * * //

dimensions      [0 1 -1 0 0 0 0];

internalField   nonuniform List<vector> 
29184
(
(0.0310505033293643554 -0.0134237832915038539 -0.00815278224334744887)
(0.0970330279581216454 -0.0158869616114556376 -0.00897054641366648933)
(0.168159009849810748 -0.0160242413763010752 -0.010213258879073206)
(0.243096732316053027 -0.0165751222585317874 -0.0122471107717069816)
(0.317240970684957768 -0.0172513856616246658 -0.0152227961062887749)
(0.396738648189031595 -0.0183391517599887262 -0.01944919544305794)
(0.481174266510000559 -0.0199004133908945828 -0.0253802341675252313)
(0.575996249860267318 -0.0216824239265801175 -0.0337744742985070442)
(0.672345420013035211 -0.0234270461074485292 -0.0450964290063294304)
(0.78745460174393167 -0.0263207526237866536 -0.0627350063987565237)
(0.898483934679882079 -0.0265194001878275402 -0.0844354128897258638)
(1.01234180778238292 -0.0275609115522623647 -0.122925352621395062)
(1.13673660180631186 -0.0284996962298696768 -0.174058357632898147)
(1.24453002648173472 -0.023708012111593707 -0.2743087891274123)
(1.26299275149422341 0.0185498281298384603 -0.449255738105321378)
(0.906579940078208191 0.0978542055354286178 -1.32874210583986851)
(0.0314081364296758328 -0.0413084113764164637 -0.00820475965697913152)
(0.0972947148597273215 -0.0476892728637653487 -0.00893514792726166247)
(0.166331016694760386 -0.0473455474395731782 -0.0101570213537945254)
(0.236244969755246392 -0.0487731891702043521 -0.0121479049302197877)
(0.30916945548362379 -0.0511849032628747883 -0.0150778582009609939)
(0.387217528992132687 -0.0546889622714417725 -0.0192368286423509234)
(0.470721632324775985 -0.0591613831361989806 -0.0250741128100520176)
(0.562143290128721773 -0.0644471619839834253 -0.0332263831797966688)
(0.658699678219219042 -0.0695606645785283445 -0.0447279687131957177)
(0.767572301792953327 -0.0770311017330061742 -0.0610426951143793264)
(0.878636764169320239 -0.0796097932294765609 -0.0844262885854902417)
(0.994831239702116288 -0.0821147362222725136 -0.120164487831536687)
(1.11849202264060676 -0.0834767597550528234 -0.174308965045987779)
(1.23787973995658129 -0.0665309340777409802 -0.265901395941411434)
(1.30942753679897161 0.0270615785858632912 -0.479545811158154922)
(1.09680547544138673 0.31532176507389037 -1.37576163347016234)
(0.0317575108717536927 -0.0700345363281679179 -0.00818715112604646855)
(0.0971480568524164811 -0.0781160559590901027 -0.00891646226628525947)
(0.165061403785636857 -0.0778161370534435903 -0.0101149114752029697)
(0.234639749422613397 -0.0803222170799320206 -0.0120679010176576521)
(0.307336293636782276 -0.08474026674297018 -0.014947190285188143)
(0.385023356212515599 -0.0907025290526995848 -0.0190320643544090728)
(0.468086430868738468 -0.0979268142508852718 -0.0247528903438242395)
(0.559342443925076704 -0.106643304038196884 -0.0327367580853074394)
(0.655514824801048279 -0.115105742330013208 -0.0439456320405326242)
(0.765022978592378333 -0.12671945433403578 -0.0598413447008664737)
(0.876625610443211745 -0.132697828893336756 -0.0824912179507589216)
(0.994061192279250161 -0.136840091414687531 -0.117112354725033854)
(1.1248888090696465 -0.142356979373491066 -0.167917085704696517)
(1.25523982185566196 -0.113695242107391625 -0.265085694077989764)
(1.31245974812269761 0.0301474145048704137 -0.490029145918533637)
(1.05400327967980822 0.582707788117459713 -1.41747540352526813)
(0.03182071301120621 -0.0986586137357968185 -0.00812248806271475068)
(0.0965387008150895565 -0.107683884128416507 -0.00883838860534340992)
(0.163306928224823816 -0.108136322724792261 -0.0100063116399176175)
(0.232198456072767984 -0.111855910757593685 -0.0119074820216795562)
(0.304348974800820737 -0.118170459171553499 -0.0147112526987619816)
(0.381415926888797996 -0.12651285093377701 -0.0186848728732435937)
(0.463772589336868934 -0.136579779886944752 -0.0242329196078766712)
(0.554600824824974747 -0.148692841108297225 -0.0319679856515155333)
(0.650048556731686267 -0.160790725987282862 -0.0427607970560329523)
(0.760337315897030575 -0.17705899942073014 -0.0580707285745654875)
(0.872655949235336958 -0.185703339443489823 -0.079751511972276326)
(0.991656382283376714 -0.193927467428872291 -0.112563983438181581)
(1.12977948802587469 -0.207963136670570731 -0.159272292153510575)
(1.26847767721278348 -0.160467115907732272 -0.258965362219644779)
(1.33674034892011084 0.0346359816294311146 -0.499644231052244037)
(1.01833622963257109 0.854636439746756404 -1.4509979170710825)
(0.0316305539663321658 -0.127164550798253589 -0.00801441597417035592)
(0.0955124821690139236 -0.136859213674243196 -0.00870784245522478531)
(0.161130809077089432 -0.138125744085869667 -0.00983853107525823473)
(0.22911709857049703 -0.143080145211934601 -0.0116751986724596777)
(0.300459762062963043 -0.151249366159047521 -0.0143817155235195539)
(0.376675993565333544 -0.161959970488096683 -0.0182103552705652344)
(0.458127335330555774 -0.174910646289297311 -0.0235357210674988077)
(0.548242207662443581 -0.190402554982328276 -0.0309520835239466621)
(0.642975570126066653 -0.206424167142725601 -0.0412146271360375599)
(0.753859289523071019 -0.227497514883420682 -0.0558131380125254303)
(0.86631888111310873 -0.238802896567537337 -0.0763239897404785345)
(0.987829230915340695 -0.254565490474347733 -0.106458317826751442)
(1.1339544153179093 -0.275976134370573778 -0.150461948739255696)
(1.28545565824548125 -0.211388294325183468 -0.25652995852192928)
(1.35625112527802139 0.0480779365282099774 -0.518119868647258341)
(1.00220029317921422 1.11884396177281276 -1.48497480445198371)
(0.0312669425457889824 -0.155406461710316773 -0.00786642907582311285)
(0.0941308732745271409 -0.165459486056729638 -0.00853045617827499075)
(0.158504740958119367 -0.167643312967680341 -0.00961767938797568854)
(0.225376152482348657 -0.173903576580050151 -0.0113777812868141783)
(0.295661590756682469 -0.183908243912390301 -0.0139682065344787273)
(0.370785925301555408 -0.196963417351956299 -0.0176211880768955276)
(0.451101799645596824 -0.212813628798502519 -0.022682952007945411)
(0.540191153749699948 -0.231749747769392611 -0.0297081511863988394)
(0.634248198384052775 -0.251902014139470609 -0.0393747046554324687)
(0.744762462499320432 -0.277887785932523335 -0.0531205487753496977)
(0.857768301011898493 -0.292303435346094209 -0.0722586910540067573)
(0.982185998425653906 -0.318587665562941658 -0.0996468714348330425)
(1.13604175772678451 -0.347495780873240845 -0.142281642815148879)
(1.29913428430421374 -0.262691686406121339 -0.258906624396609608)
(1.36648736968452433 0.0820930905991995724 -0.559580460028938242)
(0.979945780850459136 1.40199326896103704 -1.56633183523262942)
(0.0307693584109651613 -0.183247095466546023 -0.00768251270459805076)
(0.0924280326972504312 -0.193487552834221782 -0.00831152372495697414)
(0.155422772573188622 -0.19662219582107715 -0.00935005734724174767)
(0.220975931728668112 -0.204215878497847531 -0.0110227440672820264)
(0.289962557419968681 -0.216037920416052215 -0.0134820057594317901)
(0.363746743032733189 -0.231406876930085242 -0.0169330633173513621)
(0.442660896519369129 -0.250166826896191075 -0.021696600594683306)
(0.530459507930866492 -0.27261358983429862 -0.028261175280768356)
(0.62349692537259338 -0.297072909243862149 -0.037303997336714495)
(0.733447068233600286 -0.328199619762943651 -0.0499955203517054927)
(0.847487505152766385 -0.346480861933012974 -0.0678063075689937372)
(0.973592965505995167 -0.385660997884078538 -0.0924892344877375761)
(1.13376924935846723 -0.420588288539045507 -0.135486124317082263)
(1.29720990717701157 -0.315459324826529386 -0.263188438109955347)
(1.36528620372921372 0.103937475553047443 -0.594650736644919631)
(0.951426951769874574 1.6350932584765876 -1.6508197085025329)
(0.0301682707328247181 -0.210580737174423688 -0.00746679657629805045)
(0.0904315964339241773 -0.220887172767590512 -0.00805652795364105931)
(0.151885153444798915 -0.224977907668333282 -0.00904250366860510219)
(0.21591547133237976 -0.233912822058309738 -0.0106192342675821491)
(0.283370346796700534 -0.247537515910414008 -0.0129371681408845893)
(0.355560781638737833 -0.265174764334232704 -0.0161649468910331218)
(0.432792712102396226 -0.28684051459265042 -0.0205967401618976607)
(0.518964896834403944 -0.312850637310830626 -0.026646754950194973)
(0.610710961737770064 -0.341765985962678709 -0.0350364589831004547)
(0.71946826423336252 -0.378377297160131354 -0.0465002778832866726)
(0.834479479233038224 -0.401546348149469767 -0.0632224240084667821)
(0.962206383064105664 -0.454324708787972431 -0.0848495025936374797)
(1.12475033074190334 -0.495037896739678074 -0.128094807914418296)
(1.28112637117658301 -0.363395702312760971 -0.264454434758991774)
(1.33791830951523094 0.138415356800250577 -0.633642373283002214)
(0.914056566584850239 1.85210776401109256 -1.71440510258922596)
(0.0294848518978514731 -0.237319673834602396 -0.00722318057882087063)
(0.0881569365597389965 -0.247594242949506743 -0.00777112841299752721)
(0.147889446101428373 -0.252638338135896201 -0.00870266013478852504)
(0.210193422310663319 -0.262905878573719998 -0.0101796722711523981)
(0.275897472739407401 -0.278317128578839945 -0.0123518100822274345)
(0.346242020124715055 -0.29815002919207656 -0.0153382215286938829)
(0.421482800193516027 -0.32269943134383744 -0.0194024167194069633)
(0.505700912240529266 -0.35229653250259102 -0.0249063727580488524)
(0.595696271243667641 -0.38575805461196333 -0.0325760686370680785)
(0.702728839004529648 -0.428228422144097787 -0.0428154524047816287)
(0.818531153650430054 -0.457456868582733045 -0.0585000166767708774)
(0.948765842438464846 -0.523756674569022529 -0.0767849306075014115)
(1.11092283721407981 -0.567038128341301517 -0.117996723461113298)
(1.25596221554502518 -0.402142587601241497 -0.258188636171854724)
(1.2774609076535699 0.174541582279054475 -0.669255900589953989)
(0.862461630533704393 2.03140343933843281 -1.69774310044839361)
(0.0287208815992293851 -0.263403498805499015 -0.00695495545835834571)
(0.0855933647951234444 -0.273539818517516076 -0.0074599647997588359)
(0.143418899698641994 -0.279530254126670319 -0.0083396442648270893)
(0.203807352622569049 -0.291112265552337102 -0.0097223813614580306)
(0.267568466830794993 -0.308291457494420995 -0.0117482607306017388)
(0.335818234007263239 -0.330200591139779287 -0.0144748615546670643)
(0.408744961430648812 -0.357595672123182828 -0.0181349145807288246)
(0.490672585404756112 -0.390738994673646423 -0.0230816887028007928)
(0.578333366376844737 -0.428798278413173584 -0.0299368503074774889)
(0.683019176029311503 -0.477547663123058741 -0.0391912619667963008)
(0.799693723570082171 -0.514017886309630967 -0.0530285876758815541)
(0.930882864173609437 -0.595928223113779354 -0.0671508959762265045)
(1.09664087508773322 -0.633514124242831933 -0.105325862984903734)
(1.22898035223430524 -0.427415891952148241 -0.247360335279693144)
(1.18674926973841033 0.204779974216018068 -0.678078577268647509)
(0.798275542717253539 2.20080865889566502 -1.63602847950511432)
(0.0278493056874100919 -0.288794906498130277 -0.00665938766231954481)
(0.0826913653649611335 -0.298645643143500894 -0.00712363133608668545)
(0.138443003074874976 -0.305558495253631823 -0.00796604109489063884)
(0.19676204531901148 -0.318437505552483791 -0.0092734496347564796)
(0.258432036477050708 -0.33735955850877114 -0.0111497694459363333)
(0.324342671271187544 -0.361160734561098873 -0.0135946352110687743)
(0.394629954246161763 -0.391354487955997032 -0.0168222394515923149)
(0.473922659062771923 -0.427923757915957104 -0.0212076695068758384)
(0.558521608745356501 -0.470575881481239855 -0.0272182008498666611)
(0.660165811651383883 -0.526094475833968733 -0.0357190578253831145)
(0.777553118459457182 -0.571129991850618524 -0.0461549459297768555)
(0.905501022958784541 -0.671926825004979578 -0.0569187506677970162)
(1.0808563905283386 -0.695149511335486858 -0.0946233665837287324)
(1.19976191945875144 -0.432497702867328582 -0.23990771433695729)
(1.09386585413721305 0.214236896996513826 -0.644182007882983299)
(0.726251090078549377 2.34318302401549561 -1.5713007468383724)
(0.026815355173710545 -0.313370327551368844 -0.00635733768693226911)
(0.0793600052490817665 -0.322832583342255786 -0.00674424415147728551)
(0.132936773273683473 -0.330652329981243776 -0.00759819979965963444)
(0.189086493127553018 -0.344836353269245166 -0.00886055756748042878)
(0.248573540056568731 -0.365442240739221658 -0.0105730263319833047)
(0.311904305380689639 -0.390889302433711672 -0.0127154474190538901)
(0.379238665585848067 -0.423825482167738299 -0.0155036475002269924)
(0.45553219815987922 -0.463546218632806206 -0.019334603561244959)
(0.536147288333920891 -0.510672346347210371 -0.0245903422125357853)
(0.634092130291536882 -0.573532191006935976 -0.032232874538349908)
(0.75114846967254445 -0.62835546861157443 -0.0384175114555698333)
(0.869949928479687884 -0.748883243075883165 -0.0477684023466077717)
(1.04326329250350214 -0.753307219525189198 -0.087424209663685068)
(1.14960543413372185 -0.418048115537624165 -0.241377395541828021)
(1.0138803083578416 0.258790068478642721 -0.620955293349787496)
(0.654768097282790951 2.4819082402253958 -1.52325458810536363)
(0.0255534783379538465 -0.336747104488026194 -0.00609357476976640951)
(0.075453266517053294 -0.346022402983913568 -0.00627732248153213719)
(0.126904891679688964 -0.354847368780409456 -0.00725062078695976574)
(0.180858689481181611 -0.370389293854037738 -0.00849479154935931305)
(0.238120787814263546 -0.392518403783542025 -0.0100289221456289091)
(0.298633104124141791 -0.419320336955876838 -0.0118702461067724165)
(0.362737691097926529 -0.454886004233791719 -0.014246544480609389)
(0.43562455706952613 -0.497192670682208515 -0.0175519909018182416)
(0.511127399031699237 -0.548527384817202091 -0.0221847671834317604)
(0.605074521876701854 -0.619039718361835467 -0.0285580641596754684)
(0.719027811410679507 -0.683849579851099287 -0.0312810208756007721)
(0.817181471806631921 -0.821491412168880997 -0.0396758088421232183)
(0.985925414602438321 -0.798592130787028065 -0.0803718471151561725)
(1.0812116880151974 -0.40441151740381498 -0.234513812798143151)
(0.951607457719891081 0.320545802309954775 -0.604594000190208369)
(0.593333987912796568 2.6206106932223463 -1.48352271708382522)
(0.0240862839827547144 -0.358502990854525805 -0.00595406506950997907)
(0.0708130506260726961 -0.368065994327882562 -0.00561005322966969325)
(0.12041622879402146 -0.378142631290301623 -0.00693050767014838278)
(0.172239130947882318 -0.395110725916371197 -0.00815104317171539382)
(0.227242014534862202 -0.41848920806099843 -0.00954471822596762547)
(0.284700080271020672 -0.44628167922255807 -0.0111372607902714242)
(0.345345696276099789 -0.484301916769588836 -0.0131599472809188264)
(0.414334622561031263 -0.528381241292706916 -0.0159714090098484127)
(0.483612064288618748 -0.583727345500837269 -0.0199959282411194365)
(0.573675062185223572 -0.661365931940383844 -0.0247407846179594632)
(0.678487015285961559 -0.735289402631297828 -0.0255416261217080304)
(0.755308873821674664 -0.883964153506056838 -0.0332271975845418455)
(0.921574105927926102 -0.837296717441145311 -0.0707209230132799099)
(1.01208918867620778 -0.400735574577020526 -0.213987001713031061)
(0.8827070217706946 0.395923945221995865 -0.58888842646664763)
(0.540837503213320692 2.75736857058128937 -1.45421210327669348)
(0.0228046563742984425 -0.379211509402926861 -0.00605139628608670696)
(0.0655737966826778762 -0.388955235997462956 -0.00455183470255179478)
(0.113694838918567506 -0.400335328893054898 -0.00666090194776960184)
(0.163477691531003055 -0.418823284873079515 -0.00774713716971765082)
(0.216100673405055482 -0.443158877350802172 -0.00916920062689920851)
(0.270250930036882497 -0.471510627703726537 -0.0106179025548819566)
(0.327133812559780079 -0.5119181396417255 -0.0123540913113484255)
(0.391590141601785902 -0.557110027645013606 -0.0146725456636981437)
(0.453950177536110222 -0.616590616073339315 -0.0178551186615850607)
(0.54003775612819771 -0.700227577027303316 -0.0210614231947716529)
(0.62782717366933527 -0.782719612255497132 -0.0212654924496663567)
(0.680671923748356278 -0.939771654991921501 -0.026889355496925206)
(0.855600305550786921 -0.873147683493896043 -0.0595595672815939225)
(0.941882772030204096 -0.392210727931857406 -0.194038739728578408)
(0.80048257063316075 0.447679185077872188 -0.548790973555719264)
(0.50511514517428957 2.8555951168566498 -1.41498337268660346)
(0.0226438343473237443 -0.400979798281656585 -0.00640671877750080207)
(0.0606073583039316438 -0.409486099441302431 -0.00295169043911887741)
(0.10721053245492275 -0.42123185450469347 -0.006513341219250777)
(0.154790208156908748 -0.441848439291480655 -0.00714098260747914396)
(0.204614207679731597 -0.466359196999402259 -0.00891828797799503956)
(0.255053964803778233 -0.495494248265919479 -0.0103406875995520793)
(0.30751643119236427 -0.537835686600014462 -0.0118757918392283189)
(0.366717933570260113 -0.583757214702195104 -0.0136546368166299351)
(0.42209775838693353 -0.646797631088828484 -0.0154964097610292059)
(0.50292018576043207 -0.73620981784768591 -0.0179445246806918361)
(0.565179988565737035 -0.828964311743209947 -0.0178342503353002592)
(0.605935087769981617 -0.990375615309603829 -0.0200739140048477871)
(0.78075830473858987 -0.909065144509275114 -0.0475151544452014213)
(0.858575031690602231 -0.35684351471580078 -0.184227931695441327)
(0.697352611561833147 0.500539485939808571 -0.504664047231034973)
(0.44798730399693204 2.95192820743517803 -1.35731898272734575)
(0.0308042895704961975 -0.0133939348405774598 -0.00784624982015891259)
(0.0962505687509536134 -0.0158432159146420747 -0.00863397048399250008)
(0.166758610851773792 -0.015968072772085673 -0.00983445130904556791)
(0.24087289111167326 -0.0165004221966191245 -0.0118028630208325443)
(0.31401413265318201 -0.0171525322263701152 -0.0146878160941547424)
(0.392152173696223849 -0.018201484069756628 -0.0187809127152417585)
(0.474738409438131226 -0.0197001742375799843 -0.0245498394145892834)
(0.566844067074328328 -0.02137798919506044 -0.0325690527125306051)
(0.659364945247185474 -0.0230058663526158357 -0.0437236796709578046)
(0.768704692749831331 -0.025542614475382093 -0.059966373880607847)
(0.87033333664124457 -0.0255085965681359494 -0.0818569187851590774)
(0.970654496430135016 -0.0256348690685091057 -0.114887816735057047)
(1.07206700350841655 -0.0251596890881587848 -0.166570517771496951)
(1.14865928910663451 -0.0160663368946051474 -0.242010469781393595)
(1.09558331142824317 0.0212014523162263012 -0.391793012413663932)
(0.943837880084981706 0.118233397977662913 -0.634304080949480431)
(0.0311595059134358067 -0.0412175345826799114 -0.00788488377045170295)
(0.0965120633411771928 -0.0475556914676478065 -0.00859110695761830002)
(0.164922375254204834 -0.0471819537359415495 -0.00977283784494642482)
(0.234082327244010707 -0.0485611950873801046 -0.0117011236568088789)
(0.306040528023286962 -0.0509003975592081451 -0.0145414064765821381)
(0.382790022295979693 -0.0542899570654274827 -0.0185725906309794318)
(0.464504067006090871 -0.0585850243243221103 -0.0242241441661382104)
(0.553400900644063776 -0.0635885114316142031 -0.0320969992364026069)
(0.646274978452384463 -0.0683329381616765014 -0.0431643768484995874)
(0.749839023274891714 -0.0749723529134010691 -0.0587744816789887922)
(0.852409593413004374 -0.0768782718471635595 -0.0808099016882147803)
(0.95650605751938933 -0.0767792025553702684 -0.114550067185685847)
(1.05774357766725036 -0.0748721515727292231 -0.164105077504465041)
(1.15377138745222751 -0.0456310396572605428 -0.240321457961770735)
(1.13923694360908101 0.0569929720048298685 -0.391386790556640274)
(1.01697363432720822 0.371617588922405429 -0.801020011664560494)
(0.0315076321085773839 -0.0698755320380175932 -0.00785653396431066665)
(0.0963698451119503197 -0.0778967685493370254 -0.00856379113950413683)
(0.16367128392219224 -0.07755133094340734 -0.00972380690068302793)
(0.232508300693802239 -0.0799820794795487733 -0.0116152353142751075)
(0.304255176323355192 -0.0842788103013212969 -0.0144052714965711495)
(0.38066956011594838 -0.0900555363042630092 -0.0183626276777362624)
(0.461987520778939786 -0.0969977088526162157 -0.0239042254685225899)
(0.55077437642029492 -0.10527935895460451 -0.031598609577968978)
(0.643395113554104392 -0.113133061089494544 -0.0424359273240578552)
(0.747743694311225338 -0.123612872530717996 -0.0575056553606314996)
(0.851113474282743754 -0.128354643086139641 -0.0791457046472271997)
(0.956885688983569294 -0.129062670455741157 -0.11159001237725083)
(1.06758354536696087 -0.129874083879390506 -0.157673078755989848)
(1.17272796260237921 -0.0787841568604672332 -0.241249498060448209)
(1.15160122097297246 0.0910377787185669141 -0.395380550882929449)
(0.990695710564518772 0.660390747750699059 -0.809401101451584504)
(0.0315721067040976994 -0.0984282393890704155 -0.00778146301736264319)
(0.0957719377287515605 -0.10738351694699004 -0.00847787150641656287)
(0.161946112124072727 -0.107771071351346059 -0.00960892773916937823)
(0.230116923152446362 -0.111388039135353611 -0.0114493501757209921)
(0.301344650706900752 -0.117534590257759086 -0.0141644645591216169)
(0.377180222246237595 -0.125626446978800294 -0.018014078552200944)
(0.457855333817161259 -0.13530894154098641 -0.0233878809276452451)
(0.546307312182597316 -0.146851388461025495 -0.0308464781286399981)
(0.638380637639905268 -0.158104847673828514 -0.0412802668624714444)
(0.743699757129330563 -0.17294856916832646 -0.0557749033799372074)
(0.848266214947099861 -0.179823184610455267 -0.0765619040149853464)
(0.956495110840040574 -0.184320389228686987 -0.106760336539870687)
(1.0756522064237195 -0.19174656317205388 -0.14933038212123409)
(1.19361642803513357 -0.121579674564496504 -0.235171000743478242)
(1.1774812236135368 0.119885749334977185 -0.407794481974019574)
(0.979932455479243902 0.940501265760258942 -0.810516579024298744)
(0.0313854186912525951 -0.126860548907574089 -0.0076614495281126082)
(0.0947638441040588586 -0.136480016260944886 -0.00833896154200629638)
(0.159809807681994182 -0.137660483298177816 -0.00943440394328179908)
(0.227101669697193753 -0.142488647460993739 -0.0112106482772567247)
(0.297556543914151927 -0.150446369669510277 -0.0138289332705922637)
(0.37259569973979445 -0.16084907281368982 -0.0175400851439868333)
(0.452441355548859225 -0.173323422216023759 -0.0226970011629332134)
(0.540317674560680694 -0.188124490465133493 -0.0298680778524914765)
(0.63183761232561253 -0.203079641496728441 -0.0397430492772357855)
(0.738059068448366218 -0.222530223062120974 -0.0536320536415577295)
(0.843428248295877592 -0.231685461734903064 -0.0731444736913882398)
(0.954764072447225942 -0.243300004639155132 -0.100620901181841915)
(1.08393707858047272 -0.25727849384905449 -0.141715630722233116)
(1.21713869542604591 -0.165229603955722837 -0.232144501325359243)
(1.20167013028633729 0.156899965942816549 -0.429991813968572945)
(0.973437382247262728 1.22986877381980131 -0.834676992798232043)
(0.0310260440260495193 -0.155025189791783508 -0.00749806467970450148)
(0.0934062311868461698 -0.165005181949215124 -0.00815174559586838779)
(0.157233396795162073 -0.167077336938735221 -0.00920539141644548253)
(0.223441355092495686 -0.17319440586840204 -0.0109043296814003224)
(0.292881133637420465 -0.182946078919293903 -0.0134061084261824781)
(0.366892707129975681 -0.195647002310515877 -0.0169512327184988681)
(0.445694617319649544 -0.210943317373126937 -0.0218546695520796079)
(0.532709458473864084 -0.229070661302704259 -0.0286750292581157036)
(0.623689447120146401 -0.247992084151161224 -0.0379085293459185818)
(0.73008582051274018 -0.272264956201013875 -0.051138248748311646)
(0.836302272880328323 -0.283998472278746195 -0.0690420431015604658)
(0.950830320788547567 -0.306055467851941487 -0.0938915263281984297)
(1.09103949983974613 -0.326579962903581766 -0.134972351719705841)
(1.23338712627172553 -0.207811777036778444 -0.236906529442151431)
(1.21879480786900274 0.214624465612185567 -0.46880968818624047)
(0.956767999582076256 1.52589178827671335 -0.882019307549593345)
(0.0305302292271542389 -0.18278247237005199 -0.00729301986350930007)
(0.0917328505383406545 -0.192962947988623568 -0.00792064113844863707)
(0.154210157588107882 -0.19595080308195667 -0.0089270278730216833)
(0.219133994431531809 -0.203396613865374137 -0.0105351284715871508)
(0.287322639298237259 -0.21492313194729995 -0.0129026372931593802)
(0.360065735152365674 -0.229910011015091009 -0.0162599042848013964)
(0.437578206774119738 -0.248048765730765952 -0.020882045638804133)
(0.523459760830464416 -0.26957447310352628 -0.0272921130553598831)
(0.613618921661413186 -0.292741892544523041 -0.0358509674333029257)
(0.720005287737469191 -0.322002095359114615 -0.04830660140963592)
(0.826960901018199301 -0.336959320594315714 -0.0643705490251495899)
(0.944834662160504934 -0.372580743904069589 -0.0869338860528579838)
(1.09253007294000692 -0.400031538345707705 -0.128656050164820374)
(1.24205134347137336 -0.256687621304930058 -0.241199205638835651)
(1.22369887684553436 0.263339435995604776 -0.504674391983069293)
(0.928924883811951263 1.78907256026430606 -0.943068928362956416)
(0.029920421573299813 -0.210021518347923652 -0.00704735837510787107)
(0.0897716235868008944 -0.220299568431514381 -0.0076497543154729758)
(0.150739353563165229 -0.224189380438132912 -0.00860381480206725419)
(0.214175514976936154 -0.232992414085551547 -0.0101061004662626845)
(0.280883468251577118 -0.246272726456482183 -0.0123237314135352816)
(0.352111099298374086 -0.263531033712951834 -0.0154802169518916781)
(0.428073681635047221 -0.284507738928024612 -0.0198015917259429346)
(0.512464345038749158 -0.309516859126810373 -0.0257581255862460168)
(0.601637375832219656 -0.337161521379001294 -0.033631723492359468)
(0.707142720600573926 -0.371562404062613982 -0.0451334507054248837)
(0.8150911393094179 -0.391151831990258936 -0.0593050855641882452)
(0.936808013061546818 -0.441852870848609469 -0.0798977903614339346)
(1.08481472432221215 -0.477334406789850507 -0.120822535058207878)
(1.22890233878225397 -0.302160999845492273 -0.243115503440599318)
(1.20105298389716775 0.339091884295800117 -0.543626983734150526)
(0.891616587409510108 2.03942237055310827 -0.998904309125761558)
(0.0292036463507715088 -0.23664634961748221 -0.00676062017984297575)
(0.0875381904890129292 -0.246956355470884542 -0.00734326625599455215)
(0.146816462214552385 -0.251710275465320765 -0.00823936634519781969)
(0.208560353667089859 -0.261895932761951611 -0.00961806004639547719)
(0.273570005960066698 -0.27689940532229812 -0.0116739110650665619)
(0.343037271307578939 -0.29640568242189369 -0.0146305236117638196)
(0.417155460914839293 -0.320184280822446488 -0.0186411125207674652)
(0.499706209536631696 -0.348770245769292164 -0.024114995067168684)
(0.587540020006054209 -0.380953050154766493 -0.0312980576502660396)
(0.691214546834591048 -0.420910423503103093 -0.0416689502943621282)
(0.801217251813346687 -0.446825567326297635 -0.0540823786156765449)
(0.925540499079580137 -0.511833156081857421 -0.0729103085012983293)
(1.06525912611028017 -0.548482853864651565 -0.112530965959086834)
(1.18944855858781651 -0.344920586252511208 -0.235951302966911081)
(1.14981252632558295 0.399584625307897567 -0.561717128310518454)
(0.84483088403811879 2.27206129238799193 -1.04155639451333437)
(0.0283592938702339828 -0.262586356056876802 -0.00642754390736168836)
(0.0850225432687751748 -0.27287543173897133 -0.00700789535788432123)
(0.142419332551524919 -0.278425186582430317 -0.00783790499275202959)
(0.202281359521234938 -0.290029805696316922 -0.0090707865761709347)
(0.265401466054004109 -0.306709759519979419 -0.0109605670169013042)
(0.332864711361183396 -0.328420813464549988 -0.013738274373039875)
(0.404821844074450266 -0.354935918250278648 -0.0174334716888170926)
(0.485203204952180278 -0.387132845858200736 -0.0224142905088786579)
(0.571060429622165078 -0.423860687691410942 -0.028880244970690111)
(0.672435594405626835 -0.470202868876098079 -0.0380469489585640655)
(0.785464859539668936 -0.503346373624547261 -0.0487312960315676377)
(0.907640942230900416 -0.58197044868061254 -0.0650966085091826963)
(1.03919680478507259 -0.613920183378924178 -0.101913899360238883)
(1.13953501874656604 -0.383128667378879073 -0.221918631304018732)
(1.06237878425667076 0.452321347022539233 -0.567160242611001619)
(0.781210322262651524 2.503251426232314 -1.06898692450836674)
(0.0273318618973660797 -0.287795865265476014 -0.00604123699176755888)
(0.0821738508236114912 -0.297992559486945974 -0.00665815129711400631)
(0.137505138706870617 -0.30421896700484824 -0.00740803776598334025)
(0.195340724613319722 -0.317304687822750842 -0.00846560899139533682)
(0.25642215076596353 -0.335592563593428483 -0.0102001913782078634)
(0.321631564046875373 -0.359435887608110904 -0.012844071106429154)
(0.391119498310025626 -0.388587443411177569 -0.0162180059526323035)
(0.468972807295077621 -0.424338308770064121 -0.0207032627353663373)
(0.552022170349757757 -0.465773443979879076 -0.0264528157491070517)
(0.651201393827411823 -0.519324683403517895 -0.0344444113701684873)
(0.766259777859457203 -0.559756320368118399 -0.0430623837140305318)
(0.884546220459847321 -0.651934146571856887 -0.0576300499826410267)
(1.02137599482370445 -0.663066636455429514 -0.0930891950278526503)
(1.10602579007878066 -0.403660645646622407 -0.213593780023633606)