/*--------------------------------*- C++ -*----------------------------------*\
| =========                 |                                                 |
| \\      /  F ield         | OpenFOAM: The Open Source CFD Toolbox           |
|  \\    /   O peration     | Version:  2206                                  |
|   \\  /    A nd           | Website:  www.openfoam.com                      |
|    \\/     M anipulation  |                                                 |
\*---------------------------------------------------------------------------*/
FoamFile
{
    version     2.0;
    format      ascii;
    arch        "LSB;label=32;scalar=64";
    class       volScalarField;
    location    "0.390000000000000124";
    object      alpha.water;
}
// * * * * * * * * * * * * * * * * * * * * * * * * * * * * * * * * * * * * * //

dimensions      [0 0 0 0 0 0 0];

internalField   nonuniform List<scalar> 
7236
(
0.399914961417249915
0.536719703845244145
0.597010027483946493
0.726174997013071644
0.796329836944099867
0.814855510721189669
0.8261058233221521
0.850248736256708826
0.889635141795857676
0.918074464941018631
0.922783262656795888
0.931353295510530255
0.955928011565485569
0.944399524644340627
0.933419395529357931
0.921467581944598879
0.911889833695671226
0.888443831638134451
0.866570394567212077
0.85483198572108221
0.826667211743858377
0.801186725771817598
0.763874497675746778
0.732669291537996203
0.698970277006130569
0.658062669491841556
0.624937138664009018
0.577470334634275551
0.540435884723800664
0.509964414814902289
0.475840066579237386
0.437018415253074943
0.394553815509479933
0.359588635386169142
0.337182994795714897
0.282791751576450257
0.199975317375225725
0.195985882145773782
0.0573959691078810494
0.0148868786387245187
0.0297222810242811358
0.0463565272439042941
0.0720221390012200924
0.13103885440832394
0.198989731680978499
0.277896204596514318
0.339210980432918252
0.417235734304431227
0.508641076621168975
0.498789097444754193
0.54256656023589489
0.642878664596401861
0.617708762140154022
0.570386492298059933
0.612961431717607308
0.667408879151210721
0.539883463941421948
0.409873446090899152
0.420339488693157071
0.354544457436662686
0.290587951400269273
0.265835464838700131
0.223212034535467202
0.182900306414030989
0.164910684342710057
0.135113964251256241
0.0961406482471068025
0.075772805799409787
0.0705282067674535412
0.063087486967012496
0.0378969692192593216
0.0252165335909793689
-0.00311907805432067118
-0.000689888739137557196
0.024788232566477976
0.178312438967351272
-0.00072154183173114817
0.00291533181766129041
0.00560872287448733065
0.00791275765524857705
0.0118944911520853808
0.016072786773950104
0.0195430703952892935
0.020230985034569552
0.0200641692363987233
0.0197323431544085097
0.0184635862376717648
0.0170042859280174902
0.0162558648748528448
0.0156917733411770961
0.0143301611062250072
0.0135385898620403247
0.0126585049751743728
0.0117462356556320702
0.010668885399944112
0.00960940668728272468
0.00852952502570635158
0.00744619621927765634
0.00644775463234809748
0.00552164726078372206
0.00465889558313631845
0.00387546069211887941
0.00318562103649518234
0.00260643923507387345
0.00208549409407262926
0.00172514064054240493
0.00125261487804386525
0.000812262236378980635
0.000612279412025423515
0.000250253628029578731
8.38319664902163677e-05
0.000719535609929364489
0.00272285818325943398
0.113384369000000138
-0.000775996258378562078
-0.000693369062610097223
-0.000382514865876611382
5.72296131148186844e-05
0.00213291507454136612
0.00355562980371986782
0.00362710881983629909
0.0041070214233485192
0.0046784613544039403
0.00497760213657788553
0.00497209863048847338
0.00500803458892320856
0.00502771733597582628
0.00488951271553584362
0.00462195759694500764
0.00427665601937317601
0.00399040526308948405
0.00369990469233896172
0.0033768940481488899
0.00302450139379244545
0.0026989208812314841
0.00237698562129798124
0.0020075379195533807
0.00168180455922187959
0.00136385364463360512
0.0010781566811030787
0.000912233632161091844
0.00087894582051181063
0.000842134975233773319
0.00075814221888204135
0.00070129596217771348
0.00056867756855620837
0.000420761413448292494
0.000185175845270484454
0.000105683208989839063
0.000315840277365110925
0.000112263985040304674
0.0509708869963182987
-9.93257878913309558e-05
5.34332437536169785e-07
1.87856570330207513e-06
-0.000142879838564804806
-8.71990392511539389e-05
-4.03456586641397306e-05
0.000321440076072773717
0.000767368055240597838
0.00112227234987207609
0.00142036537716163009
0.00150774988778647765
0.00154804405738912421
0.00158952668293560473
0.00148629599867370937
0.00134910324133805082
0.0012437925495495908
0.00114986790638234001
0.00106306627978909802
0.0010027113812657452
0.000943430360698313216
0.000864744967971113609
0.000764352757613638101
0.00065110183608308456
0.000621250625440453066
0.000582825862762157212
0.000505130281146068567
0.000439951682459814087
0.000454714854059109401
0.000533215021753538502
0.000599763384166194418
0.000587519748418951051
0.000462173380700361177
0.000361033780567684352
0.00018821750611205235
5.78170269480939424e-05
0.000106939231669917042
0.000338970824742517568
0.09011684167171502
-1.89024592377028992e-08
-1.05907265306213996e-07
-2.16462155111884331e-06
-2.15393496421035879e-05
-2.08805103251655046e-05
-9.45790860017422575e-06
-2.45194018740555044e-06
4.7382381501940405e-05
0.000142509893369026976
0.000254134965119830615
0.00030507345990783409
0.000346720735063791262
0.000362087823099086859
0.000316476999697523165
0.000271805788389615816
0.000240353962059680517
0.000240000355181988265
0.000259534356592072994
0.000281070503882201173
0.000292798601781394448
0.000308010729772267952
0.000303478968255026108
0.000249555428039461723
0.000287879497338083151
0.000358053350935426764
0.000402696740580245371
0.000404396874448921702
0.000320149005650157683
0.000202867704605113588
0.000126592283326632091
6.97462694238379144e-05
4.45457992536841928e-05
2.91175800924318054e-05
3.13330757004461622e-05
3.47054909479208674e-05
5.78550983371063014e-05
0.000116720259550533607
0.078187026578139418
2.01253205113341912e-09
4.79279737061859782e-09
1.04203165618526354e-08
-7.69580277192366846e-09
-9.82098787075629752e-08
-2.8026555615455893e-07
-7.06159996264879647e-07
-1.0344461329225678e-06
2.05918795341906737e-06
1.45659876206348338e-05
2.21552686520168014e-05
2.82805082069606862e-05
3.01581331793749937e-05
3.11974475062963419e-05
3.2844955944979221e-05
3.76094148172856764e-05
5.80184043843579822e-05
8.15660826486456835e-05
0.000103226137745411503
0.000115711809203378869
0.000141285601620955799
0.000180399856087960428
0.000195755883269782332
0.000168598736201773346
0.000116466508023593888
6.59812228952845768e-05
4.60109675966811045e-05
1.84885918357415338e-05
1.21452545308040939e-05
9.88755366600024252e-06
9.17456673168186483e-06
9.0751755358563315e-06
9.35224227384549086e-06
1.26230722389223577e-05
2.36086891533710561e-05
3.42513505963417883e-05
8.07513345781983306e-05
0.0358345701554941762
1.12452651411753754e-10
2.001620555055465e-09
9.52804970271089783e-09
1.06772836615635537e-08
1.44049359570451577e-08
2.09727615354421518e-08
4.21064495244332106e-08
1.27696075975049154e-07
1.8627474359258646e-06
6.61799779291264627e-06
1.03232398501412258e-05
1.02501508556484061e-05
9.94676689158896198e-06
9.21737147031841673e-06
1.03759807779834589e-05
1.25528081605083674e-05
1.64768010496642799e-05
2.22909095011734554e-05
2.79804641616870724e-05
3.34803835619149951e-05
4.52736341925548473e-05
3.86423594415839192e-05
2.32528906574323756e-05
1.22380645718060138e-05
9.42327212080813691e-06
7.2017423757042919e-06
5.7489161332605449e-06
4.77321294347935155e-06
4.04537435147816373e-06
3.66086220705845394e-06
3.60662808242198962e-06
3.86606871966191713e-06
4.95803472015192675e-06
7.71633523247283416e-06
1.35933003581976981e-05
2.11348601805541534e-05
6.86965615285694322e-05
0.0117355114900357296
2.20253371349360438e-09
1.6607694311723706e-08
1.30566728696219862e-08
1.16225513798943398e-08
1.00359807563886345e-08
1.62650837376949603e-08
2.34165775148048685e-08
4.83140110575562712e-08
9.85110162023148315e-08
2.09381791345241019e-07
3.79979635939897396e-07
6.77079754498506398e-07
1.33668089572216387e-06
1.72084124388474148e-06
2.18192782405981572e-06
2.98384141039638664e-06
4.1858323215047491e-06
5.52042307552913859e-06
6.54626704066550975e-06
6.53709392508580056e-06
6.10047095903584186e-06
5.39747164000071323e-06
4.56582209123091999e-06
3.73160426521076265e-06
2.92202484682903843e-06
2.29283812055998925e-06
1.98743334176382673e-06
1.70461058320219853e-06
1.50172731993639794e-06
1.4296541745774313e-06
1.49932200675719619e-06
1.93762047717378188e-06
2.94474446780364749e-06
4.77255478289788746e-06
7.67443179763457569e-06
1.13413008511582918e-05
0.0005455227056255788
0.0363631314876824291
3.00489792775764355e-09
9.60063176556257471e-09
5.94796540661178064e-09
7.53691357151187209e-09
1.00515054916944176e-08
1.410268945551502e-08
2.42604888264626796e-08
5.01836639675393086e-08
5.15934170995619812e-08
5.68790773733882936e-08
9.8408708530152301e-08
2.01891523376842797e-07
2.80456752297802578e-07
3.83107742359671745e-07
5.2829154143120648e-07
7.75704625847522519e-07
1.13089496857037717e-06
1.51021649128874523e-06
1.77889646919538343e-06
1.84825566910790498e-06
1.80489304471254364e-06
1.62558637865478387e-06
9.51211409733785259e-09
9.00349032951211556e-09
4.48055750702447661e-09
1.19683062770298082e-08
2.64528593035257566e-08
2.61013107639502279e-08
1.52768831463250318e-08
1.51226498017278678e-08
2.55740506369644425e-08
2.90180069574059038e-08
3.25562659782143681e-08
4.52196788579762296e-08
6.11111511217070827e-08
8.77921502565903253e-08
1.3042001333915503e-07
2.01307796048262607e-07
2.97688959290844906e-07
4.02206009753294962e-07
4.87327825467553513e-07
5.3488274967056544e-07
5.33568306328412331e-07
4.88375567556353418e-07
6.10327069736546819e-09
1.2702808682154364e-08
1.16654586197051655e-08
1.36735648070491165e-08
2.65231516513326921e-08
2.68358934071779643e-08
1.84026779409066134e-08
1.1357332653746749e-08
1.40361848520158583e-08
1.39343604096877176e-08
1.0948420761001847e-08
1.16428464159065255e-08
1.53463292059882016e-08
2.27794932089012443e-08
3.57778434483645862e-08
5.55876301350315331e-08
8.27312128607980561e-08
1.14500909622459408e-07
1.4227824459920197e-07
1.55800041269832187e-07
1.58373599076786303e-07
1.47524372518078058e-07
1.13389548957331314e-08
1.68950586853123335e-08
1.61229018048689108e-08
1.20518419081320674e-08
2.09901417180045904e-08
2.49032404765144435e-08
1.16926796404932584e-08
7.61459906087107009e-09
7.5547063719208077e-09
6.25496021740719226e-09
4.90538151376050924e-09
4.97971414868146629e-09
5.65586762133203704e-09
7.36429690301646149e-09
1.08159568556915115e-08
1.65777094660249324e-08
2.48143027810976891e-08
3.47879833989271979e-08
4.39370097383721771e-08
4.85973696800000586e-08
4.89873835670678855e-08
4.58886442573988077e-08
3.53092861961959244e-09
3.21423451737009034e-09
2.99160037333216153e-09
2.96223875250598121e-09
3.30079701890696476e-09
4.05062799203004271e-09
5.75958435311589902e-09
8.4859579802374811e-09
1.19710427876155864e-08
1.51347649368683224e-08
2.00354968231386157e-09
2.04246576988393814e-09
2.12635582082885987e-09
2.21358071706715051e-09
2.55215571456599451e-09
3.56061330732216762e-09
4.92391906373504766e-09
5.97111857619560387e-09
1.22638114594175473e-09
1.34707038430457348e-09
1.54471291074907995e-09
1.88510552515905498e-09
0.0294099986597122394
0.0740440149685731436
0.181240000609322438
0.245465204595229664
0.370560460581122242
0.484633196246727904
0.598083499561412602
0.718132189408545729
0.746405657784550813
0.735092411274032909
0.850286956246288472
0.83200232186057399
0.812900241424652781
0.868720644353135452
0.895720437582183004
0.88038098039082302
0.84530666740065219
0.83188904036264244
0.817856546561934517
0.78594440021099754
0.76995313414034694
0.736261112858013544
0.714738078190452431
0.681675447962946102
0.6433053843603036
0.61182838728550204
0.569629193849477744
0.534033166336801868
0.499840477900995062
0.469018117747239394
0.432177450139096031
0.393465222910709345
0.36388393267230823
0.34685989508655235
0.318358706514388135
0.278707093022024621
0.206994866650620946
0.197570509697797492
1.42315629266089098e-05
-0.000398958599218574104
0.00598890220354393252
0.00801642791516658099
0.0122471713906346109
0.0164367784421091401
0.0208456693919185226
0.0248581940341312466
0.0290496198507877341
0.0324562877849540465
0.0342521448376701815
0.0413659169710292179
0.0979820643732195878
0.0868279306418780206
0.088495011016449715
0.154274418200252644
0.167060426377705157
0.140790836259826635
0.147170920428009777
0.156532629647040789
0.148308310168798974
0.122988202797331497
0.118298722861900324
0.113064418669689873
0.095584565687937495
0.0825648826522489554
0.0714759923362461025
0.0552430971218079298
0.0392912132516236301
0.0286034910086768908
0.022919624443197173
0.0175956453779273561
0.0105507340135230724
0.000568324221906104862
-0.00351673346601604278
-0.00116538201387882167
0.0184863426574811453
0.18111022555464959
3.42843713730372527e-06
-0.000257117140026649033
-0.000147176043179763152
0.000382340875400178888
0.0025622431992935752
0.00441728310690755761
0.00577827761556843657
0.00641821389868623728
0.00716763259563412292
0.00789877858453274032
0.00803413697521777014
0.00794868894821904731
0.00747657900297175968
0.00679674625819549818
0.00688603786505028251
0.00664908978229660375
0.00635891785348005958
0.00592704268384505999
0.00541543954710179895
0.00479069094159348223
0.00433301390128297808
0.00392591953162238581
0.00358078105224294251
0.0031705075419188539
0.00275851639523958967
0.00231332284472403902
0.00194980974021759755
0.00157163418571310389
0.00139898067119609846
0.00129024452802460393
0.0010341454715929576
0.00084157333132945072
0.000581717799108113164
0.000215321967101664356
7.43216461982312588e-05
0.000470841917064286327
0.00165887061538467486
0.114967724339829547
1.94428435767501942e-07
-2.33284946674856749e-07
-2.63940956468327951e-07
4.18781605729435334e-06
4.14055866955054789e-05
0.000410936708844109695
0.000569076366855630249
0.000847597072579028788
0.00125476254742214687
0.00168293306995819089
0.00189979868051399071
0.00202852935346689708
0.00216895522609164603
0.0021997948063549955
0.00207538842084251237
0.0020204566825720886
0.00192626239101944684
0.00182277043614355338
0.0016941480281496466
0.00155651953489316483
0.00141491575421662241
0.00125404610495234801
0.00111965425953029708
0.000982676506351974708
0.000914016469910927144
0.000897980089859888022
0.000852562691642785647
0.000743292081896645496
0.000710025371229658429
0.0007295130227006957
0.000841295776852464669
0.000914176569975232644
0.000883744431283510967
0.000446818041666109016
8.66767448054501111e-05
0.000214255428342990961
0.000455437473709379608
0.0391911904485180707
5.81446810462845303e-09
-2.08474612123851398e-08
-2.30004027566726522e-07
-2.18096597896169706e-06
-8.21675760007538358e-06
-1.61121158602362381e-05
7.72484359413730032e-06
0.00010225906198055125
0.000245926352690202662
0.000352476598582827894
0.000406273044565813135
0.000449909090856970783
0.000506290658132209272
0.000503899131177635521
0.000478829219370599816
0.000456274719369154579
0.000448543978190553438
0.000436931259034474258
0.000419895143103592497
0.000411294881892875224
0.00040643235789633239
0.000404165634793119928
0.000392644191356989868
0.000352904115318995802
0.000354173264330641738
0.000407083178608596045
0.000489658507521791107
0.00054835463659159262
0.000554172550382269185
0.000479320046050121871
0.00033210379083962175
0.000205624534288503151
0.000120693731167592839
7.47129563271928227e-05
4.73304290109368312e-05
9.85336901801406458e-05
0.00010844878094186989
0.0735114290021436911
4.2166043561730647e-09
7.20315405711670252e-09
1.14425209199101693e-08
1.34789854912259677e-08
8.3898886549625107e-09
3.16305478009205355e-07
2.21607831757669969e-06
6.03769919405174564e-05
7.70993539177707021e-05
7.71559239892165218e-05
7.79369763258724911e-05
7.25270196794771153e-05
7.58118731920987151e-05
7.8623841379148952e-05
0.000101365599377493414
0.000111966569899348949
0.000121132326609047728
0.000133195252894621817
0.000136947930618560459
0.000146615726810680059
0.000163111974881421403
0.000188737449350530301
0.000225999048619045478
0.000255971847002679765
0.000255667833726887933
0.000191126457890296113
0.000118008383080220038
6.6942172073873024e-05
4.55729893856956551e-05
2.27863753758900955e-05
1.72302312839319165e-05
1.51918390040694842e-05
1.43191277371735621e-05
1.66187311873091581e-05
2.71432777093864462e-05
4.81269078166667491e-05
0.000174358398531397716
0.0881522942785130659
3.74114684546598223e-09
3.9596598362053119e-09
5.43314473591855741e-09
8.39679000565923548e-09
2.2561244398226688e-08
8.12225094800709092e-08
3.38442700978875854e-07
1.24795992714645556e-06
3.92060722825821096e-06
9.1376395819095735e-06
1.34597765301317421e-05
1.72632807953528784e-05
1.97520200910250723e-05
2.10010008976366108e-05
2.21522105854151173e-05
2.35482574546001452e-05
2.60462644698995775e-05
3.00936186531157267e-05
3.40955418555677982e-05
3.72841244126088882e-05
4.54819683906735386e-05
5.67326488695382849e-05
3.93340519440955904e-05
3.29927217238737985e-05
1.90325808937067835e-05
1.3559509978377885e-05
1.09760025470924516e-05
9.073364011400452e-06
7.54883435897569551e-06
6.44524395824269457e-06
5.77063997065609161e-06
5.659207754250587e-06
6.48925649756315062e-06
9.63840478386647659e-06
1.61219079595082481e-05
7.92698152147361325e-05
0.00032720124219418669
0.0681281845951398068
8.58409609107768101e-09
1.71439409979508806e-08
1.32300748039067019e-08
4.19768343660106683e-09
1.01104512997121535e-08
2.29142306166275677e-08
8.2264316771698336e-08
2.23020424309004525e-07
6.40284006887954101e-07
1.19389112279733064e-06
1.78520910844306036e-06
2.56397667652566952e-06
3.17593452752213646e-06
3.68445768077037758e-06
4.2383143226741152e-06
4.92335958970914615e-06
5.80167210413177493e-06
6.76189504191060586e-06
7.74868451292232122e-06
8.16116532823310549e-06
8.06734816518113286e-06
7.77955784360795757e-06
7.13402790619070779e-06
6.09163533545120535e-06
5.061304974908158e-06
4.17342976925238493e-06
3.43800846323983806e-06
2.88369552696461053e-06
2.4478918153341536e-06
2.18023400880015054e-06
2.1543879637229885e-06
2.57941580764632265e-06
3.87732940388245095e-06
6.18704056959826054e-06
9.55126493355910029e-06
3.55866236973000519e-05
-6.14443786808741504e-05
0.0540090064561420946
1.6524197512059987e-08
2.17122672455571528e-08
1.90407137102252308e-08
5.51075277204310629e-09
6.72898835396452182e-09
2.12998062520967382e-08
4.05248512267726794e-08
3.89162900819432733e-08
8.91515611077631965e-08
1.65630323279649716e-07
3.05532034590961418e-07
4.93114361229785312e-07
6.27284580990434017e-07
7.83639238934648695e-07
9.5731237484182467e-07
1.16295830133760611e-06
1.44375688756483486e-06
1.79157095797553391e-06
2.12497503956383443e-06
2.32550022016952683e-06
2.40487903019350256e-06
2.3630925265748555e-06
2.18117896047301357e-06
1.86968305583038485e-06
1.56061196386027654e-06
1.30190387994267776e-06
1.09220312653709767e-06
9.36390685441946037e-07
8.33734134595208467e-07
8.1798052533486158e-07
9.92193129999061346e-07
1.54884981855316077e-06
2.52212561215643651e-06
3.88151621074935751e-06
6.15357032868609222e-06
1.02541603663313106e-05
-0.000282162410615118648
0.0356532752036256215
2.00494571876379676e-08
2.14982051138692406e-08
3.75602641001719195e-09
4.15961654645559714e-09
5.29547511199454538e-09
8.13668515010939304e-09
1.29110186879298665e-08
1.46480600239522546e-08
2.08549438376983022e-08
3.92132026989186419e-08
6.34434282778344417e-08
9.44646518812178706e-08
1.30832175545094649e-07
1.75177598348923159e-07
2.28394146169795616e-07
2.92992849438404338e-07
3.78475108287098192e-07
4.79046052718259339e-07
5.76485900631274385e-07
6.59669318897735907e-07
7.16773501928032881e-07
7.14211463326546396e-07
6.62476520516279673e-07
8.22611872026012825e-09
1.27414441809376599e-08
2.67410183806180708e-09
2.37676692990214952e-09
1.82357165250930062e-09
1.99169619371293319e-09
5.11676251811830026e-09
6.29423542032369918e-09
5.93742589042367522e-09
8.38317448553566245e-09
1.31836636056151397e-08
1.97236211473251619e-08
2.86837249241417168e-08
4.07823628769734613e-08
5.64607507496061571e-08
7.66699047163186443e-08
1.02640374966822059e-07
1.33050405469676623e-07
1.63579808652479278e-07
1.93203087285392913e-07
2.124910859261425e-07
2.14149474305630339e-07
2.33800217658582296e-09
5.94612158214473886e-09
2.69134866785771377e-09
1.91091765494411966e-09
1.83191960101216394e-09
2.15158206302758548e-09
2.62443058474950595e-09
3.07079731413596303e-09
2.83813484629419559e-09
2.93381459443425615e-09
3.64296482402922734e-09
4.97335374415162002e-09
7.00375540090589181e-09
1.02270426803665587e-08
1.48135379182047757e-08
2.10431862618652963e-08
2.90425430541094447e-08
3.8608092382803736e-08
4.83348281280701645e-08
5.70693061850386731e-08
6.33551507900512562e-08
6.44991282404927593e-08
2.88213222566067095e-09
7.15317688690707564e-09
1.60151908907351382e-09
1.74346958070022717e-09
1.35880679158373257e-09
1.22270404075719982e-09
1.6669400020486948e-09
1.69427466733725526e-09
1.64960770112328743e-09
1.7255975609235515e-09
1.66360724708366697e-09
1.84357906153279515e-09
2.30841581407953973e-09
3.14697398210716888e-09
4.55366676740471663e-09
6.49683114839392477e-09
9.03345870521482901e-09
1.20710247817620545e-08
1.51955203075905503e-08
1.76464889030889273e-08
1.95513091657433308e-08
2.01180817487289516e-08
1.12577714741377384e-09
1.12471544539160126e-09
1.12188594095574252e-09
1.13427453972817357e-09
1.38965888138261783e-09
1.90699636616480345e-09
2.63235199295459142e-09
3.53482619584039564e-09
4.56168915513711661e-09
5.57502328667213124e-09
7.4590902560180167e-10
8.20622509867161638e-10
9.64687893332277467e-10
1.17433197787799774e-09
1.45198651363677115e-09
1.83066649680512652e-09
2.24567848998575857e-09
2.61032445396148325e-09
6.09198831486058182e-10
7.5826064394988884e-10
9.74445922494259846e-10
1.22462253419996216e-09
4.07025589228048935e-05
0.00260499375288284537
0.00697249035955460096
0.0103301864980925116
0.0149542464571007002
0.059530121225346122
0.137289528759316048
0.229515487122077005
0.264298273854504273
0.293291562366978398
0.349278363947571446
0.577322721028794894
0.720522940680996093
0.68904711503709748
0.637510639697212667
0.692736052049442996
0.79052611999088207
0.78190425932157348
0.748913639404783948
0.730995079096125711
0.689124752865164614
0.677378149237624405
0.649961459679371023
0.627667089591610994
0.599511806490740762
0.56191977067772414
0.52858080339920599
0.494243177467508787
0.470778072044322093
0.434012093891770867
0.393341801083389453
0.358984103415566635
0.337402576695152057
0.312877465597904636
0.286660313363326535
0.255965435875355474
0.210214046195615539
0.193449480363102833
2.33940071582409528e-05
-5.15107968263342782e-05
-4.966924287171955e-05
0.000554707427906748541
0.00194542503859943157
0.00420245552018123046
0.00651369331924088121
0.00880675124014215251
0.0109943080060054092
0.0129874613873825623
0.0140005479853605053
0.0131342099458144727
0.0130235316565370709
0.0126666761835309734
0.0125449674448027231
0.0115427189591822167
0.0121829230448415402
0.00985882286529414335
0.00908330717103883641
0.00930300027314299484
0.0108496939165921499
0.00995980126960029598
0.0108176298541795939
0.00944084062625373532
0.00819446763425278786
0.00600304077819479882
0.00425741743819021967
0.00299401074228538254
0.00114219477546012235
-4.04560053965585462e-05
4.30815992626420487e-05
0.00114222334794290056
0.000396362106821094651
-0.00142585231909711768
-0.00222092360375387467
-0.000873676867297682987
0.0139103441905488595
0.175200478674266802
1.05186368429934892e-05
-4.59546959595173936e-07
-6.1147633159717089e-06
3.36435657302826236e-06
8.18123050253715875e-05
0.000701419056036509309
0.00133866902543720401
0.00183054110011035098
0.00237249551988021968
0.00291741887300885289
0.0032312316810727635
0.00319136137667817843
0.00276883801250499707
0.0029230747395413985
0.00295841758718085176
0.00296556674816124931
0.0028280973040160271
0.0024846466555783495
0.00202582727502807107
0.00181029230252062988
0.00172693515624639557
0.00169849058667839248
0.0015141385150056572
0.00138860294194602667
0.00120161693122386882
0.00114018242762987292
0.00108555310759085068
0.000905672881626240164
0.000728456747003612551
0.000533941335836952665
0.000486132656143845813
0.000574756352565235738
0.000523217152886146968
0.000281390096371411246
8.75239823547973835e-05
0.00024113828148112482
0.000936073032691061495
0.129660000575844425
4.22589850829219052e-06
2.5251163560526754e-08
-1.47911525537430949e-07
-8.51177798155325867e-07
-1.25752347736360262e-06
4.12186127837736992e-07
2.44313668216028243e-05
0.000136360183364588842
0.000375964166365595786
0.000590503726263987569
0.000753249572401162707
0.000862192015322397012
0.000877761970381748602
0.000877403811357195746
0.000906592095399513711
0.000897004406994846102
0.000840207968140233821
0.000821151626945056307
0.000793196253252913025
0.000730735899830401857
0.000678844259430886774
0.000685645751771650817
0.000677930839179205708
0.000658570955282691741
0.000663414108158677735
0.000676730098768532802
0.000705345878569136405
0.000812709588464254756
0.000899130533017759859
0.000998768723868195558
0.000940007988742694355
0.000801428242039553844
0.000558985197828573851
0.00028079607802622479
7.16374663934632162e-05
0.000107209430917562493
-2.90559654463396259e-05
0.0552033585932806131
7.44425065278294575e-07
1.06943510146004251e-08
1.54951786824030492e-08
3.34913664547340543e-08
1.36332769544877121e-07
1.10493869643186015e-06
5.34029650829582622e-06
7.90735752211475356e-05
0.000173863966312206967
0.000240120907394821795
0.000311439663361844619
0.000347706137470546049
0.000311026201170159469
0.000274743680416293656
0.000294192312575919878
0.000316977068152173979
0.00029348455510904163
0.000257807452806214866
0.000260403915917873101
0.000276974098513076855
0.000300576064748874655
0.000334335019173222204
0.000350220304170921514
0.000365371362759539986
0.000401158342276429784
0.000448324951645091884
0.000394915593522971137
0.000302161613563967492
0.000215425069384346784
0.000138214629393092116
9.74181077610953027e-05
7.1387652081293841e-05
3.49913184405735428e-05
2.76718260725635569e-05
4.41025666381414567e-05
6.94206320765829643e-05
9.02125753892621792e-05
0.0425780292961828316
9.22428891941310794e-08
3.33251557823549652e-09
5.05993216776254331e-09
9.12949350720683627e-09
4.55338313606755476e-08
2.4386918945692366e-07
1.05526197967971336e-06
5.15501865005710556e-06
1.27754599837468782e-05
2.08096741295949539e-05
2.81281385510620611e-05
3.46873355885469434e-05
3.92077514241856434e-05
4.2253173688347779e-05
4.48564309069062047e-05
4.85417775845357568e-05
5.57377447413865668e-05
6.19771561569965062e-05
6.189315514784547e-05
6.02786965239901785e-05
6.15905955915440451e-05
6.88882854746575529e-05
8.42006641494476911e-05
6.56780732982326673e-05
4.82335029537429478e-05
3.17213334847272224e-05
2.08857732472112738e-05
1.81987051770979665e-05
1.5787291895903566e-05
1.34678954346451651e-05
1.17908518726674475e-05
1.10994042967092329e-05
1.15565916617044957e-05
1.67531136258661864e-05
2.77393853731706002e-05
4.43856793955100409e-05
0.000982909559797804592
0.0538905174045512039
3.32578614090969862e-09
1.52455357641524583e-09
1.61108104301245062e-09
3.52956404324795669e-09
1.17642994854524125e-08
4.29190421698754376e-08
2.13173640313263189e-07
7.80182159002944643e-07
1.75316462428787389e-06
3.12222922553248935e-06
4.64693575403365032e-06
5.99026295164467849e-06
7.12289296990663806e-06
7.77784227211349513e-06
8.3295366574100401e-06
9.2789239825603904e-06
1.01079456005024985e-05
1.08989391627796747e-05
1.14534285266740881e-05
1.18642524373707982e-05
1.17922689779846556e-05
1.15770613670570331e-05
1.09898609083275465e-05
9.98391896024050864e-06
8.65773494031415969e-06
7.3822986315149768e-06
6.43803453806465715e-06
5.63036960090850993e-06
4.93696432672121371e-06
4.37448824657856599e-06
4.19993129910617171e-06
4.82437742479534465e-06
7.09908871581036338e-06
1.15867729726800078e-05
1.66035150136387608e-05
3.09171078673880654e-05
0.000959870429163892612
0.0587299530060256952
1.04876930454623311e-09
9.0063055422650001e-10
1.07509742185815643e-09
1.54930780403731225e-09
3.84254503083720037e-09
1.47033434283001364e-08
5.01387567152371599e-08
1.36500356337397766e-07
3.00989329481919129e-07
5.53702152286529606e-07
8.81263251426755136e-07
1.20758044421567289e-06
1.50668690953591834e-06
1.72985515537997136e-06
1.91127107105484412e-06
2.15367318672757605e-06
2.4510929290356802e-06
2.71672348702259623e-06
3.01909619017610617e-06
3.30746585469818269e-06
3.45846193179022168e-06
3.49645777591953699e-06
3.35017900208608013e-06
3.05614990594108657e-06
2.66873808527813846e-06
2.30714537817759271e-06
2.03665629935013239e-06
1.81404938079183721e-06
1.65949659676652383e-06
1.64087891793491844e-06
1.96421245695582972e-06
2.98122427078897274e-06
4.83796892134894487e-06
7.09411397345375402e-06
1.21268415637895116e-05
3.41818113587588417e-05
0.000916090979192982387
0.0549662296550822438
4.83979732250579418e-10
1.12846986241428288e-09
8.0516015910801664e-10
9.12335486523334909e-10
2.31113628733820202e-09
5.6807127718627591e-09
1.16305660605697783e-08
2.22591459393299164e-08
5.12894123671647307e-08
9.43244014409981122e-08
1.59163689485681775e-07
2.34022294326229535e-07
3.10455662743523644e-07
3.79829674339786012e-07
4.48058424001406873e-07
5.38848341131248233e-07
6.3928374048759468e-07
7.40034495638707725e-07
8.40112786168543057e-07
9.51380572443551923e-07
1.03590563492867507e-06
1.06196560276743039e-06
1.02681178937309149e-06
9.43560707111145477e-07
8.36814071041307558e-07
7.41697954670150042e-07
6.75447898673802456e-07
6.35972033921398323e-07
6.53542280306323668e-07
8.06204649274894732e-07
1.23647027797004374e-06
1.96894448430702055e-06
2.97769625650888793e-06
5.41269207769536474e-06
1.08916553661318292e-05
3.07093837110883753e-05
8.61906631717797116e-05