/*--------------------------------*- C++ -*----------------------------------*\
| =========                 |                                                 |
| \\      /  F ield         | OpenFOAM: The Open Source CFD Toolbox           |
|  \\    /   O peration     | Version:  2206                                  |
|   \\  /    A nd           | Website:  www.openfoam.com                      |
|    \\/     M anipulation  |                                                 |
\*---------------------------------------------------------------------------*/
FoamFile
{
    version     2.0;
    format      ascii;
    arch        "LSB;label=32;scalar=64";
    class       surfaceScalarField;
    location    "0.390000000000000124";
    object      alphaPhi0.water;
}
// * * * * * * * * * * * * * * * * * * * * * * * * * * * * * * * * * * * * * //

dimensions      [0 3 -1 0 0 0 0];

oriented        oriented;

internalField   nonuniform List<scalar> 
20390
(
6.48385913984882102e-05
-3.72456240873359005e-05
7.94173772073378396e-06
-5.22636446853053544e-05
0.000144113624148863148
-4.70524258730088172e-05
3.1721666585642522e-05
-8.31221862263981342e-05
0.000227972355350323337
-4.50361503237270655e-05
5.24925251758327991e-05
-0.000109485951967386362
0.000300214449611111724
-4.03604053585030571e-05
7.8522561580896211e-05
-0.000132739539599042793
0.000365028355272507853
-3.49398711997855969e-05
0.000102357469433261072
-0.000151392413289482691
0.000424318492526043196
-3.05206316338123778e-05
0.000124410554591532891
-0.000168291196102287883
0.000477575302065587706
-2.76581646069204896e-05
0.000146252368867485529
-0.000183091546968346103
0.000522429572428943475
-2.61934754136783596e-05
0.000163841376143558892
-0.000194850428100283677
0.000560275268644450705
-2.64585660222571846e-05
0.000177029559490909482
-0.000204004259015761076
0.000594170375371879615
-2.77815515747952885e-05
0.000190369164900950499
-0.000211197651116359713
0.000622593524737299463
-2.68311088124037669e-05
0.000200504078085961745
-0.000215863292503487201
0.000646415626280449386
-2.63626721455368055e-05
0.000208048127443838751
-0.000218450530562708917
0.000667523354834316605
-2.65116208909054729e-05
0.000214639220697051538
-0.000219532546788174076
0.000681576610488970067
-2.61750747214302957e-05
0.000216735237155705573
-0.000218891772305257048
0.000689923123101844745
-2.55856176987675964e-05
0.000215932700636578057
-0.000216833241408182794
0.000692296851134134648
-2.52711255228933379e-05
0.000212743603627397137
-0.000212330552275142388
0.000691364394782672024
-2.56607594262028602e-05
0.000208088871099882864
-0.000205526804452433307
0.000689252735718549566
-2.61735356737234622e-05
0.000203474221834519867
-0.000197620237644402226
0.000681449638740916483
-2.42384849151735407e-05
0.000195850332926096702
-0.000190972786763634358
0.000669386672109973475
-2.18236533098295823e-05
0.000187191923078946414
-0.000182808561175909576
0.000652593717640317971
-2.09663374316229557e-05
0.000177877900831006935
-0.000173009090779049923
0.000631677111485363452
-1.94879336116645213e-05
0.000167694863268600888
-0.00016281498710740103
0.000608742499004535182
-1.80716918778825348e-05
0.000157315145821484981
-0.00015231833078889717
0.000583083916360996064
-1.71276840243106265e-05
0.000146678613948637501
-0.000141592107519907646
0.000555174930146514248
-1.56117156668968248e-05
0.000136109168455790476
-0.000131197088473789761
0.000524033009267956982
-1.41464055925268915e-05
0.000125336468202606982
-0.000121242474622339859
0.000491911543982925695
-1.32170468411089308e-05
0.000114938272839324758
-0.000111033168847694851
0.000461874369225900101
-1.18409555367585894e-05
0.000105393288210206201
-0.000101320692728450542
0.000432286482552630871
-1.02869246059714993e-05
9.65338771966143291e-05
-9.28644827503114027e-05
0.000401966922996118358
-9.10013183201349046e-06
8.84390972085884262e-05
-8.54641219412708764e-05
0.000367202640334827113
-8.25876459904526929e-06
8.05138912094228217e-05
-7.77035289312211805e-05
0.000331445786912209746
-7.54096316004207686e-06
7.34454479388211255e-05
-6.9613951884634387e-05
0.000296563911792347584
-6.52469288648289116e-06
6.63362280309567166e-05
-6.19934813629689492e-05
0.000258600986693218664
-5.61889662269077774e-06
5.90261855729552775e-05
-5.48255157945679161e-05
0.000207114422973992199
-2.78160656495262944e-06
5.17015812484795422e-05
-4.79220495637373573e-05
0.000140730837637139164
8.78380360864349859e-06
4.35328324824985747e-05
-3.68585549315201611e-05
7.53808868956165178e-05
3.83546185549686581e-05
3.21167231395843889e-05
-2.94154626285264998e-05
4.85803213607840994e-05
2.0398067687535339e-05
-1.77763769644285077e-05
1.8808853046674653e-05
-1.19450861255097594e-05
-8.63866781469174059e-10
-5.37788914210521462e-05
3.83654645805368041e-05
-1.98522315182165233e-05
1.19527661147269066e-05
-5.97793560439357331e-05
4.65360766601587402e-05
-1.88471452227378007e-05
2.00995559224970031e-05
-5.6683096821918734e-05
5.62042388725879621e-05
-1.67639329110877452e-05
2.37889703666641406e-05
-6.21681036808753866e-05
6.68421021527189634e-05
-1.64297270728881475e-05
2.6906726152407379e-05
-6.6392177710614071e-05
8.10627608933035549e-05
-1.75695562631374173e-05
3.03458199710881412e-05
-7.96532239547031215e-05
0.000100865058295825446
-1.9247848695894775e-05
3.42152253514108347e-05
-9.00064194044855658e-05
0.00013144869368264669
-2.06242753118215694e-05
3.7679887616687124e-05
-0.000104995921655933545
0.00018431811079742567
-2.2769401012212069e-05
4.02802458855236803e-05
-0.000123295831287917264
0.000228198094664967989
-2.4723698862974832e-05
4.25465841730148276e-05
-0.000136791747417109634
0.00025248523607085757
-2.48488815477223017e-05
4.38316208559417115e-05
-0.000142955255834152097
0.000304854995683338098
-2.4664470367809216e-05
4.89025796976017978e-05
-0.000145480695260030317
0.000343353617064758845
-2.44290399298352521e-05
6.09803488122312578e-05
-0.000155965843669526129
0.000350479114872623786
-2.36977605226098375e-05
6.09129505137050869e-05
-0.000153630117961311351
0.000360534929345437548
-2.2465475316200647e-05
6.43958080174646195e-05
-0.000148757697693632318
0.000382185926343194535
-2.12468674954284032e-05
7.23371688522021674e-05
-0.000147124723634840766
0.000374439514844511381
-2.00435796733142231e-05
7.11682819036832382e-05
-0.000145049808985241196
0.000335604498029231876
-1.90789327929902314e-05
6.37452995094697501e-05
-0.000139462155713054729
0.000304264154715189607
-1.65530497370162995e-05
5.96071551913086433e-05
-0.000111176910689278892
0.000281832756881406923
-1.39824151356564274e-05
5.77829717253991443e-05
-9.4830750671895072e-05
0.000248442511776352068
-1.27301512249265293e-05
5.08405184207983362e-05
-9.07279479487748427e-05
0.000220431060039649783
-1.0877826979830509e-05
4.59033866639852242e-05
-7.8762521150371219e-05
0.000197017565221285914
-9.22434482242872667e-06
4.38457769648316765e-05
-6.81252708154123207e-05
0.000170094225115831549
-7.98226298230564292e-06
3.96815363614572711e-05
-6.06845041495501677e-05
0.000145519454640651393
-6.62760868169420736e-06
3.43754496307591476e-05
-5.16917565522022099e-05
0.000126017018313642618
-5.46835032365121791e-06
3.1002047529827661e-05
-4.57507089355665563e-05
0.000104789566444681703
-4.65829338645557697e-06
2.76669123669510549e-05
-4.0716203898154743e-05
8.42171783664007206e-05
-3.80493331970044928e-06
2.29481738087015125e-05
-3.32491059247987577e-05
7.02727795644969338e-05
-2.97913504191473453e-06
1.85338801164980799e-05
-2.72043279746916005e-05
6.07721836155685846e-05
-2.4401743680524552e-06
1.59178939474572206e-05
-2.41394111156680865e-05
5.08187309304693489e-05
-2.04963754414026364e-06
1.40836916107132121e-05
-2.23503009483157482e-05
3.8256166160683148e-05
-1.68006053370259361e-06
1.17065880760714576e-05
-1.77050821780238402e-05
2.94407849732229745e-05
-1.19040135452956723e-06
9.05134570268092728e-06
-1.31726750192402145e-05
2.40043382060036479e-05
-9.49886306091873096e-07
7.08757290873412017e-06
-1.09158156455727294e-05
2.54693781526125793e-05
-4.43897767488650075e-07
5.87504989475982965e-06
-8.47813842344733877e-06
3.55927026373651143e-05
1.89649681264874026e-06
8.5881381391963045e-06
-1.15941551073873759e-05
4.77977768242853754e-05
2.49208708674753676e-05
1.90201699138951495e-05
-2.00016755844463269e-05
7.13924715009000606e-05
3.11680763285918002e-05
-2.82688101467243957e-05
1.09703032871657673e-05
-7.70467915528588631e-06
-9.57791293249643408e-09
-1.50813717797832949e-05
1.54720943646746507e-05
-8.0385370731051781e-06
4.02108136926968597e-06
-2.04520751590736601e-05
1.6481701118915597e-05
-5.65798130271417839e-06
4.99776698472904583e-06
-1.97017977239872562e-05
1.97753525813149127e-05
-5.96136663832494863e-06
5.45189822853646681e-06
-2.04791604744896248e-05
2.56619513978126475e-05
-7.56835144997995083e-06
7.13381096577366471e-06
-2.31517614955818784e-05
3.32408032510649669e-05
-9.06805839401774545e-06
9.25058703901072608e-06
-2.6865826551645837e-05
4.05058854150979353e-05
-9.44382592445710951e-06
1.1148885430473538e-05
-2.98428367528592348e-05
4.67067038410841394e-05
-8.96972429995688128e-06
1.22479790462758641e-05
-3.131359482742871e-05
5.11650503577352231e-05
-8.50560797418159947e-06
1.29817792190128919e-05
-3.28446353902662051e-05
5.21898003662045164e-05
-7.96424658726994138e-06
1.30065852641281502e-05
-3.20908841058066167e-05
5.13384871237534797e-05
-7.37548810360680475e-06
1.25666590873428669e-05
-3.04134223506842265e-05
5.00497957328749045e-05
-6.74857858687460821e-06
1.19620722780789636e-05
-2.96403611860402853e-05
4.88631396937625961e-05
-6.23556601050810988e-06
1.15973935017080189e-05
-2.96548265659594807e-05
4.62922219344008665e-05
-5.8755757921272239e-06
1.10687152386615624e-05
-2.73266285504243981e-05
4.27770893505731513e-05
-5.53386499886057695e-06
1.10378168280659331e-05
-2.52812243950352958e-05
3.86476532551534871e-05
-5.03424961338536557e-06
1.10463063094722551e-05
-2.39406812860739471e-05
3.43503343668868748e-05
-4.47670119810987728e-06
1.04942510458517601e-05
-2.25735373474452861e-05
2.97052682681448245e-05
-4.09242177439257477e-06
9.76379395134491625e-06
-2.09136672917056879e-05
2.56538876050330419e-05
-3.64379346062961076e-06
9.22291116642541244e-06
-1.88058002879378072e-05
2.22785503306324876e-05
-3.12367628142227566e-06
8.65648324459425273e-06
-1.67972623420139998e-05
1.90116992112891874e-05
-2.74862285742073529e-06
7.85529909073580892e-06
-1.51669931528034272e-05
1.61828046892699348e-05
-2.39068097442543548e-06
7.00450516056488341e-06
-1.32019514207200106e-05
1.37504185574171637e-05
-2.02293146956768133e-06
6.24604293952112179e-06
-1.15016036704992888e-05
1.15722417551321065e-05
-1.71767964519472699e-06
5.44984071780711324e-06
-9.96775210529906351e-06
9.76600161258170548e-06
-1.43238429345516684e-06
4.67192885512071179e-06
-8.43473469647366122e-06
8.27398863064233425e-06
-1.16677855802883251e-06
3.96322448755021144e-06
-7.09415010195447476e-06
6.88901838565691186e-06
-9.60742206913601022e-07
3.286931566098843e-06
-5.89746320661818033e-06
5.69903125614138999e-06
-7.70010522019794192e-07
2.67640993209840018e-06
-4.79107638654372597e-06
4.77310071121943556e-06
-5.83909708023326326e-07
2.17786150921605562e-06
-3.84210088712979633e-06
3.9488712766833777e-06
-4.24492499075510258e-07
1.75720539424635971e-06
-3.10995896054527584e-06
3.18642331935270631e-06
-2.89367791971735186e-07
1.37949044944772114e-06
-2.47990298294503274e-06
2.51953000159499158e-06
-2.09079277611995745e-07
1.07370379953859427e-06
-1.91354189057024852e-06
2.04846850202545698e-06
-1.46578403864027773e-07
8.28268359500572934e-07
-1.44146969076563736e-06
1.67350494889190865e-06
-9.54924791803904457e-08
6.45260273055896425e-07
-1.13080489764246212e-06
1.60052315383006073e-06
-4.67959665382683085e-08
5.61128445922476021e-07
-8.78579667017820918e-07
4.25718080398464659e-06
3.61681419039819025e-07
1.49162863204473894e-06
-2.68039530780076019e-06
1.64616417960185353e-05
1.32709797736662514e-05
9.94435552192582982e-06
-1.07419025539265963e-05
7.4777806490575744e-05
2.91462922235080853e-05
-2.75247442934012706e-05
3.61497560147862191e-06
-1.19903659034149111e-06
-1.87162970766183113e-09
-1.00737790318083852e-05
2.57793358140609816e-06
-1.56240512132520906e-09
-2.42554623975161831e-09
-6.89215197932833986e-06
2.41115501423533367e-06
-5.92110711596656355e-09
-1.42362754230484772e-08
-5.42409784810612572e-06
4.7417719265173856e-06
-1.34488388132156029e-06
3.15222057949047832e-07
-7.34304208523073085e-06
8.02121936454494448e-06
-2.48990996740481729e-06
1.72526771575920316e-06
-1.05028590297369722e-05
1.00472903284284081e-05
-2.59898243552649444e-06
2.82887630963976998e-06
-1.16381986395648876e-05
1.0401295736082227e-05
-2.11816721465500102e-06
3.04874140025489039e-06
-1.08907381177800444e-05
1.00226890960163291e-05
-1.73122275238257407e-06
2.9963630315144955e-06
-1.00901006795288516e-05
9.20782245301000535e-06
-1.56163315838195491e-06
2.92297062515761024e-06
-9.37717227825963953e-06
8.04417718114231944e-06
-1.45430535174044256e-06
2.78954278045082598e-06
-8.51683500800280481e-06
6.71292816689027867e-06
-1.47891219229067027e-06
2.52295420092934264e-06
-7.43056305033800433e-06
5.88034720953377718e-06
-1.57396787394452699e-06
2.30363552889726155e-06
-6.96542002899127807e-06
5.49096020117814498e-06
-1.62569375267292167e-06
2.32033010762811611e-06
-6.86793207461540503e-06
5.18958429844399333e-06
-1.54347167016399581e-06
2.33932376375635945e-06
-6.66794338925329153e-06
4.7929530097805415e-06
-1.44422275690373168e-06
2.25107102812372088e-06
-6.19596344754650366e-06
4.4649703095683644e-06
-1.32086126644841567e-06
2.18588656959716881e-06
-5.76211731165130573e-06
4.252095150751496e-06
-1.24234315960092744e-06
2.11313415038560046e-06
-5.3050072991103679e-06
4.06692272415808836e-06
-1.16720104112836307e-06
2.02294320419523364e-06
-4.92989357329505323e-06
3.85467259409319821e-06
-1.05390684923990233e-06
1.96268875669004232e-06
-4.50457980120793974e-06
3.61209516340202813e-06
-9.11134104625741346e-07
1.86539858542083013e-06
-3.99159923060887354e-06
3.3113353844568002e-06
-7.83918439135380743e-07
1.70157207851899962e-06
-3.52202252351213219e-06
2.98027572798862362e-06
-6.82085188160507717e-07
1.51042986005836954e-06
-3.05295548916396867e-06
2.65591313397760091e-06
-5.74551547071520252e-07
1.32023855777270906e-06
-2.58811194354402773e-06
2.32799370148678084e-06
-4.6944767058336062e-07
1.13504418190609931e-06
-2.17800102508531735e-06
2.00816510020461534e-06
-3.70460919236609226e-07
9.69261504720228186e-07
-1.80569137028371513e-06
1.72644732746124792e-06
-2.78115560703321624e-07
8.20450105852341278e-07
-1.46839989579120832e-06
1.46178446205777875e-06
-2.0578243951834704e-07
6.76646840763698126e-07
-1.1863589851196476e-06
1.20706492080786177e-06
-1.48093980479171868e-07
5.36903889386986082e-07
-9.45677549747817634e-07
9.69676053559932467e-07
-9.22515651909941983e-08
4.30406547697181088e-07
-7.33223064555763775e-07
7.51343218739624488e-07
-4.50191004004040876e-08
3.43522764995633141e-07
-5.43875680961935266e-07
5.60681264779623625e-07
-1.44081617966716214e-08
2.51029390670115613e-07
-3.81629631407648789e-07
4.02623215557675697e-07
-6.197098309946032e-10
1.84204789487710801e-07
-2.49894767143649327e-07
2.93319831627241031e-07
-1.80873679841253713e-09
1.31330047025743697e-07
-1.58398595999601687e-07
2.40047219733947702e-07
-2.97093764475841015e-09
6.15732574496434141e-08
-9.41010074682145766e-08
2.12002582570938391e-07
5.08593168685564156e-09
3.57463505886530181e-08
-6.80288504092099333e-08
6.00532480108852616e-07
1.30925866254920476e-07
1.70211579591508409e-07
-3.59981042876550344e-07
7.66202949344086098e-06
6.81223718467578742e-06
5.21698358313973803e-06
-5.71042377726424861e-06
7.80658782088311829e-05
2.42657532157227157e-05
-2.48801385335897161e-05
-1.18864328589369193e-10
-1.8249826128640776e-10
-1.92048477908552222e-10
-1.18451252234530796e-06
-1.21830894710876262e-09
-8.28362888422957386e-10
-2.0532361565433411e-10
5.12378335672443626e-10
1.02603600378837977e-10
-6.48365872723801194e-09
-1.574321657119457e-09
6.09826187520799846e-10
5.95731260212331009e-07
-1.35531039655441195e-07
-1.0610358224653394e-08
-1.75596542290342621e-06
1.17785860278662398e-06
-1.64465924330852499e-07
4.81650407715198088e-08
-2.96201406787343334e-06
9.98005592984856827e-07
-9.85518342722724292e-08
2.26296201159228104e-07
-2.50900493663284388e-06
6.09921482717195053e-07
-1.30321381903104859e-07
2.09933337588815571e-07
-1.83354405537843922e-06
4.33024945825143591e-07
-1.97518202178764769e-07
2.29687278979676679e-07
-1.6608542081188696e-06
4.37409709936351301e-07
-2.77002362461640524e-07
2.89477589484936908e-07
-1.682076111308997e-06
5.07961833324571467e-07
-3.47691567245353342e-07
3.55468905212941321e-07
-1.66135597801801561e-06
6.04453216168564965e-07
-4.13356767957524387e-07
3.85110650415606735e-07
-1.67278884766264678e-06
7.50352740857980562e-07
-4.75913766867604658e-07
4.57532624796602178e-07
-1.81234883287846623e-06
8.90337760126862074e-07
-5.0430221207631657e-07
5.63344961058502564e-07
-1.94159771315984934e-06
9.73266420390088758e-07
-4.63742860637016839e-07
6.08378254493576969e-07
-1.86496301748311554e-06
1.01823213693090906e-06
-4.11292199223179161e-07
5.62146388027732508e-07
-1.70329628697451621e-06
1.06111205260525627e-06
-3.59509373891305635e-07
5.44301527729074455e-07
-1.5969543370280177e-06
1.08091066327594886e-06
-3.2464933839000337e-07
5.32231895432659493e-07
-1.51272047562860325e-06
1.06512412452212723e-06
-2.91016550971860457e-07
5.13044376514029818e-07
-1.41818660304854476e-06
1.0162216120060232e-06
-2.55829806071762927e-07
4.90536525788602329e-07
-1.29324060641228681e-06
9.49175185139018366e-07
-2.17315701609372747e-07
4.60119650356841873e-07
-1.1487144176162548e-06
8.68400148957507565e-07
-1.80903267816442066e-07
4.17821957445278573e-07
-1.00485596069441457e-06
7.76505882791723232e-07
-1.48145946335692734e-07
3.66033781173418833e-07
-8.61263428308417632e-07
6.84418284964719287e-07
-1.15946151436964965e-07
3.10935356703377846e-07
-7.15043204442581231e-07
5.91737496116513881e-07
-8.48814951811043525e-08
2.50973937295499214e-07
-5.86307017037441443e-07
4.92553082881218466e-07
-5.4595052600311285e-08
2.07995408753238555e-07
-4.76358205030818935e-07
4.03101782666629973e-07
-2.32623675219948415e-08
1.74548521765466473e-07
-3.67397364599823352e-07
3.3658228740046627e-07
-3.93526751304584732e-10
1.3500422356118103e-07
-2.72918672823144062e-07
2.88424109941734898e-07
-1.81677030120651408e-09
1.17640667969789168e-07
-2.08625621831283752e-07
2.35214782998873962e-07
-1.24766527029108436e-09
9.48887423324717483e-08
-1.3989781655101282e-07
1.79408578424278611e-07
9.60270861708489587e-10
7.03516233724263604e-08
-1.05711513044869646e-07
1.20238306584592619e-07
1.0701155066766721e-09
4.69843297494634947e-08
-7.30450861272826062e-08
7.74605516541982276e-08
9.65790090701811898e-10
2.75384639041030595e-08
-4.65577668034794765e-08
4.54718664734495841e-08
-3.468012431355731e-10
1.16239724367161319e-08
-3.00453434690449202e-08
3.13502099739777849e-08
1.30262775225786205e-09
4.38908508431570958e-09
-1.52768313975437675e-08
3.36703482344588669e-08
2.36756456800788266e-09
2.75420338103496634e-09
-6.35031074539125444e-09
1.45721353687805598e-07
5.2979136748489046e-08
3.20184538012031491e-08
-7.36499491427097799e-08
3.68848015155453386e-06
3.60036403334574503e-06
2.66702670298203107e-06
-3.03365538532050552e-06
6.52353989722742936e-05
2.29516936526454826e-05
-2.08309353948207116e-05
-2.78977858899972862e-10
-5.57072417753317187e-13
-9.90231158708225576e-12
1.11921137693105095e-10
-2.84513851040894873e-09
-2.41115353413975234e-12
-8.13948362413910091e-12
1.76995131864129521e-09
-2.42095613453462501e-08
-9.03015587987793457e-12
-3.94525268669702758e-11
1.53041561225863728e-08
-3.27576430170966949e-08
-7.58601918406645329e-11
-1.92131278810831557e-10
-1.22449683819599565e-07
-2.94379149795402282e-08
-5.48965613686374038e-10
-5.65243864166225782e-10
-1.67403413649039124e-07
-6.80147846608562845e-08
-1.14774267655472115e-09
-1.06353843741807412e-09
-5.91442027453794462e-08
-8.75590853059029188e-08
-3.09525604079313847e-09
-2.96371863347588746e-09
-1.05805558978108661e-07
-7.27821709817700852e-08
-1.46156770146790558e-08
9.27895112509180737e-10
-2.05231196144460082e-07
-3.59960283973375531e-08
-3.13669491837119627e-08
8.23219316179136374e-09
-3.07125167405770832e-07
2.16764082540254383e-08
-4.97204172309049684e-08
2.25035373993125226e-08
-4.0491121647640993e-07
7.55981302704785392e-08
-6.49005687329945602e-08
3.59094163503668748e-08
-4.62649414116406807e-07
1.2760699222801842e-07
-8.42135244754972273e-08
5.77230040246380193e-08
-5.23029976738716503e-07
1.71400709090036787e-07
-8.89647011851850962e-08
8.38230767385936916e-08
-5.67815336372529994e-07
1.89198522383388167e-07
-6.80458136155859549e-08
8.20615228928613443e-08
-5.14250578440940016e-07
1.94110903717365017e-07
-5.14602248832581683e-08
6.96221715729809408e-08
-4.44756639769537431e-07
1.96476337664469074e-07
-3.75427841672057775e-08
6.40419878917578266e-08
-3.95659843891900173e-07
1.94753410542881258e-07
-3.07351712661881656e-08
6.37779015409935e-08
-3.64209821097204008e-07
1.88810689893183768e-07
-2.79436373213719288e-08
6.21424679491525379e-08
-3.32316269325397202e-07
1.83694516121313325e-07
-2.58872130217605946e-08
6.07748583362415879e-08
-3.04432791539143505e-07
1.78819522455639982e-07
-2.02306525639315895e-08
6.07870111038258449e-08
-2.78540086566771343e-07
1.69932052194960057e-07
-1.18883997612032725e-08
6.04198883073756289e-08
-2.500484187781171e-07
1.51995874244718379e-07
-1.58280075283507654e-09
5.94162651877033441e-08
-2.12216982197791075e-07
1.38671182995216501e-07
-1.10867818067355818e-09
5.67192082705355802e-08
-1.57779300470179336e-07
1.35189279539344431e-07
-2.09468107706020869e-09
5.16847365125196628e-08
-1.32243897621881663e-07
1.15104659656960849e-07
-1.11850355004831615e-09
4.9412497318287356e-08
-9.77217141761358705e-08
8.75403735552041878e-08
1.78513220634594095e-09
3.81199298552452894e-08
-7.56271605482957865e-08
5.75639716747978294e-08
4.36175783742029947e-09
2.36879847953978436e-08
-5.78861831194122119e-08
3.44121685020973394e-08
1.02600362607946604e-11
1.04340121724019062e-08
-4.15956275565680856e-08
2.0783138903632813e-08
-6.50188927118009063e-10
5.0413989308578115e-09
-2.6763488430107445e-08
1.22058381522414385e-08
-3.94137321420618078e-10
2.36266614959894901e-09
-1.49129559225633895e-08
7.70211263006347693e-09
-5.2006276875021746e-11
9.29023806150193976e-10
-6.39902443237575927e-09
5.42481987846596271e-09
1.10601514031590641e-10
-2.22898104362593864e-11
-2.20020923535863346e-09
3.98391669914988106e-09
2.18401837090158845e-10
-6.55409964664145195e-10
-4.00244907374182829e-10
4.04360311796998733e-09
3.43300286191375799e-10
-9.41427709535261455e-10
3.61898151297284406e-10
3.74911527592283507e-09
2.15792267177913939e-09
-2.73118908327012206e-10
-3.08072200761367983e-10
3.80058982406435263e-08
2.5866007972087092e-08
1.15549320860795096e-08
-2.30837513435341238e-08
2.04154479184494948e-06
1.86892168306360624e-06
1.37343132238738222e-06
-1.64622765512675727e-06
5.19206778887186535e-05
2.33427910992390763e-05
-2.05890823108893655e-05
-6.73429922738041744e-13
-2.30885299508731357e-13
-1.09466941124102332e-12
1.62158608045766368e-12
-6.26203962900414388e-12
-1.27344304070998747e-12
-1.40105362541151452e-12
6.20878032305856662e-12
-3.75854701664046914e-11
-3.19900852848503518e-12
-4.35328588743032495e-12
3.05157064653096557e-11
-1.81268646774851349e-10
-4.97717135390528109e-12
-1.54238808728967047e-11
9.53497694530602387e-11
-8.03595265002656383e-10
-1.52176695235079874e-11
-3.55990319411605189e-11
1.46879097615820977e-10
-2.64037212189406988e-09
-2.86459688889253783e-11
-1.50121892744847372e-10
9.34626917478714034e-10
-8.14190340024101068e-09
-1.76372546458763108e-11
-6.69215656751535375e-10
3.31431498561721289e-09
-1.46676999972073867e-08
1.2852913087325338e-10
-1.37987767483207456e-09
-5.14002429804621875e-09
-2.10361911938562966e-08
-1.39751204075065457e-10
-1.16694834046595088e-09
-2.25154463009345703e-08
-1.57215865743862703e-08
-3.30192434235887995e-10
2.96820326915781592e-10
-5.52250762731825028e-08
-8.49934093577306508e-09
-2.83419581978851079e-10
1.06740235364315734e-09
-7.23531829302605629e-08
-1.99511348304733828e-09
-4.78180838638217847e-10
1.64798991791573571e-09
-9.08517528031532778e-08
2.01125270266892067e-09
-7.29926321921833619e-10
2.64102238643649118e-09
-9.33952720380764513e-08
2.70746830043469358e-09
-9.59707915766768619e-10
2.55656379112107606e-09
-6.8734223842381016e-08
2.617380239097415e-09
-9.93265816395437453e-10
2.57125977069855866e-09
-4.97568480683163617e-08
3.28201802478826533e-09
-1.16025630914862765e-09
2.90348723380493046e-09
-3.56625384260663321e-08
5.54927479406749755e-09
-1.28949353185669009e-09
3.58175724062978922e-09
-3.17521363391228975e-08
9.86141672033679643e-09
-1.19818623692089232e-09
4.69977387389968041e-09
-3.46638413179796269e-08
1.55484320744146569e-08
-1.0572569035074476e-09
6.14253076278861357e-09
-3.89973518470124641e-08
2.1233387539680984e-08
-9.92364137735473453e-10
7.78604044103688912e-09
-4.07617206432433662e-08
2.58740971184955469e-08
-3.98806157563453528e-10
1.04808313507645363e-08
-4.25454231688936719e-08
2.46677946393667532e-08
1.20548300085982569e-09
1.35268320181560523e-08
-4.00486077877721869e-08
1.84615587864745267e-08
1.75863393804659265e-09
7.73300390428073254e-09
-3.60706155206723295e-08
1.25861461379185875e-08
4.75272334706365889e-10
4.67294762960409902e-09
-2.99315304396311252e-08
7.41586022592669183e-09
5.77395418935405482e-10
2.61062500999187089e-09
-1.96405018382843411e-08
4.49859619170995184e-09
4.71524519359737716e-10
1.44532761199924954e-09
-9.51164593993129442e-09
3.00175555672878094e-09
3.93635468265751719e-10
5.57434694720026179e-10
-3.59945382937496446e-09
2.04918288970726368e-09
3.77337853712179379e-10
2.92847002646092233e-11
-1.385745877499404e-09
1.24329942808804003e-09
3.06532165061749036e-10
-3.1169921749624041e-10
-3.69622993422108381e-10
7.33399524205803653e-10
2.34239763685029426e-10
-5.06899303526290143e-10
2.07846787213872095e-10
4.70680422277127912e-10
1.98808741022441487e-10
-6.17530838102367082e-10
5.38588678653495662e-10
3.24083123160516059e-10
2.14674712735790312e-10
-6.85233884819905987e-10
7.19518400800986408e-10
2.34366507607893708e-10
2.23801527132762128e-10
-7.13250520693956902e-10
8.37392435351108734e-10
1.30799897776840561e-10
4.10733900369846296e-10
-7.72333257564882645e-10
9.50317711200458082e-10
9.0527820046183534e-12
1.66278802817369969e-09
-4.26957339444057268e-10
2.64719433956367684e-10
1.05595075416432318e-08
1.78862650648021437e-08
5.57936320748430355e-09
-1.02240776371925858e-08
7.21721972474628652e-07
1.30703522585913294e-06
7.58454508045559004e-07
-8.49111720592719038e-07
4.27000945140852732e-05
1.81167552746513811e-05
-1.4256908874605585e-05
-3.90983980785121862e-13
-4.04976045279853978e-13
-5.16801597015671991e-13
1.06202879786715153e-12
-7.96117437662900236e-13
-1.55268512240307529e-12
-1.91521547683020153e-12
2.65754728495728695e-12
-1.89540535847809726e-12
-2.49684789170684612e-12
-2.03127568912298868e-12
4.18146375616647433e-12
-5.87663238860267127e-12
-2.63158549386487362e-12
-1.89834098958830342e-12
5.14061801612533918e-12
-2.35804022803263433e-11
-2.29717482277216144e-12
-4.7680548977411451e-12
1.13526211193725691e-11
-8.20938553831373096e-11
-3.40386317477763928e-12
-1.55982623124007928e-11
5.20474385377957904e-11
-2.52986965870531697e-10
-3.01874884541205523e-12
-5.70424475929530886e-11
2.26185422341135001e-10
-5.95407578602950973e-10
5.7061329107822073e-12
-1.57293855854501758e-10
6.50653136741356874e-10
-1.49742367590471796e-09
4.1788108292771542e-11
-2.72838147273723688e-10
1.05533008781764639e-09
-1.76825699696542271e-09
2.11755831137204634e-10
-4.1508570550448614e-10
3.17160798149080308e-11
-2.06763709989803222e-09
1.09884939527415684e-10
-5.00309928110140041e-10
-9.74803749362287036e-11
-2.14059524783681472e-09
2.38354383665820797e-12
-5.23246535940077737e-10
-4.00830225568826537e-10
-2.12927888663059778e-09
-5.39740189967343254e-11
-4.95938699812955278e-10
-3.8101574597113011e-10
-2.08858139964383575e-09
-3.54136420261847441e-11
-4.1293202038721032e-10
-3.91179771388742412e-10
-2.10964466692966034e-09
-7.93460031179509299e-11
-3.03230507152097071e-10
-5.01223602237716457e-10
-2.21840878646646204e-09
-1.6057397989380551e-10
-1.62511312732275025e-10
-8.64358254246699627e-10
-2.3589403710681858e-09
-2.42003455722817486e-10
3.90186790116016586e-11
-1.63526015880691655e-09
-2.21763652592382171e-09
-1.5722329986254995e-10
2.6221139158954129e-10
-3.17123890982076299e-09
-1.266220271346985e-09
1.55326454502925195e-10
5.43795153015922877e-10
-5.37393284090397783e-09
-2.32185764547262809e-10
4.63051561907736562e-10
7.457170652449428e-10
-7.32465439958335004e-09
3.89631503722344076e-10
6.09778023557060069e-10
7.62596729760858719e-10
-1.03109212880372563e-08
5.01156434241407234e-10
7.14368247274795306e-10
6.29657432695376611e-10
-7.45399281590740064e-09
3.75005814941491551e-10
7.82905398935621128e-10
3.82115764776996733e-10
-3.00819603781811856e-09
1.5977763191890592e-10
7.26107752007933161e-10
8.05873438417175888e-11
-1.39277192388771911e-09
-1.86378207020323297e-11
5.22129802815259246e-10
-1.63976681036339778e-10
-4.70755313940648144e-10
-1.10245607667563884e-10
3.37144463273884758e-10
-2.73098083978983794e-10
2.20742497735292303e-11
-1.57390004887362333e-10
2.45118069372770926e-10
-3.1980339690765313e-10
2.4906286380104638e-10
-1.72008604286461232e-10
2.01293896463680394e-10
-3.34550314264703959e-10
3.65361042713152563e-10
-1.64016841430293459e-10
1.59888976218922274e-10
-3.29056997678129119e-10
4.11166166493355136e-10
-1.4496742644859423e-10
1.16511742495056744e-10
-3.24010927188708409e-10
4.2732023439255753e-10
-1.27615379813469573e-10
9.30342111687781344e-11
-3.21434692238149114e-10
4.3553035083773911e-10
-1.17202892203202664e-10
9.94921052280539572e-11
-3.25037891876385865e-10
4.61560217601343319e-10
-1.12792462590759047e-10
1.28977910883240735e-10
-3.57586271521709044e-10
5.11244648331952263e-10