/*--------------------------------*- C++ -*----------------------------------*\
| =========                 |                                                 |
| \\      /  F ield         | OpenFOAM: The Open Source CFD Toolbox           |
|  \\    /   O peration     | Version:  2206                                  |
|   \\  /    A nd           | Website:  www.openfoam.com                      |
|    \\/     M anipulation  |                                                 |
\*---------------------------------------------------------------------------*/
FoamFile
{
    version     2.0;
    format      ascii;
    arch        "LSB;label=32;scalar=64";
    class       volVectorField;
    location    "0.390000000000000124";
    object      faceForces;
}
// * * * * * * * * * * * * * * * * * * * * * * * * * * * * * * * * * * * * * //

dimensions      [1 1 -2 0 0 0 0];

internalField   uniform (0 0 0);

boundaryField
{
    inlet
    {
        type            calculated;
        value           nonuniform List<vector> 0();
    }
    outlet
    {
        type            calculated;
        value           uniform (0 0 0);
    }
    top
    {
        type            calculated;
        value           nonuniform List<vector> 0();
    }
    bottom
    {
        type            calculated;
        value           uniform (0 0 0);
    }
    left
    {
        type            calculated;
        value           uniform (0 0 0);
    }
    symmetry
    {
        type            symmetryPlane;
    }
    interface
    {
        type            calculated;
        value           nonuniform List<vector> 
104
(
(-0.00226759994828261554 2.35022361079791377e-06 -1.14240118422333182e-07)
(4.58073028224827779e-05 -1.43260128499882041e-07 2.54772665410734558e-08)
(1.29520588730657169e-06 -1.1825898993349455e-08 4.88262047645420005e-10)
(2.70083103249513739e-05 -1.16211014979566385e-08 1.75986131575540235e-09)
(-2.51456696652653661e-05 -1.69838359829631258e-08 -1.00084902683143091e-08)
(-7.52915808106746081e-06 -1.59554159377591044e-09 -1.49756933318911158e-08)
(1.88386121049824619e-05 -3.61540782072497959e-10 -1.62627857615014453e-08)
(5.45177656134484935e-05 -5.48972589169183387e-10 -1.58315556349299345e-08)
(8.71517353230850613e-05 -1.21322014914006895e-09 -1.40398290324825112e-08)
(0.000122555306324771533 -9.43128227442329839e-10 -1.36505626657561509e-08)
(0.000156320309099387925 -8.16879167779011783e-10 -1.39399387297886248e-08)
(0.000186989335925949988 -7.7848390182823013e-10 -1.31853967448049651e-08)
(0.00021650543176964402 -7.50672852943411505e-10 -1.29469935804753509e-08)
(-0.000387822377919138218 -6.97081972595184852e-08 1.24851215306193566e-07)
(-0.00014767097857644118 7.27648680910195299e-10 -1.60306623691141393e-08)
(-0.000119013214077609366 -1.13283884310542998e-09 -2.65208627617207107e-08)
(-0.000103344179756801761 -1.00098248084779631e-09 -2.39330635552999873e-08)
(-6.28729963098564513e-05 5.91383364016795205e-12 -1.29777879252935179e-08)
(-2.7695906357999539e-05 -1.76100554984154914e-09 -9.60939516330465218e-09)
(6.29289572793397727e-06 -1.50463750572698075e-09 -9.68905281616559425e-09)
(3.95734201773840314e-05 -1.03863242600336916e-09 -9.82210974994650585e-09)
(7.16984190290910516e-05 -7.38990245064425277e-10 -9.61810450774014312e-09)
(0.000103666631161940752 -4.68346934548298521e-10 -9.36140718575049478e-09)
(0.000135159919951390603 -2.31027299165016122e-10 -9.03371703235758914e-09)
(0.00016559911810604095 2.3494148242089512e-10 -8.71605472874907677e-09)
(0.000195263293394841263 5.52068708501649774e-10 -8.2883433674521566e-09)
(-0.000214065060190575063 -1.94885382851945821e-09 1.5664582205546442e-08)
(-0.000138337184949324343 5.94863810855502662e-09 -7.93156361330160457e-09)
(-0.000114904681355529773 1.64973251372543026e-09 -8.59336556232531486e-09)
(-9.27301177019601184e-05 -2.4930098262062655e-10 -7.7444425011701828e-09)
(-6.51954073065881849e-05 -9.73693220664792907e-10 -9.70236798008624347e-09)
(-3.44497721720597475e-05 -5.3262077489065893e-10 -9.83571791483058136e-09)
(-2.65301217902917782e-06 -3.27804916813187575e-10 -9.31762761257848711e-09)
(2.94416058589149186e-05 -1.79198591700108745e-10 -9.00153141334018128e-09)
(6.14079561276620735e-05 -8.89163329644188142e-12 -8.60006411006546109e-09)
(9.30729324978901224e-05 2.33096280004824918e-10 -8.19264710090843388e-09)
(0.000124313690720841282 5.05133620051807447e-10 -7.80274634710562539e-09)
(0.000154864616489649477 1.00626949747429181e-09 -7.40379403168692122e-09)
(0.000184764257334097412 1.27001017990234018e-09 -6.99532533425045409e-09)
(-0.000280801505223099586 -3.67290156898946092e-09 1.4807045674008916e-08)
(-0.000181562036724751245 8.68876776364922176e-09 -2.99574479656190704e-09)
(-0.000137591561979009746 3.02690206566995297e-09 -9.10217322107008187e-09)
(-0.000109045468808829875 1.42465466634083375e-09 -8.94592889032277431e-09)
(-7.73870920271062549e-05 6.53284376234177453e-10 -7.87597920477088545e-09)
(-4.4248190704840639e-05 3.82441425822991681e-10 -6.86927167935943737e-09)
(-1.11918552876277307e-05 3.66946342584164027e-10 -6.40205614111844402e-09)
(2.17420280127987113e-05 4.71205243727422935e-10 -6.06854999955379737e-09)
(5.43557272085825401e-05 6.36314663462618291e-10 -5.78158562375594428e-09)
(8.6527239834659355e-05 8.79385135280440739e-10 -5.50878859198207083e-09)
(0.000118179359081776352 1.142999427050196e-09 -5.24191046674665643e-09)
(0.000149118851645870123 1.62569756789355832e-09 -4.98069311650910295e-09)
(0.000179415711959681384 1.89305059387788489e-09 -4.72117147594195047e-09)
(-0.000286632758924650652 -6.36341751913991647e-10 1.18285190929449841e-09)
(-0.000221984344581694308 6.63349064340092493e-09 -4.1960366227942994e-09)
(-0.000166483799959952702 4.25079303774665481e-09 -6.28932256087490829e-09)
(-0.000126036388935720216 2.3604124603076987e-09 -6.10177129480903273e-09)
(-8.99392845082736642e-05 1.37364058394487203e-09 -5.94703494232045583e-09)
(-5.44260231618619517e-05 1.09214775347096514e-09 -5.78434035257412652e-09)
(-1.96689972299678995e-05 1.05314587477225356e-09 -5.49622096732973344e-09)
(1.43990439278949237e-05 1.10023497344820645e-09 -5.18348352801605505e-09)
(4.79068656352682709e-05 1.22302532994240956e-09 -4.87913140507993029e-09)
(8.08068317819524769e-05 1.43138492776346794e-09 -4.58983139847772472e-09)
(0.00011304223513860739 1.67447024924146523e-09 -4.31828760808273915e-09)
(0.000144459357490002167 2.13622237394201968e-09 -4.06391035265309371e-09)
(0.000175146697262748319 2.39944170061373933e-09 -3.82485227208939129e-09)
(-0.000275848076333841082 6.43631101716739141e-10 -1.12603643345305119e-09)
(-0.000229328852274405642 3.19891178446762538e-09 -3.16422958529011463e-09)
(-0.000181670572644180135 3.58364766934152855e-09 -4.38193773863826811e-09)
(-0.000139316423405796351 2.62947487832364016e-09 -4.51524711034705546e-09)
(-0.000100357639623277156 1.9878212915438706e-09 -4.25327408033535734e-09)
(-6.29364019973444516e-05 1.70844815025754667e-09 -3.95020498952918282e-09)
(-2.66795787843277531e-05 1.61096673845558475e-09 -3.69140683881584562e-09)
(8.58782602119240228e-06 1.615960933530488e-09 -3.46096059452972205e-09)
(4.30090086269110694e-05 1.70267115817331397e-09 -3.2497908554120079e-09)
(7.66216989532828219e-05 1.87995517278559976e-09 -3.05441387318355066e-09)
(0.000109417272945523523 2.0994106837652997e-09 -2.87402948949274292e-09)
(0.000141286340560805646 2.52754798237613434e-09 -2.70617190099517041e-09)
(0.000172316332530318217 2.78343437874535627e-09 -2.5516804584235108e-09)
(-0.000274234549129729525 -1.07360609038767239e-09 -1.12706143715728943e-09)
(-0.000232308751787231073 2.06049370426353923e-09 -2.14778266753746626e-09)
(-0.000189079991785426555 2.75316173656451122e-09 -2.58305069273383281e-09)
(-0.000147441629139330205 2.52780760570457359e-09 -2.66609322564071718e-09)
(-0.00010776776025997974 2.22245355978445291e-09 -2.5734773117527588e-09)
(-6.95096364990078797e-05 2.05727900331020542e-09 -2.44075466517406555e-09)
(-3.23849629914425087e-05 1.98934864907012362e-09 -2.2969301237003002e-09)
(3.72512435561571679e-06 1.99334085338294653e-09 -2.15073022479565635e-09)
(3.88857456475305818e-05 2.06399001929328223e-09 -2.0103655870182103e-09)
(7.31168751636767262e-05 2.21768911064920235e-09 -1.8795558647212982e-09)
(0.000106415264613181766 2.41522653921200545e-09 -1.75989666913206166e-09)
(0.000138698759586834843 2.81243305273495825e-09 -1.65006905585439454e-09)
(0.000170033468732960286 3.06165947447171551e-09 -1.55133584095715821e-09)
(-0.000276659536148967245 -9.97133985665787663e-10 -5.24462055126338728e-10)
(-0.000236120215555860659 1.45221401898035577e-09 -8.1720564095040822e-10)
(-0.000194204834087117936 2.40626420283095163e-09 -9.29866710499958345e-10)
(-0.000152640093240564496 2.52141880562316118e-09 -9.33943547399204027e-10)
(-0.000112357027277940698 2.39484533909545709e-09 -8.89813600950655063e-10)
(-7.33940018196708067e-05 2.28120665602906098e-09 -8.33825037192529805e-10)
(-3.56275853753354403e-05 2.22074895330086163e-09 -7.76973456549562551e-10)
(1.03281321898665656e-06 2.21603050366471783e-09 -7.22564777196006749e-10)
(3.66497018307650004e-05 2.2706790117736053e-09 -6.7216325637981461e-10)
(7.12528279593657016e-05 2.40433283633242545e-09 -6.26141393495201489e-10)
(0.000104847822347725961 2.58670855632572767e-09 -5.84726314513184078e-10)
(0.000137374935793230343 2.95849485046332462e-09 -5.47276711830623097e-10)
(0.000168884737700641355 3.2040680166123169e-09 -5.14134810658815014e-10)
)
;
    }
    procBoundary3to0
    {
        type            processor;
        value           uniform (0 0 0);
    }
    procBoundary3to1
    {
        type            processor;
        value           uniform (0 0 0);
    }
    procBoundary3to2
    {
        type            processor;
        value           uniform (0 0 0);
    }
}


// ************************************************************************* //
