/*--------------------------------*- C++ -*----------------------------------*\
| =========                 |                                                 |
| \\      /  F ield         | OpenFOAM: The Open Source CFD Toolbox           |
|  \\    /   O peration     | Version:  2206                                  |
|   \\  /    A nd           | Website:  www.openfoam.com                      |
|    \\/     M anipulation  |                                                 |
\*---------------------------------------------------------------------------*/
FoamFile
{
    version     2.0;
    format      ascii;
    arch        "LSB;label=32;scalar=64";
    class       volVectorField;
    location    "0.0599999999999999978";
    object      faceTraction;
}
// * * * * * * * * * * * * * * * * * * * * * * * * * * * * * * * * * * * * * //

dimensions      [1 -1 -2 0 0 0 0];

internalField   uniform (0 0 0);

boundaryField
{
    inlet
    {
        type            calculated;
        value           nonuniform List<vector> 0();
    }
    outlet
    {
        type            calculated;
        value           uniform (0 0 0);
    }
    top
    {
        type            calculated;
        value           nonuniform List<vector> 0();
    }
    bottom
    {
        type            calculated;
        value           uniform (0 0 0);
    }
    left
    {
        type            calculated;
        value           uniform (0 0 0);
    }
    symmetry
    {
        type            symmetryPlane;
    }
    interface
    {
        type            calculated;
        value           nonuniform List<vector> 
104
(
(-2.26858212027688744 1.08098176228318228e-05 1.07791554455391476e-05)
(-2.15463407360192027 -2.69271203683143749e-06 1.68973693733442562e-05)
(-2.03073860322132393 4.43162039208948566e-07 1.56063100553496668e-05)
(-1.90148598104370636 1.53570817050168974e-06 1.44193783134008058e-05)
(-1.77144165915577578 1.71960942933984552e-06 1.44051174212784535e-05)
(-1.63540504149866983 2.45182323905364566e-06 1.49550860898937604e-05)
(-1.49344339693228467 3.66827039983152799e-06 1.61445447510936704e-05)
(-1.34806341283310216 4.62149899012184703e-06 1.68717986885128432e-05)
(-1.19891014632012816 5.66179950969243796e-06 1.70549194447545105e-05)
(-1.04529726418665803 6.65484030350009883e-06 1.68470754395117608e-05)
(-0.887647488432771192 7.42619515114281487e-06 1.6391497707258727e-05)
(-0.727101517880134551 8.12788701065420572e-06 1.56484071330892319e-05)
(-0.56468105707385241 8.48474957890274094e-06 1.46604436976830498e-05)
(-2.14776591760026303 -1.37365203638926284e-08 1.38166891793108755e-05)
(-2.0236099482523886 3.40423896490441048e-07 1.39981608669837544e-05)
(-1.8949711395976474 1.17348223990715928e-06 1.47535151511519957e-05)
(-1.7611194774497545 2.03714907474097625e-06 1.54111323737117729e-05)
(-1.62287449822779073 2.61668890517275254e-06 1.56480351500232559e-05)
(-1.48100065176441076 3.09974696501559234e-06 1.5858596878004873e-05)
(-1.33633788348928539 3.7773382733690269e-06 1.56975472206877076e-05)
(-1.18916348891206902 4.53014004398571144e-06 1.5476319077199428e-05)
(-1.0394237279912304 5.26459056421330284e-06 1.51413107169385249e-05)
(-0.887158311273258726 5.92796629004918397e-06 1.4650290532868219e-05)
(-0.732804713028226251 6.45231014823398354e-06 1.40273777849987184e-05)
(-0.577114956912005428 6.81209023877276756e-06 1.32730452610665128e-05)
(-0.421118089700946385 6.92352943619213791e-06 1.25784872409858466e-05)
(-2.01285397180562953 5.89288255223645895e-07 1.19477503608959285e-05)
(-1.88644849999823938 1.09950445399525098e-06 1.22976955662914007e-05)
(-1.75690611591176205 1.79091991922330374e-06 1.23396306796329602e-05)
(-1.62350793501828372 2.59319980185750315e-06 1.23128166860722814e-05)
(-1.48631722284669321 3.1455992105077216e-06 1.22446570193723251e-05)
(-1.34565829464570363 3.67419628925575641e-06 1.21572599897965532e-05)
(-1.20185119391915363 4.23009841508623243e-06 1.20995868464290485e-05)
(-1.05538254710171264 4.76870289841982077e-06 1.20229174702666271e-05)
(-0.906732109262675001 5.26036560581678468e-06 1.18952922579790537e-05)
(-0.756302901793902027 5.67577238037397363e-06 1.169821499175262e-05)
(-0.604563757739473684 5.9726702865012381e-06 1.14398008407561317e-05)
(-0.452162063515085755 6.11211785901479257e-06 1.11318247356355207e-05)
(-0.300075094309293799 6.06222348092287861e-06 1.07891986738585464e-05)
(-1.88727881770179917 9.03969225148909142e-07 1.05244658468737727e-05)
(-1.76126164340231228 1.08663852768056725e-06 1.05867975086593312e-05)
(-1.63199992187202758 1.70844640780805473e-06 1.05038020311765399e-05)
(-1.49952699378887289 2.34690919456507816e-06 1.03304355100299922e-05)
(-1.36390847441913565 2.92239608796444363e-06 1.01525293965454885e-05)
(-1.22520233008661372 3.46637005430664961e-06 1.00385348494652636e-05)
(-1.08367939692545989 3.98826930343445053e-06 9.91995418373197731e-06)
(-0.939660469694063694 4.47237503099011206e-06 9.7817944979117606e-06)
(-0.793490720751744982 4.90308097031802012e-06 9.62851561601102341e-06)
(-0.645531200247046355 5.25917287561870288e-06 9.4651600927604036e-06)
(-0.496216975143642214 5.51850094422136847e-06 9.30065538888581362e-06)
(-0.346119258395930607 5.64291002016435418e-06 9.15056270429796282e-06)
(-0.196014162546145093 5.55507326047649961e-06 9.02499249524884682e-06)
(-1.79324826174105834 9.41030529789764695e-07 7.90889161259673329e-06)
(-1.66753892797802283 9.29534044517068078e-07 7.94522527275835278e-06)
(-1.5387271401675926 1.53348897592826567e-06 7.88344502532062139e-06)
(-1.4068866988002926 2.12467470876282211e-06 7.81022079149721673e-06)
(-1.27214288480329119 2.67838227039334125e-06 7.7074019756417657e-06)
(-1.13464415890908477 3.20929677769804957e-06 7.60008927702177917e-06)
(-0.994518955581799591 3.71153258661222588e-06 7.48756412685597316e-06)
(-0.851919381170434753 4.1836548566885463e-06 7.37544629610652705e-06)
(-0.707050737191377232 4.61736381096000327e-06 7.27111197263641943e-06)
(-0.560147337552375668 5.00183355569626021e-06 7.18486516938611974e-06)
(-0.411492671073290461 5.32408719071669564e-06 7.12704132697402171e-06)
(-0.261459840800308929 5.54933803951748375e-06 7.11412034567236522e-06)
(-0.110843605216566776 5.72493893260916175e-06 7.18757917573067176e-06)
(-1.72604053423871684 8.75472703572158052e-07 5.40683279434462108e-06)
(-1.60051159758477679 8.55349350470087686e-07 5.44987754338707677e-06)
(-1.47206125779934838 1.4235299482163642e-06 5.39822326320968517e-06)
(-1.3407398886635189 1.98484731992216207e-06 5.34528585328228275e-06)
(-1.20661250718654456 2.52527121222268449e-06 5.28554103162171363e-06)
(-1.06976903114437505 3.04789252813259885e-06 5.22332140677097232e-06)
(-0.930300882634469195 3.5530619116178321e-06 5.16104844909996439e-06)
(-0.788305895153724512 4.04116368656885392e-06 5.10275957803530962e-06)
(-0.64389084861965229 4.51214246446121987e-06 5.05539765043172895e-06)
(-0.49714966927026083 4.95318064880970798e-06 5.02405069159356242e-06)
(-0.348258645398615951 5.39161701527009061e-06 5.02284228811286173e-06)
(-0.197580891109808726 5.82885630648295776e-06 5.06360495685426055e-06)
(-0.0457576364649307579 6.24528311058153479e-06 5.15740293270317626e-06)
(-1.68219203929410166 8.13654685938004482e-07 3.15369755105566159e-06)
(-1.55675821676873438 8.19051459922618161e-07 3.17813638057510652e-06)
(-1.42850325738537798 1.36537182888917576e-06 3.15190703792508688e-06)
(-1.29747329098802311 1.90551907661582934e-06 3.12637686946073181e-06)
(-1.16371069779416647 2.43591454751516097e-06 3.09697611136535158e-06)
(-1.02726772454727322 2.9558621831135889e-06 3.06532862927694006e-06)
(-0.888196231227375899 3.46591536639966464e-06 3.03359085001358906e-06)
(-0.746547234861103304 3.96842181141956635e-06 3.00411593030704536e-06)
(-0.602356543085951102 4.45356158641780938e-06 2.97779306574213748e-06)
(-0.455748084419473232 4.95302893028886149e-06 2.95376875117769209e-06)
(-0.306965904909200282 5.46861773872556526e-06 2.92169771544941005e-06)
(-0.156236765376189995 5.98421967185948615e-06 2.88036445309124673e-06)
(-0.0040002131342333205 6.45008428412958973e-06 2.75827743995427486e-06)
(-1.66053870298477046 7.84232197008090916e-07 1.04167209205834183e-06)
(-1.53515226740158983 7.97709547812211964e-07 1.04873665014482101e-06)
(-1.40699966816283428 1.33106393863846686e-06 1.04146139399595821e-06)
(-1.27611910751273538 1.8616672876126436e-06 1.034040825038325e-06)
(-1.14254261034319926 2.38428272778615659e-06 1.02525036214838735e-06)
(-1.00630706245856061 2.89943500362566317e-06 1.01552738315898001e-06)
(-0.867450841925537675 3.4060788029035066e-06 1.00540912190002194e-06)
(-0.726008225696103571 3.89871684788873011e-06 9.95455905912182132e-07)
(-0.582070832149855666 4.37942857281670476e-06 9.83926339247449616e-07)
(-0.435906203150240756 4.84964085825310265e-06 9.66247537565888444e-07)
(-0.287963279712907583 5.29769381673941119e-06 9.34411890539757704e-07)
(-0.138716685128257244 5.596796779463215e-06 8.80199077028897052e-07)
(0.0107061599857684493 5.45550432579308206e-06 7.49193304262338195e-07)
)
;
    }
    procBoundary3to0
    {
        type            processor;
        value           uniform (0 0 0);
    }
    procBoundary3to1
    {
        type            processor;
        value           uniform (0 0 0);
    }
    procBoundary3to2
    {
        type            processor;
        value           uniform (0 0 0);
    }
}


// ************************************************************************* //
