/*--------------------------------*- C++ -*----------------------------------*\
| =========                 |                                                 |
| \\      /  F ield         | OpenFOAM: The Open Source CFD Toolbox           |
|  \\    /   O peration     | Version:  2206                                  |
|   \\  /    A nd           | Website:  www.openfoam.com                      |
|    \\/     M anipulation  |                                                 |
\*---------------------------------------------------------------------------*/
FoamFile
{
    version     2.0;
    format      ascii;
    arch        "LSB;label=32;scalar=64";
    class       volScalarField;
    location    "0.0599999999999999978";
    object      p_rgh;
}
// * * * * * * * * * * * * * * * * * * * * * * * * * * * * * * * * * * * * * //

dimensions      [1 -1 -2 0 0 0 0];

internalField   nonuniform List<scalar> 
7236
(
0.569820906813339967
0.754954119753884711
0.996791601869364774
1.25387581998234543
1.48843185782872012
1.67580821180649764
1.77539457774054621
1.7781934229755374
1.71317438096199992
1.62156884316184047
1.52781726981859878
1.44175278509410099
1.3646493668489148
1.29438249906471015
1.22994068508257226
1.17077391626372473
1.11641045094731117
1.06644548295646557
1.0205246395712384
0.978332662755317273
0.939593224448526332
0.904059199944653225
0.871505883558820749
0.841735516810394269
0.81457755759017314
0.789881578508388804
0.767514728149030656
0.747362923593132167
0.729326701341223016
0.713315477948816445
0.699249061659277582
0.687062668588419578
0.676706600756224019
0.668141175573132351
0.661333046872004893
0.656254545623049634
0.65288308151631913
0.651202072993235515
0.626565247182734653
0.767195501244741895
0.960656064861303949
1.17800087894210725
1.3793723752088678
1.55182319812839298
1.68366385101019223
1.72862034110929064
1.69391681033641017
1.6113318395113474
1.5206805455533392
1.43658562188269801
1.3606810537939078
1.29128512071331158
1.22750047708339682
1.16879751702345058
1.11476892078818102
1.06505351665721193
1.01932076526003179
0.977273913263552396
0.938650232407447382
0.903209201461617428
0.870730682481978491
0.841022134971295632
0.813916199843992216
0.789263373056585338
0.766932403448780553
0.746811560268860641
0.728802184236236217
0.712813161836595599
0.698764555769930129
0.686592849033479946
0.676249231994988098
0.667694105897107093
0.660894037101239284
0.655821401837597961
0.652454003372514468
0.650775315394173437
0.663801078432155967
0.797364664255816979
0.971066574919622338
1.15814417725755336
1.34223786435053483
1.4977643727605181
1.57789845074110646
1.62181053599709335
1.61844908086726291
1.57089842510229172
1.49920106715270673
1.423587985208566
1.35183632026440681
1.28482997317808589
1.22252560382242126
1.16480539419471252
1.11146623941254674
1.06225377176107494
1.0168994329987624
0.97514570296213976
0.936753629946606825
0.901497915110875736
0.869170321812798186
0.839586793793939412
0.812584752868200866
0.788018413984971744
0.765760451195037328
0.745701843060879277
0.727745007304158587
0.711799841041615089
0.697788068838689268
0.685647529436721692
0.675329882325414466
0.666795639106017579
0.660011590276211924
0.654950318189520764
0.651590105805076591
0.649914983642792099
0.706049454802562426
0.842833914703074893
1.00711858116086717
1.16826591644678413
1.32997732645408862
1.44748024233701544
1.5230849748940829
1.56184894013713049
1.56243501331964207
1.52872292417697353
1.47194482048557296
1.40593772094146141
1.33943688971660513
1.27555853490529025
1.2152778408211371
1.15894010113511681
1.10658616249704145
1.05810034800560571
1.01329755521768927
0.97197293980979016
0.93392091920900433
0.898938802701385709
0.866834969184589021
0.83743666830203134
0.810588704374160862
0.786151413425181245
0.764002661837607677
0.744036730215844933
0.726158012968661115
0.710278506417587718
0.696322224953921931
0.684228544062231769
0.67394975768952492
0.665446722547764713
0.658686632800441152
0.653642509047789533
0.650293317668091841
0.648624200687973551
0.749886151564879144
0.888319433283671578
1.04076058335291743
1.1834244240843943
1.31292767416539191
1.41925484765206855
1.48885291583216506
1.52289143169058794
1.52259783453128628
1.4935245871447449
1.44461793082082823
1.38584504751208981
1.32441192219516557
1.26393401356441837
1.20600847559008306
1.15134723842271791
1.1002190524378388
1.05265232422697497
1.0085549670706544
0.967783498642201478
0.930172605087114079
0.895547310113606776
0.863736236683477987
0.834580730575862462
0.807935416011918983
0.783668543331518808
0.761664135916801821
0.741820605022024626
0.724045260093675092
0.708252937460550736
0.694370359047965624
0.682338761453596621
0.672111401359173355
0.663649675478051093
0.656921280589951251
0.651899899163005836
0.648565465071671121
0.646904283261141688
0.786551657819601346
0.925123134010519155
1.06710964418358545
1.19749997268909825
1.31182172060701618
1.401092295849238
1.46008368740894778
1.48759550120748485
1.48616717324874181
1.46044508281683849
1.41723534246882643
1.36422860534466373
1.30741956719748664
1.25037605632968218
1.19497745961602742
1.1421902019348944
1.09247064267986782
1.04598011002661884
1.0027201765243392
0.962612066153250789
0.925534109769682978
0.891342311147486965
0.859888444259011342
0.831030189273336384
0.804633879612047243
0.780577038716914418
0.758750748009743958
0.739058502907048553
0.721411278440370896
0.705727191292853107
0.691936029986508272
0.679981341111198567
0.669817706938868995
0.661407167174331678
0.654717987894417597
0.649724788746589677
0.646408732864065527
0.644757075974259575
0.82078320348187217
0.955305209930948696
1.08941794435745321
1.20846244094575117
1.30852563528853283
1.38446294239805878
1.43332090677355573
1.45514900628040778
1.45232584444697022
1.42880687100286119
1.38990366052513292
1.34163272779119236
1.28898056964635432
1.23526066760010345
1.1824407848903602
1.13164081087109936
1.0834567688117116
1.03816346832999384
0.995849735912165523
0.956499651605022483
0.920035670409186879
0.886346628058036545
0.855309305425128397
0.826798960126711058
0.800695171256324167
0.776885744099013342
0.755269694028943395
0.735756588589102978
0.71826151978473507
0.702706072433688211
0.689023459197455668
0.677160080050766777
0.667072180805503678
0.658722434470967233
0.652079735206709477
0.647119997798797364
0.643825893016501394
0.642185497864794841
0.854834883428094883
0.983508681705462351
1.10856962240584234
1.21584574308651705
1.30311675031732688
1.36776727023669453
1.40805540230711967
1.42490236387553049
1.42057537335522732
1.39845180704855898
1.36283193396608304
1.31846894391232694
1.26950060025093503
1.21891037302795757
1.16863539026915442
1.11986721685304147
1.07329600241110912
1.02928706972830408
0.988005059746923542
0.949491364479321476
0.913711103232360489
0.880586331455987859
0.850019361216362235
0.821902952507728601
0.796131922792919666
0.772604854397848761
0.751229316121320712
0.731922026163334349
0.714602281947264606
0.699195099609619453
0.685637485955864157
0.673879342024281458
0.663878881663245268
0.655599247855102485
0.649010004452259315
0.64408882995279837
0.640820211706749521
0.639192877813765992
0.891131604687795731
1.00981211661246939
1.12447342723632437
1.22040224812565667
1.29645082429605418
1.35110053849492551
1.38392813638931522
1.39633762418932461
1.39047709010874154
1.36923969619807084
1.33614969387601779
1.29502102228737992
1.24928916569243764
1.20159395191267127
1.15377213009553015
1.10702736323141604
1.06210480061100765
1.01943682943597014
0.979249762521874123
0.94163479464881028
0.906596824946887536
0.87408994264016171
0.844041391758521886
0.816359998396918418
0.790958868239877821
0.767746336020275422
0.746639330026479864
0.727563158863655746
0.710440841730575423
0.695200548336331159
0.681783500383171925
0.670143953459221731
0.660242354381594843
0.652041867926135055
0.645512715857545105
0.640634990620385869
0.637395366271763297
0.635782931340879598
0.926338241134415541
1.03392414563214663
1.13759587441850907
1.22279495681090911
1.28863832131079237
1.33442868230385248
1.36071305455934777
1.36914780893352894
1.36176200083408649
1.3410520087388349
1.30992886019368604
1.27148497378716252
1.2285816085136616
1.18353102440466396
1.1380339533687005
1.09326538869173584
1.0499939091127013
1.00869692667229449
0.969647638915257737
0.932978751672710049
0.898730848668757187
0.866887435779036486
0.960287430320611812
1.0560929551515521
1.14852289927691498
1.22341879292231881
1.27995212570495442
1.31784990114947531
1.33830722980693118
1.34313007676869289
1.33423792198477575
1.31379434329253564
1.28420665645171916
1.24799528586587405
1.20755453978537974
1.1648979669068209
1.12157634582337185
1.07870983710227164
1.03706597034233972
0.997147769760104219
0.959261243548778064
0.923572140180937695
0.890151784898191245
0.859009207784926843
0.991022465942837827
1.07586863194888194
1.15756097841695271
1.22275331713515567
1.27069823513428348
1.30145856207445343
1.31663374903349117
1.31812473312112899
1.30774612099095844
1.28737994071638462
1.25899486558633611
1.2246407163931059
1.18633797739807356
1.14583386762325401
1.10452920941467392
1.06347329793614453
1.02341431898477642
0.984864763945539234
0.948150784112976375
0.91346309109796997
0.880897901628648228
0.850487084353885425
1.0161858759558684
1.09286531758186611
1.16485289195175512
1.22108469676837994
1.26111530856331711
1.28534166485684498
1.29566490278373925
1.29404876628494314
1.28219647523315761
1.26175723844916954
1.23428421300551183
1.20147217959602548
1.16502426649055191
1.12644631244386839
1.0869997179473101
1.04765292066266436
1.00912246253730453
0.971917332275652135
0.936373272898511244
0.902697925404602253
0.871006806494393215
0.841351578668455558
1.23694377813977163
1.21008103285453683
1.17853092355915479
1.1436755905612086
1.10681448400024074
1.06907475691371401
1.03133162193535588
0.994264271232058294
0.958368721197362383
0.923981469658645915
1.1558732706852386
1.12234109996342757
1.08700286218624242
1.05082187765748913
1.01457585941523432
0.978901896087216783
0.944273360035017495
0.911023947755920438
1.06709741209952802
1.03231505137676094
0.997456889468301244
0.963104269118737255
0.848030594210544275
0.915300737115232077
1.02878378906684098
1.17054911317937416
1.31115531048274003
1.42931046185710819
1.50871774974804906
1.53935030112349081
1.52464579359812902
1.4805665373545196
1.42374619770618627
1.36360868378974076
1.30416147379743741
1.24697256229608744
1.1925954680277131
1.1412335868043566
1.09296953374739658
1.04780286314061821
1.00566837332362202
0.966472492821043305
0.930111508284677702
0.896467909680039976
0.865417829909630121
0.836845381739555916
0.810643974094362174
0.786711799564143832
0.764955477505032233
0.745293593035487811
0.727651218078328998
0.711955309566387862
0.698139635549104076
0.686151234732054416
0.675949607524589435
0.667501900344051435
0.660780345045187123
0.655762125702488263
0.652428592797942741
0.650765901435369831
0.861865591349484705
0.927536415271478454
1.03347598908319371
1.1622434457217703
1.29086571041233156
1.40210656585941718
1.48116674304985052
1.51815932179110846
1.51115999856892902
1.47266049160474255
1.41854362678689094
1.35963593463875854
1.30103675790723772
1.24447322025418661
1.19054751100811984
1.13951898556621245
1.09150746844357927
1.04653406179327257
1.00455026461371966
0.965475850521012147
0.929214012647055165
0.89565072838920623
0.864666738304866622
0.836150357150447943
0.80999626084262133
0.786103345346600424
0.764380450280301105
0.744747981615007881
0.727130963495524196
0.711456012693027273
0.697657633913438935
0.685683867872882158
0.675494525140072577
0.667056677370340356
0.660342631850490358
0.655329758520644789
0.651999914673444869
0.650339481823981158
0.8790049429838801
0.945618871988728626
1.04792807387700226
1.16672491416629009
1.28267107372375633
1.3801350159807515
1.4494774874156684
1.48533833919542047
1.48490101747413528
1.45394179644050747
1.40559382313534775
1.3505437141782255
1.29434315963679047
1.23929255766432678
1.1863701655168859
1.13604961308617369
1.08855941335467499
1.04398000800558433
1.00230233111259603
0.963472133517230711
0.927407598720271453
0.894005440565532217
0.863155472142818625
0.834751788752465251
0.808692219410954705
0.784878947369101687
0.763224220062305614
0.743650266758287048
0.726082756058330392
0.710449408976249197
0.696686347975043363
0.684742653485461705
0.674578389545166579
0.666160728535039603
0.659462219517515602
0.65446042359352341
0.651137673592007582
0.649480876098993187
0.899940243592333156
0.966519489129167519
1.06469473335571174
1.17359198783104945
1.27768546099796709
1.36400215721093998
1.42494833460403858
1.45541691584518174
1.45572970088289977
1.43068011443507315
1.38851758154702121
1.33800322494784218
1.2848216912268573
1.23178206327878925
1.18025126165074878
1.1309340898598641
1.08419167923841275
1.04018385342222985
0.998953752111412463
0.960481515728069168
0.924707278478740013
0.89154362659918962
0.860892448068063976
0.832655755961113964
0.80673680159244987
0.783042782966073658
0.761490027568467731
0.742003083327486657
0.724509216980408377
0.708938180344479085
0.695228161241354892
0.683329493017366896
0.673202748718387589
0.66481539514167487
0.658140296554049486
0.653155378492376815
0.649843611155995537
0.648192898196307321
0.921618867392763552
0.987843818578414967
1.08115536821329328
1.1806842548870804
1.27307582407200415
1.34931080405599158
1.40234528089347377
1.42871937880417965
1.42896711319376046
1.40704424127844674
1.36945105773310449
1.32307606573973335
1.27301791193025848
1.22224221666061572
1.17236489315883774
1.12427947924006211
1.07847390397952125
1.03519250031422483
0.994537068034563876
0.956527645420790829
0.921130905628843366
0.888278805484190248
0.857887927944097073
0.829870428301579088
0.804136873309246214
0.780600608774969063
0.759182619133533465
0.73981054922662981
0.722414189305379262
0.706925911858408695
0.693286278510166221
0.68144723376983507
0.67137020995275809
0.663023079406622085
0.656379030730534607
0.651416551305207259
0.648119510411147903
0.646476802236993997
0.942512062820529462
1.00830151429523918
1.09556904556915291
1.18594835890310102
1.2686372114115656
1.33549653514059852
1.38120163662841211
1.40348276909106762
1.40309001780926423
1.38327595132031389
1.34920315646572964
1.30642710577740706
1.25938669318933405
1.21096702313316151
1.16289922529813605
1.11620848103957249
1.07148821961511409
1.02906251019375361
0.989092565646246813
0.951640069325940696
0.916700451742953559
0.884227511265795574
0.854154715817665333
0.826406064163384135
0.800900767898232946
0.777559134046601041
0.756307438481444438
0.737077360919857094
0.719801948528827729
0.704416478501188603
0.690864144948198144
0.679098991000751773
0.669083675967069413
0.660786478027745483
0.654180891727565439
0.649246233034535991
0.645967523492038564
0.644334389418717235
0.962813698969038567
1.02685822524995984
1.1079013829340969
1.18997861629782431
1.26375256778532963
1.3221243801831688
1.36115033788393069
1.37947924788319654
1.37802730158473796
1.35956828571052157
1.32823629277146571
1.28855061744597754
1.24431968472826848
1.19823569587644774
1.1520467688693079
1.10685298987656244
1.06332607830569192
1.02185883811793765
0.982667472570866063
0.945853646622113464
0.911442082197763681
0.879409924080870375
0.849708781817830605
0.822275423685725371
0.797038710877717826
0.773926568465501341
0.752871170181045102
0.733809274568537617
0.716677658860223388
0.70141450758623336
0.687965880312439326
0.676288521337638393
0.6663466649953661
0.658108858048737422
0.651548868880102661
0.64664721358180044
0.643390361664398003
0.641768507900236873
0.982640635661289674
1.04357505889841651
1.11843881439636728
1.19285874996266328
1.25832154138125052
1.30895972741274091
1.34189261287539763
1.35647471024613808
1.35374123733639395
1.33608774719528189
1.30688356835094432
1.26981813579877589
1.228139663522402
1.18429817095194245
1.13999099791456038
1.09634506075909233
1.05408276583934546
1.01365112736660445
0.975313216589059007
0.939206827727999349
0.905385274385387628
0.873849255919120105
0.844568552261715899
0.817493243766041267
0.792562531613204668
0.769712419477694088
0.748881592606935209
0.730012979421506114
0.713047299463619888
0.697925352037670366
0.684596244179069946
0.673020171828165203
0.663163272900926026
0.654994032165031825
0.648486439466094411
0.643622732376925577
0.640391193245050228
0.638782392912303876
1.00165517809910831
1.05892725836857715
1.12742522838895654
1.1946012004301001
1.2523473309439348
1.2958778422338022
1.32323432091309279
1.33429721361650544
1.33016675903430914
1.3129283263526712
1.2853633289487143
1.2505020187074023
1.21110594063997867
1.16937025581996412
1.12689992922997306
1.08481158602676131
1.04385336935093753
1.00451064412636515
0.967083378044845343
0.931740493656142421
0.898562014340494319
0.867570936024126493
0.838754257799693703
0.812075811907984613
0.787485797639168594
0.764927942271286243
0.744347778107902314
0.725696204484460927
0.708917754475256068
0.693955139049897696
0.68076059910317166
0.669298809094908465
0.659538120827856456
0.651446307058875962
0.644997498126329005
0.640176404454513737
0.636973581857278148
0.635379680729648455
1.01929240513188701
1.07247507049723279
1.13489885770450294
1.19519941457622214
1.24580582853156963
1.28281787852273133
1.30506676065271066
1.31282843854232789
1.30724217168310175
1.29013524392391243
1.26382148657789117
1.23080221900355724
1.19342371989633
1.15363416121389672
1.11292322666087484
1.07237083133799804
1.03272964391455901
0.994507934095876012
0.958032224748027184
0.923496973608535665
0.891005875088197619
0.8606018674033451
0.832287917853177794
1.0352315668612122
1.08418570763109923
1.14092208813271756
1.19476733647574918
1.23877309641258782
1.26979163408574536
1.28732979968331529
1.29198042543231773
1.28490942080768678
1.26772487301845604
1.24235331470079613
1.21086329707429163
1.17525299313806775
1.13724067806351159
1.0981912925497348
1.05913039169414969
1.02079793428001397
0.983711253721526457
0.948213600042364657
0.914519043539224752
0.882751220944424486
0.852969980346701018
1.04828727731881477
1.09364197857184742
1.14550180223971521
1.19346937733861957
1.23136617588654729
1.25683279942989579
1.26998018870763141
1.27167656720631039
1.26310609672569796
1.24569238800524862
1.22101722987061612
1.19078749569104136
1.15671632958344528
1.12031230458797415
1.08281578277796808
1.04518639793899148
1.00813802918828799
0.972185492640353033
0.93767991963811903
0.904849161169433591
0.873832122286510415
0.844702899812056818
1.05714124364902684
1.10045939177532293
1.14870944370952399
1.19148912336562907
1.22372737793815078
1.24400970684825607
1.2530309842416345
1.25190500082582989
1.2418184872553184
1.2240454969408765
1.19984302908437956
1.17064198626937421
1.13790473050542995
1.1029468333493444
1.06689113155524584
1.03062344361409641
0.994822465580087356
0.959991168544088169
0.926481382868890702
0.89452860944095236
0.864282375778566592
0.835829220970376707
1.20284282068426518
1.17886862106662749
1.15048163905410772
1.1188833722667979
1.08521901455094949
1.05049573151249276
1.01551513265982662
0.980916453694751334
0.947184140760188087
0.91466501042244186
1.13037224827888116
1.09970602901472714
1.06719100228455255
1.03369200056805388
0.9999215866598401
0.966475811783453209
0.933813243740370336
0.902274851473973571
1.04894597671931233
1.01655042334584089
0.983909217695871363
0.951564333685707142
0.98374696710060261
1.02552089415362846
1.09483335544765459
1.18087773941475227
1.26581246897271993
1.3369490288669974
1.38680308145436371
1.4092596667485644
1.40502400625288182
1.38028572290836604
1.34300707795495655
1.2993170326607284
1.25292760068080344
1.20604966624846899
1.15984691939647244
1.11499692257542371
1.07193577926854444
1.03093007970057116
0.992126272939111264
0.95559966520736872
0.921378088213100965
0.88944727844981708
0.859768714354556707
0.832295801224259724
0.806975375787318039
0.783748634007198852
0.762558744996727489
0.743353192059049594
0.726078067909033398
0.710676650843414581
0.697096408482215768
0.685294916383042962
0.675239037713434853
0.666901750478035238
0.660260843645872786
0.655298602649806217
0.652000403120524874
0.650354990261239219
0.988635312808618716
1.02829088636635357
1.09476266683360124
1.17658138940899959
1.25840647054721066
1.3282727754048973
1.37769847778438281
1.40106505105875878
1.39866887588147848
1.3756110685037013
1.3393697847847883
1.29632975286650054
1.25047566681719946
1.20400576806617798
1.15810915362525613
1.11349718236311435
1.07062420323806973
1.02976739110683613
0.991084291278875873
0.954658640092645672
0.920521114018335029
0.888659697059787201
0.859039854261280156
0.831617544411824339
0.806339904033770538
0.783149166723869805
0.761990739459847299
0.742813167878455638
0.725562083227509591
0.710180634446320402
0.696617104054062408
0.684829784439380806
0.674785653853000711
0.66645770990666231
0.659823966851381338
0.65486692999356666
0.651572441980850292
0.649929494054214185
0.996560955771461865
1.03432833276841696
1.09810693219248479
1.17515165301448299
1.25176537699230184
1.31706520937238825
1.36346882741817987
1.38642749609439586
1.38561875497417919
1.36506174615273657
1.33116155218503307
1.28991975322719732
1.24536164744273203
1.19980586984370752
1.15457236743829483
1.11046123868670077
1.06797639332501748
1.02742534495751614
0.988988461740932134
0.952765204765477103
0.918795171688367107
0.887073843142595519
0.857573044297596843
0.83025223096853773
0.805060776847565718
0.781943864955800039
0.76084944065591642
0.741726968462893432
0.724522544481655095
0.709180565785108685
0.695650792505365101
0.683892294972122228
0.673872265877463295
0.665563889302528966
0.658945405572121778
0.653999407611699612
0.650712111414053163
0.649072917063321264
1.00635715586149965
1.04317783434634981
1.10400135470489569
1.1756658187326483
1.24636550701687376
1.30616797440364829
1.34847542732064962
1.36964780006227205
1.3695291114026138
1.35119283704292514
1.31988211364903041
1.28085465898004069
1.23798040553916033
1.19366870968017702
1.14936657425097555
1.10597010761650338
1.06404430957593865
1.02393816298452012
0.985862207497313126
0.949936288409199525
0.916213435767917361
0.884699855625112552
0.855375576012780692
0.828205313358352235
0.803142550784679887
0.780136410099219746
0.759137540032028713
0.740096811308387226
0.722961806630845971
0.70767895947270576
0.694199815572341783
0.682484463350252701
0.672500616576999666
0.664221778326656631
0.657626381946337157
0.65269721895234567
0.649421005812795049
0.647787982541029095
1.01725423146496197
1.05319846542143725
1.11080073828597792
1.17710733692847147
1.24147506195300128
1.29553153854251279
1.33349041883107655
1.35240379386757015
1.35222442918076413
1.33549416589163106
1.3064816017699481
1.26967980453655338
1.22864972126418315
1.18578570722449039
1.1426115124842493
1.10010171932375567
1.05888092114276677
1.01934308294881171
0.981732462649475668
0.946192163042993029
0.912791473272055787
0.881549593516333552
0.852456616819690649
0.825484337412440983
0.800591679528540379
0.777732160026164299
0.756859395198058893
0.737926498012733245
0.720883478550533585
0.705679233723349397
0.692267283841177306
0.680609118329421725
0.670673341243320564
0.66243381051901129
0.655869072440771306
0.650962272316317092
0.647700864624685457
0.646075897937583132
1.02836819886172903
1.0633828089791495
1.11752154290767591
1.17850221280948486
1.23684077436487572
1.28518875245266462
1.3186896348585222
1.33503618126634693
1.33431176692790232
1.31865021691972317
1.29155928311480372
1.25683619084469234
1.21767113928768045
1.17635767862948915
1.13444101197228431
1.09294695504531547
1.05254962405131569
1.01368559825485893
0.976632682777287653
0.94155787580079553
0.908548206542369785
0.877637576073896031
0.84882768697464539
0.822098736387050222
0.797415893753068095
0.774737313873850919
0.754020022776007881
0.735220395627852352
0.718291597557552675
0.703185100176279221
0.689856542466923961
0.678269333363597515
0.668393344838691617
0.660202700156031552
0.653675949485676311
0.648796828707831841
0.645553779403724382
0.643938392636570489
1.0391744024368379
1.07306840250033675
1.12368091976411133
1.17956748962133662
1.23211896685156264
1.27494153567396662
1.30404763958933634
1.31769478972916598
1.31610013798415282
1.30108726169621591
1.27555226067282668
1.24269396262637932
1.20532449892656257
1.16558547884462982
1.12499667639996104
1.08460592655039223
1.04512235422003941
1.00701843483148767
0.970602078413732583
0.936062943284079241
0.903506303959134116
0.872981701386353337
0.844503194443821936
0.818060152006015895
0.793624608051813341
0.771159465002511202
0.750625639716847259
0.731983910895424805
0.715191087480022025
0.700201036799445453
0.686971623655393993
0.675468830262056841
0.66566415622831776
0.657531737318993059
0.651049994811328192
0.646203618397537261
0.642982363288058689
0.641378208988355292
1.0494649782492893
1.08196544673911554
1.12911411264030437
1.18010816422867393
1.22712454829926831
1.2646751161206935
1.28954188972278083
1.30047113125205938
1.29779509072731036
1.28309503315865059
1.25878306411123209
1.22755079402902756
1.19185397655371306
1.15365655675165391
1.11441780737384266
1.07518128512756173
1.03667519478453163
0.999398467565207893
0.963683482117600576
0.929740126940661216
0.897691507520995913
0.867602639727158009
0.839499734829230571
0.813381956848664989
0.789228679970188196
0.767007429110338257
0.746683522544185685
0.728223359193961972
0.711587691665860222
0.696732274229106552
0.683617221841807066
0.672211938200462322
0.662489899320937714
0.654424764010396731
0.647994659495623182
0.643185781606032569
0.639989644876293062
0.63839844832538295
1.05902571459630956
1.09002432485680911
1.13369640495961788
1.18001507468185785
1.22179585838280369
1.25434963426872437
1.2751656577567978
1.28341062951656526
1.27951470403929468
1.26486451497801156
1.24148427082126744
1.21164041387029342
1.1774659155476801
1.14073918534509344
1.10283585370791881
1.06477387429012493
1.02728511503653497
0.990884393945528075
0.955921897021807077
0.922624560992912013
0.891131896081118868
0.861523080217656334
0.833835567216545059
0.808078790666795554
0.784240588181617015
0.76229168728259844
0.742202191647168275
0.723946065400717376
0.707488077454746844
0.692784856860703679
0.679798652235534484
0.668503516698459754
0.658875244035219909
0.650886127935186409
0.644513793610126284
0.63974679310844984
0.636579010847531879
0.635002596576258238
1.06757047264907934
1.09691983664430026
1.13731934061773488
1.17926259604891071
1.21611728632497451
1.24395451638721122
1.2609134255380523
1.26653157526919058
1.26132525318994704
1.24652025114113618
1.22382323064444942
1.1951441058736072
1.16233096836505401
1.12698039464197008
1.09037116916326671
1.05347961718720273
1.01702745842450071
0.981535002636963139
0.947363393527435482
0.914752898255350222
0.883857051228644663
0.854767159936206888
0.827530102101006748
1.07444175614114901
1.10237371461533584
1.13993454853124576
1.17786911666713956
1.21011835819868896
1.23350487282698107
1.24678617033422134
1.24984005936331077
1.24326184370974935
1.22814261974092531
1.2059192547485178
1.17820019786587671
1.14658748389403953
1.11250576550918434
1.07713133198038036
1.04138752479524177
1.0059742385718411
0.971407929605294429
0.938054160164220496
0.906162417451091939
0.875897372753484227
0.84736003347740485
1.07868123955450645
1.10602304724446276
1.14150258616233313
1.17590146784709382
1.20386239614377932
1.22303019472576113
1.23278514805906392
1.23333038932403904
1.2253352723463018
1.20977952165417602
1.18785526282105502
1.16091205604455139
1.13034561447999526
1.09742048322804608
1.0632107462385596
1.02857869525419243
0.994193065712358437
0.960558686737297274
0.928039611834081235
0.896890413500423866
0.867283125284310064
0.839327066365032959
1.0790871764387302
1.10750802142407001
1.14206227155257345
1.17348403124947209
1.19745543796284037
1.21260403377158776
1.2189609931960792
1.21704358224617182
1.20758463195532073
1.19147861224377527
1.16968486218995671
1.14335260102003455
1.11369038938936193
1.08181118558116229
1.04869123659078589
1.01512587327319648
0.981746377503134315
0.949039725066321616
0.917363739652577337
0.886973508639452568
0.858044557213139436
0.830693801041576418
1.17332176225717588
1.15146305875022215
1.12558273012593135
1.09668576918979488
1.06574579562300298
1.03364214831634027
1.00109358350292998
0.968691253183984968
0.936900182315314689
0.906068244859092764
1.10767184031767596
1.07938554579537804
1.04928210741479888
1.01811996048995512
0.986535400980388721
0.955077370393262903
0.924183584900510224
0.894192737631963719
1.03250043107513134
1.00219056795626837
0.971512139080013659
0.940963033434574436
1.05713490966006507
1.08158076680958115
1.12480996982941339
1.17855772043845519
1.23304424744570218
1.27980072109084086
1.31253710506006382
1.32800419544368853
1.32588669590380004
1.3091690618524956
1.28222347442760021
1.24874942990794824
1.21144008417786031
1.17220328595397461
1.13231655207121329
1.09265833709296345
1.0538449297554251
1.0162987316846559
0.980304976027748021
0.946057483426300028
0.913679075017736153
0.883235300929819167
0.854755927090795176
0.82824929359440147
0.803705460027808849
0.781102687936210849
0.760415949503358779
0.741616757806264904
0.724668608113599011
0.709529296236812712
0.69615891319294898
0.684524414210743726
0.674598974592611755
0.666360749646763728
0.659792676313231796
0.654881640071627191
0.651616293369057464
0.649987164241805804
1.05888431863877841
1.08286454627826112
1.12493224330543384
1.177055642071962
1.23002657729556586
1.27577733857409492
1.30822494678806267
1.32375698819950705
1.32213649458858962
1.30604700061657697
1.27957424656476748
1.24646686691321928
1.20947107096789352
1.17049113203806332
1.13081229197759026
1.09132552180041853
1.05265335551835659
1.01522274870708684
0.979326502001705679
0.945163137243646201
0.912856234049318371
0.882473076215324892
0.854046401081224094
0.827585528153115701
0.80308055466746886
0.780511273480481216
0.75985452228660888
0.741081997435794837
0.7241565428795671
0.709036178299827347
0.695681875615129508