/*--------------------------------*- C++ -*----------------------------------*\
| =========                 |                                                 |
| \\      /  F ield         | OpenFOAM: The Open Source CFD Toolbox           |
|  \\    /   O peration     | Version:  2206                                  |
|   \\  /    A nd           | Website:  www.openfoam.com                      |
|    \\/     M anipulation  |                                                 |
\*---------------------------------------------------------------------------*/
FoamFile
{
    version     2.0;
    format      ascii;
    arch        "LSB;label=32;scalar=64";
    class       volScalarField;
    location    "0.0899999999999999967";
    object      alpha.water;
}
// * * * * * * * * * * * * * * * * * * * * * * * * * * * * * * * * * * * * * //

dimensions      [0 0 0 0 0 0 0];

internalField   nonuniform List<scalar> 
29184
(
0.999999999998576916
0.999999999998561706
0.999999999998134825
0.99999999999734257
0.999999999996016409
0.999999999992983613
0.999999999985735966
0.999999999967373654
0.999999999918216753
0.999999999774130566
0.999999999247052296
0.986925581530540219
0.981567693303199373
0.750184399507505151
0.2388836755209513
0.217047478107904535
0.999999999998224753
0.999999999998244959
0.999999999997621236
0.99999999999680067
0.999999999995
0.999999999995403455
0.999999999977335463
0.999999999919495286
0.999999999774194293
0.99999999924707228
0.999999997684198672
0.963710098888191369
0.929516522804703982
0.679744849252775118
0.212702571437103305
0.188171177762208819
0.999999999985485721
0.999999999980196619
0.999999999974704235
0.999999999961344588
0.999999999933454453
0.999999999884611857
0.999999999732627876
0.999999999188940336
0.99999999766942449
0.999999992472477395
0.999999978564399594
0.95155447877209709
0.878322288814245788
0.501676531608769238
0.188068952737733885
0.163018245496046543
0.999999999861617694
0.999999999804766615
0.999999999747032353
0.999999999606936196
0.999999999321030231
0.999999998736039619
0.999999997361734838
0.999999993514225194
0.999999982866042414
0.999999948546943518
0.999999860466857515
0.94291036020742347
0.86204815697716175
0.372379437901619481
0.165164862096328857
0.141204786631767665
0.999999999033825748
0.999999998674962809
0.999999998277310675
0.999999997327761792
0.999999995467351743
0.999999991659698328
0.999999983360384981
0.99999996354438947
0.999999910474112408
0.999999751364365363
0.99999935906082138
0.947572500908225424
0.810823624131841614
0.258177222546092988
0.145057407992463305
0.117766677858081995
0.999999994715819573
0.999999992938963245
0.999999990847243336
0.999999985902226385
0.999999976661258949
0.999999958252847598
0.999999919883401978
0.999999838540019281
0.999999631359033581
0.999999044750742305
0.999997655056917067
0.951735524883595474
0.69427274694042751
0.157696084035273854
0.127482188223189324
0.106164758978570348
0.999999975840786037
0.999999968422769614
0.999999959330487354
0.999999937976511877
0.999999900061304903
0.999999827133181585
0.999999681423419773
0.999999399357112129
0.999998721968796356
0.999996902291131695
0.999992712475739176
0.951010207902605931
0.532179826084093976
0.134685527732551574
0.111506993541006502
0.103940336115263765
0.999999903886248487
0.999999876740639615
0.999999842617235402
0.999999762717191487
0.999999628545122254
0.999999379542073852
0.99999890344232556
0.999998054460015107
0.999996107542559409
0.999991170114970185
0.999980046778286003
0.940292925190402529
0.407540797158578771
0.111923042571341724
0.0931084072827846887
0.0860793473914790441
0.999999658171447869
0.999999568858442212
0.999999454936523535
0.999999188317569843
0.999998766819327201
0.999998011346897808
0.999996630844378398
0.999994361306971058
0.999989324521435408
0.999977251611625428
0.999950601216191837
0.920752022061846143
0.300409477133112612
0.092072232537639187
0.075687988167689263
0.0626950036859305199
0.999998891348207408
0.999998621971515345
0.99999827657656859
0.999997466760073062
0.999996268207163141
0.999994187621566555
0.999990565258995989
0.999985086909967125
0.999973151096922641
0.999946178918944328
0.999887246627414017
0.881843003259051517
0.274917610176321214
0.0746849104551008391
0.0604458242540419771
0.0700296282905826517
0.999996670552324884
0.999995915407347669
0.999994950590832654
0.999992678573002225
0.999989551233864793
0.999984281062065383
0.999975496522625185
0.999963434512586402
0.999936949200928904
0.999880321136677352
0.999759308384524537
0.83869258899284338
0.227169444924868569
0.0595190852697523171
0.0475981661801024442
0.0673232286434457261
0.999990634166526005
0.999988645915039998
0.999986135897166895
0.999980181694580916
0.999972615255046549
0.999960199029834573
0.999940570325158706
0.999915508937836761
0.999860236549571457
0.999748221606581833
0.999506935441101696
0.798536415949836265
0.1698896923117858
0.0465446788465039563
0.0363858867447715562
0.0572029242591143711
0.999975099577382731
0.999970140056912316
0.999964008266920557
0.999949304854913734
0.999932210657931364
0.999904688043168677
0.999863847819231211
0.999817215854488905
0.999702728012245356
0.999494799120768329
0.999046631949180308
0.784332239965041422
0.119600929220281177
0.0358213291628270286
0.0270140742196633699
0.0452888038041934296
0.999936979142594051
0.999925174196746314
0.999911022739050748
0.999876574730975909
0.999840337132904433
0.999782674864196474
0.999702192242229781
0.99962383558482415
0.999407180180976629
0.999019539436991399
0.998232025502115428
0.61539535638726317
0.0809026341751876571
0.027150483731126239
0.0197374396454812091
0.0300441682738783397
0.999847274820642729
0.9998203179606725
0.999789368143102375
0.99971244470936993
0.999640253488543795
0.999525631970026862
0.999376589183824771
0.999253654618597942
0.9988667670603113
0.998209398911527823
0.996838203106114262
0.709623111924683636
0.0328450165267711799
0.0196713103636372844
0.0119716418754238184
0.0186120022412238836
0.999643843538163157
0.999584457418356553
0.999520067149571423
0.999355366707616932
0.999219852972408562
0.999002396070606924
0.998742843761188159
0.998570832485223603
0.997879581358203982
0.996846027467918283
0.994509493541230638
0.619974463762179129
0.0337104961590279847
0.00870496829704054016
0.00518336343711070513
0.0208041184795798167
0.999999999998614886
0.999999999998576916
0.999999999998178124
0.999999999997449818
0.99999999999638356
0.999999999993661515
0.999999999986754595
0.999999999969847675
0.999999999923726346
0.999999999785359917
0.999999999276948159
0.990866612651161827
0.980290277525414977
0.755870232146716781
0.225193516113403991
0.204635996935854048
0.999999999998244848
0.999999999998281375
0.999999999997706945
0.999999999997060907
0.999999999995525357
0.999999999995801914
0.999999999979100496
0.999999999924981786
0.999999999785433191
0.999999999276967477
0.999999997801055418
0.963704178071816298
0.931145687100385366
0.647420887007776669
0.197266640004945482
0.174986389673769616
0.999999999985727417
0.999999999980649035
0.99999999997603628
0.999999999966059483
0.999999999939003237
0.999999999891567182
0.999999999753760305
0.999999999237131898
0.999999997765016024
0.999999992745555621
0.999999979634978109
0.95132810786370503
0.868835816778505965
0.46251348235969586
0.175439632036707094
0.145432377628621573
0.999999999864352729
0.999999999809151552
0.999999999760985525
0.999999999657579908
0.999999999373568538
0.999999998808934309
0.999999997575984567
0.999999993867298542
0.999999983502931178
0.999999950347171929
0.999999866961937212
0.947226172302077951
0.855508598377476726
0.324004518530593366
0.153016761524897127
0.12111422445316572
0.99999999905280923
0.999999998706076587
0.999999998376750687
0.999999997689706932
0.999999995788352303
0.999999992119671166
0.999999984759930238
0.999999965347581954
0.999999913448470501
0.999999759702618451
0.999999387141415341
0.951682361258589404
0.807596880986564569
0.236732415467063029
0.134757430650273929
0.110393252194400021
0.999999994818332683
0.99999999310422838
0.999999991397504173
0.999999987905021426
0.999999978140294399
0.999999960456626424
0.999999926865765332
0.999999845590534786
0.999999642185916082
0.999999075219879963
0.999997752744999913
0.956759614973978545
0.740122854186223367
0.152592659630319288
0.119305475574421116
0.0793907184798124388
0.999999976307081262
0.999999969156945889
0.999999961877474863
0.99999994718666696
0.999999905535217115
0.99999983591641417
0.999999710281337495
0.999999421286889678
0.999998754881836982
0.999996996229496338
0.999993003097102706
0.957559341188334967
0.577785110445902417
0.134690153047556271
0.100807484536459158
0.077177425488546586
0.999999905722250615
0.999999879602176844
0.99999985286334292
0.999999799457112815
0.999999645215869704
0.999999410200741568
0.999999006733582219
0.999998108806853248
0.999996195166309332
0.999991426529657224
0.999980802339980213
0.949848694612399735
0.414311752782979825
0.112099306829008025
0.0873903801062460572
0.0650961324278549747
0.999999664595379922
0.999999578900381603
0.999999491837244681
0.999999319067894077
0.999998808278809825
0.999998108411182418
0.999996960955200853
0.999994458713688417
0.999989539548523876
0.999977890241790845
0.999952342890822576
0.923047030341527019
0.290895725941340166
0.0937882071315175037
0.0736732208210591766
0.0578578411231084333
0.999998911722460693
0.999998654355942596
0.999998397958844931
0.999997890203885964
0.999996346253553603
0.999994473229562697
0.999991524517395591
0.999985157122698975
0.999973652222283294
0.999947677802406898
0.999890900499812663
0.885189492182000937
0.279581630268765258
0.0768298247599659978
0.0642655398274129541
0.0669099920004171955
0.999996729905904935
0.999996012917493404
0.999995320517105046
0.999993944701605519
0.999989621341968449
0.999985076084726199
0.999978075278985079
0.999963032558084719
0.999938146862173305
0.999883640356183823
0.999766449236528798
0.863148689393958835
0.243272385919817646
0.0633497802516798797
0.0516870622931260223
0.0671778644111843265
0.999990794243645453
0.999988923498434712
0.999987192032915084
0.999983715710488719
0.999972368046086357
0.999962318694050611
0.999947013641763305
0.999913051429538569
0.999862971012401847
0.999755325494677272
0.999520363766316255
0.76262577395066744
0.192037811104905504
0.0506814762145996606
0.0397598790902518803
0.0615146666013729193
0.999975500806128847
0.999970894718021364
0.999966857560559808
0.999958592450126083
0.999930428075060052
0.999910146665359045
0.999878944778345158
0.999808212920133554
0.999709745834321484
0.999508418480276273
0.999069695144305214
0.722991000263285333
0.0998470363822482471
0.0394894591068067832
0.030798136408326706
0.0519748730345735988
0.999937912623236391
0.999927149762517731
0.999918336519471707
0.99989971195294991
0.999833140792511954
0.999796304481385012
0.999735581429850861
0.999596874510430444
0.999425008233983614
0.999045932293638028
0.998269912667759884
0.605890056780267416
0.0590925565576388562
0.0310682105827013305
0.0230008639964471122
0.0418753924180227249
0.999849271981064769
0.999825328797631974
0.99980732301944597
0.999767353989537422
0.999616748741388395
0.999558650756021017
0.999446214569816416
0.999181257302684145
0.998911223821820071
0.998256394179066087
0.996899160120587546
0.712896441243430878
0.036335520469415919
0.0226593115927694738
0.0142077570010711481
0.032517653951887493
0.999647680210655309
0.999596849921320807
0.999562424112072634
0.999480095853282013
0.999152143983813024
0.999080353316798897
0.99887972110301293
0.998393017401329574
0.997987539279215019
0.996925386766095212
0.994608030391624487
0.637514306522839469
0.0313224701384010387
0.00971429637989937485
0.00524920440152807071
0.0142425382968752873
0.999999999998652855
0.999999999998499423
0.999999999998055111
0.999999999997376543
0.999999999996189937
0.999999999993630873
0.99999999998723399
0.999999999970520137
0.999999999924748195
0.999999999789261351
0.99999999929326322
0.989979603616311321
0.980111921732766178
0.7914053066479948
0.214774066707794031
0.198278344785526695
0.999999999998078426
0.999999999998156586
0.999999999997643552
0.999999999996896705
0.999999999995403899
0.999999999995883515
0.999999999979616971
0.9999999999259096
0.999999999789332517
0.999999999293282205
0.999999997865663959
0.96414157283703017
0.928798186115726399
0.680231398322739156
0.190258081603432772
0.167035250994699069
0.999999999983090748
0.999999999980519028
0.999999999974912845
0.999999999963934738
0.999999999940630602
0.999999999896322045
0.99999999975610121
0.999999999245198889
0.999999997807474283
0.999999992907108282
0.999999980290664281
0.952926280381660273
0.866533087977529926
0.479432492580960656
0.168009656131660745
0.138159533192631634
0.999999999841739484
0.999999999809496054
0.999999999748716117
0.999999999635901249
0.999999999397216621
0.9999999988620214
0.99999999758511926
0.999999993925348996
0.999999983803886328
0.999999951404940024
0.999999871226950443
0.944744582333951088
0.857906600259969676
0.347825403739095096
0.147449070074457678
0.0916722798110215509
0.999999998894661069
0.999999998716879057
0.999999998284632041
0.99999999754052582
0.99999999598977074
0.999999992467723753
0.999999984720495005
0.999999965662662249
0.999999914981012372
0.999999764594953211
0.99999940665292586
0.949936862232187207
0.81133406517928619
0.25975812811790544
0.123132677874609284
0.0994349909468353471
0.999999993953125665
0.999999993202361548
0.999999990860954924
0.999999987108304289
0.999999979410711171
0.999999962151592037
0.999999926162991382
0.999999847079385829
0.999999648422484677
0.999999093096761271
0.999997823338703573
0.955380494590342577
0.707607558430574102
0.158150216577123248
0.11236956634239198
0.0891637101483328531
0.999999972350788857
0.999999969778087916
0.999999959274089578
0.999999943666117552
0.999999912042384809
0.999999842560155394
0.999999705328491029
0.999999427774493022
0.999998776413645429
0.999997050731159631
0.999993216987006717
0.955271996891138286
0.54392936759663435
0.13000523878646808
0.0979257949063146726
0.0709813827812191961
0.999999890024823035
0.999999882731359313
0.99999984191428648
0.999999786047390371
0.999999673668001909
0.99999943194951646
0.999998981993013958
0.999998135390242404
0.999996260081282062
0.999991571052499584
0.999981373727273803
0.948002001055232246
0.422660248064466448
0.11113163254839549
0.0829873593284132516
0.0593445954904933126
0.999999609170437953
0.999999592322983633
0.999999450754041952
0.999999273817871792
0.999998917947159338
0.999998168681831112
0.999996860982220737
0.999994560456458625
0.999989713266324798
0.999978232582976578
0.999953754456200827
0.929554715203774196
0.29799709653597023
0.0934379800223319179
0.069001500197038268
0.0524665497382578797
0.999998734136498868
0.999998705205556782
0.999998257773478061
0.999997752297395071
0.999996727290048515
0.99999461303094761
0.999991178515045487
0.999985515035510586
0.99997406805799316
0.99994841357044062
0.99989419242979416
0.872758332169476958
0.283482338739339201
0.078373946932314642
0.0628464632955876845
0.0543216214242947526
0.999996206282244171
0.999996187074979392
0.999994879568068429
0.999993559868916693
0.999990834463054146
0.999985330495196445
0.999977017219948028
0.999964187517559222
0.999939018356947429
0.999885125588608759
0.999773711800877485
0.857124708535977664
0.22979500149826293
0.0659847770435550429
0.053391690920147318
0.0704247574019677969
0.99998935970175995
0.999989471338524671
0.999985900216204593
0.999982722518996892
0.999975952949303748
0.999962581460949407
0.999944106278115807
0.999916575064343727
0.999864459057887345
0.99975812896949301
0.999535890269529936
0.812918154903497614
0.196015325479824809
0.0535901111436210206
0.0428928297354602001
0.0657901891458769067
0.999971824620386363
0.999972496448416015
0.999963305098477306
0.999956204007484195
0.999940360194880085
0.999909691816127211
0.999871638170438226
0.999817967264579721
0.999711916264581002
0.999513225618683832
0.99910182324483654
0.742558221657851236
0.124767752412855773
0.0429935959079326482
0.0344117163531510034
0.0566534519799969383
0.999929065296888409
0.999931541122879963
0.999909112605286365
0.999894331211018672
0.999859153132306777
0.999792407034038488
0.999718607806522552
0.999621829974542631
0.999426449790374538
0.999055273429069413
0.998333638122332778
0.596920391816447848
0.0673465754029324987
0.0349422204115523785
0.0266482646750267685
0.038850280169485378
0.999829255215649804
0.999836687470422536
0.99978461613198033
0.999755956885849617
0.999681582163080229
0.99954309246681905
0.999409758133380621
0.999241649794283648
0.998906321127073449
0.998272967058710714
0.997021264238917126
0.695135638372458953
0.0393253177331213469
0.0266434174500966223
0.0174876801739948552
0.0127898449775126332
0.999605221455917459
0.999624685570626781
0.999509289222581421
0.999457393228561974
0.999306808964251947
0.999030936058915575
0.998807283437959659
0.998530684489231435
0.997960758679847126
0.99695175781445533
0.994835294215897004
0.623915856552365256
0.0367646162075496163
0.0130113884694610729
0.00597257777461881762
0.0120252596542354956
0.999999999998663514
0.999999999998652855
0.99999999999821565
0.999999999997494449
0.999999999996481259
0.999999999994140243
0.999999999988337884
0.99999999997330824
0.99999999993096178
0.999999999799060735
0.999999999290200559
0.986515208260611454
0.980089084955247936
0.784805703392666087
0.210863973230288743
0.197774539398274968
0.999999999998305467
0.99999999999831557
0.999999999997730704
0.999999999997124855
0.999999999995763833
0.999999999996265432
0.999999999981520116
0.999999999931900918
0.999999999799117134
0.999999999290218655
0.999999997773813543
0.961550708526471398
0.91961038067030354
0.687172058977595257
0.190129861898923613
0.168862227798777992
0.999999999986387333
0.999999999980434429
0.999999999976803333
0.999999999966805664
0.999999999945447637
0.999999999905878734
0.999999999780107007
0.99999999930017891
0.999999997867648593
0.999999992701960938
0.999999979091556801
0.949179705441091759
0.872296539238100577
0.494835593199991042
0.169172022728622806
0.140378050775643221
0.999999999871144629
0.999999999807478557
0.99999999976936671
0.999999999664604178
0.999999999445937315
0.999999998966023762
0.999999997822566655
0.999999994349193289
0.999999984110234719
0.999999949344527517
0.999999862272871187
0.93913251821674204
0.855184747486468888
0.37152776169906887
0.148797361653838112
0.0867637671664662491
0.999999999099653314
0.999999998692529868
0.99999999843779086
0.999999997730985912
0.999999996311911277
0.999999993157005829
0.999999986219355597
0.999999967912747256
0.99999991582306802
0.999999751569793482
0.999999359722506531
0.944140182338870759
0.806232433135384396
0.264537685226668429
0.12322409650407623
0.0916611321186078937
0.999999995072131331
0.999999993013696908
0.999999991746164829
0.99999998808836088
0.999999981062131504
0.999999965634831289
0.999999933377245132
0.999999856330987535
0.999999648528678287
0.99999903192487527
0.999997628965264562
0.947010585525040471
0.662937197641480624
0.152761569793080226
0.11074692923031694
0.0880274987984504403
0.999999977454706257
0.999999968674128548
0.99999996353659415
0.999999947819846802
0.999999919110377555
0.999999857172871098
0.999999734034690335
0.999999459073077523
0.999998764567195386
0.999996817826487971
0.999992545742787176
0.941784111140676394
0.492601180453202891
0.129829001836981234
0.0959623910119088291
0.0721849300873426414
0.999999910241143763
0.999999877419846639
0.999999859729020502
0.999999801165688429
0.999999699972345057
0.999999485214705719
0.99999908101338808
0.999998225153632125
0.999996186815291788
0.999990812765508164
0.999979375437612061
0.921599177636510225
0.419582673406786455
0.111690974024730397
0.0811933355956521025
0.0575593525843614839
0.99999968051334287
0.999999570296639773
0.999999517216341949
0.999999322296153403
0.999999005749174663
0.99999834213997385
0.999997165816579159
0.999994783728196168
0.999989408450850048
0.999976049261069533
0.999948527674172527
0.912774857161537723
0.358462006036019853
0.0946188874537106372
0.0681607500015678214
0.0513740004514211812
0.999998962902582722
0.999998624060388863
0.999998483384959558
0.99999789164534969
0.999996995526146515
0.999995128556993018
0.999992033576671213
0.999985997073746802
0.999973041944360874
0.999942720694379505
0.999881970556499522
0.888590322205153882
0.295283761486695717
0.080144060012634577
0.0623353703665340819
0.0519756139373857631
0.999996882370062679
0.999995915950846026
0.999995585929108088
0.999993922958662296
0.999991595920526111
0.999986747456626413
0.999979236711167729
0.999965099950587133
0.999936010102126183
0.999871382183735724
0.999747624301652649
0.780177029055220572
0.224356928208726658
0.0679277116308293905
0.0527415724468194985
0.071242029558188813
0.999991219615845583
0.999988637960365079
0.999987960705876811
0.999983586021835125
0.99997798528462023
0.999966224572911511
0.999949466023409617
0.999917956318761458
0.999856671666974006
0.999727027200929985
0.99948332341806212
0.790333959643492068
0.144849667729240017
0.0542923763851924229
0.0431909311494750731
0.0688912363548799117
0.999976621283806599
0.999970114613599526
0.999968947892292181
0.999958084574821382
0.99994550236482449
0.999918552089933077
0.999883787335908547
0.99981929889638832
0.999692643060912989
0.999447305801120511
0.999002998855555435
0.784413924524115069
0.113530498780029784
0.0448468799842620877
0.0361826103267762211
0.0582749911379181057
0.999940715362209298
0.999925162677138601
0.999923701664760745
0.999898082638494667
0.999871558700430429
0.99981291676699624
0.999744810698919739
0.999620736646501862
0.999383276683329047
0.998919453177281591
0.998158058953305449
0.637818721331351202
0.0922267513289429242
0.0376197000870843526
0.0205650943307402016
0.00563819579123215481
0.999855952150303873
0.999820607571612729
0.999820357333926713
0.999762799305000671
0.999710194059348911
0.999588546962682623
0.999463504952223691
0.99923185951125193
0.998814157435462757
0.998014383308663433
0.996723920736025448
0.702454951789467374
0.0415545139859764129
0.0284942906533931922
0.0170881055136170718
0.0107448411483615225
0.999662871225813543
0.999586439496981116
0.999592467091618087
0.999468819420199717
0.999370030408336274
0.999128035481656962
0.998912199048901828
0.998496668376055996
0.997770766220633099
0.996479150778938561
0.994348579902256668
0.602648365967061062
0.0397445325156443457
0.0140646367781558888
0.00768614039088501462
0.0159858999682559559
0.999999999998674172
0.999999999998419264
0.99999999999793765
0.999999999997265521
0.999999999996044053
0.999999999993469335
0.999999999987368993
0.999999999972229325
0.999999999930865857
0.999999999803762196
0.999999999330738132
0.988306644055260364
0.979751195312288159
0.799427016648504685
0.226564954757598941
0.197498049244608898
0.999999999997972067
0.999999999998011257
0.999999999997545741
0.999999999996749489
0.999999999995238698
0.999999999995663025
0.999999999980434873
0.999999999931718619
0.999999999803805828
0.999999999330755118
0.999999997948826769
0.962073033055371951
0.922587042734346108
0.705485181602421574
0.199093071747246109
0.16664885995962575
0.99999999998120459
0.999999999980082155
0.999999999973367415
0.9999999999629271
0.999999999939001127
0.999999999898728342
0.999999999772922088
0.999999999307352727
0.999999997931058315
0.999999993206378335
0.999999980906274955
0.949838573064513358
0.86981998418259221
0.508030110198856688
0.167820066617450997
0.129078165000959644
0.999999999823624752
0.999999999805539996
0.999999999732027023
0.999999999626898228
0.999999999381273152
0.999999998899615772
0.99999999776859716
0.999999994429985217
0.999999984609308279
0.99999995308361378
0.999999874676112066
0.939252294251092579
0.850680939968003313
0.372649105420744531
0.145600381046777971
0.0947722759151159583
0.999999998766839093
0.999999998693734016
0.999999998163227932
0.99999999748844759
0.999999995879858106
0.999999992767994339
0.999999985953186288
0.999999968498866965
0.999999918599593807
0.999999771146095284
0.999999419573991966
0.944438002385235009
0.795658487272693726
0.256900024454671749
0.126137877770910567
0.0965071234881472589
0.999999993246815877
0.999999993097780981
0.999999990171688835
0.999999986887235792
0.999999978817991408
0.999999963917134638
0.999999932369094235
0.999999859536403024
0.999999660617926889
0.999999113318982058
0.999997859366949626
0.949073220896919478
0.662270792811176956
0.14841940284443414
0.110416008822579542
0.0830792330947010549
0.999999969091915797
0.999999969393753907
0.999999956001886847
0.999999942946089182
0.999999909329191805
0.99999985104533462
0.999999731006073866
0.999999473115328663
0.999998808617252211
0.999997103460604331
0.999993297541118542
0.944438394105026724
0.49876003322839213
0.129593854939129727
0.0913348543233194199
0.068492970287148458
0.999999876945105282
0.999999881530840851
0.999999828378556055
0.999999784343432285
0.999999662687331758
0.999999466974248241
0.99999907335365501
0.999998278366357685
0.999996324890862764
0.999991693652206859
0.999981523965364216
0.927017361198280154
0.414729392388903384
0.110833306148676328
0.0787522192215557582
0.0601888096529928016
0.999999562254213825
0.999999589042311676
0.999999400673213357
0.9999992718725359
0.999998877648028528
0.999998296937554043
0.999997148500466615
0.999994960992141468
0.999989796747152271
0.999978495370621667
0.999954009166646784
0.912526457107782463
0.363503976769367243
0.0941711604152436765
0.0714112835004179769
0.0539716209151810955
0.999998580641034085
0.999998697141796455
0.999998088859630485
0.999997759181904033
0.999996590776702443
0.999995039034450861
0.999991996129898641
0.99998652857791992
0.999974027595094017
0.999948962883737469
0.999894592745412591
0.898648067809115325
0.293068287805855254
0.0811541797700051082
0.0635305574890134839
0.0533263309104882732
0.999995741241191061
0.999996168363247451
0.999994352813082132
0.999993619114698307
0.99999040261656047
0.999986632233791584
0.999979144230641159
0.999966574195116364
0.999938305617433354
0.99988639232080212
0.999774168080420411
0.823646285323609395
0.243872256017244077
0.0685717967498572362
0.0540820011481196045
0.0746649116351685432
0.999988040183114046
0.999989426996868769
0.999984365019203736
0.999982992614829591
0.999974666820999669
0.99996628489039141
0.999949201518839148
0.999921741890806626
0.999861710288386218
0.99976123132482142
0.999535808454821928
0.768552079565234747
0.163916424620781653
0.055188801238974218
0.0403205280616653269
0.0709941670701049882
0.99996828628509471
0.999972378150512098
0.999959089487117314
0.999957177164113364
0.999936731926401645
0.999919609031158618
0.99988295743881539
0.999828415632912915
0.999702688171568044
0.999522090579756051
0.999098267351873348
0.769641527080942689
0.109031534439143735
0.0451064323978638132
0.0360294320337436053
0.0554818685855898164
0.999920032530002167
0.999931173457350275
0.999898146810051847
0.999897386986811521
0.99984942357636919
0.999817539058156513
0.99974215802166766
0.999641651081297322
0.999402167132561026
0.999076024936658591
0.998320404662937699
0.639130146295192159
0.0848128680948126712
0.0381801105243532446
0.015956371840496239
0.00467365114914352568
0.999807170462095218
0.999835437461432441
0.999757455673733531
0.999764568925155528
0.999656677565138096
0.999603600291208982
0.999455500399378471
0.999277821976697567
0.998848219507284751
0.998322241192087678
0.996983182709657578
0.696027415935963845
0.0405907820299081651
0.0259733648911140425
0.0173523548156417975
0.0102300172187189363
0.99955322876821906
0.999620408507960523
0.999445069649764983
0.999479694175164246
0.999245943063082676
0.999170198143369825
0.998890059144317277
0.998593876892859944
0.997830583046980801
0.997062607235982168
0.994736030268359883
0.570916774380106462
0.0285526853789485544
0.0106224215839861823
0.00797411789416796468
0.0171773156971740809
0.999999999998674172
0.999999999998674172
0.999999999998235189
0.999999999997536082
0.999999999996250333
0.999999999993293698
0.999999999987045918
0.999999999972228659
0.999999999930582861
0.999999999801696404
0.99999999931319894
0.987590913004883886
0.979884566614860564
0.800985028138095245
0.23933938930618448
0.200270405572272214
0.999999999998331113
0.999999999998337774
0.999999999997774225
0.999999999996993738
0.999999999995132116
0.99999999999539424
0.999999999980243803
0.9999999999313125
0.99999999980173282
0.999999999313215815
0.999999997894255199
0.962523233409522172
0.923593855703356503
0.707147011589434826
0.220001081904985796
0.172532213440641791
0.999999999986616261
0.999999999980643484
0.999999999977321696
0.99999999996225164
0.999999999936421746
0.999999999896362457
0.999999999774623949
0.999999999299084674
0.999999997906550142
0.999999992986583153
0.999999980318495352
0.950287564765273984
0.868769456775840165
0.514669617910296751
0.172386923481186088
0.133208779648418513
0.999999999872736356
0.99999999980826626
0.999999999774337511
0.999999999611685952
0.999999999353878732
0.999999998879558039
0.999999997800066209
0.999999994349317745
0.999999984423500132
0.999999951446721602
0.9999998702685573
0.939059713075842017
0.850567815972020691
0.376040505721448592
0.147147027966306992
0.0769633943185098895
0.999999999109605797
0.999999998696255554
0.999999998472496432
0.999999997328384183
0.999999995695523114
0.99999999266163353
0.99999998621751951
0.999999967934651846
0.999999917618134004
0.999999762456542429
0.99999939698768292
0.944245840813912163
0.792739569364969365
0.260690906700200009
0.123521438120525628
0.106568944896672346
0.999999995120445351
0.999999993026630118
0.999999991933079202
0.999999985736904407
0.999999977901985027
0.999999963511723933
0.999999933942940844
0.999999856381956764
0.999999656722035279
0.999999076347317883
0.999997769528536362
0.949753519848435257
0.674030626470995875
0.14939216169352626
0.112893433760342388
0.0868587916207329835
0.999999977647870297
0.999999968700854502
0.999999964375416051
0.999999936445960746
0.999999905764144548
0.999999849902626803
0.999999738460615739