/*--------------------------------*- C++ -*----------------------------------*\
| =========                 |                                                 |
| \\      /  F ield         | OpenFOAM: The Open Source CFD Toolbox           |
|  \\    /   O peration     | Version:  2206                                  |
|   \\  /    A nd           | Website:  www.openfoam.com                      |
|    \\/     M anipulation  |                                                 |
\*---------------------------------------------------------------------------*/
FoamFile
{
    version     2.0;
    format      ascii;
    arch        "LSB;label=32;scalar=64";
    class       volVectorField;
    location    "0.0899999999999999967";
    object      faceForces;
}
// * * * * * * * * * * * * * * * * * * * * * * * * * * * * * * * * * * * * * //

dimensions      [1 1 -2 0 0 0 0];

internalField   uniform (0 0 0);

boundaryField
{
    inlet
    {
        type            calculated;
        value           uniform (0 0 0);
    }
    outlet
    {
        type            calculated;
        value           uniform (0 0 0);
    }
    top
    {
        type            calculated;
        value           uniform (0 0 0);
    }
    bottom
    {
        type            calculated;
        value           uniform (0 0 0);
    }
    left
    {
        type            calculated;
        value           uniform (0 0 0);
    }
    symmetry
    {
        type            symmetryPlane;
    }
    interface
    {
        type            calculated;
        value           nonuniform List<vector> 
352
(
(0.0622570419423444724 -2.63636970133281318e-06 -1.04438988328174534e-06)
(0.0543301027882480692 7.77689493215489508e-07 -1.43527787023604228e-06)
(0.0436358984980853848 1.40762439433025164e-06 -1.35276857425178406e-06)
(0.0340241210181071937 1.48811861550911981e-06 -1.23804480040579139e-06)
(0.0264934856835424004 1.37772536128282319e-06 -1.08863510793650739e-06)
(0.0204541679665988345 1.26764346283441179e-06 -9.59382584179105337e-07)
(0.0156701882531440698 1.1923092036710693e-06 -8.3928622023814897e-07)
(0.0117867872503030525 1.03252025319292081e-06 -6.77662003063790588e-07)
(0.00857146499685536127 8.42218793078403748e-07 -5.18457808452743598e-07)
(0.00594457741323054997 8.94762536385901263e-07 -5.04365303025724937e-07)
(0.00382634800711567722 8.40580575679408087e-07 -4.49512309970871776e-07)
(0.0023145854280458328 6.67783041698720954e-07 -3.40824745143518256e-07)
(0.00140301631067691907 4.46075538948180005e-07 -2.23780854423035872e-07)
(0.000848546636185342623 3.26837017849587452e-07 -1.58503167662029117e-07)
(0.00073379083912675756 3.78677965383460421e-07 -1.70825259853864383e-07)
(0.000725688864989153378 3.14162507411596328e-07 -1.44393996721451288e-07)
(0.0827958615638181988 -8.5351713451438846e-07 -6.97856805685300828e-07)
(0.0732297087327235946 8.60372776277929171e-07 -8.46464244346860164e-07)
(0.0605629103370252247 1.21272574061642297e-06 -8.04718391544009672e-07)
(0.0486917595476756351 1.36548854447686414e-06 -7.55377138220397099e-07)
(0.0387403112474326294 1.37438875494106419e-06 -6.98037076017087993e-07)
(0.0304572386791496924 1.15190501829354131e-06 -5.59349445506035152e-07)
(0.0235377512243688594 1.18406339009831172e-06 -5.50260742647855529e-07)
(0.0177620654595352576 1.03647397246876812e-06 -4.59576273826316926e-07)
(0.012979058654693466 9.54771112966203048e-07 -4.02877467234745111e-07)
(0.00910452697419691578 1.19557075378593745e-06 -4.79146182585522238e-07)
(0.006139750529948103 8.45053135916348092e-07 -3.23219070373130421e-07)
(0.00406674497063881819 5.24177606183572551e-07 -1.94585612222604138e-07)
(0.00273701542814821239 2.13693066645723267e-07 -7.72711330348968544e-08)
(0.00184893416169340605 2.60680470610566693e-07 -9.29466675430920236e-08)
(0.00122704144434879572 3.97149376912190896e-07 -1.43121377029845781e-07)
(0.000863312813521887961 4.08157791333960743e-07 -1.50191339029219656e-07)
(0.0915112818996769578 -9.83259785739533553e-07 -3.36609718957632081e-07)
(0.0821395733061087013 8.59135222309653363e-07 -5.05627052467446946e-07)
(0.0694563306501150418 1.1375964158306123e-06 -4.86098600884913103e-07)
(0.057282579927964733 1.00910968073798886e-06 -3.72120309503426179e-07)
(0.0466240955587983591 1.20463508287222696e-06 -4.19550589940028788e-07)
(0.0369888851100033667 1.03753504578150519e-06 -3.45870057607361489e-07)
(0.0285674474407896679 1.0427123070617676e-06 -3.33261061226149001e-07)
(0.021533303876022522 1.01143508375079715e-06 -3.06418221104211859e-07)
(0.0157374397344942352 1.08130947459850732e-06 -3.12739560184145941e-07)
(0.0111513277667782459 1.23397096233296661e-06 -3.36287823814290829e-07)
(0.00770831302108565628 1.2584546886780385e-06 -3.28665381598565643e-07)
(0.00520389871887106965 8.37917922212851182e-07 -2.0970550181510706e-07)
(0.00373147244348874529 8.08775910028413489e-08 -1.94831726323218329e-08)
(0.00281268310014172246 1.57352786273187697e-07 -3.38627796887476846e-08)
(0.00197507366400303652 2.7168804206610405e-07 -5.47548142617432093e-08)
(0.00125538052477717132 3.74908518754299129e-07 -7.34684580241206134e-08)
(0.0959697739200066485 -9.94239263078503822e-07 -1.70629879711192842e-07)
(0.0873309128679919389 8.54635685948350263e-07 -2.70075997426511455e-07)
(0.0749854905309323555 1.07764922062174473e-06 -2.4333398073564889e-07)
(0.062446871792618118 1.20284874064342649e-06 -2.312624886192148e-07)
(0.0512579871291528044 1.07648888246539918e-06 -1.91460188278004805e-07)
(0.041190012579738422 1.15073039860490519e-06 -1.92090909545959464e-07)
(0.0320258825935708716 1.0677703236677563e-06 -1.71044568475731292e-07)
(0.0241253337873443621 1.0938597456777081e-06 -1.67570804023664052e-07)
(0.0176615597254877396 1.11835519422500885e-06 -1.64607570072247982e-07)
(0.0126763430176158876 1.33448088802700258e-06 -1.91428012092755881e-07)
(0.00897966621413959047 1.36286498865409404e-06 -1.93224294657907819e-07)
(0.00604872259714626763 1.18130872833051239e-06 -1.64207501305180465e-07)
(0.00420544288244220719 1.01447113819092647e-07 -1.28496645003617226e-08)
(0.00345932429068372769 7.61722946702944371e-08 -8.57878294757565577e-09)
(0.00253459424508698352 1.62786425230004272e-07 -1.27844194680123502e-08)
(0.00149873566728050208 3.4370550042338474e-07 -2.20165877593372392e-08)
(0.0969709738854250131 -1.07988835056946948e-06 -1.04502751319221601e-07)
(0.0886635834928574812 8.42626991613876288e-07 -1.18049289859153013e-07)
(0.0769303981816230886 1.06415764265349459e-06 -9.40242738018833711e-08)
(0.0647866339984775885 1.29396295122065821e-06 -9.74527537567090032e-08)
(0.0537312779955886263 1.21170833915152938e-06 -8.57220146727006522e-08)
(0.0437748898261319103 1.12836996588359964e-06 -8.06898004230959009e-08)
(0.0345456802187553216 1.15059842688431219e-06 -7.66941016730605533e-08)
(0.02634034493084908 1.16386606774106683e-06 -7.44338709731755636e-08)
(0.0197878147756503989 1.29668011355450903e-06 -8.06909232920420739e-08)
(0.0146699596160461149 1.4158357401958138e-06 -8.91994462468056346e-08)
(0.0106603531707172763 1.40246300076627487e-06 -8.7626766922236919e-08)
(0.00756580407314598469 1.19249462304599949e-06 -7.51941195105555276e-08)
(0.00504560531153920664 8.81769025513459565e-07 -4.46516465903788554e-08)
(0.00345434788460616347 4.02139564992165352e-07 -1.48911464858970813e-08)
(0.00278227986268250391 7.99493360570930627e-08 -1.24604397047475253e-09)
(0.00190316486220646328 6.89810868423681334e-08 1.71989377109394821e-09)
(0.0968070195271150957 -1.08413709297041558e-06 -1.24853458685162152e-07)
(0.0883446640184636506 8.71464659691448092e-07 -7.83521972481414244e-08)
(0.0767816023297805683 1.12950582907479345e-06 -4.1923153463567702e-08)
(0.0652881309459790865 9.13335753158771347e-07 -1.49774639454939738e-08)
(0.0546857339231135026 1.27492152813107498e-06 -8.26277577840430501e-09)
(0.0445752710653397263 1.13407251563444505e-06 -2.88124369307121984e-09)
(0.0354817468029819255 1.05223666585779829e-06 3.22111685632720539e-09)
(0.0277022046633465732 1.04995569345215826e-06 6.53746154449157431e-09)
(0.0212552590460065478 1.08033141988766596e-06 1.02630649345979903e-08)
(0.0160275813190826275 1.14297780519581767e-06 2.05552174235481157e-08)
(0.0118161321898803389 1.51279585731159235e-06 4.07517501467787656e-08)
(0.00847485515062196618 1.39684654065070189e-06 5.42656704100968364e-08)
(0.00599238011382594027 9.92988527045596052e-07 6.41572394295614733e-08)
(0.00418388833371902483 4.50393833208198243e-07 3.9462881006915871e-08)
(0.00289287125149223327 1.72244197965710592e-07 1.68630028840988782e-08)
(0.00180312465154391357 2.25355406882578353e-07 2.67889204590960431e-08)
(0.0953745451968912167 -1.03096910588884377e-06 -2.26358680743039066e-08)
(0.08653738617877553 9.54695364221691455e-07 5.5495720413371907e-09)
(0.0748466841402405658 1.17816834874219543e-06 3.18470642874126466e-08)
(0.0631155554174870903 1.29779755635276774e-06 5.66236219046211685e-08)
(0.0523786419573644829 1.38279484741565851e-06 7.30247285915395933e-08)
(0.0427403737841020939 1.21998015367950875e-06 6.77693692408959764e-08)
(0.0341591487657621068 1.14445463078376294e-06 5.77963987914713029e-08)
(0.0265977893336805833 1.15097562995410921e-06 5.41554256415858907e-08)
(0.0201927750867502975 1.20847073676310648e-06 5.77884329995850499e-08)
(0.0149439572123692115 1.35005450402454927e-06 7.24447350444597166e-08)
(0.0104896508788589263 1.69283081604553659e-06 9.94544559344606386e-08)
(0.00704521948126149433 1.45174456185377996e-06 8.94825849835206809e-08)
(0.00498290562678205349 4.54618047782440001e-07 2.92009377948148328e-08)
(0.00363380440349131721 4.3584707496474533e-07 2.69248867041189722e-08)
(0.00251007630963260122 5.74236584657393687e-07 2.93265634095604724e-08)
(0.00204201097341865723 6.83270073778008394e-07 2.27974249143131201e-08)
(0.0942243077505564436 -1.03106741397905216e-06 1.97332437446698594e-08)
(0.0855336150605983531 9.43165856889499312e-07 2.44910730449199977e-08)
(0.0733854885501993293 1.5216912715794389e-06 3.49910205994021755e-08)
(0.0614071600780109195 1.49073220379893038e-06 4.59988333294719509e-08)
(0.0511349985446951857 1.31263106261820229e-06 4.24178524662795297e-08)
(0.0420832333621837945 1.29727978573656936e-06 3.75418442554702881e-08)
(0.0337826757739284542 1.34262874814278515e-06 3.23284101435435981e-08)
(0.0263694556682988399 1.58880152867876411e-06 3.57273714790320804e-08)
(0.0198476962292761273 1.83360300998952286e-06 4.35676441746090087e-08)
(0.0143275970806606163 1.67645148872080593e-06 4.4566843549864465e-08)
(0.0102522287043358314 1.0897499847517811e-06 3.83256350872568754e-08)
(0.00762885159329016252 5.38301726986599e-07 2.28913002509720764e-08)
(0.00595769578920789331 6.58956730757073299e-07 2.91715003800624204e-08)
(0.00490259846642639857 5.57724885178640446e-07 2.34610453331982887e-08)
(0.00436653862760469705 6.20882408885087687e-07 2.28944529899894224e-08)
(0.00441737604848065329 7.22479199606344936e-07 1.21595466861929978e-08)
(3.02552579944067373e-06 9.78142884899070551e-07 -0.0117350334450067369)
(2.69180969725581255e-06 4.09003488090074777e-07 -0.0135671085345177439)
(1.7745688600778718e-06 3.13339632209456068e-07 -0.011556428604811271)
(1.00509880884651079e-06 2.42406822820552233e-07 -0.00837160838999817351)
(4.81872000633512632e-07 1.45497020948779275e-07 -0.00535258871268542123)
(4.96835523106732815e-08 2.41320577082942467e-08 -0.00303468216459068518)
(1.89180717620944274e-07 1.31619323357112362e-07 -0.00325660454701812412)
(6.37757296007375751e-08 5.82601707357825231e-08 -0.00187694986837095537)
(3.97086649747667669e-08 5.09185663845015023e-08 -0.00171791385510042596)
(4.98295583159610587e-08 8.74601805974730277e-08 -0.00176331548069055821)
(5.54591834490455662e-08 1.23879548046666271e-07 -0.00172517802655411021)
(1.26474197413603407e-07 2.93377993618687816e-07 -0.00165150651590097956)
(7.95246760794984841e-08 2.06041512096144714e-07 -0.00127038490410153284)
(2.11734392616175522e-08 6.58139253950190581e-08 -0.000804410579944476968)
(6.238737846403597e-09 3.5013812006607755e-08 -0.000502893308959287107)
(-4.81617078777052091e-10 3.11696566700447678e-08 -0.000459065062171505503)
(1.76243663047488156e-06 5.32169774609838318e-07 -0.00406350737437129357)
(1.44969077990134616e-06 1.75388768785730197e-07 -0.00431343804347948234)
(6.4239475316830503e-07 -3.64162941284487292e-08 -0.00297041345811190462)
(1.37079159269012344e-07 -2.1367211042645647e-08 -0.0017452498142900251)
(1.3414873545951955e-08 -2.00401338243231854e-08 -0.00124744444713433553)
(-3.81150612096031704e-08 -9.64777221969165812e-09 -0.00122097972072845919)
(3.07474609748710177e-09 7.00060151632277618e-09 -0.00106511823202946128)
(-3.15208842807068553e-08 -1.11878386319791421e-08 -0.000985010179715152187)
(-3.02955151761892419e-08 -4.16740409274110462e-09 -0.000994028555741598889)
(-3.10030817047916366e-08 -6.02235688641631431e-09 -0.00100209946792041617)
(-2.17792948164998981e-08 -7.75766355475799268e-09 -0.000993771024486084014)
(-9.57332222912741585e-09 7.31988330836527875e-09 -0.000890144746702872759)
(-3.99108306770681263e-09 2.89910782223427908e-09 -0.000680583261838675212)
(-1.46559450521442342e-09 -1.44916680546427622e-09 -0.000515093073639776022)
(-6.8416259271569351e-09 -4.93831122811631906e-09 -0.000443356501562232016)
(-1.22569753415187747e-08 -3.50189423996483909e-09 -0.000450452882684490173)
(1.06946965008401858e-06 2.3656447153806753e-07 0.000931248008218249295)
(6.17217626772420126e-07 3.04557217886784242e-08 0.000150052880581958906)
(1.03652660254454275e-07 -4.39887659385654308e-08 -0.000287651841598463541)
(-1.19043473167490129e-08 -1.03356177721214107e-08 -0.000509867997677597223)
(-2.24730519529686599e-08 -2.30064164056671539e-09 -0.000582613092752440223)
(-1.85289833002274115e-08 -5.7110945619977355e-09 -0.00062672126372267272)
(-1.75633440987926657e-08 -5.42502736941466291e-09 -0.000610686918770863467)
(-1.23720318924845034e-08 -2.53615949801299213e-09 -0.000631789045890532265)
(-1.28232339513636612e-08 -4.79579904734807967e-09 -0.000632362202431012194)
(-1.2776125231072808e-08 -6.8836255148075276e-09 -0.000618948924615473294)
(-1.11680373675637731e-08 -9.18926114749130691e-09 -0.000582205679753116127)
(-8.56030010979276455e-09 -9.90535360621553793e-09 -0.000518187703162794624)
(-1.55751942669224965e-09 -7.21470021918398846e-09 -0.000459061500036738552)
(3.10243182666420113e-09 -2.58788515285377844e-09 -0.000416428312643966913)
(7.22847831039448281e-10 9.83743236278259151e-10 -0.000392675799239519175)
(-3.26260705513889766e-09 3.37398266287114817e-10 -0.000390175266287128941)
(5.16480465746934004e-07 6.54867917460629594e-08 0.000846034296691025979)
(2.48016767701797282e-07 3.24285982387303595e-09 0.000235097754045191008)
(2.06983095983941452e-08 -1.17072511361369344e-08 -0.000125087797605807969)
(-2.22749991347155236e-09 -2.22910324698777577e-09 -0.000252078842646051929)
(-7.8502797385902067e-10 -2.94068826468154842e-09 -0.000299456445696452374)
(-5.4823131968453404e-09 -2.35772667736749065e-09 -0.000316440907627836684)
(-5.99890650077672139e-09 -1.97859428607006261e-09 -0.000325002574555805889)
(-6.75424201341058446e-09 -2.57552126724063827e-09 -0.000333511385752082064)
(-6.65464765387175622e-09 -2.70403204913131731e-09 -0.000340504724254819683)
(-6.13382328629022378e-09 -2.92968243422443086e-09 -0.000339916509645367144)
(-4.78463461845523044e-09 -3.22674399703554102e-09 -0.000331441152757273655)
(-2.86516884998440556e-09 -3.30968685962257077e-09 -0.000316842303157955187)
(-3.54280279787191293e-10 -2.43902961449518743e-09 -0.000303755477646728005)
(1.39130916013310019e-09 -2.94844381717903076e-10 -0.00029817969204017406)
(6.6101619100409784e-10 1.90189681921288938e-09 -0.000300268930015936352)
(-5.09721647144951666e-10 2.28933954701518259e-09 -0.000313410947203820772)
(-0.000158638954671505621 4.18938943236463711e-09 -8.09320038816597971e-09)
(-0.000138077823129973375 -4.35973580556316928e-09 -1.3985683358366299e-09)
(-0.000111060267744040261 -2.15437263456845794e-09 -3.2878217172740802e-09)
(-8.52188295259811318e-05 -2.14208682846354276e-09 -2.70084202911075944e-09)
(-5.96424372528738238e-05 -1.9108228367976274e-09 -7.2545106951036266e-10)
(-3.32109635488932027e-05 -1.41674534290216278e-09 2.73210893251745179e-10)
(-5.64209399605309243e-06 -8.7405571005096156e-10 5.56474689114346247e-10)
(2.20020715893234522e-05 -5.74323657938130734e-10 1.06934010689426294e-09)
(4.91248095762549376e-05 -3.6464395190185135e-10 1.67363721134360808e-09)
(7.64241820216029485e-05 1.65825126507560113e-11 2.04919267900617721e-09)
(0.000104030311163906536 3.77571531568550968e-10 2.67969881807342467e-09)
(0.000132587153924283675 8.97523966274320642e-10 3.26622114388744203e-09)
(0.000162896912800957128 1.35120160356708274e-09 3.58164383585278338e-09)
(0.000194918025378674104 1.66903626264044194e-09 3.81839345269681843e-09)
(0.000228576560027948225 2.00400451132318844e-09 4.11246635471038376e-09)
(0.000264980080229705909 2.27597273094653607e-09 4.32490291331034058e-09)
(-0.000245806550983202149 -4.34518329314243873e-10 -1.8948358151887768e-09)
(-0.000211770737574778204 -7.81183698455083482e-10 -1.57713328170727829e-09)
(-0.000178558862097430194 -6.88926866036971102e-10 -8.78256927652705025e-10)
(-0.000146652160625425685 -5.79324720475500801e-10 -3.20407987590209901e-10)
(-0.000115127341840147589 -3.8481009688152606e-10 2.46491976134168175e-10)
(-8.34594091242873607e-05 -1.58674498331277956e-10 7.16919257449605358e-10)
(-5.1544866230368454e-05 4.98710588794671205e-11 1.00527757400037965e-09)
(-1.94293144977993611e-05 2.75010715115327687e-10 1.25481752657762353e-09)
(1.29796581432073493e-05 5.18717893118905751e-10 1.58829343173989902e-09)
(4.57961661814792356e-05 7.77676105357422433e-10 1.96111092164965914e-09)
(7.91265970736545435e-05 1.04392287564097661e-09 2.33468031215043052e-09)
(0.000113344340629213832 1.31117109194168761e-09 2.66616828990328867e-09)
(0.000148875598829257449 1.57262241273476589e-09 3.00770454750960037e-09)
(0.000186163501354807211 1.92075669022887367e-09 3.22795964393842831e-09)
(0.000225779946583837038 2.29517688679909427e-09 3.44851663086976602e-09)
(0.000269156899221418948 2.43323669778964431e-09 3.49892022753103683e-09)
(-0.000288248448585510326 -6.92787126787088824e-10 5.48237079938621318e-10)
(-0.000251454216207405679 -3.28061596636376224e-11 7.89120590794588458e-10)
(-0.000215596453248008922 3.95627495449770776e-11 9.91004438595472672e-10)
(-0.0001803246433255739 1.84595333107946374e-10 1.21164422185829097e-09)
(-0.000145408075766992291 3.21568013874047597e-10 1.42230258449323956e-09)
(-0.00011056637809802271 4.90526241118226553e-10 1.57105228542917771e-09)
(-7.56345913100017644e-05 6.93734861738289742e-10 1.70584516631643946e-09)
(-4.05258549374789951e-05 8.8874391519234435e-10 1.85819225561177243e-09)
(-5.18873853501528354e-06 1.06706221689539595e-09 2.01390073017190508e-09)
(3.04631779186593479e-05 1.24978865439932748e-09 2.17435373917225334e-09)
(6.66353247377854375e-05 1.46901040676199802e-09 2.3339763160663248e-09)
(0.000103628535800220033 1.70002084646845944e-09 2.4766887513113266e-09)
(0.000141819768539328591 1.94346598172985758e-09 2.59753820833118441e-09)
(0.000181694472904154948 2.20979952970017033e-09 2.68611168513978515e-09)
(0.000224032143644243729 2.53961517418820958e-09 2.75972045442299532e-09)
(0.000270456547910781064 2.62636582833429248e-09 2.8858833464976873e-09)
(-0.000311193785321968507 -1.76543999091616127e-10 1.53250544608777993e-09)
(-0.000273419648470806518 1.96782031586125197e-10 1.60665569390777507e-09)
(-0.00023615773946520849 3.14577900092337723e-10 1.65208428928995957e-09)
(-0.000199273285840645046 4.6070883531562331e-10 1.69348773509791115e-09)
(-0.000162631633642079611 6.09500378221428974e-10 1.75138991997628405e-09)
(-0.000126100480184257837 7.72418859172678244e-10 1.82594736461122411e-09)
(-8.9551713749923636e-05 9.38730389958743751e-10 1.89612166686071274e-09)
(-5.28948949598794581e-05 1.10949953698067761e-09 1.958873899175039e-09)
(-1.60602588380580109e-05 1.28181631638139995e-09 2.01885873474136383e-09)
(2.10536553224762934e-05 1.45695977125425677e-09 2.07489725468106419e-09)
(5.86020871869306003e-05 1.63957314969672842e-09 2.12322965364822323e-09)
(9.67890885189932534e-05 1.82822998201435986e-09 2.160359044653628e-09)
(0.000135908237931011767 2.02026151883175169e-09 2.18288633780256568e-09)
(0.000176406639347740133 2.23990602767851003e-09 2.18705721121430804e-09)
(0.000218965670806969164 2.58076217828959923e-09 2.16796481928103446e-09)
(0.000265063371778258142 2.70558196446021465e-09 2.22347190305185533e-09)
(-0.000324261310023288296 2.70390528032493888e-11 1.46617201514478835e-09)
(-0.000286172731404487333 2.29442015562440674e-10 1.50329494811818418e-09)
(-0.000248321489295891859 3.80464545908718989e-10 1.51293974771263206e-09)
(-0.000210670082225085343 5.35475106320862792e-10 1.53382414477849338e-09)
(-0.000173164884441853506 6.89509324121380564e-10 1.55621874995779398e-09)
(-0.000135741083512806656 8.47812240429886532e-10 1.58227488601641793e-09)
(-9.83371076346996868e-05 1.00798286507301059e-09 1.60621646760662988e-09)
(-6.08961877013756024e-05 1.1693404266532666e-09 1.62587137158308369e-09)
(-2.33652194729321859e-05 1.33118265471492718e-09 1.64038775015142437e-09)
(1.43227871296674769e-05 1.49403692581056131e-09 1.65025610499541532e-09)
(5.22546215123224404e-05 1.65784281750294055e-09 1.65199492803595646e-09)
(9.05522025823278894e-05 1.82028276094258548e-09 1.64086856657892117e-09)
(0.000129395640264806536 2.00356358531614409e-09 1.62238664925245991e-09)
(0.000169040180947770759 2.21609104063262817e-09 1.58581880675228531e-09)
(0.000209840190829040541 2.47498911248972464e-09 1.54102957366315771e-09)
(0.000252697503602803363 2.80200185113972358e-09 1.60233171577237191e-09)
(-0.000331988054926841037 1.06594971808551456e-10 1.11603053418972874e-09)
(-0.000293767444249971507 2.37056613984644404e-10 1.15369039377041006e-09)
(-0.00025566351020519509 3.96665524972966762e-10 1.14589741284417367e-09)
(-0.000217664359639648176 5.57729344402312247e-10 1.14893235881100857e-09)
(-0.000179749398902348317 7.15297941441696322e-10 1.15423205614382267e-09)
(-0.000141895298156641042 8.71743867644748897e-10 1.15999852557978834e-09)
(-0.000104082365507045675 1.02599144572973048e-09 1.16208619830067189e-09)
(-6.6293135747330718e-05 1.18013539175526047e-09 1.16311932817450247e-09)
(-2.8512879018644444e-05 1.33325984259042788e-09 1.15980640642625786e-09)
(9.27216405792178221e-06 1.4818762204694107e-09 1.14967521161251795e-09)
(4.70805041584946386e-05 1.63336013538008444e-09 1.13092856650740521e-09)
(8.49390303136073857e-05 1.78948473667483375e-09 1.10019463173944032e-09)
(0.000122881571931617413 1.94830073385907769e-09 1.05163703552571053e-09)
(0.000160932645335349147 2.11771866903263303e-09 9.76715068788567807e-10)
(0.000199094612112195757 2.27732285595156598e-09 8.8601491183537024e-10)
(0.000237522655932492668 2.69048876320629199e-09 9.98416806393137264e-10)
(-0.000336345312399151896 1.34306711803396734e-10 6.87682524168250068e-10)
(-0.000298072468414364345 2.3946072753591453e-10 7.15003204234610731e-10)
(-0.000259851789520300445 4.00356621970006614e-10 7.0551450584558061e-10)
(-0.000221691564817808994 5.6072746409519755e-10 7.04436151022937053e-10)
(-0.00018359041137225841 7.17355766725451863e-10 7.04364928326038085e-10)
(-0.000145548476286768092 8.70760460340022291e-10 7.03419152458057637e-10)
(-0.000107573471024469545 1.02021350769625036e-09 7.00527121658971673e-10)
(-6.9679770157088963e-05 1.16538112459699462e-09 6.94356452801439955e-10)
(-3.18903226486044565e-05 1.30204631604762248e-09 6.82424754662386639e-10)
(5.76267895313883643e-06 1.4363870062433621e-09 6.60957553741899778e-10)
(4.32334814586161773e-05 1.56822286168170834e-09 6.22259396484898463e-10)
(8.04638131210435789e-05 1.69166263101930681e-09 5.58101201800876766e-10)
(0.000117392263577039362 1.79387988041349755e-09 4.40219600116095298e-10)
(0.000153920620231748627 1.8432512264582094e-09 2.3765697574888678e-10)
(0.000189834631553518709 1.65620571953156097e-09 -1.3920391243195341e-10)
(0.000224502681916493717 2.19703601741503634e-09 -3.0971755121000568e-10)
(-0.000338292776852741985 1.48100311764698274e-10 2.32209726062989392e-10)
(-0.000300003700872948295 2.37456584862051567e-10 2.40858628042993945e-10)
(-0.000261739589204245272 3.97054081446281064e-10 2.3773487731815466e-10)
(-0.00022351959360086929 5.55736673230943422e-10 2.3719905836465123e-10)
(-0.000185352707011119256 7.0944454126059021e-10 2.36754973949648558e-10)
(-0.000147251103734889185 8.58499643252712429e-10 2.35767875182138397e-10)
(-0.000109237562147609926 1.00104527872675091e-09 2.3376975065150987e-10)
(-7.13464937842581696e-05 1.13325397236677063e-09 2.30117058850994933e-10)
(-3.36291882496195189e-05 1.25222785092664646e-09 2.23211366154515863e-10)
(3.83627150394837248e-06 1.35378302470004527e-09 2.10033757777066484e-10)
(4.0933302887160295e-05 1.42483518859370785e-09 1.85432767022690315e-10)
(7.74841554389767726e-05 1.42337418181868171e-09 1.42612121743189277e-10)
(0.000113229693741936411 1.25074527792796335e-09 5.87721643743928437e-11)
(0.000147778393630626568 5.94309632249932604e-10 -5.91716733500183264e-11)
(0.000180598018383874414 -8.00588700784667481e-10 -5.92714499981043761e-11)
(0.000211392299212820073 3.12619607067478333e-10 1.30221773208114041e-09)
(-1.55696929058591481e-08 0.001645020414983187 -3.63242855098883816e-09)
(-2.30663067284052496e-08 0.00229039287022422084 -8.68964564621342103e-09)
(-2.80930050758084268e-08 0.00259238851890712229 -1.16070686789422594e-08)
(-1.70987493757337991e-08 0.00241698278140450038 -8.71594603732842543e-09)
(-9.96006063416311911e-09 0.00186338720540146405 -7.66969551367292072e-09)
(-3.81555459955901763e-08 0.00111020036452466326 -1.80505249646602251e-08)
(-8.50701545402049331e-08 -5.89505672864140885e-05 -7.723598686484783e-08)
(-4.78250844809111681e-08 -0.00157758726914241807 7.37315640226762269e-10)
(-1.47016384956848722e-08 0.00129984483666972404 1.21389028353231177e-08)
(-1.06154434309247297e-08 0.00160325197634596283 8.65419849262344783e-09)
(-1.75594120290139035e-08 0.00172352769655245925 6.72768762540175193e-10)
(-1.35513668998801824e-08 0.00157240454852928787 -1.00450547522849674e-08)
(-4.28436587606598775e-09 0.00120290097007465669 -1.60945340992890994e-08)
(-6.72970201862601034e-09 0.000809310317972922557 -1.90050368257441724e-08)
(-2.82514546284805154e-08 0.000308286933213294248 -1.45870135746839814e-08)
(-9.27421380100573369e-09 -0.000471099717979978311 3.52242395503596095e-08)
(-3.83852625527339058e-09 0.000952736194657557902 9.82567247558100919e-09)
(-1.86850134260923338e-09 0.00110038473643416174 6.80046965683142792e-09)
(-3.02404163339982839e-09 0.00116554337352525045 3.23105705326246082e-09)
(-6.46940663059591764e-10 0.00108389619082261226 -9.39513392865665903e-10)
(3.46452937091030576e-09 0.00088583024051654656 -3.74526800019939356e-09)
(1.15543305708131678e-09 0.00065892381058585978 -6.23714566138519564e-09)
(-4.93020617268988731e-09 0.000421642857380747683 -9.4292905169343802e-09)
(-9.99858516783143321e-09 5.64563844368069762e-05 2.1199589488809958e-08)
(-4.66567751308592676e-10 0.000714875571621103548 6.76726068746009729e-09)
(-7.65858009184988048e-10 0.000784768410141551179 5.20081770367097413e-09)
(-1.38481515532266269e-09 0.000817930622305764452 3.90986681290096823e-09)
(-3.76311553692797499e-10 0.000780834324971398856 2.51097844628763065e-09)
(1.76419604246356711e-09 0.000685774197658731827 1.49000358986673013e-09)
(2.1363590227597802e-09 0.000570801886989441652 -1.752711947705467e-11)
(-1.34526889012883696e-09 0.000461252746015879545 -4.20035692958699816e-09)
(-3.55429788552377863e-09 0.000303675468942525811 1.16324171859293486e-08)
)
;
    }
}


// ************************************************************************* //
