/*--------------------------------*- C++ -*----------------------------------*\
| =========                 |                                                 |
| \\      /  F ield         | OpenFOAM: The Open Source CFD Toolbox           |
|  \\    /   O peration     | Version:  2206                                  |
|   \\  /    A nd           | Website:  www.openfoam.com                      |
|    \\/     M anipulation  |                                                 |
\*---------------------------------------------------------------------------*/
FoamFile
{
    version     2.0;
    format      ascii;
    arch        "LSB;label=32;scalar=64";
    class       surfaceScalarField;
    location    "0.179999999999999993";
    object      alphaPhi0.water;
}
// * * * * * * * * * * * * * * * * * * * * * * * * * * * * * * * * * * * * * //

dimensions      [0 3 -1 0 0 0 0];

oriented        oriented;

internalField   nonuniform List<scalar> 
20789
(
1.89028677941337657e-05
-1.89799742776552758e-05
-4.44051475113723366e-06
4.51762128356103055e-06
4.13702540521726083e-05
-2.25525414800262735e-05
-4.87520149188635215e-06
4.96035676592432613e-06
6.38005830049521143e-05
-2.25226568892440854e-05
-5.52428147999920499e-06
5.61660948906875763e-06
8.66542981902505144e-05
-2.29571979961699463e-05
-6.59692038896958945e-06
6.70040330197602108e-06
0.000110104588389920962
-2.35678355657859814e-05
-8.16716782548338729e-06
8.28471331928528429e-06
0.000134791370935665204
-2.48268232338149752e-05
-1.03955063629319343e-05
1.05355472162519257e-05
0.000161150971264251819
-2.65125073293006836e-05
-1.35072383748497406e-05
1.36601456020710304e-05
0.000189273696650141141
-2.83624202210951787e-05
-1.78833881254291024e-05
1.81230832944361601e-05
0.000218917147698026178
-2.98378077327582653e-05
-2.37856601542040749e-05
2.39800173587751643e-05
0.000250135423540291885
-3.18433140933798654e-05
-3.25657044648145372e-05
3.3190743520062805e-05
0.000281391710019292468
-3.15340621679567973e-05
-4.4090520288596433e-05
4.43682971007381555e-05
0.000309092534128592932
-3.02635167840813193e-05
-6.18416901139621307e-05
6.42823293709697671e-05
0.000333515035060178225
-2.64360003224614271e-05
-8.65138072388634308e-05
8.83418984968214864e-05
0.000334566784394752556
-1.99999839784540987e-05
-0.000125701672686270356
0.000144097447790663991
0.000259068328707585233
1.06688303193791284e-05
-0.000165792150420203638
0.000198085021493234138
5.67401460229678624e-05
-0.000262860543780672035
0.000430993545972842306
1.93281296228812342e-05
-3.83900683347729836e-05
-4.44768876270099885e-06
4.52965324836660755e-06
4.10203830169691443e-05
-4.43324338789362733e-05
-4.83174200070472859e-06
4.91938107510596968e-06
6.22822905068768121e-05
-4.38790669277171571e-05
-5.4706730951213793e-06
5.56517574021295951e-06
8.40010489465319379e-05
-4.47808197129374421e-05
-6.51989694390192964e-06
6.62476033860056965e-06
0.000106940050232456299
-4.66258421587344198e-05
-8.06631978501537306e-06
8.18532523882165719e-06
0.00013126658382245723
-4.92905191013187714e-05
-1.02575160045470745e-05
1.03946784482903734e-05
0.000157084105933694124
-5.24934367905172011e-05
-1.33193491023775236e-05
1.34827567021791481e-05
0.000184667906807821933
-5.61482700356341513e-05
-1.75721090178435405e-05
1.77741584248477537e-05
0.000213701837314836314
-5.91502688442545853e-05
-2.35083284653541581e-05
2.37868598593307395e-05
0.000244209534762052788
-6.27574335336206332e-05
-3.18566501171133564e-05
3.22630732314215229e-05
0.000275333006903058476
-6.33995482481841362e-05
-4.36143558587463056e-05
4.43563710407694797e-05
0.000304080237397208149
-6.07909423088602398e-05
-6.09299594326447264e-05
6.23730404013197483e-05
0.000330397334155305437
-5.64269457054183455e-05
-8.60678850677956111e-05
8.93746901173281673e-05
0.000340988039470040106
-4.4864350022535969e-05
-0.000124329111317691293
0.000137207161829078163
0.000288541480083885366
1.75277349383816267e-06
-0.000177739667004794875
0.000214088714515478008
0.000147098318745294881
-0.000294129116038492849
0.000445962719895475368
1.96897180290738822e-05
-5.81665392153867019e-05
-4.41995881990386361e-06
4.50671195865357565e-06
4.07178004355838048e-05
-6.54517927678317758e-05
-4.80798195598859612e-06
4.89925896009420704e-06
6.18711622179454068e-05
-6.51304999779293733e-05
-5.4361446842232129e-06
5.53421655536733395e-06
8.35950572754027654e-05
-6.66129359810606743e-05
-6.46546761748821701e-06
6.57368955990059103e-06
0.000106462346563952908
-6.96154540064446522e-05
-7.98483648886817615e-06
8.10716000765501264e-06
0.000130727877223249577
-7.3696155922637317e-05
-1.01369689038153718e-05
1.02770762569568513e-05
0.000156551312013303268
-7.84800784121411404e-05
-1.31400102855095499e-05
1.3303218861616416e-05
0.000184142151676080997
-8.39428485849910298e-05
-1.73067087532377703e-05
1.75104508565152619e-05
0.000213353143659139789
-8.86220880788214101e-05
-2.31157916638885153e-05
2.33766243839649594e-05
0.000244232736623464742
-9.40474479075327485e-05
-3.12578340815568287e-05
3.16682628213810278e-05
0.000275636072059641025
-9.54703330022615949e-05
-4.27372052149015982e-05
4.3404660886950024e-05
0.000305167143408262927
-9.22947704968026119e-05
-5.96767064557279377e-05
6.10127369834117346e-05
0.000332430671439802941
-8.84021227138067522e-05
-8.3539984992234194e-05
8.67221405600528963e-05
0.000340201022685356351
-6.75488871725985661e-05
-0.000121320500112966201
0.000133379681234939483
0.000278715840401109994
6.18557786116684893e-07
-0.000173245789634678403
0.00021096216580131051
0.000224480302285919649
-0.000285531159590752994
0.000437965610920633755
1.98233443821907161e-05
-7.80822612625905571e-05
-4.37100847072576215e-06
4.46338861799431081e-06
4.03322884481026355e-05
-8.60559575970565972e-05
-4.75522021573469602e-06
4.85044516446106725e-06
6.1268055765467707e-05
-8.61684206032318687e-05
-5.36838864241915872e-06
5.47054681595287783e-06
8.28780914874678988e-05
-8.8334778384472178e-05
-6.37100274998091602e-06
6.48281542107091776e-06
0.000105610262504890817
-9.24735147598244677e-05
-7.85089629761875682e-06
7.97679404826564311e-06
0.000129749352705653062
-9.79771293917716576e-05
-9.94639881993368974e-06
1.0088293009341073e-05
0.000155512622894906835
-0.000104405448402221211
-1.28635096497855294e-05
1.30256252914810484e-05
0.00018308605813356231
-0.000111712774715559991
-1.6909043956812186e-05
1.71055614792949664e-05
0.000212474553576765467
-0.00011825556151894782
-2.25292780026477651e-05
2.27742997938916116e-05
0.000243862806019913374
-0.000125819970119012652
-3.03981101923627885e-05
3.07824426609516267e-05
0.000275749730438662021
-0.000127949988251222749
-4.14899581991799154e-05
4.20827574842324648e-05
0.000306738727474697645
-0.000125322278559156079
-5.77700058012931795e-05
5.91008475522281955e-05
0.000335922179935584987
-0.000122259773002131132
-8.02960533832153473e-05
8.31805720223588419e-05
0.000339571115750108383
-9.20227625021435321e-05
-0.000117331535924526957
0.000128413380727076919
0.000272177908988215718
5.58964757246795522e-06
-0.000168329572218914986
0.000207384580201824782
0.000298592596117436911
-0.000278547860556625337
0.000427685151169343288
1.97652398548543158e-05
-9.79472021160736361e-05
-4.30177048277632297e-06
4.40148690587702676e-06
3.98720360687197548e-05
-0.000106262639616783671
-4.6768393410919532e-06
4.77674912505614446e-06
6.05288032452136365e-05
-0.000106932287149403253
-5.27099702575021509e-06
5.37812444503346359e-06
8.19492062930225924e-05
-0.000109871006668011987
-6.24060402682511005e-06
6.35646411560982857e-06
0.000104494137398916374
-0.000115148805814283684
-7.66973015196231267e-06
7.8001368494234337e-06
0.000128461592089985672
-0.000122087922440342343
-9.69232063787424954e-06
9.83572436870411816e-06
0.000154118548650933947
-0.000130222140929833193
-1.24992028315642852e-05
1.26590335368461215e-05
0.000181679243279446223
-0.000139455773994330866
-1.63911015137883856e-05
1.65735582947688973e-05
0.000211292686845534626
-0.000148095235507572697
-2.17659991186663736e-05
2.19924773843277933e-05
0.000243212117767341128
-0.000158069019923987123
-2.93022387575090281e-05
2.96322320916006483e-05
0.000275754045311521587
-0.000161019874884955671
-3.99021602152594538e-05
4.04305916986502382e-05
0.000308803539738273516
-0.000160373156555389262
-5.52415514755933085e-05
5.65366307999348784e-05
0.000340006481663182657
-0.00015841593477237598
-7.63928068288430041e-05
7.90390252463209165e-05
0.000338087729284464948
-0.000117991484781881334
-0.000112562334574669941
0.000123113559290893002
0.000252610649759631362
1.38647438597117571e-05
-0.000163744478595996042
0.000198844913714876542
0.00036086910294010695
-0.000275179634779279883
0.00040911648396899699
1.95834744431259152e-05
-0.000117640537512980081
-4.21312227030607032e-06
4.32305713360625916e-06
3.9315811376183748e-05
-0.00012610061772473706
-4.57524128345481326e-06
4.68099009946585661e-06
5.96437527208700208e-05
-0.000127373434203937143
-5.14640869459104261e-06
5.25974055671518122e-06
8.08025372385882414e-05
-0.000131150348925902538
-6.07686605889489509e-06
6.19758144775556768e-06
0.000103101073764055005
-0.00013758419520419496
-7.44481426755377113e-06
7.58187781286371248e-06
0.000126842655147114866
-0.000145974824845567495
-9.37985163979705735e-06
9.52546834445568175e-06
0.000152339649048587045
-0.000155874847455370139
-1.20560729866513562e-05
1.22122132689302031e-05
0.000179872757134671502
-0.000167150586570491855
-1.57614142452530023e-05
1.5923784125021041e-05
0.000209692141173191014
-0.000178111549011206725
-2.08500284963944686e-05
2.10480328427608789e-05
0.000242153992990923344
-0.000190775918224094133
-2.79943895300518638e-05
2.82411204218929294e-05
0.000275629958370705061
-0.000194965867864406168
-3.79912175979034436e-05
3.84635611473372702e-05
0.000311146365635539253
-0.000197853029113027586
-5.22515257073088735e-05
5.34321134535311151e-05
0.000343094913036641469
-0.000196330494996378914
-7.20408265212937432e-05
7.43130975651017138e-05
0.000335515435955273931
-0.000143358767732122157
-0.000107187939538954397
0.000117230458039761407
0.000227226244735761519
2.38862385140716605e-05
-0.000157672188275610032
0.000192394483482322836
0.000399233939739729424
-0.000270147831416962336
0.000394254690591704993
1.93109203983132249e-05
-0.000137075578529887202
-4.10634874938796278e-06
4.23076104218660065e-06
3.86555365220532949e-05
-0.000145558093809267108
-4.45265659157320703e-06
4.56591998029405324e-06
5.86079831916901616e-05
-0.000147446542589934189
-4.99712786594395951e-06
5.11826173939870094e-06
7.94367550969015128e-05
-0.000152105780518144916
-5.88263345406193148e-06
6.00988486712881179e-06
0.000101424852269882933
-0.000159719586335148247
-7.17998260099252299e-06
7.32806166854740145e-06
0.000124876901610733801
-0.000169575372504584811
-9.01552832022619649e-06
9.16512168273526125e-06
0.00015015308109061885
-0.000181299856016545733
-1.15436816869221673e-05
1.16940895825021966e-05
0.000177606626401865457
-0.000194736447454758562
-1.50331478448838116e-05
1.51678591620525296e-05
0.000207611654216315929
-0.000208262280079544944
-1.980497546100691e-05
1.99544954069037551e-05
0.000240659349433862407
-0.000223955503510976992
-2.64925796590830654e-05
2.66305947485164585e-05
0.000275322507177612127
-0.000230049859449179975
-3.57957300473118949e-05
3.62254804528996732e-05
0.000313617320505487468
-0.000237958567142962423
-4.88972904181982955e-05
4.98859918897566099e-05
0.0003438334228062138
-0.000236428911061162934
-6.71829302796269809e-05
6.9027585384004103e-05
0.000327641917199885855
-0.000166344578841468916
-0.000101303148663216654
0.000110020959927866437
0.000200473015136298522
3.56728220722772827e-05
-0.000149183107534334787
0.000189177653794360537
0.000415199942024072294
-0.000261604276646933685
0.000380756043856684179
1.89659194318118157e-05
-0.000156184886737930283
-3.98302635102437952e-06
4.12740424028118084e-06
3.78877027030943603e-05
-0.000164601572097229377
-4.3114066035996259e-06
4.43441443812434731e-06
5.74134478357825507e-05
-0.000167101600501888949
-4.82594524979832427e-06
4.95678886097408234e-06
7.78462757821127494e-05
-0.000172673896773035772
-5.66108680593853981e-06
5.7982949669647686e-06
9.94575639475787736e-05
-0.00018149478651114951
-6.87972026109996691e-06
7.04615458427386352e-06
0.000122547966208504431
-0.000192817665984145944
-8.60752684608587595e-06
8.7628925509891895e-06
0.000147527457265881923
-0.000206414818007212266
-1.09727342407205774e-05
1.11131706593658083e-05
0.000174829743197204613
-0.000222127364350039908
-1.42231992807484201e-05
1.43192683622195379e-05
0.000204946848351620411
-0.000238436074040056359
-1.86534157356868624e-05
1.87217122671140458e-05
0.000238513118026194976
-0.000257515671370021361
-2.48316734655824414e-05
2.48444208925762184e-05
0.000274642316005185741
-0.00026651422742855421
-3.33735146632807298e-05
3.37372794524293628e-05
0.00031646017962092942
-0.00028050326284658931
-4.52154378180198144e-05
4.58705222323415313e-05
0.000346724052760538908
-0.000279180994785546005
-6.19546069171550656e-05
6.33096521683627705e-05
0.000320038515732219979
-0.00018541337246677698
-9.47720089525762766e-05
0.000101586907134848547
0.000182026158271871366
4.60900686378353929e-05
-0.000135143782168989926
0.000182698116941931038
0.000418715207862328266
-0.000250448965557956626
0.000359361786013625434
1.85527401250806155e-05
-0.000174904918394380487
-3.84507705946277279e-06
4.01533638426187397e-06
3.70051904797644575e-05
-0.00018318571485063725
-4.15396287485860867e-06
4.28946492962902648e-06
5.60485209659624295e-05
-0.000186282423795702324
-4.63645460273671777e-06
4.77836565598997092e-06
7.60240847864170256e-05
-0.000192796864534049373
-5.41616129450811591e-06
5.56910138425639318e-06
9.71925340168180031e-05
-0.000202850309514400191
-6.55003624179981725e-06
6.74429548793362618e-06
0.000119839993674999816
-0.000215615890287358756
-8.16616700817620193e-06
8.32667475570517383e-06
0.000144435234078050476
-0.000231119582755011951
-1.03556131136452757e-05
1.04789480606642255e-05
0.000171477771704630413
-0.000249191196365596696
-1.33511540904113525e-05
1.33924881208171117e-05
0.0002015663784868894
-0.000268435504485474744
-1.74199285763112992e-05
1.7362035337516761e-05
0.000235520453514912386
-0.000291291742993653256
-2.30705690656406666e-05
2.29432038439337239e-05
0.000273343282500411412
-0.000304483386847278364
-3.07579037825908506e-05
3.09833741182739898e-05
0.000318959054416994301
-0.000326137300171759409
-4.11324919535053902e-05
4.13429364635729043e-05
0.000351266208139217159
-0.000320741655056975118
-5.59739781754696204e-05
5.68730581846139152e-05
0.000304694592217142235
-0.00019780430948538165
-8.68402317061093523e-05
9.14682590907364403e-05
0.000150243556328902425
4.64105460788386603e-05
-0.000127541882429500162
0.000164526714816775558
0.000403416032293415095
-0.000238792544552694021
0.000347730741498944039
1.80604600107235878e-05
-0.000193158074678679821
-3.69511980333288981e-06
3.89586202163265529e-06
3.59919666359627695e-05
-0.000201257598785006673
-3.98305626921610151e-06
4.13348285155221302e-06
5.44983057891365987e-05
-0.000204927534158789207
-4.4344808719840882e-06
4.58482736301539988e-06
7.39658160353915095e-05
-0.000212425984583174891
-5.1533131824620853e-06
5.32939811694098892e-06
9.46267835484572488e-05
-0.000223722610824211859
-6.19969119472147656e-06
6.42954299011580921e-06
0.000116742057498249409
-0.0002378671932919243
-7.70396939777828956e-06
7.8646978193834807e-06
0.000140851427789594517
-0.000255292670823165254
-9.70701008353298768e-06
9.80514378648048426e-06
0.000167484176792960775
-0.000275736787651394578
-1.24399097262407488e-05
1.2402800046579022e-05
0.000197304083103098411
-0.000297940012705033
-1.61436561956140147e-05
1.59005106610119814e-05
0.000231444674825444739
-0.000325017083241162642
-2.12743950618419607e-05
2.09808064905895167e-05
0.000270925434170480369
-0.000343819889959978632
-2.79259256404741085e-05
2.79752918302384676e-05
0.000320276498316076209
-0.000374754803692496218
-3.66407589509319009e-05
3.63458136269366493e-05
0.000347669507406432512
-0.000351655485994366041
-4.9536005281217976e-05
4.9075544774557205e-05
0.00026568861820750405
-0.000201067780923231765
-7.83167060533783611e-05
8.00256264254239371e-05
0.000128336705791327183
4.03348741289336489e-05
-0.000111198763839182458
0.000116012882625939932
0.000383087344812917043
-0.000221340490945814376
0.000305010954152210294
1.74684791614310015e-05
-0.000210837718723402124
-3.53700786549103879e-06
3.76819389680510912e-06
3.48276360367691889e-05
-0.000218757179382746077
-3.80144949828453438e-06
3.96631919002735661e-06
5.2751864879275555e-05
-0.000222969766342009246
-4.22932076303195552e-06
4.3752565196716554e-06
7.16763109491751096e-05
-0.000231521424450960918
-4.87915013375135048e-06
5.08497916642870586e-06
9.17639401200591616e-05
-0.000244032768621295094
-5.83995423301516982e-06
6.10631022616736516e-06
0.000113248868140254695
-0.00025944778684572887
-7.23516471917873096e-06
7.38829657484158538e-06
0.000136752354461459013
-0.000278785065211827889
-9.04524113643773261e-06
9.11281179252152901e-06
0.000162760234682606214
-0.000301481851508722347
-1.15178414624844621e-05
1.13676522640628482e-05
0.00019196427346487277
-0.0003264743540236846
-1.48840499348004675e-05
1.43787071189850992e-05
0.000225972103383948901
-0.000358299448287368075
-1.94747088992428251e-05
1.89928223093973025e-05
0.000266616283148783998
-0.000383938112020040551
-2.48880274548597624e-05
2.47887424931031544e-05
0.000317116710764096333
-0.00042362718453111672
-3.18882251015237825e-05
3.11486337190386919e-05
0.000314745924481377095
-0.000385286739621065548
-4.31514406085844288e-05
4.17946198678760563e-05
0.000180706201369683773
-0.000164095804256313165
-6.66869474584154528e-05
6.16284717020474716e-05
0.000113755742446159142
4.97369267552440314e-05
-8.04042219659187064e-05
8.67225134291738379e-05
0.000399202469196528829
-0.000201738277724203497
0.000270102023334598126
1.67630408913778407e-05
-0.000227806075152758928
-3.38274387263816451e-06
3.63434690388202523e-06
3.35011420762643919e-05
-0.000235613248475015108
-3.60727541341388214e-06
3.78070121698513048e-06
5.08135157700389178e-05
-0.000240332696305318284
-4.03188749615451898e-06
4.14523390182409506e-06
6.91736106416558486e-05
-0.000250041198905178244
-4.59777312539564154e-06
4.8355115995645635e-06
8.86143394091098557e-05
-0.000263672490538350613
-5.48222527256955002e-06
5.77759054313202582e-06
0.000109356864348591752
-0.00028020591936284378
-6.77616042864000417e-06
6.91597658784313514e-06
0.000132104595964334056
-0.00030140486823267078
-8.39300492450218256e-06
8.43195203832923047e-06
0.000157179915727979035
-0.000326008846694820294
-1.06239906594637111e-05
1.03104857991221731e-05
0.00018533365298957323
-0.000353428013198599851
-1.37043183356822752e-05
1.28424367058223255e-05
0.000218686858333708606
-0.000390502748413393741
-1.765682164364277e-05
1.70115466719315864e-05
0.000259162942425992344
-0.000423480454975124908
-2.17913396336461973e-05
2.163795547648005e-05
0.000306457869952518982
-0.000468329702649360701
-2.73719841076929152e-05
2.63521714423267364e-05
0.000265201715027151485
-0.000401811143967647718
-3.70706137297373148e-05
3.62388287612924092e-05
0.000134989129311491709
-0.000120765210248758968
-4.17540105107030464e-05
4.0948393788666553e-05
0.000103662296573056299
5.02307622774721672e-05
-6.62529522074389307e-05
7.03577223625212846e-05
0.000411927790017375115
-0.000186077045480824687
0.000231689430804087266
1.59521530896710152e-05
-0.000243906567493585604
-3.25152822105475126e-06
3.50027511870488253e-06
3.20281356438355995e-05
-0.000251743240831443131
-3.38763165300819581e-06
3.56001970499623326e-06
4.87097406800432019e-05
-0.000256912268283668809
-3.85258055865007085e-06
3.88322281142729106e-06
6.6489826765180304e-05
-0.000267923077690979995
-4.30588540538751507e-06
4.57204387174912189e-06
8.51882427376715276e-05
-0.000282482979404893365
-5.14111429564685246e-06
5.45189141029030299e-06
0.000105056491528337812
-0.000299960600620608256
-6.34483611657157523e-06
6.48312474860698403e-06
0.000126854332270493945
-0.000322892293222782614
-7.77898647859159391e-06
7.80033441874197948e-06
0.000150601658756637066
-0.00034874789132385885
-9.80759723201754463e-06
9.25790183584445786e-06
0.000177204684289295101
-0.00037806546305916189
-1.26399404319918549e-05
1.13255759411202561e-05
0.000208894814418219817
-0.000420535751044313259
-1.57989234128695389e-05
1.51039406679620276e-05
0.000246457342397186181
-0.000459473566522818468
-1.88608392682942716e-05
1.87822345683827881e-05
0.000282480129991822745
-0.000500250949205067455
-2.34696442140275771e-05
2.20775488570551982e-05
0.000190004694214154768
-0.000391427999407998868
-2.95311121083216755e-05
2.80638905892965323e-05
0.000100981461268296712
-8.64292527929584094e-05
-3.02298109226930477e-05
3.00039167499800269e-05
8.16377314146560999e-05
4.722266864930078e-05
-5.35121693878117997e-05
5.49502587178134021e-05
0.000412347834467897045
-0.000163093000086933043
0.000192600853293861533
1.50765971886085374e-05
-0.000258978976289814277
-3.16076404564667048e-06
3.36261697298434837e-06
3.04742304595501555e-05
-0.000267069801635516526
-3.11269536321039079e-06
3.28110802087122389e-06
4.6485210024119291e-05
-0.000272505855923687863
-3.70840654776251523e-06
3.5564764391186701e-06
6.36728630638694728e-05
-0.000285086318730859564
-3.98999397101546615e-06
4.29321398605561571e-06
8.14670772509981444e-05
-0.000300191174763882673
-4.84830961726351817e-06
5.1493692366919573e-06
0.000100317185049841995
-0.000318542360830114865
-5.94559018868606944e-06
6.1602631681292093e-06
0.000120903007241715898
-0.000342852855004977181
-7.24512478734963626e-06
7.24291196982359157e-06
0.000142902379332564988
-0.00036901423204849644
-9.11485285925845004e-06
8.22628759943368418e-06
0.000167355683969613314
-0.000399519368278019931
-1.16654263424142357e-05
9.8514807404107276e-06
0.000195838778922849388
-0.000446740573251931325
-1.38950025320287045e-05
1.33661292888464156e-05
0.000228230042400004923
-0.000489211221620979952
-1.62816540566660988e-05
1.62704321027561826e-05
0.000244616390496731214
-0.000510217170508586726
-1.96047158400183691e-05
1.77793673251673605e-05
0.000113018809009494115
-0.000315369596650746248
-2.03842830878403261e-05
1.72193431066002727e-05
7.23328807028277075e-05
-6.16559621169341147e-05
-2.26920761883771799e-05
2.2248027697873774e-05
6.38317569141068781e-05
3.98769554164252237e-05
-4.16990218520729822e-05
4.13946407943000043e-05
0.000383975665750959077
-0.000136179970852261267
0.000154549602649406399
1.42368392105006815e-05
-0.000272906264747696807
-3.11418771787604721e-06
3.20738651375792051e-06
2.89728707036793189e-05
-0.00028150589888775436
-2.74819382589804185e-06
2.91013827303254398e-06
4.41927897527562538e-05
-0.000286713732240705262
-3.62157337738441539e-06
3.11551089379478762e-06
6.076408742073677e-05
-0.000301441201050073944
-3.62661826160792295e-06
4.03194424645164822e-06
7.73444581956956559e-05
-0.000316300512875787294
-4.64473732301142959e-06
4.89031828590894232e-06
9.50328752209706021e-05
-0.000335841933992523593
-5.54700572188977031e-06
6.03964934074823629e-06
0.000114015336962768464
-0.00036058936281016269
-6.85391961732768321e-06
6.7205172315296893e-06
0.000133854139725515374
-0.000386050678370075586
-8.55098135681173251e-06
7.22189886701238665e-06
0.000155401080011035773
-0.000416815773797195332
-1.06675616408092027e-05
8.45516375754527882e-06
0.000178785053832505311
-0.000466995833574003439
-1.19486426926890017e-05
1.18342896865576014e-05
0.000203561567367837741
-0.000509458735278510238
-1.39382927986939592e-05
1.39399481549423599e-05
0.000194293743106982935
-0.000492331714258820749
-1.50765180558958885e-05
1.30872542006356338e-05
8.27881640212170398e-05
-0.000233794166734307789
-1.12643368949623083e-05
9.33160122838068578e-06
5.12200570182798554e-05
-3.91406855308942865e-05
-1.68044379777744808e-05
1.58205139739017159e-05
4.71340023143697106e-05
3.22895804027820035e-05
-2.92371806197262794e-05
2.76539057707739645e-05
0.00032735824733445628
-0.000108696958185977723
0.000129422057123836743
1.36095729690610632e-05
-3.06417901287062273e-06
3.03082028585919894e-06
-0.000285728015803770686
2.76191475477098502e-05
-2.32043128816841243e-06
2.41217492140852181e-06
-0.000294753535737614294
4.18382827217533113e-05
-3.53593350428501588e-06
2.60857809221343371e-06
-0.000299081150165022213
5.75968973968185669e-05
-3.22789613093721801e-06
3.80309336638886979e-06
-0.000316645152060661861
7.25206510386906263e-05
-4.48118328983625045e-06
4.68503321060936907e-06
-0.000330158502260845428
8.88018928223674757e-05
-5.12722593373714033e-06
6.08267230524839583e-06
-0.000351536069376182211
0.000105664579559686656
-6.61112154494952596e-06
6.11046191871119715e-06
-0.000375047665701375578
0.000122861210876620488
-7.98385712273203384e-06
6.23935242644774409e-06
-0.000399028768090474526
0.000140726294157515004
-9.43734588940149125e-06
7.06286833691910791e-06
-0.000428995588085105673
0.000157818825560723325
-9.96604629979086056e-06
1.03741646579411761e-05
-0.000479646067408350191
0.000175602611226645839
-1.15433351509136622e-05
1.15135015489859227e-05
-0.000520017260287193171
0.000146492961687232526
-1.04666045546060403e-05
8.44911059283413561e-06
-0.000466905224492559514
4.98665403663195003e-05
-6.25075800873919175e-06
5.19677532464387443e-06
-0.000130446633316311196
3.0312118274802506e-05
-1.0571526458457067e-05
9.64843635580641399e-06
-2.20607310208952476e-05
3.32458265041391809e-05
-1.8720479814588391e-05
1.75358836702871589e-05
-9.35838581252789532e-05
0.000102811142262747158
1.86672351583994121e-05
-1.89173988516297178e-05
-4.19035101205339812e-06
4.08559177240583351e-05
-2.24602161801615558e-05
-4.60366782848147581e-06
6.29501840273716549e-05
-2.24026249098144502e-05
-5.21592280586048715e-06
8.5379935591083092e-05
-2.27988918789763367e-05
-6.22777997993771398e-06
0.000108284155370502917
-2.33619955688772078e-05
-7.70939191976032245e-06
0.000132238245684157362
-2.45422222130556647e-05
-9.80737431386513722e-06
0.000157575333499973834
-2.61061902859930786e-05
-1.27381357001336478e-05
0.00018425433421152666
-2.77617444795195977e-05
-1.68006440571559165e-05
0.000211800280968120675
-2.89938270696754638e-05
-2.23377793780924589e-05
0.000239930874482876643
-3.04825277677439401e-05
-3.02137695103922728e-05
0.000266368562284638726
-2.96890614907636255e-05
-4.08391456653242916e-05
0.000287077307324060409
-2.70043040613728929e-05
-5.56741621272530452e-05
0.000299668312991850216
-2.21842327149381669e-05
-7.71064420902845362e-05
0.000290398309220525738
-1.05946365315734682e-05
-0.00010639065804599522
0.00021236534404657197
1.83842839132725531e-05
-0.000136442526101735573
7.44115476179944515e-05
-0.000157344444692272958
1.90891890471877075e-05
-3.82611404535854332e-05
-4.19313615959686866e-06
4.05038845545631159e-05
-4.41465364063659539e-05
-4.56011721693685439e-06
6.14443499523350986e-05
-4.36502490123399402e-05
-5.16351430158839301e-06
8.27660857675453418e-05
-4.44867844853293249e-05
-6.15374004535676133e-06
0.000105183633828834821
-4.62331439736586813e-05
-7.61271930778507654e-06
0.000128807103518855179
-4.87464394073717594e-05
-9.67676834623925165e-06
0.00015365479529902049
-5.17214025489764676e-05
-1.25518283912471109e-05
0.000179873887708391892
-5.50313848601503765e-05
-1.652156063113265e-05
0.000206942883020606855
-5.75535809459703826e-05
-2.20175692137879777e-05
0.0002345938116934885
-6.03611311152227781e-05
-2.96289745101772201e-05
0.0002614081877818623
-6.00050018536318709e-05
-4.0112790672643872e-05
0.000283548909208783623
-5.53238605026985751e-05
-5.51161497241002703e-05
0.000299569082451321504
-4.86800108588002767e-05
-7.59600828129315046e-05
0.000296235583655490419
-2.85407388674126887e-05
-0.000104304655587214367
0.000240318774289704861
2.77150554445510006e-05
-0.000145338785415567717
0.000164649512002105401
-0.000193983728581672562
1.9448976192475014e-05
-5.79666388001045358e-05
-4.16343639641000134e-06
4.02073326129133706e-05
-6.51776144412444963e-05
-4.53525986243240513e-06
6.10447178040106412e-05
-6.47944381445053266e-05
-5.12934019132243914e-06
8.23768307802533872e-05
-6.61836537136825914e-05
-6.10071069926554297e-06
0.000104731423097898362
-6.90386913156708994e-05
-7.53388058812299371e-06
0.000128307420641162639
-7.28987903057816248e-05
-9.56061444729056363e-06
0.000153179199936895658
-7.73510853891771729e-05
-1.23821051258604121e-05
0.000179435864269764892
-8.23261238051641297e-05
-1.62686312545066075e-05
0.000206728895379183601
-8.63008211337170354e-05
-2.16615778679003017e-05
0.000234809825113995894
-9.0643750325292735e-05
-2.90561387462536467e-05
0.000261992358977464624
-9.05602735707753407e-05
-3.93644637165347326e-05
0.000285159398461586695
-8.4780247737040434e-05
-5.40334336771518571e-05
0.000301600657409536327
-7.73730098486668236e-05
-7.37546269612411555e-05
0.000293228283554049414
-4.64261674299162099e-05
-0.000102429483232455818
0.000229215284513546545
4.01495425466233077e-05
-0.000139976445354741274
0.000247473984539810146
-0.000199506549713772424
1.95839305663036867e-05
-7.78081874524326158e-05
-4.11338805337665866e-06
3.98317384151086932e-05
-8.56976977496315677e-05
-4.48294090891587518e-06
6.04597663591000724e-05
-8.57265865956668825e-05
-5.06426367382382995e-06
8.16879068799279299e-05
-8.77729635692514197e-05
-6.00982794764062318e-06
0.000103921418096601065
-9.17180197310559734e-05
-7.40507174894292137e-06
0.00012739185625438646
-9.69373606842303639e-05
-9.37825650868094657e-06
0.000152234344903182545
-0.000102937081210965613
-1.21199877692577267e-05
0.000178519088201559883
-0.000109624818147089308
-1.58950685484933343e-05
0.000206057384918841778
-0.000115250740464645568
-2.11176165121538701e-05
0.000234750279715807984
-0.000121477989299413104
-2.82567133745031143e-05
0.000262596197351185501
-0.000121656618667995809
-3.82394825748606575e-05
0.000287576410726694896
-0.000115940046188665039
-5.22860999026061602e-05
0.000307499139288190822
-0.000108321350734964951
-7.09398311984830277e-05
0.000296611215842263994
-6.61205668026882505e-05
-9.91008613272826195e-05