/*--------------------------------*- C++ -*----------------------------------*\
| =========                 |                                                 |
| \\      /  F ield         | OpenFOAM: The Open Source CFD Toolbox           |
|  \\    /   O peration     | Version:  2206                                  |
|   \\  /    A nd           | Website:  www.openfoam.com                      |
|    \\/     M anipulation  |                                                 |
\*---------------------------------------------------------------------------*/
FoamFile
{
    version     2.0;
    format      ascii;
    arch        "LSB;label=32;scalar=64";
    class       volVectorField;
    location    "0.630000000000000338";
    object      faceTraction;
}
// * * * * * * * * * * * * * * * * * * * * * * * * * * * * * * * * * * * * * //

dimensions      [1 -1 -2 0 0 0 0];

internalField   uniform (0 0 0);

boundaryField
{
    inlet
    {
        type            calculated;
        value           nonuniform List<vector> 0();
    }
    outlet
    {
        type            calculated;
        value           nonuniform List<vector> 0();
    }
    top
    {
        type            calculated;
        value           uniform (0 0 0);
    }
    bottom
    {
        type            calculated;
        value           nonuniform List<vector> 0();
    }
    left
    {
        type            calculated;
        value           uniform (0 0 0);
    }
    symmetry
    {
        type            symmetryPlane;
    }
    interface
    {
        type            calculated;
        value           nonuniform List<vector> 
67
(
(0.0190961385738092106 -0.028580864835654092 -165.476090415659627)
(0.00691530352071633662 -0.00915254111326738694 -69.0291586367025047)
(0.0151495275584013038 -0.0309418043342619617 -130.62891807670843)
(0.000881122269432928575 -0.000307948180272093802 9.90564631939005658)
(0.00200493084961730992 -0.00272560351415797797 -11.5619237183853052)
(0.00799570648644083032 -0.0208965515874048532 -64.0078374391671616)
(0.0157869534653640765 -0.0442941614281220364 -129.72913264729408)
(0.000213350383787463542 -0.000905018748801755682 22.1597687461216992)
(0.00142134682078145277 -0.00639245347768969095 4.44120952871228258)
(0.0056699961363401094 -0.0248537809699447901 -42.4801568759476353)
(0.0111761975497145193 -0.0387241688726848166 -89.5048223220122736)
(-16.9983403182522039 7.88117920750274896e-05 -7.69508577729935986e-05)
(-15.2901379948896263 -0.000104704537794892582 -0.000168483966258956968)
(-4.50933585956010674 -0.00283085679287717632 -0.00154700973697181172)
(-17.9137195542356586 5.10654013254165838e-05 -8.44059342796934749e-05)
(-17.5941856524190143 5.61620579550454278e-05 -2.34443257620385309e-05)
(-10.7060877832648984 -0.00178204164423462924 -0.000681684245640126296)
(-18.0949446522101169 4.94438056752239855e-05 -6.58580325275414025e-05)
(-17.8829450255278211 3.72882107646618126e-05 -7.69649448670780999e-06)
(-13.322532423142377 -0.0011944309305969771 -0.00039323127488273752)
(-18.4094841786323009 4.51740994809122958e-05 -6.69359412966064515e-05)
(-18.2121827096267452 1.8119858519261518e-05 -2.9361919509196158e-06)
(-14.1388094258189803 -0.00107928428446557156 -0.000238680910361777375)
(-18.7834731889649156 4.67313191525361627e-05 -6.01043548261299097e-05)
(-18.613138563874692 3.87084281115291739e-05 -7.82254177157016082e-06)
(-14.3358810273657014 -0.00104679157688635405 -0.000314585240097236456)
(-19.014501619009387 6.52163409214622512e-05 -5.28363736585924304e-05)
(-18.7258476282065196 6.11354272327186614e-05 -3.82038576894923671e-06)
(-13.977706923779639 -0.0010959262001608034 -0.000178131261270882309)
(-18.9543794226258129 0.000113156177808220417 -2.30221619101765578e-05)
(-17.5004966414350704 0.000195566791327856694 1.22669216472029403e-05)
(-11.8794622274556136 -0.00185304088099713053 -0.000105769887037305191)
(-20.7312607138475506 9.31416413900451959e-05 1.84317626714448177e-05)
(-14.4815540384594463 -0.000636902643699944755 6.21912324946699883e-05)
(-0.578335240567580122 -0.00583475337965914161 -0.00014492877333416681)
(0.00611191185404487154 -250.191535782606422 -0.0174824514774364337)
(0.00400017434980988115 -299.438276327892197 -0.0144847945590313772)
(0.00300639999204394513 -329.842356065898571 -0.0119415045765233103)
(0.00283250909473462594 -345.604230350599551 -0.00945933491750544468)
(0.00279698628952735305 -355.737726227391931 -0.00797551810866585845)
(0.00286119046787855925 -366.061529929800201 -0.00537597517200304967)
(0.00270189664629783086 -374.57081484877898 -0.00308376027375280174)
(0.00208004512456369962 -380.261153249207325 -0.000891013271942292322)
(0.00169025659143985521 -261.130667757348419 -0.0161658323849846568)
(2.967976138837617e-05 -337.226250192208568 -0.0150498076283378229)
(-0.000573245076139241292 -384.211642442325115 -0.0118220977704403037)
(-0.000496828371287361798 -407.995628650679066 -0.00943829503237812728)
(-0.000331822384026582136 -421.82536485973236 -0.00795908473540059974)
(-0.000877651231193800774 -432.482889126633381 -0.00560210641518942704)
(-0.00218378149861076041 -444.699201509307329 -0.00392454391469191765)
(-0.00274483367105037707 -457.055500660617952 -0.00150492659435072507)
(0.006851209703895615 -259.529176845189966 -0.0180031659207584294)
(0.0119818369465588461 -344.426602258768469 -0.0149710310829674013)
(0.0132188428637283438 -389.19937891491719 -0.011361995483499877)
(0.0133453488761698692 -405.413380120895681 -0.00848791199739146011)
(0.0141278566147781132 -413.41156290622456 -0.00737080803338598621)
(0.0147130679651678656 -421.709559647863728 -0.00639172693968162106)
(0.0140841733840896301 -445.509244661592277 -0.00500493417046973116)
(0.0125808514776913159 -468.891038417089078 -0.00167565380265678201)
(0.00918268350211427255 -159.618236938793927 -0.0107243561903496917)
(0.0130157017397251728 -211.05989372023555 -0.00848417714551994752)
(0.0150122939982471892 -229.137759539651086 -0.00602678272586653664)
(0.0160696948432918138 -232.888183669604302 -0.00448242478835983015)
(0.016040345308589072 -229.968204599443141 -0.00431403453355128867)
(0.0155368223111399147 -233.697240912021073 -0.00445977422215720811)
(0.0159652000389034314 -257.882964151698218 -0.00353865744182815757)
(0.0178678637270443044 -286.349546514087137 -0.00134718437883058493)
)
;
    }
    procBoundary1to0
    {
        type            processor;
        value           uniform (0 0 0);
    }
    procBoundary1to2
    {
        type            processor;
        value           uniform (0 0 0);
    }
    procBoundary1to3
    {
        type            processor;
        value           uniform (0 0 0);
    }
}


// ************************************************************************* //
