/*--------------------------------*- C++ -*----------------------------------*\
| =========                 |                                                 |
| \\      /  F ield         | OpenFOAM: The Open Source CFD Toolbox           |
|  \\    /   O peration     | Version:  2206                                  |
|   \\  /    A nd           | Website:  www.openfoam.com                      |
|    \\/     M anipulation  |                                                 |
\*---------------------------------------------------------------------------*/
FoamFile
{
    version     2.0;
    format      ascii;
    arch        "LSB;label=32;scalar=64";
    class       volVectorField;
    location    "0.330000000000000071";
    object      faceForces;
}
// * * * * * * * * * * * * * * * * * * * * * * * * * * * * * * * * * * * * * //

dimensions      [1 1 -2 0 0 0 0];

internalField   uniform (0 0 0);

boundaryField
{
    inlet
    {
        type            calculated;
        value           uniform (0 0 0);
    }
    outlet
    {
        type            calculated;
        value           uniform (0 0 0);
    }
    top
    {
        type            calculated;
        value           uniform (0 0 0);
    }
    bottom
    {
        type            calculated;
        value           uniform (0 0 0);
    }
    left
    {
        type            calculated;
        value           uniform (0 0 0);
    }
    symmetry
    {
        type            symmetryPlane;
    }
    interface
    {
        type            calculated;
        value           nonuniform List<vector> 
352
(
(0.625555122806610076 -8.06110872404913689e-06 -2.06875614937324437e-05)
(0.592819273933377189 5.00093948872196444e-07 -2.2040730055630904e-05)
(0.559693776025935175 1.51582036284948481e-06 -2.17320292217551541e-05)
(0.52819190078726308 1.70902473300464143e-06 -2.13415479524414888e-05)
(0.497851940832933104 2.24400409558542911e-06 -2.16409984064792118e-05)
(0.467739501144148973 2.92117114822696378e-06 -2.09507606434642857e-05)
(0.437903297850744055 3.68881395275646686e-06 -1.99786951703899425e-05)
(0.407732157368167092 4.70690174617401781e-06 -1.9525181838554651e-05)
(0.376610489434660189 5.82971254326665924e-06 -1.88745790275871039e-05)
(0.343707770673774504 7.23605146937935396e-06 -1.82233201707262196e-05)
(0.307057645285528813 9.13368683947041892e-06 -1.76054431308132342e-05)
(0.264242308638975132 1.20445832012538272e-05 -1.78364155013208767e-05)
(0.214641613691867961 1.48614876937921097e-05 -1.72554861797620715e-05)
(0.159236345812952262 1.78732042719451094e-05 -1.69927663952422746e-05)
(0.102051074389409926 2.07013427985407407e-05 -1.67885368868202384e-05)
(0.0556855340847062508 2.16772001790225443e-05 -1.63194983544505656e-05)
(0.718523018512111755 -4.33153549225997511e-06 -1.3038289836217126e-05)
(0.683895859630826886 9.89689147846242817e-07 -1.47303352425823631e-05)
(0.648462007762704351 1.86399973534885566e-06 -1.44718907292886019e-05)
(0.613633785636213624 2.39082779529137613e-06 -1.41558327251127817e-05)
(0.579427653884215355 3.11339510786734591e-06 -1.41920778120181092e-05)
(0.54462383663485292 4.18515470986778197e-06 -1.46011056634174074e-05)
(0.509204296832721059 4.9200483384607564e-06 -1.36660894149182433e-05)
(0.473724208114241541 6.01428438758496812e-06 -1.33139204362235817e-05)
(0.437577868069891185 7.23680457363366394e-06 -1.29014048908122898e-05)
(0.39999357674181607 8.66863066760746309e-06 -1.2464013216267444e-05)
(0.359105037484220124 1.04318946100612699e-05 -1.20594909433662208e-05)
(0.313022286785048842 1.29869751656318289e-05 -1.2043629193880177e-05)
(0.260920528374409266 1.59617744946574079e-05 -1.20716083126773149e-05)
(0.202787529488684781 1.88316319454214035e-05 -1.19503417905138864e-05)
(0.141505317754931303 2.18175386127451482e-05 -1.20151768932143498e-05)
(0.0850954048001493213 2.33480894280095337e-05 -1.2047838886374513e-05)
(0.761167618181811223 -4.3736838053052052e-06 -1.03750651758277489e-05)
(0.726573050731137093 1.13218439241963311e-06 -1.15998914714625763e-05)
(0.690564687999051796 2.36127301212230191e-06 -1.1649166622830274e-05)
(0.654429745788500661 3.11162995961388155e-06 -1.13781980994085678e-05)
(0.618646690392666176 3.85557129871706998e-06 -1.12317632912368784e-05)
(0.582436844386772457 5.09272978151408706e-06 -1.16754941522593685e-05)
(0.545311976020453226 6.07857798552510346e-06 -1.13511355015765698e-05)
(0.507779060696447071 7.0747810697533717e-06 -1.08633006747633033e-05)
(0.469812904372315432 8.29747194291484285e-06 -1.05921992257761482e-05)
(0.43062404613371974 9.72229482964315281e-06 -1.02967705372028597e-05)
(0.388742954909548744 1.13968133931020849e-05 -1.00141366578335269e-05)
(0.342686868575016179 1.36732421657994079e-05 -9.99567994391886012e-06)
(0.290830560749755662 1.68988510093855022e-05 -1.0425386651539251e-05)
(0.232433993465003902 1.96042036540940776e-05 -1.03877527343721369e-05)
(0.169700510891139356 2.24894027787266932e-05 -1.04844233919179522e-05)
(0.108164512941029523 2.43067801282339012e-05 -1.06135459114108248e-05)
(0.777922359962469834 -3.24745215455174975e-06 -6.1599904538375558e-06)
(0.743134722307401185 1.36355346254223758e-06 -7.65614612510055613e-06)
(0.706737679486655224 2.59362194913481666e-06 -7.6477098243247606e-06)
(0.669968719634440601 3.50568676917706369e-06 -7.44341729858764396e-06)
(0.633478516251842594 4.33655014682526876e-06 -7.30353678746830352e-06)
(0.597127835166965992 5.32061024928935551e-06 -7.23856113043547474e-06)
(0.559897779414850416 6.88067493421818548e-06 -7.79607347929700599e-06)
(0.521098601978585818 7.87904038261875632e-06 -7.49181710557874511e-06)
(0.481888482292986142 8.89025590718075732e-06 -7.05163873692079033e-06)
(0.442084910298444211 1.02837514301771433e-05 -6.83392780507250928e-06)
(0.400090752676670824 1.18386361198196584e-05 -6.65939791920153868e-06)
(0.354728267924666052 1.4076818814027905e-05 -6.72981686314763721e-06)
(0.304036115055763223 1.74179119131529606e-05 -7.20617791713935976e-06)
(0.246556273288379563 1.98337092861695027e-05 -7.20394286135417848e-06)
(0.184005450623840106 2.25537166173079263e-05 -7.29963486869618593e-06)
(0.120643234312074701 2.46637297543168716e-05 -7.51115387024646957e-06)
(0.787131711357427211 -2.66596873690317944e-06 -5.05343115685263154e-06)
(0.752497038651302685 1.47096871948352866e-06 -5.69639248259297203e-06)
(0.716300917738690868 2.72254734868734182e-06 -5.75962477726905861e-06)
(0.679521452418015981 3.74281980909654539e-06 -5.7121881875700402e-06)
(0.642943806409332241 4.69222413653896202e-06 -5.66592732799570328e-06)
(0.606420208836590979 5.6664753115695837e-06 -5.59347070812659071e-06)
(0.569369526093338907 7.14871139793388728e-06 -5.81053589013276062e-06)
(0.530636106895804094 8.81752236588269006e-06 -6.0043516334653843e-06)
(0.490282174751533018 9.69352212005731301e-06 -5.51159526101825054e-06)
(0.450016032917650854 1.07129813221195337e-05 -5.11454791000955565e-06)
(0.408393179069048651 1.21781569765651026e-05 -4.97238714143021891e-06)
(0.364040570920551088 1.40501151622937969e-05 -4.93213782913016829e-06)
(0.314965809573393651 1.76146967636659029e-05 -5.41255678804981911e-06)
(0.25913376873495414 2.01880466665983714e-05 -5.51103979111148507e-06)
(0.197328990188442965 2.2743959459074133e-05 -5.57878124341968925e-06)
(0.13365860693749565 2.49880328823310119e-05 -5.74350050654731889e-06)
(0.791320724398039799 -2.06297027590338038e-06 -2.76804308208340925e-06)
(0.756757610840308126 1.56867395377556388e-06 -3.68313683169194527e-06)
(0.720620276973517049 2.79103852895381674e-06 -3.75158728521198243e-06)
(0.683775506149740919 3.85549725315612412e-06 -3.68459903992289391e-06)
(0.647061967056463683 4.89745591688220756e-06 -3.62886458190454294e-06)
(0.610490306515881431 5.9264791163131074e-06 -3.57211220147345687e-06)
(0.573095960960132267 7.52875749203997422e-06 -3.68641067939367832e-06)
(0.534101152264774615 9.24473050287818902e-06 -3.6794897658498177e-06)
(0.493437804878503805 1.0535846691967548e-05 -3.44108830004617122e-06)
(0.452741455177118057 1.10021942313741321e-05 -2.99419216818279355e-06)
(0.411395083722127575 1.24601396594545512e-05 -2.91101105777200821e-06)
(0.366839679021594312 1.42145806624243353e-05 -2.89881545842328825e-06)
(0.31849143927865442 1.68410041548413543e-05 -3.01895735064636692e-06)
(0.264146737849618229 2.07019395332008426e-05 -3.3454770121739933e-06)
(0.202620449696099464 2.31545610351949747e-05 -3.39907710387040708e-06)
(0.137087531243808403 2.50908435161908139e-05 -3.50099432690814636e-06)
(0.793954599879595713 -1.85374427327801222e-06 -1.60179770961037418e-06)
(0.759249275564005788 1.65383175918500624e-06 -2.14322021088658252e-06)
(0.723209348845496258 2.8149859002207976e-06 -2.17439388462928125e-06)
(0.68658693327084952 3.89111555111486368e-06 -2.14545184879941643e-06)
(0.650041869993694288 4.95755997298868803e-06 -2.13243396432619077e-06)
(0.61348093076479937 6.20079898203765136e-06 -2.13799200810097091e-06)
(0.575424955299408736 8.15090342320892109e-06 -2.22208608008430454e-06)
(0.53532300600399163 9.64745824938956487e-06 -2.03974997503611521e-06)
(0.494602201803710562 1.04233547864960023e-05 -1.72392452101853947e-06)
(0.454525910059355553 1.15269881067483542e-05 -1.53998027008664224e-06)
(0.413702653024446976 1.30275101159405866e-05 -1.49051749693442081e-06)
(0.369744226256797814 1.4753524811500919e-05 -1.50534655303200345e-06)
(0.321277850236437901 1.67925756979810448e-05 -1.53886709437679695e-06)
(0.267574742713518554 1.99356442021695864e-05 -1.66880394590852249e-06)
(0.207642336824255785 2.36530989573782232e-05 -1.8589509971239003e-06)
(0.141933568887838674 2.52921622905304451e-05 -1.99400306790188817e-06)
(0.794858452890424005 -1.59515775284723501e-06 -5.10915647686827422e-07)
(0.760136266323844234 1.70325697364239227e-06 -6.8592754087764866e-07)
(0.724219453291752746 2.84075070855914709e-06 -6.97501777101282462e-07)
(0.687774578548419835 3.93863705247899291e-06 -6.91080160493755374e-07)
(0.651351944477734368 4.98193583472509564e-06 -6.86696371366496326e-07)
(0.614390143370303954 6.52243990600054309e-06 -7.02415553607060494e-07)
(0.575825513253622079 8.43813094172045155e-06 -7.00191867836220593e-07)
(0.53515792178017707 9.70767333773116009e-06 -6.14144241681081562e-07)
(0.494585362059456968 1.0429920659395691e-05 -5.10080059015541229e-07)
(0.454704967296150397 1.20575164779264276e-05 -4.63613463311135711e-07)
(0.413966895239716193 1.367435565233952e-05 -4.3141373857646969e-07)
(0.370464384501023758 1.53934555652226508e-05 -4.29987435261705295e-07)
(0.322380239290543047 1.7342884589546755e-05 -4.41102330351349036e-07)
(0.268807291095453427 1.95903153315510425e-05 -4.61894106760884701e-07)
(0.209716805127597744 2.30028233955806585e-05 -5.33244194083649741e-07)
(0.147187233615060975 2.54688217099934653e-05 -6.40743065476397065e-07)
(3.26395040092451706e-05 1.46907894463632069e-05 -0.0466929612138574229)
(3.29140336507439924e-05 -6.7524380092060747e-07 -0.0767486368994488716)
(3.2204671843888545e-05 -2.45945785707173081e-06 -0.0896524442990334486)
(3.06108181396458473e-05 -3.79311055698883718e-06 -0.0873549464372123663)
(2.76489999805985027e-05 -4.82242740485017509e-06 -0.073271619295759316)
(2.31575528515822515e-05 -5.04001004548967985e-06 -0.0564920204271515056)
(2.06223757419115126e-05 -3.95663102215874883e-06 -0.0391291066728491482)
(1.63207051094109627e-05 -1.77178137033001705e-06 -0.0197795481568336998)
(1.83871915969108513e-05 -2.41924362216980704e-07 -0.0231226222520796339)
(1.31856306984975732e-05 1.24625080966199569e-07 -0.00145489910523050785)
(1.24579361771684876e-05 2.51495567339550307e-06 -0.000974650476273180482)
(1.08909535846273437e-05 4.03683909705145121e-06 -0.000980792372963837193)
(1.0085748070597264e-05 5.56930677583252909e-06 -0.000777453554050446796)
(8.18287769801439811e-06 5.6083772610875425e-06 -0.000450152710221454993)
(4.96985735447994045e-06 5.50510944587088062e-06 -0.00043440227050359025)
(1.59187518901972131e-06 3.25309173802781712e-06 -0.00142566682718826333)
(2.53951696370452894e-05 1.14086469877945955e-05 0.0352060328801027736)
(2.36316235971654636e-05 -4.33460447716970306e-06 0.0124147450437344341)
(2.1343853361393958e-05 -9.0084862756812759e-06 -0.00411228725405028347)
(1.63448840808006543e-05 -1.18108538713771388e-05 -0.0145933770577337512)
(3.02459985061794601e-06 -4.22537685230509843e-06 -0.00706624962966531135)
(3.54747324753882462e-07 -1.36524508539632485e-06 -0.00659249090087937577)
(-4.44478482942428358e-07 -1.23755383719647772e-06 -0.00437454009111938168)
(-4.79557577780188812e-08 -1.90314931044208107e-08 -0.00407261918935335025)
(-1.53465369222190718e-09 -8.06870644044872336e-09 -0.000562059990963283606)
(-2.56886445324881076e-08 -2.61073910284336543e-08 -0.000432284220279098791)
(-2.92238487382879147e-08 -2.12120364985367688e-08 -0.000458071186180409142)
(-2.72703287951200423e-08 -1.98389158624040004e-08 -0.000489628137653731277)
(-2.4582234047246012e-08 -1.81175295117490826e-08 -0.000499635968883231358)
(-2.91766660808130774e-08 -1.70196181037091095e-08 -0.000503933945231514291)
(-3.5291788390350377e-08 -1.51202476414875731e-08 -0.000527657582774217074)
(-4.57884286755173353e-08 -1.34866106348545358e-08 -0.00058190548407777154)
(2.09813103652992004e-05 5.68334465545506693e-06 0.120078749200390564)
(1.69256092875906442e-05 -5.80305016196468277e-06 0.0777596605122378576)
(6.51489149001677583e-06 -6.22199720356858697e-06 0.0310631260846104436)
(5.16008933446299245e-07 -3.87536612990845178e-06 0.00269157488845342538)
(-1.43859992365197133e-07 -1.13204252505880382e-07 -0.00214941954878783989)
(-7.94870269538245094e-08 -1.01961108199223992e-07 -0.00233036506523067941)
(-1.0568606455593658e-07 -6.48782297292717604e-08 -0.00225393144282770618)
(-3.52911478049832328e-08 -2.99917886956784829e-08 -0.00183677089628723382)
(-3.44477466016559102e-08 -3.40336903561921966e-08 -0.00126559660484731602)
(-1.686439887673774e-08 -2.03180008761123629e-08 -0.00091442360077031732)
(-3.00419434559632257e-08 -1.87470047573697224e-08 -0.000745736764878242547)
(-2.40929225716630103e-08 -1.10134966824469183e-08 -0.000701835049963928006)
(-2.33669866635383294e-08 -8.65621467330150215e-09 -0.000687992347429063392)
(-2.02237625859999219e-08 -6.35537947890199734e-09 -0.000677897814391253441)
(-1.7721371733256467e-08 -9.03028741762132876e-09 -0.000643254831893485526)
(-1.8507174733472015e-08 -1.0337396437031201e-08 -0.00062508277382679789)
(2.12253615493427251e-05 2.1849911123234554e-06 0.0849708510455043087)
(1.3136143121670449e-05 -6.95861265396655418e-06 0.043593774947671235)
(5.22495318052124538e-06 -5.34811194157225175e-06 0.0103083371019409304)
(5.36352942164659751e-07 -3.14082105880480032e-07 -0.0013705636955176439)
(5.47137361183800244e-07 -4.28690790505567513e-07 -0.00324416485594309148)
(3.5035222089828387e-08 -1.05294140250730323e-07 -0.00245340903868313887)
(-1.75226652492174085e-08 -2.56032632097237055e-08 -0.00152248992557190116)
(-3.70721312057748769e-08 -2.06714791189650238e-08 -0.00104875835288225586)
(-2.29470241626197591e-08 1.94475202537165738e-11 -0.000870126162770060922)
(-6.06083598115283233e-09 1.79489893396058716e-09 -0.000791193090537895796)
(-2.87507118137113934e-08 -1.35708186494901214e-09 -0.000750078426043086495)
(-2.69749713001898983e-08 -2.62644249335200882e-09 -0.000717699326065523785)
(-2.56954831083019217e-08 -4.62440270639799296e-09 -0.000668271723403372048)
(-2.50815299395430978e-08 -2.54358868919929419e-09 -0.00064297058226643871)
(-2.38243626125648224e-08 -2.19208835462485151e-09 -0.000631090371410738269)
(-2.21996866448434194e-08 -2.95923209703209268e-09 -0.000624025855239986743)
(-0.00226931662014473066 1.60038720619297944e-06 2.90633512226858065e-07)
(8.619309454430593e-05 -2.84082653131969509e-07 -3.31412286614390101e-09)
(0.000260859914651285108 -1.45038117464593484e-08 -5.45672852419419165e-09)
(0.000230355659486517519 -1.48205371505496778e-08 -2.88337215142597087e-09)
(0.000132935866909568559 -9.26907375530267904e-09 -1.79521263108180266e-08)
(0.000126453772025268587 9.43128594797957983e-11 -1.93820305260486149e-08)
(0.000159747156061010076 2.11741102525228921e-09 -2.09560140567692933e-08)
(0.000216698211916360007 2.23310493482701072e-09 -1.95260539938369879e-08)
(0.000254031714366476341 1.26049943382759991e-09 -1.81150463045333438e-08)
(0.000286375747287205865 1.297427378786718e-09 -1.64880339837010076e-08)
(0.00031892910614616664 1.48028597041812791e-09 -1.62164023596177376e-08)
(0.000349081624726849679 1.66221558641002795e-09 -1.5259094012197557e-08)
(0.0003786794469440493 1.88643402803566445e-09 -1.48863119126353313e-08)
(0.000407300718777658466 2.87549412365197109e-09 -1.45453391451874751e-08)
(0.000436084092254104903 3.66393231581865306e-09 -1.37412555912904838e-08)
(0.000464053418195776643 5.22578145874950269e-09 -1.2476385641772003e-08)
(-0.000109801542475023426 -2.32491726674212963e-09 1.19231203205481646e-08)
(-1.35851196188715651e-05 1.23095870103577825e-09 -1.33958276443596855e-08)
(-5.28076691605692417e-07 3.45626592487416302e-10 -2.33158296853764216e-08)
(2.48208782477945535e-05 1.32245460542906485e-09 -2.33279909737297125e-08)
(7.68208242775744591e-05 1.73305327827453336e-09 -1.23225307060504604e-08)
(0.000111736235536566395 -8.73664793260117909e-11 -1.01041989268691205e-08)
(0.000147525463555235153 3.5808210666841227e-10 -1.02736849612678538e-08)
(0.000184798924129502185 7.99094573397036251e-10 -1.06289669869329235e-08)
(0.000220003262227567894 1.17200372165642516e-09 -1.05875291690276653e-08)
(0.000253279551689527909 1.58858674726065015e-09 -1.04208360694385386e-08)
(0.00028552055250355543 1.98580835557570406e-09 -1.0148570660568761e-08)
(0.000317018192684455542 2.64691572771997838e-09 -9.84856882150246331e-09)
(0.000348419459828630833 3.24363745397400747e-09 -9.40402226819458271e-09)
(0.000379372404154242461 4.42042973961758353e-09 -8.89026595005514162e-09)
(0.000411825505700225613 5.30457789242773602e-09 -8.35895926658671996e-09)
(0.00044545713922716822 7.02341746413069264e-09 -7.6975592297013598e-09)
(-0.000121023987630643497 -2.61211573595100376e-09 5.66281070372673241e-09)
(-4.53302143227308897e-05 4.30406893752988302e-09 -8.47772348079889575e-09)
(-7.68163753881005453e-07 2.19961979889074236e-09 -8.45534167686634239e-09)
(3.0571098542752899e-05 1.42382452686215328e-09 -8.37784647352284163e-09)
(6.34403906191085269e-05 6.78526598260237634e-10 -1.04558501947805694e-08)
(9.72505546656274935e-05 1.03119300927117944e-09 -1.04691966892751658e-08)
(0.000131993121702560608 1.31330083166464037e-09 -1.00869551909698597e-08)
(0.000166844570515308475 1.54283534071772181e-09 -9.78737403322308097e-09)
(0.000201083795777567444 1.82925115152102304e-09 -9.46303313785593304e-09)
(0.000234585601453022739 2.22635568886922858e-09 -9.08220091070871268e-09)
(0.000267502830788085707 2.69369900721722199e-09 -8.69807450435143171e-09)
(0.000299879164319944011 3.4146552555339173e-09 -8.30747950045735166e-09)
(0.000332261116451211611 3.9719459644308458e-09 -7.90771672192748875e-09)
(0.000364276375331726277 5.36506837576931795e-09 -7.501934515330344e-09)
(0.000398101989483537358 6.19122449367782822e-09 -7.03713071954562843e-09)
(0.00043348682901435398 7.95418652863327332e-09 -6.59674277323402374e-09)
(-0.000136798887336874375 7.66219370326624314e-10 -2.64752561608403039e-09)
(-8.19426609349927258e-05 3.94579500521138119e-09 -7.55827648101236786e-09)
(-3.23305092212051101e-05 3.26025111099190367e-09 -8.63420273683258402e-09)
(9.13098818436855232e-06 2.24747654050111395e-09 -8.46710653732791631e-09)
(4.76724579082830148e-05 1.79235701062353239e-09 -7.5618592904705352e-09)
(8.47249869167612563e-05 1.6724336662041697e-09 -6.97130101628851804e-09)
(0.000120658858893355535 1.77549037535480253e-09 -6.66572343351802375e-09)
(0.000155910923087545112 2.01219948964373553e-09 -6.42846700686448953e-09)
(0.000190555804677372282 2.33562133768821177e-09 -6.2003202886371701e-09)
(0.0002245944112951998 2.76380663803830821e-09 -5.97226044870587257e-09)
(0.000258144127983183269 3.24965192883572008e-09 -5.73992804787489509e-09)
(0.000291158872373068064 3.99229925473426786e-09 -5.50453436815578805e-09)
(0.000324138936555904897 4.57322088684979853e-09 -5.26561522689394084e-09)
(0.000356766019427290023 5.97651139605754316e-09 -5.0253533406742157e-09)
(0.000391087602614005278 6.77777970253357692e-09 -4.77771545074627502e-09)
(0.000426822353839076678 8.48046453623596162e-09 -4.56594152590059054e-09)
(-0.000133511748686145011 8.43471287978968264e-10 -3.35803806889527506e-09)
(-8.76898113998571954e-05 2.81455922154624012e-09 -5.42757687993677708e-09)
(-4.27013959592350078e-05 3.04239022402569906e-09 -5.83681037129410341e-09)
(-1.53301068988501951e-06 2.42411693692150933e-09 -5.83959737754576576e-09)
(3.71460735484357198e-05 2.11210906654322323e-09 -5.85640750884943345e-09)
(7.45057465491218168e-05 2.09817751513201315e-09 -5.76900084480810462e-09)
(0.000111019416052370035 2.24074585634770881e-09 -5.58498252650429976e-09)
(0.000146832689542296098 2.48217999774272275e-09 -5.36446657779195494e-09)
(0.000182012424170247922 2.80502935902928269e-09 -5.13350176565451205e-09)
(0.000216590582197663382 3.23247976983190945e-09 -4.90093094074246822e-09)
(0.000250650533375449487 3.716646248491996e-09 -4.67243201917962674e-09)
(0.000284154431488720842 4.45329196555262324e-09 -4.44978711171025873e-09)
(0.000317546314372596787 5.04236657699552812e-09 -4.23314870266479296e-09)
(0.00035056550873316611 6.43134137667178813e-09 -4.02272287118597404e-09)
(0.000385182871256482568 7.22511438213995239e-09 -3.81071225154398665e-09)
(0.000421135050433455859 8.86950350777726287e-09 -3.62352775891783408e-09)
(-0.000135269638193839337 -1.26663952534542208e-09 -2.51840659196490975e-09)
(-9.3525144399463249e-05 1.7439523155787293e-09 -3.5598600857292867e-09)
(-5.14222069584380342e-05 2.42814127896438824e-09 -3.9318476356572154e-09)
(-1.06307154616565621e-05 2.39318867400937685e-09 -3.98641936351495969e-09)
(2.87239644590656905e-05 2.34584095543602267e-09 -3.89437844554378931e-09)
(6.69155423896395686e-05 2.41697110505931344e-09 -3.77013919974323293e-09)
(0.000104150488600257635 2.5837155580619935e-09 -3.63442602396256931e-09)
(0.000140581244028263798 2.83234397430913605e-09 -3.49241662312014684e-09)
(0.000176306855747574082 3.15618963719247961e-09 -3.34797765243963183e-09)
(0.000211377798907468018 3.57980462095010822e-09 -3.20377063717297868e-09)
(0.000245877865277498988 4.06036225114266081e-09 -3.06192283451266119e-09)
(0.000279791286261047627 4.78346298931074702e-09 -2.92228623262406155e-09)
(0.00031351719913102371 5.3772063410297461e-09 -2.78652321803868806e-09)
(0.000346861499741966137 6.73817519029949756e-09 -2.65396455782508145e-09)
(0.00038173988315215446 7.52803253573151586e-09 -2.51882581520476003e-09)
(0.00041793583113855135 9.09566229800438118e-09 -2.39694414789700483e-09)
(-0.000137105768889891124 -1.05331837068854929e-09 -1.58130369448076211e-09)
(-9.74645761701294436e-05 1.06380749885787936e-09 -2.12531762326543361e-09)
(-5.69618545886933211e-05 1.95286750184817598e-09 -2.27565628879819983e-09)
(-1.67669811628678325e-05 2.2504113971039678e-09 -2.3205426697988934e-09)
(2.26106235949320893e-05 2.39729017306687659e-09 -2.3153505616192659e-09)
(6.11089657036254901e-05 2.56675583976466423e-09 -2.27445977185906737e-09)
(9.87804610051981944e-05 2.78651817341765834e-09 -2.20777961433230854e-09)
(0.000135678074301378036 3.06168727484608067e-09 -2.12610930043646226e-09)
(0.000171852018931487543 3.39637716219448698e-09 -2.03777345093282517e-09)
(0.000207337953723112838 3.82179420283381241e-09 -1.94738107944487475e-09)
(0.000242210488764991072 4.30146189739304594e-09 -1.85777502649879919e-09)
(0.000276472693357090375 5.0170130323536356e-09 -1.76925674073956099e-09)
(0.00031050306466488207 5.6149787518379978e-09 -1.68287739864016251e-09)
(0.00034417534210954469 6.96689621940245974e-09 -1.59655503522953768e-09)
(0.000379404145154000705 7.7628852801699144e-09 -1.50556315785035335e-09)
(0.000416072665162511574 9.30605248625849113e-09 -1.41640560680476524e-09)
(-0.000138805457047168622 -8.77963911580293903e-10 -5.58568503376541027e-10)
(-9.97387343405893942e-05 8.0173905091794463e-10 -7.08003252371265879e-10)
(-5.98798166048529319e-05 1.73126954271300535e-09 -7.47632830353819088e-10)
(-1.99771566033970104e-05 2.16741775785131471e-09 -7.65540670210299413e-10)
(1.94263531318212429e-05 2.41189810788815575e-09 -7.6587500705009914e-10)
(5.81171127237746228e-05 2.63690032925569822e-09 -7.5233817079817462e-10)
(9.60446565384697934e-05 2.88701143057382047e-09 -7.29905520910526105e-10)
(0.000133209460581077256 3.1776995476289618e-09 -7.02496826204315647e-10)
(0.00016963684777722757 3.51884724332046408e-09 -6.72859336538882702e-10)
(0.000205355388991789275 3.94529232005117366e-09 -6.42557999938586684e-10)
(0.000240435866247520896 4.42458314625403754e-09 -6.12597151623328671e-10)
(0.000274898251687669386 5.13755661962005778e-09 -5.8287152653222247e-10)
(0.000309113561239990917 5.73748997466055216e-09 -5.53715799236066064e-10)
(0.000343015468006338878 7.09456623584035855e-09 -5.23928439781453038e-10)
(0.000378534292085473678 7.8886387085588388e-09 -4.91506228553847837e-10)
(0.000415664068904142317 9.48242050488201188e-09 -4.59243914278380636e-10)
(1.73252880538934623e-06 -0.0189512905955598124 -3.84356211233534175e-06)
(2.24297820201806327e-06 -0.0220298464653439219 -3.49469029783368544e-06)
(1.4192462644265713e-06 -0.0225577178249067832 -3.11652250418000344e-06)
(2.36677226464466647e-07 -0.0241262893103780483 -1.36119489046667204e-06)
(2.69205422808230832e-06 -0.0247802541638740617 -1.80726814471595322e-06)
(-3.80843291255307418e-07 -0.0301735032312809605 -2.49750569974799049e-06)
(-1.72075281100192968e-06 -0.0314685668069093691 1.29371224889987823e-06)
(2.98523780754623657e-06 -0.0261911948596377196 -2.26043058076401902e-07)
(-5.9649772091948472e-08 0.000903170475014500296 -1.21855025510665139e-09)
(-4.83687007156461445e-08 0.000848375841195206327 -3.3855383068635772e-09)
(-4.43332151799644479e-08 0.000805713014732409847 -3.38758499872955971e-09)
(-4.19344568646296298e-08 0.000779365916698213502 -2.61651088255038176e-09)
(-4.35796721534662815e-08 0.000777471079379898119 -2.95565448845490454e-09)
(-3.81752449796354533e-08 0.000747837727710703114 -1.60311102141300342e-09)
(-3.68359084442387345e-08 0.000764190826429292825 3.76627066090435295e-09)
(-4.63911691253199664e-08 0.000866710323889025112 3.55205817744857463e-09)
(-2.104177758829633e-08 0.000967777014133125294 -4.64867404461240422e-09)
(-1.99872543024361484e-08 0.000938363077977848246 -6.46197236282099395e-09)
(-1.98333969760490156e-08 0.000910302652786849193 -5.64534145540293191e-09)
(-1.98839176690430169e-08 0.000888910292195266164 -4.77035770592335077e-09)
(-1.88482979698678883e-08 0.000875437007118878689 -3.99549622581945076e-09)
(-1.96775522634950642e-08 0.000861312083007444596 -2.20646508563193792e-09)
(-2.08842233301616557e-08 0.00086986689436069234 -5.24877037162032756e-10)
(-2.09402896222202953e-08 0.00091158482368878808 2.7780900069469108e-10)
(-2.77866972657984941e-08 0.00100850630295676986 -7.57786141970397051e-09)
(-2.65882121166005713e-08 0.000998804130117245592 -6.62926160834321085e-09)
(-2.66479812664208913e-08 0.000982259316672920392 -6.61137901724093095e-09)
(-2.68606085196284441e-08 0.000966991706130891876 -5.16043601357462237e-09)
(-2.67372338527882529e-08 0.000952903881076968065 -4.0356578954774585e-09)
(-2.62457228838244185e-08 0.00094848342406352829 -2.44807554994626916e-09)
(-2.62943282328874761e-08 0.000952340659515000534 -1.14098995288046436e-09)
(-2.76988903679546428e-08 0.000961142043544733582 -2.94768381817328552e-10)
)
;
    }
}


// ************************************************************************* //
