/*--------------------------------*- C++ -*----------------------------------*\
| =========                 |                                                 |
| \\      /  F ield         | OpenFOAM: The Open Source CFD Toolbox           |
|  \\    /   O peration     | Version:  2206                                  |
|   \\  /    A nd           | Website:  www.openfoam.com                      |
|    \\/     M anipulation  |                                                 |
\*---------------------------------------------------------------------------*/
FoamFile
{
    version     2.0;
    format      ascii;
    arch        "LSB;label=32;scalar=64";
    class       volVectorField;
    location    "0.330000000000000071";
    object      faceTraction;
}
// * * * * * * * * * * * * * * * * * * * * * * * * * * * * * * * * * * * * * //

dimensions      [1 -1 -2 0 0 0 0];

internalField   uniform (0 0 0);

boundaryField
{
    inlet
    {
        type            calculated;
        value           uniform (0 0 0);
    }
    outlet
    {
        type            calculated;
        value           uniform (0 0 0);
    }
    top
    {
        type            calculated;
        value           uniform (0 0 0);
    }
    bottom
    {
        type            calculated;
        value           uniform (0 0 0);
    }
    left
    {
        type            calculated;
        value           uniform (0 0 0);
    }
    symmetry
    {
        type            symmetryPlane;
    }
    interface
    {
        type            calculated;
        value           nonuniform List<vector> 
352
(
(2001.77639298115332 -0.0257955479169572517 -0.0662001967799438484)
(1897.02167658680696 0.00160030063639102866 -0.0705303361780188903)
(1791.0200832829928 0.00485062516111835207 -0.0695424935096164987)
(1690.21408251924163 0.00546887914561485118 -0.0682929534478127487)
(1593.12621066538554 0.007180813105873372 -0.0692511949007334621)
(1496.76640366127413 0.00934774767432626844 -0.0670424340590855955)
(1401.29055312238006 0.0118042046488206851 -0.0639318245452477757)
(1304.74290357813402 0.0150620855877568495 -0.0624805818833748527)
(1205.15356619091517 0.018655080138453347 -0.0603986528882788573)
(1099.86486615607828 0.0231553647020139274 -0.0583146245463238913)
(982.584464913690454 0.0292277978863052894 -0.0563374180186022519)
(845.575387644718944 0.0385426662440121817 -0.0570765296042267042)
(686.85316381397854 0.047556760620134822 -0.055217555775238715)
(509.556306601446863 0.0571942536702243071 -0.0543768524647752424)
(326.563438046111912 0.0662442969553304062 -0.053723318037824791)
(178.193709071059573 0.0693670405728719769 -0.0522223947342416797)
(2299.27365923875777 -0.0138609135752319201 -0.041722527475894805)
(2188.46675081864623 0.00316700527310797729 -0.0471370727762635694)
(2075.07842484065441 0.00596479915311633885 -0.0463100503337235334)
(1963.6281140358833 0.00765064894493240177 -0.0452986647203608914)
(1854.16849242949093 0.00996286434517551674 -0.0454146489984579987)
(1742.79627723152817 0.0133924950715768928 -0.0467235381229356705)
(1629.45374986470824 0.0157441546830744267 -0.0437314861277384032)
(1515.91746596557186 0.0192457100402718857 -0.042604545395915433)
(1400.24917782365333 0.0231577746356277474 -0.0412844956505993704)
(1279.97944557381129 0.0277396181363438778 -0.0398848422920558138)
(1149.13611994950361 0.0333820627521960386 -0.0385903710187718782)
(1001.67131771215554 0.0415583205300218209 -0.0385396134204165422)
(834.945690798110945 0.0510776783829037864 -0.0386291466005674669)
(648.920094363790781 0.0602612222253484514 -0.0382410937296444112)
(452.817016815780846 0.0698161235607845793 -0.0384485660582859767)
(272.305295360477089 0.074713886169630303 -0.0385530844363983355)
(2435.7363781817935 -0.013995788176976642 -0.0332002085626487628)
(2325.03376233963627 0.00362299005574282223 -0.0371196527086802078)
(2209.8070015969638 0.00755607363879135917 -0.0372773331930568441)
(2094.1751865231995 0.00995721587076440866 -0.036410233918107375)
(1979.66940925653148 0.0123378281558946222 -0.0359416425319580013)
(1863.79790203766856 0.01629673530084505 -0.0373615812872299113)
(1744.99832326544902 0.019451449553680316 -0.0363236336050449943)
(1624.89299422862769 0.0226392994232107493 -0.0347625621592425119)
(1503.40129399141097 0.0265519102173275255 -0.0338950375224837119)
(1377.99694762790136 0.0311113434548580502 -0.032949665719049108)
(1243.97745571055384 0.0364698028579266073 -0.0320452373050672326)
(1096.59797944004981 0.0437543749305580251 -0.0319861758205402941)
(930.657794399219597 0.0540763232300336891 -0.0333612372849256544)
(743.788779088010301 0.062733451693100864 -0.0332408087499907398)
(543.041634851646222 0.0719660888919254477 -0.0335501548541374608)
(346.126441411293058 0.0777816964103481695 -0.0339633469165145016)
(2489.35155187990358 -0.0103918468945655984 -0.0197119694522801779)
(2378.03111138368376 0.00436337108013516023 -0.0244996676003217777)
(2261.5605743572969 0.00829959023723141412 -0.0244726714378392385)
(2143.89990283020961 0.0112181976613666013 -0.023818935355480457)
(2027.13125200589934 0.0138769604698408822 -0.0233713177198986086)
(1910.80907253429086 0.0170259527977259344 -0.0231633956173935146)
(1791.67289412752325 0.0220181597894982158 -0.0249474351337504452)
(1667.51552633147344 0.0252129292243800027 -0.0239738147378519666)
(1542.04314333755883 0.0284488189029784809 -0.0225652439581465747)
(1414.67171295502226 0.0329080045765668752 -0.0218685689762320411)
(1280.2904085653463 0.0378836355834228991 -0.0213100733414449198)
(1135.13045735893115 0.0450458202048892864 -0.0215354139620724354)
(972.915568178444801 0.0557373181220896172 -0.0230597693348460094)
(788.980074522813197 0.063467869715742295 -0.0230526171563333292)
(588.817441996289517 0.0721718931753855125 -0.023358831579827842)
(386.058349798638176 0.0789239352138138145 -0.0240356923847886463)
(2518.82147634376679 -0.00853109995809017176 -0.0161709797019284167)
(2407.99052368416869 0.00470709990234729168 -0.0182284559442975093)
(2292.16293676381156 0.00871215151579949644 -0.018430799287260994)
(2174.46864773764992 0.0119770233891089393 -0.0182790022002241176)
(2057.42018050986417 0.0150151172369246862 -0.0181309674495862584)
(1940.54466827709007 0.0181327209970226569 -0.0178991062660050805)
(1821.98248349868322 0.0228758764733884221 -0.0185937148484248208)
(1698.03554206657168 0.0282160715708245843 -0.0192139252270892118)
(1568.90295920490803 0.0310192707841834489 -0.0176371048352584291)
(1440.05130533648276 0.0342815402307825104 -0.0163665533120305774)
(1306.85817302095415 0.0389701023250082837 -0.0159116388525766816)
(1164.92982694576335 0.0449603685193401409 -0.0157828410532165342)
(1007.89059063486013 0.0563670296437309148 -0.0173201817217594305)
(829.228059951852629 0.0646017493331147441 -0.0176353273315567396)
(631.452768603018171 0.0727806702690372981 -0.0178520999789430236)
(427.707542199984573 0.0799617052234589537 -0.0183792016209513576)
(2532.226318073725 -0.00660150488289081103 -0.0088577378626669024)
(2421.62435468898366 0.00501975665208180023 -0.0117860378614142152)
(2305.98488631525424 0.00893132329265221118 -0.0120050793126783416)
(2188.08161967916885 0.0123375912100995855 -0.0117907169277532507)
(2070.59829458068498 0.015671858934023071 -0.0116123666620945431)
(1953.56898085081889 0.0189647331722019273 -0.0114307590447150515)
(1833.90707507242155 0.0240920239745278965 -0.0117965141740597607)
(1709.12368724727617 0.0295831376092101569 -0.0117743672507193975)
(1579.00097561121333 0.0337147094142961762 -0.0110114825601477558)
(1448.77265656677696 0.0352070215403972042 -0.00958141493818493416)
(1316.46426791080626 0.0398724469102545026 -0.00931523538487041142)
(1173.88697286910133 0.0454866581197578557 -0.00927620946695451899)
(1019.17260569169378 0.0538912132954923115 -0.00966066352206837106)
(845.269561118777006 0.0662462065062425914 -0.0107055264389567615)
(648.385439027518714 0.0740945953126239676 -0.01087704673238531)
(438.680099980185275 0.0802906992518103158 -0.0112031818461060268)
(2540.65471961470575 -0.00593198167448963799 -0.00512575267075319595)
(2429.59768180481842 0.00529226162939201977 -0.0068583046748370638)
(2314.26991630558814 0.0090079548807065514 -0.0069580604308137001)
(2197.0781864667174 0.0124515697635675573 -0.00686544591615812893)
(2080.13398397982291 0.0158641919135638111 -0.0068237886858438148)
(1963.13897844735629 0.019842556742520466 -0.00684157442592310105)
(1841.35985695810814 0.0260828909542685505 -0.00711067545626977576)
(1713.03361921277178 0.0308718663980465796 -0.00652719992011556276)
(1582.72704577187596 0.0333547353167872526 -0.00551655846725933405)
(1454.48291218993813 0.0368863619415947461 -0.00492793686427725648)
(1323.84848967822904 0.0416880323710098408 -0.00476965599019014194)
(1183.18152402175201 0.0472112793968028979 -0.00481710896970240655)
(1028.0891207566026 0.0537362422335394135 -0.00492437470200575694)
(856.23917668325862 0.0637940614469426209 -0.00534017262690726722)
(664.455477837619469 0.0756899166636104126 -0.00594864319079648884)
(454.187420441082395 0.0809349193296971803 -0.00638080981728602302)
(2543.54704924935686 -0.00510450480911115237 -0.00163493007259784781)
(2432.43605223630129 0.0054504223156556543 -0.00219496813080847543)
(2317.50225053360873 0.00909040226738927135 -0.00223200568672410381)
(2200.87865135494258 0.0126036385679327723 -0.00221145651358001629)
(2084.32622232875156 0.0159421946711203154 -0.00219742838837278963)
(1966.04845878497099 0.02087180769920172 -0.00224772977154259149)
(1842.64164241159119 0.0270020190135054523 -0.00224061397707590653)
(1712.50534969656519 0.0310645546807396845 -0.00196526157337945919)
(1582.67315859026439 0.0333757461100662595 -0.00163225618884973414)
(1455.05589534768183 0.0385840527293645832 -0.00148356308259563478)
(1324.69406476709059 0.0437579380874864241 -0.00138052396344470188)
(1185.48603040327498 0.0492590578087124392 -0.00137595979283745579)
(1031.61676572973897 0.0554972306865496798 -0.00141152745712431853)
(860.183331505450155 0.06268900906096328 -0.00147806114163482965)
(671.093776408313715 0.0736090348658582083 -0.00170638142106768146)
(470.999147568194189 0.0815002294719789355 -0.00205037780952446649)
(0.104446412829584306 0.0470105262283621525 -149.417475884343418)
(0.105324907682380425 -0.00216078016294593686 -245.595638078235567)
(0.103054949900443282 -0.00787026514262953447 -286.887821756906874)
(0.0979546180468666566 -0.0121379537823642723 -279.535828599079423)
(0.0884767999379151848 -0.0154317676955205568 -234.469181746429769)
(0.0741041691250630408 -0.0161280321455669375 -180.774465366884414)
(0.065991602374116623 -0.0126612192709079537 -125.213141353116853)
(0.0522262563501148733 -0.00566970038505603194 -63.2945541018675826)
(0.0588390131101146213 -0.000774157959094336863 -73.9923912066547018)
(0.0421940182351921572 0.000398800259091837926 -4.65567713673761663)
(0.0398653957669390449 0.00804785815486558538 -3.11888152407416808)
(0.0348510514708074357 0.0129178851105646187 -3.13853559348427291)
(0.0322743938259111851 0.017821781682664059 -2.48785137296142489)
(0.0261852086336459705 0.0179468072354800647 -1.44048867270865011)
(0.015903543534335797 0.017616350226786804 -1.39008726561148777)
(0.00509400060486309408 0.0104098935616889852 -4.56213384700243019)
(0.0812645428385450203 0.0365076703609427469 112.659305216329017)
(0.0756211955109295786 -0.0138707343269430655 39.7271841399502392)
(0.0683003307564608308 -0.0288271560821801512 -13.1593192129609395)
(0.052303629058562208 -0.0377947323884069292 -46.6988065847481053)
(0.00967871952197744273 -0.0135212059273763351 -22.6119988149290307)
(0.00113519143921242513 -0.00436878427326824366 -21.0959708828140222)
(-0.00142233114541577229 -0.00396017227902873293 -13.9985282915820353)
(-0.000153458424889660815 -6.09007779341467505e-05 -13.0323814059307548)
(-4.91089181511011547e-06 -2.5819860609435981e-05 -1.79859197108251223)
(-8.22036625039620757e-05 -8.35436512909878254e-05 -1.38330950489311832)
(-9.3516315962521477e-05 -6.78785167953177652e-05 -1.46582779577731159)
(-8.72650521443841734e-05 -6.34845307596928327e-05 -1.56681004049194095)
(-7.8663148951187446e-05 -5.79760944375972163e-05 -1.59883510042634458)
(-9.33653314586020862e-05 -5.44627779318692941e-05 -1.61258862474084985)
(-0.000112933722849121621 -4.83847924527604109e-05 -1.68850426487750083)
(-0.00014652297176165555 -4.31571540315345368e-05 -1.86209754904886982)
(0.0671401931689573767 0.0181867028974561987 384.251997441249443)
(0.054161949720290016 -0.01856976051828697 248.830913639160912)
(0.0208476527680536566 -0.019910391051419455 99.4020034707533)
(0.00165122858702815615 -0.0124011716157070347 8.61303964305095349)
(-0.000460351975568630502 -0.000362253608018816978 -6.87814255612108294)
(-0.000254358486252237957 -0.000326275546237516213 -7.45716820873816122)
(-0.00033819540657899688 -0.000207610335133669513 -7.21258061704865572)
(-0.000112931672975946258 -9.59737238261710766e-05 -5.87766686811914418)
(-0.000110232789125298713 -0.000108907809139814835 -4.0499091355114043)
(-5.39660764055607974e-05 -6.50176028035595957e-05 -2.92615552246501709)
(-9.61342190590822596e-05 -5.99904152235830693e-05 -2.3863576476103745)
(-7.70973522293214177e-05 -3.52431893838300373e-05 -2.24587215988456324)
(-7.47743573233225955e-05 -2.76998869545647868e-05 -2.20157551177300137)
(-6.47160402751997013e-05 -2.03372143324863754e-05 -2.16927300605200957)
(-5.67083895464207143e-05 -2.8896919736388262e-05 -2.05841546205915416)
(-5.92229591471103443e-05 -3.30796685984997859e-05 -2.00026487624574978)
(0.0679211569578966473 0.00699197155943504997 271.9067233456135)
(0.0420356579893452972 -0.0222675604926928991 139.500079832547499)
(0.0167198501776679685 -0.0171139582130311885 32.9866787262109398)
(0.00171632941492691287 -0.00100506273881753702 -4.38580382565646509)
(0.00175083955578816085 -0.00137181052961781597 -10.3813275390178923)
(0.000112112710687450648 -0.000336941248802336425 -7.85090892378603034)
(-5.60725287974956743e-05 -8.19304422711158179e-05 -4.8719677618300814)
(-0.00011863081985847967 -6.61487331806881088e-05 -3.35602672922322043)
(-7.34304773203833393e-05 6.22320648118931285e-08 -2.78440372086419918)
(-1.93946751396890729e-05 5.74367658867388157e-06 -2.53181788972126798)
(-9.20022778038763023e-05 -4.34266196783683101e-06 -2.40025096333787236)
(-8.63199081606075183e-05 -8.40461597872641303e-06 -2.29663784340967192)
(-8.22255459465662817e-05 -1.47980886604736005e-05 -2.13846951489079373)
(-8.02608958065378561e-05 -8.13948380543773495e-06 -2.05750586325260221)
(-7.62379603602072878e-05 -7.01468273479951121e-06 -2.01948918851435844)
(-7.10389972634987299e-05 -9.46954271050266901e-06 -1.99688273676795158)
(-7.26181318446314172 0.00512123905981753686 0.000930027239125946303)
(0.275817902541779014 -0.000909064490022302584 -1.06051931716604854e-05)
(0.834751726884112477 -4.6412197588669922e-05 -1.7461531277421417e-05)
(0.737138110356856058 -4.74257188817589652e-05 -9.22679088456310737e-06)
(0.425394774110619323 -2.96610360169685683e-05 -5.74468041946176759e-05)
(0.404652070480858772 3.01801150335346014e-07 -6.20224976833554613e-05)
(0.511190899395231879 6.77571528080732037e-06 -6.7059244981661689e-05)
(0.6934342781323517 7.14593579144643081e-06 -6.24833727802783304e-05)
(0.812901485972725935 4.03359818824832762e-06 -5.79681481745068216e-05)
(0.91640239131905854 4.15176761211749664e-06 -5.27617087478432159e-05)
(1.02057313966773155 4.73691510533800126e-06 -5.18924875507766715e-05)
(1.11706119912591695 5.31908987651208027e-06 -4.8829100839032094e-05)
(1.21177423022095954 6.03658888971413578e-06 -4.76361981204331342e-05)
(1.3033623000885064 9.20158119568630314e-06 -4.65450852645998942e-05)
(1.39546909521313633 1.17245834106196953e-05 -4.39720178921295692e-05)
(1.48497093822648196 1.67225006679983693e-05 -3.9924434053670318e-05)
(-0.35136493592007495 -7.43973525357481432e-06 3.81539850257541248e-05)
(-0.0434723827803890073 3.93906784331449024e-06 -4.28666484619509919e-05)
(-0.00168984541313821606 1.10600509595973241e-06 -7.46106549932045636e-05)
(0.0794268103929425678 4.23185473737300759e-06 -7.46495711159350851e-05)
(0.245826637688238508 5.54577049047851243e-06 -3.94320982593615149e-05)
(0.357555953717012209 -2.79572733843237521e-07 -3.23334365659811639e-05)
(0.472081483376752709 1.14586274133891986e-06 -3.28757918760571512e-05)
(0.591356557214406608 2.55710263487051404e-06 -3.4012694358185328e-05)
(0.704010439128217924 3.75041190930056416e-06 -3.38800933408885607e-05)
(0.81049456540648912 5.0834775912340795e-06 -3.33466754222033171e-05)
(0.913665768011376667 6.35458673784224866e-06 -3.24754261138200136e-05)
(1.01445821659025692 8.47013032870392453e-06 -3.15154202288078593e-05)
(1.11494227145162039 1.03796398527168396e-05 -3.00928712582227121e-05)
(1.21399169329357504 1.41453751667762575e-05 -2.84488510401764335e-05)
(1.31784161824072399 1.69746492557687804e-05 -2.6748669653077546e-05)
(1.42546284552693425 2.24749358852181544e-05 -2.4632189535044283e-05)
(-0.387276760418058752 -8.35877035504320255e-06 1.81209942519255235e-05)
(-0.145056685832738702 1.37730206000956108e-05 -2.71287151385564376e-05)
(-0.0024581240124192153 7.03878335645036957e-06 -2.70570933659722702e-05)
(0.0978275153368091538 4.55623848595888476e-06 -2.68091087152730615e-05)
(0.20300924998114725 2.17128511443276001e-06 -3.34587206232978137e-05)
(0.311201774930007447 3.29981762966776821e-06 -3.35014294056804705e-05)
(0.422377989448193658 4.20256266132684649e-06 -3.22782566111035261e-05)
(0.533902625648986162 4.93707309029670138e-06 -3.13195969063138015e-05)
(0.643468146488216486 5.85360368486727998e-06 -3.02817060411390162e-05)
(0.750673924649671864 7.12433820438152292e-06 -2.90630429142678452e-05)
(0.856009058521872812 8.61983682309509501e-06 -2.78338384139245319e-05)
(0.959613325823819197 1.09268968177085169e-05 -2.65839344014634772e-05)
(1.06323557264387869 1.27102270861787257e-05 -2.53046935101680045e-05)
(1.16568440106152083 1.71682188024617706e-05 -2.40061904490570343e-05)
(1.27392636634732015 1.981191837976906e-05 -2.25188183025460211e-05)
(1.38715785284592719 2.5453396891626374e-05 -2.11095768743487904e-05)
(-0.437756439477997972 2.45190198504519776e-06 -8.47208197146889678e-06)
(-0.262216514991976735 1.26265440166764191e-05 -2.41864847392395776e-05)
(-0.103457629507856363 1.04328035551740938e-05 -2.76294487578642725e-05)
(0.029219162189979362 7.19192492960356331e-06 -2.70947409194493271e-05)
(0.152551865306505885 5.73554243399531247e-06 -2.41979497295057484e-05)
(0.271119958133635985 5.3517877318533423e-06 -2.23081632521232529e-05)
(0.386108348458738038 5.68156920113537316e-06 -2.13303149872576928e-05)
(0.498914953880144008 6.4390383668599495e-06 -2.05710944219663531e-05)
(0.609778574967592579 7.47398828060229271e-06 -1.9841024923638984e-05)
(0.718702116144639747 8.84418124172259024e-06 -1.9111233435858802e-05)
(0.826061209546186337 1.03988861722743022e-05 -1.83677697531996596e-05)
(0.931708391593817575 1.27753576151496553e-05 -1.76145099780985193e-05)
(1.03724459697889859 1.46343068379193957e-05 -1.68499687260606559e-05)
(1.14165126216732582 1.9124836467384102e-05 -1.60811306901574577e-05)
(1.25148032836481948 2.16888950481074917e-05 -1.52886894423881116e-05)
(1.36583153228504228 2.71374865159550162e-05 -1.46110128828818556e-05)
(-0.427237595795664116 2.69910812153269886e-06 -1.07457218204648816e-05)
(-0.280607396479543025 9.00658950894796872e-06 -1.73682460157976862e-05)
(-0.136644467069552106 9.73564871688224211e-06 -1.8677793188141139e-05)
(-0.00490563420763205985 7.75717419814882605e-06 -1.86867116081464392e-05)
(0.118867435354994361 6.75874901293831737e-06 -1.87405040283181974e-05)
(0.238418388957189642 6.71416804842243751e-06 -1.84608027033859206e-05)
(0.355262131367583944 7.17038674031266417e-06 -1.7871944084813749e-05)
(0.469864606535347284 7.94297599277670905e-06 -1.71662930489342482e-05)
(0.582439757344794251 8.97609394889371885e-06 -1.64272056500944645e-05)
(0.693089863032522735 1.03439352634621089e-05 -1.56829790103758941e-05)
(0.802081706801437422 1.18932679951743729e-05 -1.49517824613747879e-05)
(0.909294180763906557 1.42505342897683922e-05 -1.42393187574728252e-05)
(1.01614820599231015 1.61355730463856973e-05 -1.35460758485273443e-05)
(1.12180962794613071 2.0580292405349709e-05 -1.28727131877951074e-05)
(1.23258518802074546 2.31203660228478702e-05 -1.21942792049407705e-05)
(1.34763216138705411 2.83824112248871438e-05 -1.15952888285370285e-05)
(-0.432862842220285482 -4.05324648110534713e-06 -8.05890109428770404e-06)
(-0.299280462078282128 5.5806474098519287e-06 -1.13915522743337071e-05)
(-0.164551062267001641 7.77005209268603889e-06 -1.25819124341030845e-05)
(-0.0340182894773009628 7.65820375682999856e-06 -1.27565419632478575e-05)
(0.0919166862690102421 7.50669105739527525e-06 -1.24620110257401306e-05)
(0.214129735646846397 7.7343075361897947e-06 -1.2064445439178332e-05)
(0.333281563520824164 8.26788978579837151e-06 -1.16301632766802117e-05)
(0.449859980890443434 9.06350071778922176e-06 -1.11757331939844522e-05)
(0.564181938392237403 1.00998068390159422e-05 -1.07135284878068299e-05)
(0.676408956503897318 1.14553747870403405e-05 -1.02520660389535256e-05)
(0.786809168887995569 1.29931592036564945e-05 -9.79815307044050019e-06)
(0.895332116035352121 1.53070815657943859e-05 -9.3513159443969933e-06)
(1.00325503721927545 1.720706029129518e-05 -8.9168742977237985e-06)
(1.1099567991742898 2.15621606089583579e-05 -8.49268658504024673e-06)
(1.22156762608689529 2.40897041143408709e-05 -8.06024260865523918e-06)
(1.33739465964335946 2.91061193536139118e-05 -7.67022127327038672e-06)
(-0.438738460447651579 -3.3706187862033575e-06 -5.0601718223384387e-06)
(-0.311886643744414216 3.4041839963452137e-06 -6.80101639444938713e-06)
(-0.182277934683818643 6.24917600591416403e-06 -7.28210012415424062e-06)
(-0.053654339721177044 7.20131647073269431e-06 -7.42573654335645603e-06)
(0.0723539955037827281 7.6713285538140108e-06 -7.40912179718165565e-06)
(0.195548690251601404 8.21361868724691872e-06 -7.27827126994900906e-06)
(0.316097475216634338 8.91685815493650986e-06 -7.06489476586338944e-06)
(0.434169837764409317 9.79739927950744984e-06 -6.80354976139667288e-06)
(0.549926460580760779 1.08684069190223712e-05 -6.52087504298504807e-06)
(0.663481451913961351 1.2229741449068203e-05 -6.23161945422360085e-06)
(0.775073564047970787 1.37646780716577341e-05 -5.94488008479615231e-06)
(0.884712618742688361 1.60544417035316192e-05 -5.66162157036659018e-06)
(0.993609806927624017 1.79679320058816159e-05 -5.38520767564852709e-06)
(1.10136109475054211 2.22940679020878529e-05 -5.10897611273451593e-06)
(1.21409326449280397 2.48412328965437606e-05 -4.8178021051211369e-06)
(1.33143252852003302 2.97793679560270848e-05 -4.53249794177523532e-06)
(-0.444177462550939484 -2.8094845170569401e-06 -1.78741921080493101e-06)
(-0.319163949889886056 2.56556496293742259e-06 -2.26561040758805063e-06)
(-0.191615413135529378 5.5400625366816169e-06 -2.3924250571322209e-06)
(-0.063926901130870406 6.93573682512420426e-06 -2.44973014467295719e-06)
(0.0621643300218280223 7.71807394524210371e-06 -2.45080002256031884e-06)
(0.18597476071607863 8.43808105361822683e-06 -2.40748214655415655e-06)
(0.307342900923103457 9.23843657783622856e-06 -2.33569766691368442e-06)
(0.426270273859446824 1.0168638552412669e-05 -2.24798984385380795e-06)
(0.542837912887129015 1.12603111786255009e-05 -2.15314987692442747e-06)
(0.657137244773725926 1.262493542416376e-05 -2.05618559980347795e-06)
(0.769394771992066184 1.41586660680129077e-05 -1.96031088519464996e-06)
(0.879674405400541204 1.64401811827841707e-05 -1.8651888849031102e-06)
(0.989163395967972314 1.8359967918913793e-05 -1.77189055755541377e-06)
(1.09764949762028352 2.27026119546891258e-05 -1.67657100730064813e-06)
(1.21130973467351732 2.52436438673883189e-05 -1.57281993137231522e-06)
(1.33012502049325287 3.03437456156223791e-05 -1.46958052569081514e-06)
(0.00277204608862295036 -30.3220649528956621 -0.00614969937973653888)
(0.00358876512322889871 -35.2477543445502519 -0.00559150447653389282)
(0.00227079402308250728 -36.092348519850745 -0.00498643600668799078)
(0.000378683562343146163 -38.6020628966048278 -0.00217791182474667269)
(0.00430728676493168788 -39.6484066621984468 -0.00289162903154552156)
(-0.000609349266008491082 -48.2776051700494762 -0.00399600911959677955)
(-0.00275320449760308155 -50.3497068910548862 0.00206993959823980082)
(0.00477638049207396859 -41.9059117754202646 -0.00036166889292224227)
(-9.54396353471176958e-05 1.44507276002320273 -1.94968040817064519e-06)
(-7.73899211450339481e-05 1.35740134591233219 -5.41686129098173209e-06)
(-7.09331442879431454e-05 1.28914082357185644 -5.4201359979672981e-06)
(-6.70951309834075179e-05 1.24698546671714361 -4.18641741208061754e-06)
(-6.97274754455461516e-05 1.24395372700783891 -4.72904718152785474e-06)
(-6.10803919674167943e-05 1.19654036433712618 -2.5649776342608082e-06)
(-5.89374535107820439e-05 1.22270532228687001 6.02603305744697203e-06)
(-7.4225870600512053e-05 1.38673651822244204 5.68329308391772703e-06)
(-3.36668441412741058e-05 1.54844322261299938 -7.43787847137984167e-06)
(-3.19796068838978177e-05 1.50138092476455642 -1.03391557805135842e-05)
(-3.17334351616783684e-05 1.45648424445895608 -9.03254632864467492e-06)
(-3.18142682704688115e-05 1.42225646751242518 -7.63257232947735673e-06)
(-3.01572767517886064e-05 1.40069921139020503 -6.39279396131111735e-06)
(-3.14840836215920511e-05 1.37809933281190911 -3.53034413701109509e-06)
(-3.34147573282586195e-05 1.39178703097710654 -8.39803259459251688e-07)
(-3.35044633955524428e-05 1.45853571790205971 4.44494401111505331e-07)
(-4.44587156252775357e-05 1.61361008473082967 -1.21245782715263374e-05)
(-4.2541139386560892e-05 1.59808660818759218 -1.06068185733491319e-05)
(-4.2636770026273352e-05 1.57161490667666981 -1.05782064275854704e-05)
(-4.29769736314055095e-05 1.54718672980942706 -8.25669762171939506e-06)
(-4.27795741644611521e-05 1.52464620972314702 -6.45705263276392598e-06)
(-4.19931566141190014e-05 1.51757347850164281 -3.91692087991402453e-06)
(-4.20709251726199333e-05 1.52374505522399972 -1.82558392460874168e-06)
(-4.4318224588727388e-05 1.53782726967157246 -4.71629410907725266e-07)
)
;
    }
}


// ************************************************************************* //
