/*--------------------------------*- C++ -*----------------------------------*\
| =========                 |                                                 |
| \\      /  F ield         | OpenFOAM: The Open Source CFD Toolbox           |
|  \\    /   O peration     | Version:  2206                                  |
|   \\  /    A nd           | Website:  www.openfoam.com                      |
|    \\/     M anipulation  |                                                 |
\*---------------------------------------------------------------------------*/
FoamFile
{
    version     2.0;
    format      ascii;
    arch        "LSB;label=32;scalar=64";
    class       volScalarField;
    location    "0.330000000000000071";
    object      p_rgh;
}
// * * * * * * * * * * * * * * * * * * * * * * * * * * * * * * * * * * * * * //

dimensions      [1 -1 -2 0 0 0 0];

internalField   nonuniform List<scalar> 
29184
(
2420.21378165038868
2418.91156932563808
2412.00206245833533
2400.89709655882825
2387.39883125838014
2371.1522644757265
2352.99680970263125
2334.04546325898582
2315.60941308897327
2298.67094796092169
2285.44021257546865
2274.93741240560757
2269.50162909991695
2254.69723455051326
2239.88385217336918
2057.05522206180922
2419.70904139983213
2417.98242805068776
2411.08217117565437
2399.99059085885256
2386.21018374457572
2369.86916710971309
2351.60212030617413
2332.44339063355892
2313.64555523721492
2296.44826263615778
2282.69841491128909
2272.62199564215098
2267.04825211198204
2255.3787327891514
2238.8100251958017
2065.38186784386335
2418.51305982124313
2416.17563699444781
2409.1715251047317
2398.04850661410683
2384.02120640830572
2367.4627239656279
2348.89800923476014
2329.28991489422106
2309.89925346749897
2292.13203990484226
2277.82312352554982
2267.88144104074763
2262.97695848223884
2254.77864401973284
2242.3352818623157
2071.84102115099813
2416.5221340412395
2413.64321814466439
2406.44383355188256
2395.20901165981832
2380.87483640792152
2363.92527631587109
2344.86300087378004
2324.58071090580233
2304.32846542804646
2285.65614512423508
2270.51118636022602
2260.39152282355917
2256.46643913086018
2252.26436861116235
2246.60517838298529
2083.55788338116645
2413.74718956804099
2410.43568141851119
2402.93454665222725
2391.46630223774673
2376.74142125389608
2359.26107726519876
2339.51348684738832
2318.31651001490764
2296.89960414989037
2276.94323885800395
2260.58564640942268
2249.94160477392143
2247.08697577903695
2247.37215600749551
2250.78245133094333
2123.11166365233066
2410.21829507067196
2406.55112683872858
2398.67292389990553
2386.85771896265851
2371.64579007662496
2353.49851821072161
2332.87034307691192
2310.49874117862237
2287.57868712823119
2265.89959689883744
2247.83222280708196
2236.16405003646878
2234.19251060296301
2239.3423732638239
2253.44932391760676
2142.3129535294579
2405.97208656356725
2402.00154236552362
2393.68005958916092
2381.40849749213066
2365.60207662697258
2346.65071819412469
2324.94295178026141
2301.11777848597922
2276.31300099439068
2252.38990135719951
2231.97648088194092
2218.56118874725689
2216.93687412380996
2227.21702297840375
2251.80844218241327
2144.69872753926438
2401.04367583500152
2396.79951201808035
2387.96296673453753
2375.13187702636287
2358.61697054399974
2338.71907569399855
2315.72162712458521
2290.13458185773516
2263.00668072564849
2236.22845095137654
2212.65579598037039
2196.43955745165295
2194.14575495508279
2209.63897432164822
2235.39611298665477
2160.11185478346943
2395.42936669051642
2390.91808560391337
2381.48784449597133
2367.99741593597946
2350.64940362833931
2329.64961413031233
2305.12798424969515
2277.42216858959409
2247.4568518014853
2217.1149851646187
2189.40494629228397
2168.84286378208708
2164.01455323010987
2184.26072367474808
2225.87657273639888
2172.66193055054646
2388.9921243899712
2384.17685783830393
2374.08356728528361
2359.837823498955
2341.50968718110244
2319.21331033629394
2292.86338901861427
2262.58359803227358
2229.16275250397757
2194.44966767729238
2161.37995526021223
2134.13404130090112
2123.56576408113779
2147.18580154798246
2211.85132508576498
2179.13123056150243
2381.3385517629481
2376.11388375561955
2365.30921366720804
2350.19422974035433
2330.67717808250518
2306.76879680901675
2278.09619125553127
2244.58439890330419
2206.95414791593203
2166.95677413012572
2126.51569056532162
2088.07960521070299
2067.30395138322638
2091.16720383681104
2179.4234153641064
2175.02055971037362
2371.72568466424718
2365.89220863899345
2354.32764550094771
2338.12599407226799
2317.07153908644341
2290.98052087946144
2259.13459221611356
2221.4155980981518
2178.64704481127001
2132.05409782298602
2081.88936839146527
2026.8514559150799
1982.62039175976111
1959.18659011246905
2097.14621424771212
2207.67442527159983
2358.66732577844914
2351.92923038540403
2339.56304240409509
2321.82878694139299
2298.65591663237547
2269.41947696047146
2233.06758516247646
2189.80965854639044
2140.67563372251061
2085.71216044295988
2021.0931618612226
1934.64131488985504
1838.29227314168656
1784.23723668395246
1972.17717888496236
2143.61478806577452
2338.52392257076508
2330.59757496699694
2317.63371288133339
2297.56546439382146
2271.28981091139849
2237.25132545651741
2194.30238582106858
2143.52896125703683
2086.15955999540074
2020.38970828374227
1931.39043171848334
1788.60216889545609
1090.89525064774284
1287.56433921359894
1828.73042542334633
2062.93428518361497
2303.63510721114926
2294.37240602851125
2281.67045604070245
2257.6635603840582
2226.41370639967272
2184.26598812379507
2131.07529448301011
2069.56905739867034
2000.64228002005552
1919.07499647478107
1786.12963696496763
1045.03945459572014
578.411892944572855
275.908239801731668
1462.21231236149379
1966.77021297250894
2242.12584356673369
2231.43633757964699
2219.95025244178169
2188.26658101068506
2149.01186242169206
2092.60063515829233
2023.30351504608961
1938.2891361525742
1762.11630784060958
1552.4275863443429
909.365008481548443
356.523729124309909
40.5864481866286226
43.5587477553702485
509.89904913427273
1872.34982410905877
2421.40811192836145
2420.20477905372354
2413.61478417223634
2403.08295901625479
2390.43591229044659
2375.49113359256262
2359.26736911183025
2343.16047697945442
2328.7954909224909
2317.89209545577069
2312.97577269446856
2315.44465305794984
2327.90569559704545
2346.60388985751797
2366.7551987344159
2353.67078998557281
2420.90974673519941
2419.2914273321162
2412.70853282094959
2402.18507163869617
2389.26569910315902
2374.22365750157087
2357.88314693300754
2341.55389455767681
2326.84682989886278
2315.6334293195705
2310.37886264666122
2313.12846834229276
2325.78098313071314
2346.5248803492791
2366.77675760226975
2354.23640170744284
2419.73080710498789
2417.51300866179281
2410.82913922643775
2400.27341805989408
2387.1116037250672
2371.84898688862722
2355.20614001662943
2338.42452665397104
2323.13863398298781
2311.36574860684641
2305.65268771410138
2308.53313369058469
2321.88345507851682
2345.38309517462358
2368.9873321867185
2353.08483444569538
2417.77217394681566
2415.01956207937792
2408.14623736887143
2397.47968133237464
2384.01236963861629
2368.35636588046555
2351.21174991825637
2333.75357710132357
2317.61950469625936
2304.97043005550267
2298.50945494605639
2301.27668287826054
2315.61079176985777
2342.44181195810734
2371.5698042995723
2351.60664280920309
2415.04681120193982
2411.85924853634651
2404.69460724773353
2393.79924475517146
2379.94080865677597
2363.75020165063916
2345.91349583338888
2327.53693206024491
2310.25044066116106
2296.35948748262808
2288.7830294852738
2291.13791797349541
2306.55140809247405
2337.21353900951362
2373.72119894601383
2365.35329811518932
2411.58537983742008
2408.02770322200513
2400.50452581605759
2389.269796425594
2374.92115404197011
2358.05648197253822
2339.32733252311573
2319.76775134328409
2300.98615550243085
2285.42202481149843
2276.24618718464353
2277.72762296503515
2294.08903454578513
2329.01106441541788
2374.35947840335075
2400.14735198455401
2407.42466077354175
2403.53298903660334
2395.59972493580835
2383.91704316888536
2368.96677988710644
2351.2865342412133
2331.45799472781891
2310.42854110872941
2289.76182430551944
2272.00844660900566
2260.60465979464652
2260.5352133570841
2277.39476163037489
2316.9110105665477
2371.57275923233783
2370.76390434125142
2402.60009751585721
2398.38426184849004
2389.99149918853618
2377.75231584085623
2362.08177346216871
2343.43946960927269
2322.29133487960462
2299.47511198639131
2276.47572047524727
2255.91895453081588
2241.48752866069481
2238.8300962093067
2255.29420972906792
2299.61773689774145
2351.25073015388443
2369.60073037536677
2397.11181988522821
2392.55647680090806
2383.64927943826478
2370.73799389483975
2354.22197315174435
2334.46184949407416
2311.74983711819823
2286.78724166409074
2260.93634907459227
2236.84255685628796
2218.3998381196111
2211.63675728035059
2226.00967901112563
2274.96140879788663
2338.61276276527133
2365.89848382180026
2390.83753104465495
2385.88348854778451
2376.39860806441311
2362.69474029807043
2345.1984897495131
2324.13352112714119
2299.55295519363108
2272.00516917177674
2242.69266717698338
2214.16586639522893
2190.44168922170275
2177.34123670849613
2186.65604860158601
2239.40671142798601
2323.28436542143254
2356.50903228067591
2383.41031837815262
2377.93796859501617
2367.77145899519564
2353.14899115019534
2334.49560354539108
2311.83002197007045
2284.91118902263588
2254.17742286769135
2220.62680633273703
2186.56437414892434
2155.34296267539594
2131.43413979557226
2130.95504574955112
2187.08319500524021
2287.86673211897187
2334.94852507191445
2374.08813719142336
2367.93716408393766
2356.84985489200199
2341.13221897755466
2321.03526041272153
2296.23960251119843
2266.19106478443928
2231.41710797704354
2192.63534433858285
2151.74716082502619
2110.21346377992995
2069.55720744803102
2046.23548993476925
2080.30977675596796
2223.26461465757166
2326.99624614642926
2361.36503343073264
2354.35866095633401
2341.91559813886761
2324.79294457196102
2302.79734046689464
2274.99753319639467
2240.59377658897711
2200.61487073183525
2155.19583594362166
2105.16526687007672
2048.86087803981218
1976.93096594416966
1914.15788193716821
1935.75324950774484
2129.02822344113974
2292.99159624387403
2341.73475948293253
2333.68025149861887
2319.36007541156732
2300.44253246554626
2275.72457173401926
2243.40639023463928
2202.79076949936007
2155.80452352615475
2101.40220737125946
2039.149071881601
1957.97667642557303
1832.78163155346056
1299.98879819502395
1536.08073894549148
2012.61275666317488
2203.12107991575158
2307.73618989968554
2298.64620781565463
2281.92953130127944
2260.77571623502581
2231.26129725410829
2191.40279410986159
2141.30751032006992
2084.12224347373194
2016.44736076418781
1935.50692256559569
1811.9507974989715
1094.19321380686802
689.568225453842842
562.389741029567062
1761.52305884811949
2105.65982961660256
2247.40202385040948
2237.63329107436175
2217.30463784283802
2192.65314235444021
2153.85410721810285
2101.57626320837653
2035.61349215096629
1957.97795920862723
1769.92239377826309
1551.87940190841618
988.729040197625068
461.082261402909069
68.5150500312972355
72.8015361391283307
1467.64969344358678
2006.09660097343726
2422.57234077297107
2421.47642640457025
2415.20419102901042
2405.21527895155032
2393.35271804300555
2379.58902403463435
2365.10156966529121
2351.51488675990277
2340.7094022972301
2334.80078588906599
2336.62475782534648
2348.57759372262171
2372.98310131069229
2409.21670146087399
2451.78048441721467
2489.60268433489591
2422.07431790238525
2420.57674073586486
2414.31237257961675
2404.32877000944291
2392.20225578825557
2378.33748642945875
2363.72844167461244
2349.91371776204551
2338.77718784693798
2332.5785612216946
2334.16303824028182
2346.33028661688604
2371.15209894651571
2409.03760374986496
2452.89748434231933
2488.99694053617031
2420.90102472208901
2418.8224455039458
2412.46637153071924
2402.45198748839448
2390.08541112234388
2375.99455247003971
2361.08004667750356
2346.81780982339342
2335.12408968738418
2328.40071004925221
2329.59913947117411
2341.90208725343336
2367.48874146928347
2407.75753972504799
2454.55571938406092
2486.17010570708499
2418.95530378915782
2416.36355107759664
2409.83283715959988
2399.71021175586384
2387.03605922662382
2372.54554889063593
2357.1282087627892
2342.19998455781615
2329.68599356704726
2322.13148150953657
2322.66204002953555
2334.9137908411858
2361.5100594961159
2404.75791998872592
2456.22341194662658
2478.5125437013603
2416.24993746957261
2413.24922484324907
2406.44664393296807
2396.09920073139983
2383.02782238280906
2367.99334460871205
2351.88444701341132
2336.05493304150014
2322.42287543267503
2313.68240388130471
2313.1924655075627
2325.13445390136758
2352.84336581312709
2399.56221975955668
2457.14646235368582
2477.00252573585931
2412.81510344754588
2409.47899284680898
2402.33877717129099
2391.65529699586841
2378.08238890916118
2362.35998319090004
2345.36214802285122
2328.37371982471905
2313.28475663441441
2302.93429189461403
2300.95942385849185
2312.18275220335317
2340.87546027997405
2391.52440565896495
2456.34072855169597
2507.56165045646594
2408.68869133687531
2405.06558730647021
2397.53211405142201
2386.40212579022045
2372.21092956886559
2355.65496842001767
2337.5671459761661
2319.13960106496734
2302.20246927690869
2289.72622028471915
2285.6557748589089
2295.53375598621233
2324.85949232287339
2379.7144773090472
2453.19693339998139
2498.85532794903975
2403.90880056626384
2400.0212908391527
2392.03292355940312
2380.34746992491182
2365.41602358509135
2347.87908725583566
2328.49313000138545
2308.31560896883775
2289.07321619698951
2273.84686310737834
2266.91217356725019
2274.49837466045847
2303.67549206368176
2362.91461399660557
2441.03726652166824
2476.99934045549207
2398.48180989395451
2394.31979734525748
2385.79796964514571
2373.44868285761868
2357.65482556281995
2338.98840755284527
2318.08344673926013
2295.80121362039517
2273.71536641038483
2254.98803669032577
2244.22660837951935
2248.10150568909285
2275.65058727693167
2339.20675929357776
2424.6607022166836
2466.61093047437953
2392.3063115965233
2387.78652735202422
2378.6278113520134
2365.51497563692647
2348.74313015602502
2328.78970593495751
2306.10554528533157
2281.28253166274453
2255.70970886225541
2232.55339206981625
2216.55642795983385
2214.77017199353077
2238.1193048666546
2306.01090653154006
2405.8993463406814
2450.46191729556858
2385.06303798519684
2379.9631733627516
2370.01131275256421
2356.04211634480134
2338.17659426575847
2316.72734054491866
2291.8802743256033
2263.90143665070809
2234.00604926571305
2205.20159724856194
2181.93783155072515
2169.87167121673019
2182.6260661505612
2255.93418727767948
2369.77070405949917
2420.36607488371146
2376.081673114144
2369.99042895864386
2358.96669786219081
2344.01225013953717
2324.91524245673554
2301.63739863724868
2273.98550002187767
2241.92364964761327
2206.50338624182768
2170.56224930454982
2136.85073350416724
2108.69402918490368
2103.41210654127281
2168.55934265282758
2314.44376569141241
2396.18401694704016
2363.97727612771723
2356.22749411618815
2343.68177092201449
2327.53047958191928
2307.02737819471758
2281.39682197625962
2249.89641161567806
2212.38258689343365
2169.6874260247414
2123.84121228750109
2075.48068733743003
2017.77105048725093
1976.26480745160461
2043.13602337643897
2239.76823216409548
2405.07245883078076
2345.45303731260265
2335.02746379382916
2320.48364399644015
2302.83195274093896
2280.60050024498332
2251.65816806854491
2214.46857490431466
2169.29792241086398
2116.43428698326079
2056.96450787707272
1983.43652146008958
1877.03548077892674
1525.67308626551039
1738.45738587020583
2127.70306937786245
2314.42182873973616
2313.25210292617567
2298.90061052420106
2282.09057709334274
2262.25397146997011
2237.49954736881728
2202.86580670361718
2156.42694768052479
2099.56212455522336
2031.42631303351482
1950.80995327704477
1835.23547506332829
1235.30542605917231
807.341015868747263
981.418367392747655
1931.46556490816329
2210.42891441322354
2255.56482086133065
2235.71616057360052
2216.08536659449283
2192.5571865752504
2163.39858011906381
2118.04922875135026
2056.2152022543878
1981.8563113620578
1803.96900523275781
1560.92789415476227
1040.39583205584381
523.583071874561711
165.839791873437093
146.950257603254016
1619.15257251437333
2102.86594887213323
2423.6793947919582
2422.68428911371166
2416.70360664713553
2407.20437109990326
2396.03502261569292
2383.29377043993372
2370.28634947496266
2358.80139228371354
2350.89794874036897
2348.92452655836632
2355.81595892505175
2374.24446370679016
2405.76632421765862
2450.03865392334001
2499.61259558266374
2543.0812676280766
2423.18612223833134
2421.79789729675394
2415.82549342255652
2406.32883638720932
2394.90316287153473
2382.05879649353528
2368.92442545673111
2357.20825868629709
2348.98605806998103
2346.74058543092042
2353.45249366613461
2372.06361044788264
2404.16902290220014
2450.00168767331115
2502.03921384963496
2540.88381424917179
2422.02598458383864
2420.0681599044201
2414.01071104617677
2404.48528598127541
2392.82419645670507
2379.75156414202092
2366.30786733735522
2354.14597761386267
2345.38395539999465
2342.64481245886464
2349.02620645401157
2367.78698491265595
2400.73045665585869
2448.7486259811094
2503.15412096407317
2536.1325191367373
2420.10669412077141
2417.64375561683073
2411.42184370765835
2401.7923102429354
2389.82764580154389
2376.35505511344627
2362.40503321350616
2349.57938634010134
2340.01869402684042
2336.49335586153302
2342.28216185531073
2361.05651354665542
2395.05280285314666
2445.8177564356547
2504.07435513702239
2526.11936808094288
2417.44380815494742
2414.57356873339177
2408.09216351339637
2398.24502319317526
2385.88843218528655
2371.87240047691421
2357.22564986975658
2343.49977620199888
2332.84732708208048
2328.19499608132992
2333.06016455863846
2351.6361038293112
2386.78122679783883
2440.7525790620316
2504.22430919087128
2519.09267819032948
2414.06954611283209
2410.85765513566957
2404.05076141184236
2393.87734580514643
2381.02697303769037
2366.32442852427494
2350.7798416116043
2335.89320326847155
2323.81546651514691
2317.6261939315259
2321.12929533883062
2339.14572891112903
2375.34040622504654
2432.89846130889737
2502.6736532658947
2516.01501762373891
2410.02263416889309
2406.50933969445714
2399.31910914204855
2388.71111972536983
2375.25474379314619
2359.72110600408359
2343.07089034557976
2326.73939081331491
2312.85214109431899
2304.62268190357054
2306.18000857213519
2323.07334096530758
2360.09135959687683
2421.80266542951267
2498.64565984811361
2569.12469042892371
2405.34136041466763
2401.54290645827859
2393.90613673521011
2382.75562201019738
2368.57723094009043
2352.06519261711583
2334.09154043878061
2316.00365273136049
2299.85884020327967
2288.96630874134826
2287.81471950179002
2302.72877906604162
2339.91055702607991
2405.74511389959343
2490.50706313152386
2544.39575151499093
2400.0398350473738
2395.93457740378653
2387.78022991868738
2375.97701977048791
2360.95665399388463
2343.313215152255
2323.78622141507094
2303.60005111758937
2284.67134854311189
2270.34706444258063
2265.54072198152426
2277.26115992028599
2313.33889917913712
2383.29647581986865
2471.85026908016334
2501.60079659105486
2394.0372430910229
2389.53279790708939
2380.76739807628655
2368.19875398874183
2352.21127943792817
2333.26372677841255
2311.92644767699358
2289.2408393441483
2266.89361433033037
2248.14429447379734
2238.28939790171717
2244.94513183099161
2277.83961849838488
2351.83229359889265
2451.38071011586817
2479.01958818160301
2387.04053400735256
2381.94696344910926
2372.40503649924813
2358.93507657977261
2341.8228943105928
2321.34660344204394
2297.86548141605317
2272.12661780600183
2245.49991626965539
2221.09562051513603
2204.31611655918232
2201.78628976846949
2224.75979242821404
2305.1368738387323
2421.70075924830689
2445.96709911314429
2378.42286590542381
2372.44920322721418
2361.803027177084
2347.22339945223757
2328.73675507030202
2306.40025939336829
2280.2947137639253
2250.63402286240671
2218.34232243290398
2186.55891453960521
2160.1816963843994
2143.5353963109369
2150.86946605237245
2230.84841474166751
2377.82169657208942
2430.64942800890231
2366.88123349634225
2359.62801341501927
2347.293763378525
2331.2944902501049
2311.0132693563196
2286.32511002672118
2256.87111958910282
2221.91835657133015
2181.91081910338607
2140.41401344389806
2100.56383120484224
2058.93323214331258
2037.16970814919091
2123.28966774382116
2308.41750164549694
2469.75791665011093
2349.21234848852555
2340.18579856370843
2325.28574079280861
2307.44789796320811
2284.63034579473742
2256.74084263330451
2222.65992105112718
2179.95650976473007
2128.80113560496693
2073.60082559102648
2013.61197940486659
1926.36286446112945
1717.79628804617232
1901.28065334770736
2210.09088178734646
2374.08634785188951
2318.17406957674257
2307.07888215819958
2288.38639975952128
2267.99922931434912
2241.06030920082003
2208.33305954779553
2166.99093540796412
2111.45904817071141
2042.05447683973125
1967.04818363875279
1873.54865318609541
1474.49208249602361
997.631410246655719
1329.46179095419006
2073.95892555984256
2266.59254963447893
2262.04524318198946
2248.83538329250132
2224.50245570998823
2200.05193429595602
2165.73412998952108
2125.78590764790852
2072.34253586645491
1995.05324445303859
1789.13688064382745
1566.4808919827949
1197.84147250964656
604.062304700448749
287.328451585696541
414.054295396626344
1696.53067045322155
2163.93412877536275
2424.68910627475952
2423.76449356729836
2418.03657333973979
2408.95350841146501
2398.35708000692148
2386.44853437847405
2374.62444263302541
2364.79078140675165
2359.10875779732896
2360.05490142129293
2370.47735301774583
2393.06420828236469
2428.64859834904473
2476.90572578855881
2528.50342362624588
2572.50197014650621
2424.18962660674288
2422.87843289459352
2417.16727536861663
2408.09363812260835
2397.25176500827274
2385.23695415752491
2373.28311978039847
2363.22207436234066
2357.24733642128376
2357.94500590270263
2368.26665043185722
2391.04043091807716
2427.29423810669186
2476.71923335758856
2531.39685196520577
2570.16804324187979
2423.0148968750982
2421.14960299574795
2415.3749896086174
2406.28635562070485
2395.21623364619745
2382.96863811789626
2370.70291725802963
2360.2045862142304
2353.713912883597
2353.94680898696788
2363.99080434010784
2386.93218267375823
2424.04955113132246
2475.463286813178
2532.17761183208722
2564.89077561328395
2421.07218514531951
2418.7267354644523
2412.82150072260401
2403.64801394411597
2392.28020604336962
2379.62735828768473
2366.85341015677386
2355.70362331496563
2348.44259601356816
2347.92832179789548
2357.43965666362874
2380.45043880319054
2418.64600621695126
2472.65215599891144
2532.38488701168035
2555.25963009404313
2418.37202257507488
2415.66293781281911
2409.54343909942645
2400.175849109512
2388.4191859432849
2375.21346006608428
2361.74136868626692
2349.70908498820245
2341.39073361089368
2339.79581837794331
2348.4572166917992
2371.36128147413137
2410.73252955765793
2467.80141008790406
2531.14872811003579
2547.94238628809489
2414.94080362473687
2411.96931885341246
2405.57454490438386
2395.90378548928811
2383.65057683540726
2369.74243201887384
2355.37328578698271
2342.2058643278333
2332.5024730688674
2329.42292628251244
2336.81914207497221
2359.29642142118519
2399.77724711285509
2460.32152905765179
2530.96036967863029
2541.70755066625134
2410.82333308431271
2407.68082870537
2400.94079449760056
2390.85156989436427
2377.98207211958879
2363.21821911986672
2347.7496860613046
2333.1728392424593
2321.70347127567129
2316.64159025593108
2322.22458960750691
2343.77855856789256
2385.15864427753968
2449.12515201895985
2526.35262705244486
2574.09918448672124
2406.1101014265073
2402.84920136153278
2395.65248086781639
2385.02374130505996
2371.41353079364762
2355.63925820585291
2338.8642815870603
2322.57680592991846
2308.89016335649285
2301.23145579645734
2304.2847795342459
2324.14933385767199
2365.89869213105567
2433.94981328870335
2517.70016966571347
2615.78979731813752
2400.89733589856132
2397.45327183320842
2389.67620691153843
2378.38362902503559
2363.89218628050639
2346.9649524055103
2328.67002404662662
2310.33884786972158
2293.89783751265122
2282.89060693960073
2282.52715542330861
2299.62012091411225
2340.69465354175554
2412.89407442994161
2502.18088925066559
2553.72793338873907
2395.1983973245442
2391.34433012837826
2382.83835556436816
2370.7556161226621
2355.23822994189686
2337.01477281568214
2316.95454057956522
2296.17828546054989
2276.34868131571375
2261.06397492037422
2256.01433954786808
2268.57701795760386
2307.22271767674692
2383.64876087397079
2480.35955625849738
2491.94930477259368
2388.90572213277528
2384.17491533473367
2374.70771223450947
2361.65886476050628
2344.9633568420013
2325.24414784005967
2303.09439453827918
2279.31442281159207
2255.29513654350922
2234.56231389049481
2223.45405227079027
2227.63602842414775
2258.54540551761465
2341.92068475077031
2456.34858758846485
2457.44446020251053
2381.7677526620364
2375.28676989136011
2364.46028931527962
2350.1521874720047
2332.07806520833583
2310.53863395871667
2285.82084030632177
2258.17720106647266
2228.81236727947544
2201.32501361242748
2181.66768462029268
2172.84728098778533
2189.1256388654042
2277.62911540287996
2417.84967989498546
2421.83825398622139
2373.11385409186232
2363.38233046220284
2350.52789076945919
2334.53332769990857
2314.71966345477722
2290.85547174198564
2262.84505563676112
2230.07247196401477
2193.59791647407883
2157.61227192386878
2126.31815742087565
2095.18778357803967
2084.99995595657356
2178.5088715348611
2356.18098724983292
2493.69338837879786
2360.59232807328044
2345.32738075120369
2329.52600164793557
2311.13618884882635
2288.96503504565408
2261.93197593533341
2229.31686114294689
2189.24167283209272
2142.74601862168174
2095.5008049192279
2044.60636361540514
1968.16035571491489
1838.35508916968752
2009.83696603723956
2270.13374763772163
2427.46656380069635
2337.90821300792277
2314.18726262097107
2294.40068078115155
2272.25332474910238
2246.48376083333096
2214.51858905370727
2174.62371133457918
2122.50185606836749
2060.81897701485741
1996.02706380465565
1909.37216137812834
1556.2688895843155
1165.84565492761885
1568.37889005436955
2150.21358388223098
2317.85280261018306
2294.5462167966698
2258.38529623675959
2233.59941732380958
2204.74050606134097
2172.97381805660461
2132.5411785502929
2081.00918110946486
2008.73192787614926
1870.49086931587703
1666.69173929574663
1280.95651741115989
677.460683676410213
405.632903362341153
739.042255933614001
1899.9834529469174
2212.10309595806348
2425.61725654934389
2424.73898925599815
2419.18967110200356
2410.39971292445034
2400.21622893205404
2388.92357715172875
2377.97298729180056
2369.33919484230819
2365.26040605500702
2368.24165349093028
2381.12120580992178
2406.24540372298998
2444.34389929223016
2493.90044846453111
2545.75745013635515
2585.85302400910678
2425.12791316642597
2423.8742719572615
2418.33138113889527
2409.54842132324757
2399.12884935279544
2387.72950188965433
2376.6477842901877
2367.79039689393949
2363.43066918475824
2366.19345760243368
2378.98015914493271
2404.34390651150625
2442.96167006230144
2493.6635472861667
2548.09787128496555
2583.39054021193715
2423.97757697840143
2422.18253495927047
2416.56219846107297
2407.75993722931798
2397.11638745700975
2385.4829792014084
2374.08674102884606
2364.79342391884211
2359.92960530897699
2362.25485144102959
2374.79260778545176
2400.35751079058628
2439.78101883895215
2492.42037677964481
2548.84665571663345
2577.63442298722111
2422.07675050818443
2419.80792180073104
2414.0369040471187
2405.14430286148581
2394.20715469511333
2382.16968438659205
2370.26208629030043
2360.3163398923507
2354.6958913516637
2356.31092600986176
2368.36404382449427
2394.04334423832915
2434.54056159277116
2489.60832877412304
2549.21862535251785
2567.92435430442174
2419.43919878039651
2416.79491624776801
2410.78584192364906
2401.69614261113338
2390.37636090753813
2377.78920617332642
2365.17837016517797
2354.34551762203228
2347.68480347587547
2348.26972507549908
2359.54229109862854
2385.18513136751562
2426.83267597721124
2484.79571373402314
2548.50455951365439
2559.8161871260254
2416.0944625879888
2413.14028896884111
2406.83608703955224
2397.4461872052284
2385.63981303042738
2372.35554066650502
2358.83877230930875
2346.86063422887037
2338.83758682072039
2338.00781811172055
2348.10987776459842
2373.42660412206942
2416.21465406612197
2477.37963336550456
2546.9499119099778
2553.49368768376644
2412.08274289709834
2408.85291633857378
2402.20791853501578
2392.41235720678469
2380.0013078706188
2365.86856073040735
2351.23736494576906
2337.83476142665586
2328.08078273583487
2325.36508987919433
2333.77958997279256
2358.32175949767498
2402.1176650210009
2466.32016751568653
2541.94311599420416
2592.87358531267728
2407.4529663794583
2403.94821979068911
2396.90995869718699
2386.59714528498353
2373.45439518385228
2358.31869939831267
2342.3604592548445
2327.23243284502769
2315.32316366561054
2310.13821539148285
2316.17956195334091
2339.24653739032192
2383.5739894327935
2451.93708697149759
2533.19659341293482
2626.4942970540983
2402.22174400864333
2398.42395112328222
2390.9131417307176
2379.95486078987778
2365.94715307663864
2349.6564189809983
2332.16041985601214
2314.99006901254734
2300.43057763679553
2292.06174662953936
2294.84985500039375
2315.42507386725765
2359.49063087034983
2431.91796454269252
2515.17455336742341
2602.83007058792464
2396.30900007159516
2392.15923565486992
2384.04357973073957
2372.28237853845712
2357.27354314269496
2339.68472051606796
2320.44375124411999
2300.88589174494246
2283.09470860983083
2270.63010253079165
2268.90767944943445
2285.31317352666201
2327.7330547249021
2404.51547370366097
2500.72952899287702
2486.05433521108989
2389.50726436529658
2384.76475357414893
2375.81502891536365
2363.04388508807097
2346.89678879447774
2327.86162091885899
2306.64339989096925
2284.22916557669532
2262.49526147770712
2244.72616308922989
2236.98255644784467
2246.11340243539416
2281.89681625825506
2365.96611048843761
2474.80543685355906
2449.6270688742311
2381.33879409761812
2375.4724083711094
2365.32244179267263
2351.25262165948789
2333.80047488799437