/*--------------------------------*- C++ -*----------------------------------*\
| =========                 |                                                 |
| \\      /  F ield         | OpenFOAM: The Open Source CFD Toolbox           |
|  \\    /   O peration     | Version:  2206                                  |
|   \\  /    A nd           | Website:  www.openfoam.com                      |
|    \\/     M anipulation  |                                                 |
\*---------------------------------------------------------------------------*/
FoamFile
{
    version     2.0;
    format      ascii;
    arch        "LSB;label=32;scalar=64";
    class       volVectorField;
    location    "0.330000000000000071";
    object      U;
}
// * * * * * * * * * * * * * * * * * * * * * * * * * * * * * * * * * * * * * //

dimensions      [0 1 -1 0 0 0 0];

internalField   nonuniform List<vector> 
29184
(
(0.0252530592859665122 -0.0103334120384341692 -0.0231907402573064379)
(0.0835330484781337673 -0.0152090267477342396 -0.0257973979497072223)
(0.14900606297002264 -0.0158625135091489435 -0.0284745612839278073)
(0.223433564740155938 -0.015810811034846585 -0.0330104879851112892)
(0.287043169903709372 -0.014856465284162788 -0.0395933064587556324)
(0.34830790048624688 -0.0141248101295316404 -0.0489708489996892732)
(0.408692593328953802 -0.0137519690059758649 -0.0617081727568683652)
(0.468194461604732992 -0.0135684610336368645 -0.0798919453184730455)
(0.525649448572494959 -0.0129300175092842227 -0.103056334476829908)
(0.578876900287783935 -0.0121986700559397702 -0.137991415577060544)
(0.626265073951973505 -0.0103397182904898226 -0.179409430425911481)
(0.661989230417950658 -0.00885580039005107525 -0.249698362737779872)
(0.685724624964777818 -0.00557011298806993349 -0.322967844334992704)
(0.683006739819643327 -0.00556227301074668432 -0.476835861338504974)
(0.667555110523148865 -0.00345012404710336 -0.634382846661622812)
(0.349558608351036582 0.00930156285194442059 -1.24294745601823386)
(0.0266283961857286776 -0.0334649681927778817 -0.0232589879148183618)
(0.0856593280152801728 -0.0459950366372839856 -0.0253409168597045938)
(0.15043791725575803 -0.0457238577554676326 -0.0279855631373649508)
(0.213373324278126414 -0.0442022375576045928 -0.0323573141642017406)
(0.274255698215451815 -0.0422237165592934324 -0.038871768969132095)
(0.334747068756098831 -0.0411296063793550187 -0.0480694751460455996)
(0.394943146609224416 -0.0406384041252235914 -0.0607736137941140356)
(0.45427472146432385 -0.0401549881884037743 -0.0781431216178672672)
(0.511812882827604176 -0.0385691409390140558 -0.101812192348077798)
(0.565905814904553051 -0.0362047148071588248 -0.134340254954037258)
(0.614760677980377479 -0.0317311067697710406 -0.178767419249206666)
(0.654751043976094516 -0.0271535040789751964 -0.241594345087599333)
(0.682570788412978469 -0.019955019434461603 -0.326924067619245584)
(0.682310820270682905 -0.0170882214442420709 -0.466025948179878857)
(0.668329509044679693 -0.0192519151693312865 -0.641189443148991289)
(0.381512377939789538 0.0301632114613543702 -1.27152219254513055)
(0.0281359588951628596 -0.0586902243869281554 -0.0230856712877848813)
(0.0876970170672281002 -0.0745382954098131878 -0.0252801534569592201)
(0.1507317597593959 -0.0736046304324924211 -0.0279154891077740795)
(0.213164913914167364 -0.0711750589245632309 -0.0322181772266809732)
(0.274251678754600048 -0.0693076643443601287 -0.0386438819052175933)
(0.335056212917195728 -0.0683963186876322543 -0.0477173384435561204)
(0.395634927522051649 -0.0678346825368389972 -0.060225332701140076)
(0.455574186506035261 -0.0669378063454129646 -0.0773339384126386087)
(0.513784854795419688 -0.0645947961348550814 -0.100631832928601103)
(0.568692843927961933 -0.0605950846697592208 -0.132707475177401446)
(0.618257318036435577 -0.0543315912172300589 -0.17649538268124626)
(0.658985356799865585 -0.0461988468442359884 -0.238780265091737748)
(0.685656417599310952 -0.0359376401288523106 -0.323410493405459798)
(0.684989207123767652 -0.0269250663015547058 -0.460395562200905106)
(0.66488963791439859 -0.0374197895566691363 -0.636380230554231541)
(0.359489895471903076 0.0555875167304584195 -1.25638133537197305)
(0.0291325737602859854 -0.0845083459532459114 -0.0228875227532388051)
(0.089041584922465486 -0.102189315522792257 -0.0250853093507953893)
(0.150892248706621296 -0.101430883325203641 -0.0276788777653296965)
(0.212599506712329606 -0.0986209306351995135 -0.0318911421807391154)
(0.273639444905853124 -0.0967543078367972681 -0.0381940425128789798)
(0.334668304964752195 -0.0958950738938882941 -0.0470945191823732845)
(0.395629534631402657 -0.0952665421645291222 -0.0593445318085222967)
(0.456219068495255453 -0.0940902750755055056 -0.0760803639846298757)
(0.515263728662448517 -0.0909851972418705829 -0.09888166054564132)
(0.571234850304596864 -0.0855106743360968674 -0.130293345482277362)
(0.622011473112409341 -0.0770658326242263936 -0.173284106333852106)
(0.663714273506227248 -0.0650453183997872081 -0.234636790116056509)
(0.690249325182627271 -0.0503163642803900468 -0.318371507440766643)
(0.68759421274624577 -0.0351802434645269724 -0.452892611005996815)
(0.663842711223673887 -0.0427280776700193973 -0.627800100618737589)
(0.347982605206970941 0.0769075219581203118 -1.23380239554680693)
(0.0297311471578206206 -0.110952995501080606 -0.0226652881350652841)
(0.0898816827991775341 -0.129654660241166952 -0.0248016429806111396)
(0.150978721764702867 -0.128928945023829983 -0.027321105849858425)
(0.212131679540994433 -0.125854394576912998 -0.0314177816379307209)
(0.273109455426247705 -0.124063146516070588 -0.037567986964492657)
(0.334367285500272393 -0.123432915976932289 -0.0462516494727182106)
(0.395797324181959675 -0.122941041360007344 -0.0581747045405857782)
(0.4571879457938956 -0.121629823972169968 -0.0744342012014199278)
(0.517332662579864877 -0.117824826355784062 -0.0965823322506324661)
(0.574776345216287954 -0.110988960353422372 -0.127118723190115718)
(0.627308281054491768 -0.100174859585880335 -0.169067280408263354)
(0.670431335017612651 -0.0840971840352154887 -0.229168601261113991)
(0.697529126039657443 -0.0639509828612199599 -0.311573827969236883)
(0.692509176992176845 -0.0419750313743813552 -0.443444700910809453)
(0.665253409577722055 -0.0432808756188712701 -0.615546205345115505)
(0.347056909470475294 0.104680280435329232 -1.19369063236870998)
(0.0300626251862239381 -0.137805494044100973 -0.0224292375339048937)
(0.0903363712940045138 -0.156865657800533936 -0.0244392280439687248)
(0.15094224715023985 -0.156097682308023594 -0.0268410767493246771)
(0.211636706895790477 -0.152950661519226566 -0.0307938035668760303)
(0.272521813287705805 -0.151387319964921524 -0.036775043288026249)
(0.334011127356913684 -0.151148543038923888 -0.0452142001518836892)
(0.395999151704130525 -0.150975167527004905 -0.0567546610954890313)
(0.458349195576948421 -0.149691546244309442 -0.0724375513782238439)
(0.519878440076503745 -0.145320398304408849 -0.0937705517940406463)
(0.579265483489696864 -0.137270774639068338 -0.123216206814679818)
(0.634154360331176892 -0.123967490300967556 -0.163892141051231011)
(0.679358999592612922 -0.103538924794910642 -0.222439281008329298)
(0.707777302127162167 -0.0768544496596723081 -0.303229388811327827)
(0.701204048462065965 -0.0469061232806642567 -0.431726729332377823)
(0.669336190672795039 -0.0378263473079802001 -0.601689255316284255)
(0.347188852399484271 0.137688168606674016 -1.16345619651801147)
(0.0301605739446454864 -0.164871328529570177 -0.0222002651404843536)
(0.0904453140693757957 -0.183975908532741872 -0.0239825583535210121)
(0.150743581286615358 -0.182980774881452618 -0.0262089761986686737)
(0.211049502953300328 -0.179837110944089773 -0.0300001300366015897)
(0.271836768039495635 -0.1786671188891166 -0.0358222885329960231)
(0.333581869339392934 -0.179037506001152341 -0.0440130756486188726)
(0.396225543153884752 -0.179428148175757168 -0.0551294913221707025)
(0.459706236040673011 -0.178395915945417871 -0.0701409800271018818)
(0.52295126329637176 -0.173670869772538761 -0.0905010267647853722)
(0.584841386468374136 -0.164583148461735523 -0.118677253428271179)
(0.642709703631354268 -0.148701121168607675 -0.157916298023817681)
(0.69076718081928401 -0.123621672642024866 -0.214720429937731216)
(0.721749566701331835 -0.0895318782788800394 -0.29339694479888051)
(0.716034643808856064 -0.0495073573115743376 -0.417710845405352527)
(0.675933809499395744 -0.0258610421799755075 -0.586007536793593187)
(0.347705899494533288 0.179572876164367734 -1.1376180723266105)
(0.0300687943968362716 -0.191960166790326542 -0.0219997405651609704)
(0.0902757496613516425 -0.210986426459385978 -0.0233701618053898628)
(0.150404488796499536 -0.209497085802404726 -0.0253540723143877607)
(0.21038549060731479 -0.206421261527401978 -0.0289952032629144374)
(0.27110571592490873 -0.205874854861948176 -0.0347084146854870559)
(0.333134582326874928 -0.207136788749932438 -0.0426824790119575553)
(0.396502814894092226 -0.208389209264939756 -0.0533596294567854068)
(0.461269367951432752 -0.207905851239531508 -0.0676335340711144151)
(0.526616287855504961 -0.203120110296136192 -0.0869124875759074156)
(0.591549061799741649 -0.193152021627420345 -0.113723071731082481)
(0.65283902904098412 -0.174588329761349692 -0.151459647874926939)
(0.704789056879557507 -0.144832258082390003 -0.20629168244755558)
(0.74119236669159605 -0.102795243397380109 -0.281857400583332252)
(0.738199017281313985 -0.0487955046869342768 -0.401583783562219576)
(0.68705988310713495 -0.00693427864220487727 -0.568221317971565831)
(0.350048434168353406 0.231677565418023979 -1.11144199426292989)
(0.0299721161868201705 -0.218917145137687119 -0.0218291444356927648)
(0.0900099557978480125 -0.237866272843487936 -0.022494337953761611)
(0.150089013516303105 -0.235513654828733154 -0.0241783210020828573)
(0.209824451177335891 -0.232596510820036351 -0.0277292665099230819)
(0.270501221800749703 -0.232953612841798025 -0.0334426977017545923)
(0.332754340237653767 -0.235435563607961806 -0.0412879943398021809)
(0.39680669778353983 -0.237914612714061807 -0.0515586534251660164)
(0.462969880143734636 -0.238382621581537724 -0.0650869951097432925)
(0.530810075223536959 -0.233847702257017287 -0.0832271712258240426)
(0.599054727636299633 -0.22296732250211812 -0.108588687609835713)
(0.663930155662877275 -0.201667260281065935 -0.144722292151821141)
(0.721972489468293843 -0.168001797814464948 -0.196994841784809499)
(0.768217907862167704 -0.117551735819181519 -0.268152290654987913)
(0.769205365697252175 -0.0443324895119625653 -0.38341397606508737)
(0.710534320845221834 0.0220958009295104882 -0.546358761399031834)
(0.354732713329281024 0.292393520402725871 -1.07980112871059908)
(0.0302428155526966759 -0.245759982329603111 -0.0216357528714334439)
(0.0900001109244987912 -0.264632346552627462 -0.0212269487242176674)
(0.150123433371314646 -0.260921017080883111 -0.0226033405018733792)
(0.209673112985799048 -0.258307329498561056 -0.0261863683867391665)
(0.270195886006166952 -0.259862269490705955 -0.0320897177126249974)
(0.332395258011286832 -0.263942877438418044 -0.0399638805807591771)
(0.396917616458957179 -0.268116902667458468 -0.0499044206849542302)
(0.464537994711018976 -0.270015960445865177 -0.0626895062750897764)
(0.535145583992543417 -0.265841939426137985 -0.0795189521040686326)
(0.606417173873334159 -0.253658172144198113 -0.103180793828654166)
(0.675177522982299383 -0.230195148292816426 -0.137416479810522546)
(0.7434851009729605 -0.194832972810749211 -0.186160184228415015)
(0.805026350672003455 -0.13537540816023072 -0.251647437806079011)
(0.813315410828797214 -0.0367913299963934862 -0.362615478521948975)
(0.746125201432415119 0.0593204026451985972 -0.522069755662606827)
(0.367447872289347444 0.367728880623342969 -1.04347113488609278)
(0.0313330968207644889 -0.272712932238485695 -0.0213409288432348798)
(0.0906576999708840481 -0.291272504966164469 -0.019417001979484181)
(0.150875994272929109 -0.285637909358646636 -0.0206455344245510229)
(0.210180401965600061 -0.283561559134171692 -0.0244358319696514094)
(0.270133083877057478 -0.286578902147955061 -0.0308119431677942174)
(0.331697603212836478 -0.292743754383954891 -0.0389088600822816294)
(0.396333602409421726 -0.299227180334005582 -0.0485349353507793929)
(0.46547078917862672 -0.302978284505518003 -0.0603698297160011194)
(0.538809972451447794 -0.298753788925103292 -0.0753433413041685734)
(0.612149310212912856 -0.284794135476057031 -0.0969090968756369936)
(0.686202569571494947 -0.261686787929191478 -0.128931201234617876)
(0.771035378592914489 -0.228768490682538378 -0.173083049890500329)
(0.853618988396763645 -0.157936975056431422 -0.231769741446431865)
(0.87004068669864798 -0.0275205805604426673 -0.339162982519273293)
(0.788218424647702753 0.112636637024821143 -0.498129618338134739)
(0.383668317422641403 0.462292811966380557 -1.00854358471712713)
(0.0335078641620756082 -0.299827683520650756 -0.0208948733425513948)
(0.0922022042769624489 -0.317386357421766907 -0.0169586102196328213)
(0.152488463297095894 -0.309385924618163555 -0.0185518762990745101)
(0.211238463457473297 -0.308247159588534658 -0.0226652065791882393)
(0.269801176488991712 -0.312921373030588701 -0.0298666871110553241)
(0.329917924117952899 -0.321796166952320994 -0.0382905131598751114)
(0.394344230167237519 -0.331238523958827691 -0.0473022195971603415)
(0.465106514768900858 -0.336906657790351782 -0.0574570971974856654)
(0.54053956464002717 -0.331562945240987061 -0.0697004653065523838)
(0.614563829069031398 -0.316281571875746625 -0.0891880449661622138)
(0.697489951331686342 -0.298850386904978393 -0.119070207424612953)
(0.805145706579976861 -0.273685408915784634 -0.157454686239565628)
(0.911127315308588037 -0.187828219312590805 -0.208210083550187303)
(0.929584318447650992 -0.0122363448816875664 -0.315003751497878681)
(0.827014561845357155 0.179147881316713664 -0.477791395843534583)
(0.40035586629392389 0.57664417001118784 -0.976720396044103878)
(0.0365338646578637072 -0.326633676270790152 -0.020188143577735785)
(0.0943700366302206994 -0.342214486511812022 -0.0139977656342221667)
(0.154553159226389514 -0.33166666262861888 -0.0164020689391024647)
(0.212111288992968161 -0.332001580500800586 -0.0212087779823265168)
(0.268202858181104176 -0.338359583505695005 -0.0294974376727794689)
(0.326131833214913569 -0.35056500105541627 -0.0380096975256112649)
(0.390279649898569447 -0.363240411998682344 -0.0454726730538579024)
(0.462631568539372318 -0.370177961008708367 -0.0526613448798621889)
(0.538563095979605611 -0.362413497048575783 -0.0617517913159746079)
(0.612470726439718671 -0.348032484705550371 -0.0804040105777590886)
(0.708942306043155557 -0.34329908045620966 -0.108328306238490116)
(0.838018639587494785 -0.333067504943230452 -0.138657921414274327)
(0.962213411742941505 -0.232696119582661343 -0.180028364482697378)
(0.975386158467775877 0.00729234495055822163 -0.287083621243959475)
(0.847210193481688356 0.268890496401913648 -0.462310981418585953)
(0.411278983565148748 0.708175382607753923 -0.951479808066410415)
(0.0394801242000230104 -0.353226770598939366 -0.0191148229813697147)
(0.0963084481758177124 -0.365820364217614824 -0.0111601458552105064)
(0.155964351338283902 -0.352498432887001278 -0.0143064146121873303)
(0.211387303784750125 -0.354697960839050197 -0.020471113640543645)
(0.264112727727787544 -0.362557561452811095 -0.0296214765239216984)
(0.319619822107354845 -0.378603624256057536 -0.0373361883370484787)
(0.38363614534787549 -0.394186601203157239 -0.0415973668814502498)
(0.456704201846378999 -0.40117872502097407 -0.0446891259231948293)
(0.530661231911156106 -0.390443537182669331 -0.0519621318119778547)
(0.605446746978891781 -0.380616290846464977 -0.0720550839155858491)
(0.713764351869819125 -0.397876935792601527 -0.0963919425992506712)
(0.847702693608125113 -0.410646772399785975 -0.115314314606893897)
(0.977472898105527732 -0.287598484527892162 -0.1466711527031484)
(0.987727138441228392 -0.0187560247475966613 -0.246861644483889031)
(0.833276425539780985 0.326987811753716218 -0.444005481098990462)
(0.408416713698833977 0.845372815686371015 -0.931329596936897874)
(0.0407633715004804831 -0.382087874305625963 -0.0174549728371484816)
(0.0967952791245220712 -0.38997753654689632 -0.00876529113839294785)
(0.15502002223291475 -0.37305034450891339 -0.0128586101989504095)
(0.207089379398511242 -0.377364283706924597 -0.0206259476418338764)
(0.256264787716770692 -0.386699356616847179 -0.0294828017075063481)
(0.309700994854404721 -0.407460245390606157 -0.0347216646451095415)
(0.373300583360579252 -0.425595776872537135 -0.0339781812032836708)
(0.44449840219073844 -0.431785417911857095 -0.0333412314025034046)
(0.514071974143386901 -0.418913408238981377 -0.0423426906282394211)
(0.590501915704446434 -0.418734513637864014 -0.0647999694990206293)
(0.693429055978755482 -0.469766387040382427 -0.0802874359590819014)
(0.817544739183759583 -0.49191851136633935 -0.0862275898974983329)
(0.925792111064099199 -0.341235243944462252 -0.1053668748805483)
(0.861845181852440856 0.0923056905110969383 -0.220603220697061092)
(0.73946008429454857 0.439020300593877089 -0.438387259425275067)
(0.390444732797627869 0.975991025089419706 -0.913996246314550342)
(0.0380511108680537113 -0.415349977870465958 -0.0144925771348278047)
(0.0940958931005363569 -0.415290571176315793 -0.00690530630552787204)
(0.148966368596851417 -0.394143054391667358 -0.0119470531226023892)
(0.196297030470235612 -0.401543104886025459 -0.0211941631756573101)
(0.242707659985349822 -0.412556413404095434 -0.0276415865400321398)
(0.29406749661531012 -0.439432906179043292 -0.0281471899584062255)
(0.355344174960096015 -0.459383223509471583 -0.0220106638569003178)
(0.420391769560446382 -0.464381914548302355 -0.0202717927335623153)
(0.483660446580664316 -0.450689556667654811 -0.0346228012406659194)
(0.556800345279270137 -0.46529512402319867 -0.055837334643341778)
(0.637375042766424427 -0.549075649715137781 -0.0561660875168175852)
(0.749180695407493658 -0.531315762808469039 -0.0490092925012460268)
(0.789261532614501604 -0.325973850430530232 -0.0537892992011079346)
(0.661543858046213185 0.195362251565449174 -0.194708227745114759)
(0.559812341094459986 0.523687450575303415 -0.434367226109914129)
(0.348292060544985072 1.0806245027992798 -0.899453586577579789)
(0.0247199339550250204 -0.0103200092996418216 -0.0224807746187375909)
(0.0817980947653324242 -0.015161442168909774 -0.0250086601965562906)
(0.14601891497481545 -0.0157566523061931606 -0.0276229530535240728)
(0.218405176516377753 -0.0156305860359053049 -0.0320039572291951208)
(0.279690173488098881 -0.0146319639180328698 -0.0383252007778201384)
(0.338080597776790004 -0.0138413978664852777 -0.0472436569407930981)
(0.394624070692980722 -0.013387929054704175 -0.0594910222126842428)
(0.449065053060805242 -0.013032450177349067 -0.0764561686306068633)
(0.499352479749871681 -0.0122595186738767049 -0.0990233774893372887)
(0.543215957610720279 -0.0111322540769332092 -0.130293010473490956)
(0.576414578106024367 -0.00917343812799370495 -0.171277499246311415)
(0.594539028059386854 -0.00716906603269775941 -0.228998129224876751)
(0.591751579270961781 -0.00385642083378431259 -0.303900873107543268)
(0.560774414684015676 -0.00322936147516173378 -0.407455006385526119)
(0.486218705589148925 -0.00378136726436342514 -0.556517907324041383)
(0.36629426473876453 0.0170096327653759191 -0.675255816824519295)
(0.0260824345364511143 -0.0334250074644848044 -0.0225229655342682293)
(0.083927595199081842 -0.0458081580485437262 -0.0245654108491741852)
(0.147271512139264038 -0.0454023209771598629 -0.0271601873951247512)
(0.208513279340270558 -0.0437456765896475919 -0.0313956464656157119)
(0.267306418107071009 -0.0416536552321381259 -0.0376426406659713247)
(0.325103304920717651 -0.0403866287344471914 -0.0464185522610578438)
(0.381718461764157579 -0.0396341757677786954 -0.0585010686763229593)
(0.436268990140973145 -0.0387297033858518686 -0.0749901607866754194)
(0.487251384902748996 -0.0366882045461793677 -0.0973222029851585763)
(0.532479806314730908 -0.0334952404819415933 -0.127695323194716798)
(0.56878051598582946 -0.0285390918696587226 -0.168562702818065735)
(0.592021220141683457 -0.0228471972032166411 -0.224407506719679989)
(0.592636010751713238 -0.0148100948474655381 -0.299091854232255483)
(0.568276861189489058 -0.0107805031902613851 -0.404758372263318178)
(0.472164420655210637 -0.0114596862649900908 -0.525023166279624864)
(0.380704013179238632 0.0475985252781697329 -0.745722622195734153)
(0.0275800781529188486 -0.0585932797738901237 -0.0223333488338538812)
(0.0859510522232358604 -0.0742119866900650682 -0.0245062131402661275)
(0.147588820567207457 -0.0730979006551974869 -0.0271116996744614064)
(0.208361599374874029 -0.0705024485390287892 -0.0312914287105979863)
(0.267393106015399729 -0.0684352919977844615 -0.0374459169190846791)
(0.325545178657476342 -0.0672265567124823993 -0.0460798608083129377)
(0.382592381338503151 -0.0662232583949466519 -0.0579639687451904209)
(0.437798097447915147 -0.06471386041666366 -0.0741891090393704267)
(0.489516322030722928 -0.0615770704961967896 -0.0962158655064782181)
(0.535590459297741295 -0.0565408820816114058 -0.12617834935875491)
(0.572654469661865062 -0.0491978096223634129 -0.166588736525190628)
(0.596683872887100786 -0.0395810168161856643 -0.221952536738584699)
(0.596294923219752748 -0.0271478190527320307 -0.295972563046597137)
(0.57201422230325516 -0.0172123991041639515 -0.400988839132993879)
(0.468903007908756664 -0.0186133170251118335 -0.522798073899249371)
(0.358844851942652199 0.0819757967576194707 -0.730608967556889422)
(0.0285800086323858352 -0.0843500021888276552 -0.0221069504948491896)
(0.0873112724824406938 -0.101730872113602711 -0.02431656829331897)
(0.147793569796356217 -0.100743272722966626 -0.0269204043015097948)
(0.207888922578298163 -0.0977246626100660293 -0.0310338673219291913)
(0.266931338654011585 -0.0955709585889197577 -0.0370537643996492402)
(0.325376839269281293 -0.0942866876994889608 -0.045483140994897385)
(0.382882781252040283 -0.0930368162455356418 -0.0570852389565181667)
(0.438834132496991824 -0.0910221040243177071 -0.0729489359164053608)
(0.491480914863157647 -0.0868087635104573263 -0.0945379837544235435)
(0.538715754281446801 -0.0799841015114708953 -0.123934376071810737)
(0.57711020095087262 -0.0699685498463693129 -0.163684745837055001)
(0.602329662101363628 -0.0559278398341285024 -0.218277794219841503)
(0.601894689812192407 -0.0382026813203148741 -0.291427905435430457)
(0.576752722647341454 -0.0214187293062589393 -0.394764124567932084)
(0.470636081512041726 -0.0167240346025220692 -0.517448685978695089)
(0.345615122053981927 0.1133848550910036 -0.719631793611879567)
(0.0292034691224300584 -0.11074726893914448 -0.0218297431384866063)
(0.0882001858517289655 -0.129048271386327323 -0.0240332933740505725)
(0.147947618692929439 -0.12806238667660988 -0.0266394777163022935)
(0.207543663833778841 -0.12475220428578572 -0.0306783608450062716)
(0.266599737149773752 -0.122588593526455486 -0.0365136177059329214)
(0.32536497920407903 -0.121394937236473335 -0.0446584267268788845)
(0.383440104804732118 -0.120086965919293354 -0.0558823376478204265)
(0.440316616337163291 -0.117693313901619551 -0.0712850916638633758)
(0.494169662276229604 -0.112463996095929025 -0.0923017603555499055)
(0.543017239524763329 -0.103969579911538934 -0.120966037866613682)
(0.583328833981583972 -0.0911701035976488217 -0.159846658231206112)
(0.610230522332486536 -0.0725050523420799065 -0.213389222044739368)
(0.610616478199232926 -0.0486966321959463391 -0.285270950361336206)
(0.584019229813215857 -0.0241250308043699235 -0.386826326339336835)
(0.477081523277914088 -0.0107906568821364915 -0.508450805001601225)
(0.342568151580473323 0.149182100226354974 -0.706053465881719022)
(0.0295848595889410503 -0.137580694638325979 -0.0214892384243436339)
(0.0887256632741573042 -0.156077422856052889 -0.0236751904217574263)
(0.147978693833668129 -0.155063589153504378 -0.0263120166695594189)
(0.207190004734681854 -0.151678384018680668 -0.0302643663153114965)
(0.266261998131333666 -0.149648046210628188 -0.0358447166132333447)
(0.32537627500428612 -0.148686270314589031 -0.0436092166556352537)
(0.384136137686743762 -0.147475843832855891 -0.0543646852690694224)
(0.44211116967606956 -0.144839272125804636 -0.0692164137248261896)
(0.497473574253249062 -0.138728279912564284 -0.0895359485600140809)
(0.548440611524024013 -0.128742503837852518 -0.117318210090187003)
(0.591277976263664962 -0.113100810547049402 -0.155141547074260894)
(0.620596322493608854 -0.089506720524271291 -0.207350558814842212)
(0.62265849814430041 -0.0585345762365026556 -0.277656236890151897)
(0.595107531810734725 -0.0248483293465371902 -0.376910517181230142)
(0.487349959565253066 -4.90345001077969632e-05 -0.497683165801896199)
(0.340100463012018683 0.191374060805658719 -0.692166015305918036)
(0.0297380182597740753 -0.164675819592689399 -0.0210769321113555216)
(0.0888775049804461093 -0.182935872443373226 -0.0232844215867635193)
(0.147795068777217736 -0.18181611751771215 -0.0260176903157573053)
(0.206746197916020946 -0.178471558951624781 -0.029854535070023145)
(0.26588003464172244 -0.176717039301737572 -0.0350771798832629489)
(0.325390223546531077 -0.17616700959938697 -0.0423579864112629198)
(0.384949718183372924 -0.175253498504606614 -0.0525703151170721569)
(0.444204885584529641 -0.172564221693147724 -0.0667899572850468581)
(0.501429739755096304 -0.165783867542294627 -0.0863059838183698885)
(0.555061855467428034 -0.154537301519438341 -0.113098773757535645)
(0.601069389132083298 -0.136069331110022201 -0.149733647424935695)
(0.633673548972814138 -0.107303049580067117 -0.200378992698607594)
(0.638839615399484195 -0.0683089782175137494 -0.26866760339138096)
(0.612724142392386484 -0.0233213899819905181 -0.364702066987343754)
(0.501476405413759374 0.0161512673339528554 -0.484342999593387113)
(0.33798760081476914 0.236359791220772081 -0.681625421163436829)
(0.0296215823328716786 -0.191851368883158485 -0.0205889383638395394)
(0.0886153983746882368 -0.209570916187856532 -0.0229342031694040882)
(0.147346751506525958 -0.208300895883561515 -0.0258620005688910519)
(0.206216055455278657 -0.205106632122813159 -0.0295125179888163225)
(0.265490478415168762 -0.203804431729477015 -0.0342465883575884533)
(0.325422961542050637 -0.20388355091804311 -0.0409515378332699354)
(0.38587081948570795 -0.20349611669264836 -0.0505653126006650883)
(0.446588826872391653 -0.201001424886023877 -0.0640877106917963346)
(0.506061048006320791 -0.19383377178561681 -0.0827545804427624876)
(0.562835574418031004 -0.181606816059335568 -0.108558665295264672)
(0.612540789412863718 -0.160431737282104026 -0.143981539623151106)
(0.649561892310037026 -0.126664625301750322 -0.19284779484831005)
(0.661093822596904634 -0.0790215094332367141 -0.258256912958401141)
(0.637389336658878314 -0.0187906411705469206 -0.350934874391566565)
(0.521182395208201088 0.0385373085416330433 -0.468481036221602809)
(0.336280205034277135 0.291273692956757091 -0.668963130742885825)
(0.0292391329128202822 -0.218920266025777938 -0.0200297667118719408)
(0.0879687377587599351 -0.235887638305126185 -0.0227165898293706023)
(0.14674934089511385 -0.234496943581500777 -0.0259309595949825528)
(0.205777642710822384 -0.231550429830254673 -0.029266649626550522)
(0.265205136237233352 -0.230870764065465084 -0.0333849262140104158)
(0.325482052053724547 -0.231817068871433274 -0.0394470115406675217)
(0.38685180397459773 -0.232232413735534021 -0.0484289574843455167)
(0.449190431248446598 -0.230255835411178 -0.0612467990784009569)
(0.511237161879000368 -0.223025154117676844 -0.0791447745411460318)
(0.571340019327979509 -0.210069690843574769 -0.104095148986974917)
(0.62503327300435696 -0.186529521522977249 -0.138299756534285917)
(0.668843475051800085 -0.148765547632763812 -0.184873487591582925)
(0.691117107023720645 -0.091683055223396287 -0.246455602743932745)
(0.671469515981910625 -0.0108947760805987587 -0.336431678436450443)
(0.551639870400483012 0.0694048800253104781 -0.449870732866924361)
(0.337422752190838671 0.355333024053470614 -0.653502637798811126)
(0.028679654668407939 -0.245780180864311998 -0.0194113894807181782)
(0.0871833827503096376 -0.261864110487328772 -0.0227083842643678348)
(0.146354584647635233 -0.260454442096195837 -0.0262278097047705001)
(0.205733215041851075 -0.257763493868414795 -0.0290774925866915876)
(0.265087632797584238 -0.257830583934587965 -0.0325006281864805777)
(0.325474982998685602 -0.259941234366921958 -0.0378801033242662649)
(0.387720560727479735 -0.261525017910275326 -0.0462559679702901835)
(0.451736044331537245 -0.260455606857566302 -0.0584825691592036831)
(0.516460401555324244 -0.253401681521430111 -0.075802906107560783)
(0.579536466872677014 -0.239830709547089627 -0.100019059650970701)
(0.637679456770174236 -0.21498026823423691 -0.132676983279330502)
(0.692651204293618816 -0.175417828976594359 -0.175849069584239875)
(0.731057862675913772 -0.107762258451252813 -0.232666323458637359)
(0.718780477796516104 -0.000500215916264222515 -0.320696818761328273)
(0.593498093221230927 0.110382357706275969 -0.431449076313327351)
(0.343371771058147535 0.431347002708157012 -0.636410718744083614)
(0.028114371124952537 -0.272434745971372461 -0.0187263612125841868)
(0.0867131390741222308 -0.287527148381506004 -0.0229316094107588145)
(0.146642988929450879 -0.286263072814302411 -0.0266307907432194249)
(0.206311447058282749 -0.283631547659103478 -0.0288333354371421643)
(0.264995381041485401 -0.284562819134923761 -0.0315580940048431902)
(0.325135636101836156 -0.288324095890736154 -0.0362546363820189371)
(0.388070119269093627 -0.291577466540727082 -0.0441776703137267898)
(0.453626395804004934 -0.291785702338985431 -0.056014263326774491)
(0.520738180324856859 -0.284813586071500313 -0.0728625032490752139)
(0.585877660444402371 -0.270797712117518241 -0.0961450924717509314)
(0.650094507599556448 -0.247513959860883925 -0.126209433798256165)
(0.722959490868792298 -0.209754340714683435 -0.164112402323668222)
(0.78328284370239365 -0.128481144625733956 -0.215172544680938993)