/*--------------------------------*- C++ -*----------------------------------*\
| =========                 |                                                 |
| \\      /  F ield         | OpenFOAM: The Open Source CFD Toolbox           |
|  \\    /   O peration     | Version:  2206                                  |
|   \\  /    A nd           | Website:  www.openfoam.com                      |
|    \\/     M anipulation  |                                                 |
\*---------------------------------------------------------------------------*/
FoamFile
{
    version     2.0;
    format      ascii;
    arch        "LSB;label=32;scalar=64";
    class       volVectorField;
    location    "0.780000000000000471";
    object      faceForces;
}
// * * * * * * * * * * * * * * * * * * * * * * * * * * * * * * * * * * * * * //

dimensions      [1 1 -2 0 0 0 0];

internalField   uniform (0 0 0);

boundaryField
{
    inlet
    {
        type            calculated;
        value           nonuniform List<vector> 0();
    }
    outlet
    {
        type            calculated;
        value           nonuniform List<vector> 0();
    }
    top
    {
        type            calculated;
        value           uniform (0 0 0);
    }
    bottom
    {
        type            calculated;
        value           nonuniform List<vector> 0();
    }
    left
    {
        type            calculated;
        value           uniform (0 0 0);
    }
    symmetry
    {
        type            symmetryPlane;
    }
    interface
    {
        type            calculated;
        value           nonuniform List<vector> 
67
(
(-1.43051296598582874e-07 -2.23705593887091565e-06 -0.0163925872890842393)
(9.12197497778855108e-07 -4.0714150007778819e-06 -0.0232163036290743453)
(5.59909277944973686e-07 -5.14857406548125657e-06 -0.029370950258299805)
(1.2635810844212738e-06 5.10962356779725513e-08 0.0017319398584744771)
(1.73726767525345833e-06 -2.18169939858194249e-06 -0.0082091635041039758)
(1.86234731637925249e-06 -5.46604836094171084e-06 -0.024718590186788042)
(1.47289130385441316e-06 -6.79589111382077479e-06 -0.0334338828447980838)
(1.20930429560571074e-06 -3.87295330822995891e-06 0.00231109759277404753)
(1.55128737070022817e-06 -5.62740256384064694e-06 -0.0116304732033355052)
(1.81836040411638632e-06 -7.24184719248234708e-06 -0.0302577774492226309)
(2.09433752363130156e-06 -6.86428080526594316e-06 -0.0363871831189863798)
(-0.0236706756126889191 3.52003953148070539e-07 -3.96189078513183375e-07)
(-0.015318826301121061 -2.83549589034570625e-06 -2.61068679109243913e-06)
(-0.000806795258709191239 -4.85883391401573275e-06 -3.16028061999174529e-06)
(-0.0243827139185367227 4.89237690536078725e-07 -5.43340012939011339e-07)
(-0.0155550275735222877 -3.37657526324902022e-06 -1.89159005442196169e-06)
(-0.00134119941853797203 -5.35899923892881382e-06 -2.2146986405439691e-06)
(-0.0256758770640935045 2.26033479413621925e-07 -1.26324770369685439e-07)
(-0.0192043677840095343 -2.13783402194735823e-06 -2.16127271528399933e-06)
(-0.00532727790382698206 -4.89484767693098563e-06 -2.2572516587910654e-06)
(-0.0259802014601206652 4.42786492886281373e-07 -1.39538579336275201e-07)
(-0.0184747633479923415 -2.1260473384655086e-06 -8.73087084266405416e-07)
(-0.00469953165925976728 -5.03749406576221235e-06 -1.40340051983076998e-06)
(-0.0263060612701124172 6.19251401196612377e-07 -1.62188929212459849e-07)
(-0.018271793215149712 -2.10638589402844775e-06 -9.80291188245398117e-07)
(-0.00443249197255905433 -5.18079247762993093e-06 -1.28544026548885878e-06)
(-0.0255951027006193696 6.58227377844238903e-07 9.33903702444037038e-08)
(-0.0167044826425941928 -2.76443871518426492e-06 -9.20992002972453619e-08)
(-0.00201072886000038279 -5.56243191238474611e-06 -7.41775590297850036e-07)
(-0.0235120205168235855 -4.04858318277243545e-07 4.71270256293335702e-07)
(-0.00991058933103858286 -4.76424057913237344e-06 1.26315904650359044e-07)
(0.00606214817666982618 -6.64702296845919556e-06 -3.62739546374111978e-07)
(-0.0216132343448997774 -2.74137741706695483e-06 2.15864941300379302e-07)
(-0.00258660458937893861 -5.94690345731533503e-06 1.12849638748695934e-07)
(0.0139658900908214562 -7.45343957935886941e-06 -6.11221808055088783e-08)
(-1.65738926945237567e-06 -0.054297038711681643 -4.07547535606321169e-06)
(-1.84425926633015069e-06 -0.0628156434705276351 -3.26062304042735385e-06)
(-2.11375355594742516e-06 -0.0657139459888557986 -2.99428260014536764e-06)
(-2.22746798253554459e-06 -0.0677975075684537076 -2.39324743729596288e-06)
(-2.33706522711302151e-06 -0.0691837518040841898 -1.93269791507193416e-06)
(-2.42716735985231091e-06 -0.0697827945807237698 -1.39871269967590969e-06)
(-2.56060871686744004e-06 -0.0702185730565185601 -9.59851074834355286e-07)
(-2.57967487573507263e-06 -0.0700120104583324965 -3.32103273210429272e-07)
(-4.98608067255707089e-07 -0.062362053691429005 -4.11825657614341798e-06)
(-1.60665245226967528e-06 -0.0676757641592234255 -4.1272096146967477e-06)
(-1.7418340113338246e-06 -0.0714964977340853403 -3.51615763001935866e-06)
(-1.85569854462445777e-06 -0.0750484281425659872 -2.64972628158569338e-06)
(-1.99528153201760569e-06 -0.0779388526528880798 -2.06712937437482279e-06)
(-2.18566684895984218e-06 -0.0793993249065756829 -1.5987225948442092e-06)
(-2.42579352438450716e-06 -0.0799531076250127593 -1.33850769190624735e-06)
(-2.60421905223762033e-06 -0.0798323707222381995 -5.43622300825693618e-07)
(8.78823920207962268e-07 -0.0584367046750260619 -3.4534127604290844e-06)
(1.25956445193574873e-06 -0.0661666293361443947 -4.20448549952471251e-06)
(9.96899626990386768e-07 -0.0726990354688807211 -3.41246968966476924e-06)
(1.10115582999405828e-06 -0.0771328938542013426 -2.57472798603617485e-06)
(1.12410390966564979e-06 -0.0808057679698614556 -2.14655823629065176e-06)
(1.04991205357914321e-06 -0.0824014227264054794 -1.84356434206752383e-06)
(8.54247962527836133e-07 -0.0829575948512903116 -1.54366007958289363e-06)
(9.79945529932445014e-07 -0.0838024726995091479 -5.67789635747515341e-07)
(1.41078807979483937e-06 -0.0517874845513087781 -2.98899858340816118e-06)
(2.1694558146762772e-06 -0.0605077808640193324 -4.02415957549340341e-06)
(2.45351556008553085e-06 -0.0660028190942562737 -2.96249439473013372e-06)
(2.6309040279572569e-06 -0.0694914153834375464 -2.29542772682704219e-06)
(2.70538167198745669e-06 -0.0726318864535774739 -2.04223880627322706e-06)
(2.83660003170444118e-06 -0.073405065131025668 -1.95232951236455731e-06)
(3.15416455341170997e-06 -0.0733274632533309073 -1.68756827416806029e-06)
(2.41455177105987104e-06 -0.0724603437730826361 -6.23065696004644796e-07)
)
;
    }
    procBoundary1to0
    {
        type            processor;
        value           uniform (0 0 0);
    }
    procBoundary1to2
    {
        type            processor;
        value           uniform (0 0 0);
    }
    procBoundary1to3
    {
        type            processor;
        value           uniform (0 0 0);
    }
}


// ************************************************************************* //
