/*--------------------------------*- C++ -*----------------------------------*\
| =========                 |                                                 |
| \\      /  F ield         | OpenFOAM: The Open Source CFD Toolbox           |
|  \\    /   O peration     | Version:  2206                                  |
|   \\  /    A nd           | Website:  www.openfoam.com                      |
|    \\/     M anipulation  |                                                 |
\*---------------------------------------------------------------------------*/
FoamFile
{
    version     2.0;
    format      ascii;
    arch        "LSB;label=32;scalar=64";
    class       volScalarField;
    location    "0.780000000000000471";
    object      rAU;
}
// * * * * * * * * * * * * * * * * * * * * * * * * * * * * * * * * * * * * * //

dimensions      [-1 3 1 0 0 0 0];

internalField   nonuniform List<scalar> 
7248
(
0.0018128486181847041
0.000206614310707683009
0.0102045635584267769
0.00836532334716387493
0.01923258123354828
0.0177154151405959186
0.0134228949467437002
0.011720509371557419
0.0115872194551940328
0.0162482708543056492
0.0154385723455959991
0.0144527918558410226
0.0117833257797611522
0.0113395452412628772
0.017598027422781156
0.0167374822772639667
0.0157014310787045482
0.0147669654314515324
0.0142870600841349341
0.0182179608393797932
0.0174777385902004888
0.0166661554461504935
0.0158884432762817253
0.0152271957432545818
0.0182145232661172253
0.0175233949171381062
0.0168111648194182242
0.016115680673261152
0.0154481023707923604
0.0183677583894140579
0.0177138929609267706
0.0170384512375508293
0.0163640857454057133
0.0157058744063748382
0.0185364985383378519
0.0179489948137059388
0.0173325000234472656
0.0167006306508725062
0.0160549624648280501
0.0188488816260963879
0.018301256746513124
0.0177290902528495185
0.0171340661601345375
0.0165088697428107216
0.0192586998705288615
0.0187586484177563288
0.0182384019458101988
0.0176937467123333796
0.0171150464931260696
0.0197371984364806512
0.019290388868262634
0.0188310907258766799
0.0183558656704940655
0.0178575870865486409
0.0210333811203684204
0.0206490476005628115
0.020260597849869371
0.0198697149859407389
0.0194779381783726363
0.0190857795189993858
0.0186918743844652173
0.0214974391741734501
0.0211522955614163524
0.0208075028055398729
0.0204675452553212921
0.0201372997361197632
0.0198222431631761078
0.019528411534888674
0.0219865462562236977
0.0216750325977789343
0.0213652609019331086
0.0210634506812028346
0.0207767191349743745
0.0205140024333051139
0.0202863945434959628
0.0161700355232442909
0.0157960848239727565
0.0154283299873800104
0.0150748572829945051
0.0147445120706367234
0.0144474756751659435
0.0141960866672042954
0.00140272982368164797
0.000178221763267478572
0.0124032827250097517
0.0106350731744144656
0.0158732172656240421
0.0154073801077813377
0.0158005245560051064
0.0145405968743334574
0.0133534561208746103
0.0164937171879485193
0.0155698867820473503
0.0148256181398635327
0.0134788939687583049
0.0128198027979428558
0.0175425434053903123
0.0166580875987526363
0.015768156379817367
0.0149804129362177598
0.0143825840771611684
0.018719526773821521
0.0176130882319147121
0.0166024365990168274
0.0157620551305046458
0.01510340700996134
0.0185884707850745984
0.0177404693848368239
0.0168178433196448963
0.0160341958099809376
0.0153711455312206743
0.0185783703126305953
0.0177706256138853158
0.0170130775844952176
0.016320644810470443
0.0156750642411400166
0.0185375526297982332
0.017916728661214
0.0172877523901107735
0.0166572362622017973
0.0160202654329702314
0.0188377899789002427
0.0182737222421084956
0.0176880437525526422
0.0170848010192543344
0.0164575921099461495
0.0192278433197696601
0.0187118098390375714
0.0181760569483040146
0.017617558478084671
0.0170264835265415138
0.0196904636695951762
0.0192280214801008424
0.0187504595514193552
0.0182543178301272577
0.0177320242484305668
0.0202057337394531897
0.0197982465849081204
0.0193857710969612476
0.0189679567387783937
0.0185425988525358444
0.0207491459943413524
0.0203930715427609148
0.0200423008494775359
0.0197013700160600241
0.0193754509843145906
0.0213083345624287025
0.0209923186053536277
0.0206871053927206103
0.0204008886704015839
0.0201441530608601413
0.0153643305117385741
0.0149993962201527206
0.0146531662273840478
0.0143349570986532962
0.0140560728659031332
0.00124751832703043439
0.000161324892860804106
0.013266854185142913
0.0119150418433587781
0.0152256520707841278
0.0142766873934593308
0.0154020471665066126
0.0146537160913990695
0.0133670079935226324
0.0165328853314372845
0.0156474005518738683
0.0148977998525203093
0.0143307195477659268
0.0140730738925945367
0.0172805962950094531
0.0163669508994334911
0.015553395026938116
0.0148817525226763014
0.0143244700374202758
0.0188453448893339676
0.0176290110677479496
0.0165448111412128188
0.0156616094748368538
0.0149865670028121595
0.0185168428116557031
0.017746272953072309
0.0168265733017175685
0.016002960515867852
0.0153246287288124391
0.0184654261535772656
0.017687008439293158
0.0169452886102330266
0.0162668842149445471
0.0156381073610972511
0.0185085525437730242
0.0178806739381945218
0.0172516342480540374
0.0166265012410821665
0.0160001760756946672
0.0188250126798844598
0.0182505984909696883
0.0176589984202508432
0.0170539476704613911
0.0164300586805843675
0.0192036568256997824
0.0186778265262298425
0.0181332160142622274
0.0175678967208657416
0.0169724562330175778
0.0196575136872720498
0.0191841201663624054
0.0186944619023698411
0.0181853908320345758
0.0176491434667086083
0.0201653824371116792
0.0197456651610223889
0.0193185642861931177
0.0188834209915382835
0.0184377351686063756
0.0207038308606284742
0.0203357187949482418
0.0199698722502334239
0.0196105520737569795
0.0192628768005438274
0.0212615603257882597
0.0209343793392337482
0.0206148844026133628
0.0203110976059919998
0.0200337040645893298
0.0153063445278427933
0.0149315941701248529
0.014571887463513903
0.0142360176359450363
0.0139347331236739647
0.00116086470830919098
0.000151431383377204651
0.0137543494098302885
0.0126157833096300579
0.0163503901966841163
0.0149506425238177566
0.0148862252033644619
0.0141732008699393848
0.0129136646414814739
0.0157228557335104165
0.0153840758392638222
0.0148887512063440985
0.0143345242499623767
0.0140983327716277043
0.0170267044887676723
0.0162444995571677311
0.0155634857409011809
0.0149548538420664831
0.0143895473147598804
0.0187949059172625582
0.0176234243313271137
0.016569360709439835
0.015675480219111821
0.0149617102709241872
0.0183926611836209841
0.0175565752186877012
0.0166986363139226685
0.0159275614760856776
0.0152695121241718974
0.0183190863489266602
0.0175613964190398306
0.0168554889989771597
0.0162115588650735346
0.01560867176609574
0.0184918526031944905
0.0178612964350668979
0.0172365212530986266
0.0166171143000113618
0.0159985173425371621
0.0188120828036996181
0.0182332361440373514
0.0176411302098841288
0.0170393908794625112
0.0164227032100595499
0.0191879411315294679
0.0186588727778467661
0.0181116797111686434
0.0175453671966284315
0.0169510437689813567
0.0196395902821574868
0.0191594891022920932
0.0186629458644821285
0.0181475157621807173
0.0176052820232318261
0.0201404043623445682
0.0197127124805561889
0.0192764978404367203
0.0188312517637925642
0.0183744069503429946
0.0206728693362519152
0.0202963986587160194
0.0199204876576599202
0.0195494382359272627
0.0191888327247696049
0.0212263154987157934
0.0208908686040872489
0.0205611081964577301
0.0202451808578167601
0.0199545072024953571
0.0152560394826838034
0.01487331712178111
0.014502729780063733
0.0141528419054915752
0.0138343423581308075
0.00098952783280789494
0.000142456248266423945
0.0140207244836944838
0.0130763199527924884
0.0177411349716532322
0.0168376526676267367
0.0158957196967772496
0.0143382382679697554
0.012783553902077107
0.0155644339193866735
0.0154675394370658199
0.0150574475316175588
0.014456556462017418
0.0138900115384280372
0.0170165749103324167
0.0163616440430317603
0.0157799942279216419
0.0151942552504264992
0.0145250552336109763
0.0180705825579554266
0.0172319575920804359
0.0163844178003427626
0.0155855916666621155
0.0148869731071322384
0.0179922628087176781
0.0172318928317821835
0.0164875633485478991
0.0158135040067727481
0.0152121941445328875
0.0181237856073644676
0.0174502094293169617
0.0168069963863420532
0.0162000750516731358
0.015615105301726712
0.01846215210821028
0.0178445082254418755
0.0172300498167736287
0.0166193795386689498
0.0160101358077700991
0.0187939540215902832
0.0182217890241201073
0.0176377039735311769
0.017045408448215383
0.0164391684590876885
0.0191877675981069265
0.0186589352495723157
0.0181128229902231576
0.0175491546116116337
0.0169597454681063853
0.0196378076637672115
0.0191546425181085347
0.01865564036619137
0.0181390846823416309
0.0175972744901791989
0.0201320001929527516
0.0197000309621394448
0.019259369633095165
0.0188099166676498168
0.0183490890698537849
0.0206572459552153351
0.0202756671992819597
0.0198940283793968241
0.0195168463449809093
0.0191501430132361879
0.0212034822428891663
0.0208625154599764474
0.0205261376979024648
0.0202027105256187556
0.0199044581111356214
0.015214888340969332
0.0148260695802409359
0.0144471734643151078
0.0140867086161973569
0.0137555103239541347
0.000934364249189704598
0.000139952640398929352
0.0131720461028483806
0.013231693632323533
0.0157469250555293191
0.0154706031811175423
0.0150878042050181047
0.0141990760544943168
0.0130232113275343588
0.0158651407847145223
0.0154523857983223344
0.0148183948109040075
0.0140610420921210028
0.0137119905387103926
0.0164606775659002849
0.0158693791380900874
0.0153383749674753135
0.0148261613752056973
0.0142116504796889528
0.0171975335437498482
0.0165037581395418922
0.0158855170516947995
0.0152861064942869315
0.0147337484613445872
0.0175596127432749681
0.0169102173907469816
0.0163023325558656895
0.0157309189925210029
0.0151871304152878684
0.0180368905505512503
0.0174174477634064274
0.0168085012145583641
0.016218877412899655
0.0156401525504573126
0.0184433612038360298
0.0178399754984678131
0.0172362900843866552
0.016638200254195757
0.0160395957290589038
0.0188000188764011165
0.0182357361199219428
0.0176600862555623683
0.0170773695669414853
0.0164795049844224523
0.0192077251868590371
0.0186805686586114968
0.0181375160503488599
0.0175790282020299171
0.0169969626964223373
0.0196544011384156073
0.0191709629788427462
0.0186731362023591779
0.0181597450801755447
0.0176237006853616554
0.0201412462683437342
0.01970799644017222
0.0192668688465489103
0.0188182987235854075
0.0183600056024348438
0.0206574388405189012
0.0202736409643400235
0.0198900666202131739
0.0195115231069333296
0.0191445153348363435
0.021193654333794644
0.0208497047621890065
0.0205099601738253957
0.0201829355066742468
0.0198814198724118173
0.0151841253107016343
0.014791023092940947
0.014406268612965548
0.0140383470830902184
0.0136982089786941725
0.000981879062033256525
0.000141581025191860613
0.012427955895492216
0.0128780236107987507
0.0125306055209689175
0.0130035574619358045
0.013302962445686321
0.0132461895644040879
0.0126778733929237622
0.0128026112629735546
0.013872686733624533
0.0141979073713100808
0.0139552903686949014
0.0135907250385544371
0.0147173256131977008
0.0151434335996638025
0.0149291859971379653
0.0145971687238984349
0.0141683131578246822
0.0164856474343599117
0.0161217270922743364
0.0156861049177576053
0.0152034371933414195
0.0147300290741472911
0.0174090786360150823
0.0168758626242369869
0.0163222508612706554
0.0157811142675395137
0.0152522575358220516
0.0180575927033531924
0.0174550796388916254
0.0168560751031769894
0.0162714796841693064
0.0156962192999999042
0.0184655124875042487
0.0178735199926914855
0.0172803040286895714
0.0166921782497780474
0.0161025189071536852
0.0188452290637626252
0.0182844644400871753
0.0177133202149145665
0.0171371373602915121
0.0165476341128191103
0.0192523316055478767
0.0187259122129512408
0.0181865656457281567
0.0176350011103324107
0.0170632167341595413
0.0196914204572773352
0.0192092595912028673
0.0187150202196464041
0.0182079544544939062
0.0176815200652666212
0.0201686616750814708
0.0197363919775713145
0.0192979784091876008
0.0188541769773227438
0.0184028558918532294
0.0206734866787754677
0.0202900817461111951
0.0199078804806204351
0.0195317765952569174
0.0191679935976330519
0.0211971058081145552
0.0208525395284941753
0.0205123882970139407
0.0201850968397652257
0.0198829234619879759
0.0151647432713809104
0.0147690724408377876
0.0143807552796154127
0.0140081842740436766
0.0136620753696853753
0.0010238718260988074
0.000146104409416453657
0.0119444938713482232
0.0125005264840022962
0.0117874837155718757
0.0108721458051781947
0.011137404022517592
0.0119455587716840572
0.0120227805277749161
0.0112765897793485181
0.0110067454075356928
0.0116275638875415789
0.0129122183700299282
0.0135957526809840981
0.0118428121627535306
0.0124937828214024289
0.0139740405649617597
0.0145653560689956874
0.0144315091565048233
0.0140945132545315498
0.0155604862172079583
0.0157947449643179062
0.0155041888102168471
0.0150033137447574023
0.0172934512227406224
0.0171323590271045198
0.0166053872530502154
0.0159930774467374782
0.0153956521188607105
0.0182897116777515426
0.017638313710360419
0.0169791700912228644
0.0163600554639926274
0.0157774638103686561
0.0185722614739884696
0.0179497954525043753
0.0173517819795289269
0.0167681564182358481
0.0161852815428705846
0.0189110190765869463
0.0183515986493191785
0.0177835329607155083
0.0172114780390022551
0.0166286881330770554
0.0193097773185235931
0.018782979619169967
0.0182467105810897867
0.0177026312515529485
0.0171423400860555401
0.0197334944707687233
0.0192538615975148507
0.0187659497264023069
0.0182687723473055445
0.0177559116603624584
0.0201973445794572416
0.0197690411385726753
0.0193371227967033196
0.0189027655585002653
0.0184641450828122375
0.0206881085770318357
0.0203082019077064947
0.0199313471746947884
0.0195625910366336413
0.0192076892787634811
0.0211960039851382571
0.0208537270416954308
0.0205167684884488589
0.0201935088850009603
0.0198955755568750066
0.0151484090884653876
0.0147522682567824831
0.0143630590582509519
0.0139890688072292352
0.0136407558618118208
0.00100832331128078477
0.00080749211851694955
0.0112018271315212064
0.0112458754158362758
0.0198759756663714759
0.0185520624439405937
0.0160349956131012952
0.0142804980566843005
0.0136011590305950801
0.0199958753764271566
0.0199933143034663162
0.0196621888489388191
0.0192125952114307226
0.0173420089472380162
0.0167932917028127925
0.0168267523519124128
0.0169804434948561261
0.0177108328597327461
0.0184685917642661256
0.0183318549623703586
0.0180334881663247702
0.0176791212369797335
0.0176347256447059696
0.0174336694109451448
0.0184207360696150048
0.0179597962504559755
0.0175704465694702869
0.0173503874658257271
0.0169372053600348287
0.0185716899615344308
0.0181294911021633899
0.0177229525259646747
0.0173449445193618254
0.0168227774722392205
0.0189388138137019484
0.0184727569331421052
0.0180104015060586695
0.0175437687038881331
0.0170106841875783052
0.0193668954259808498
0.0189563431692971046
0.0185622368960022162
0.0181927285707200771
0.0178316870310993893
0.0198803965437424832
0.0195626652132196467
0.019304696739021826
0.0191243676354928664
0.0189960020476325035
0.020453263122056458
0.0202316776658299571
0.0200885651800280333
0.0200281141819355184
0.0200472581939738388
0.0215658725190680974
0.0212874921113377358
0.0210572175551426745
0.0208843137345051909
0.0207791546113037483
0.0207604131850614819
0.0208641118492620195
0.0220364771918094837
0.0217752844661532052
0.0215534652890294921
0.0213846158868477611
0.0212882675402480542
0.0212926446290184757
0.0213086188844074619
0.0224113516406462474
0.0221646513172263949
0.0219514877582517309
0.0217854381502523495
0.0216843411306217142
0.021672431990738459
0.0216401567098534857
0.016567878057781444
0.0162250109725120481
0.0159101528403825555
0.0156359720145157477
0.0154177625412253855
0.0152752240226174726
0.015207385186321731
0.0035260208479115109
0.00148150013289372984
0.0135842236977924656
0.0125151766819369802
0.0178157130667192867
0.0192112663771318408
0.0202765202541642792
0.0190142698965514514
0.0172216338637837807
0.015460653229850678
0.015263372086809052
0.0153694461762922743
0.0158646453627096611
0.0167531738741311109
0.0156651046972955607
0.0151671982024432165
0.0148445501028383053
0.0146615612497212836
0.014636952639915414
0.0170820703259085618
0.0165861890733249723
0.0161053781338955163
0.0155924406020057967
0.0149416289808339316
0.0177066235739773599
0.0171959965309287852
0.0166790482653577897
0.0160561787017325409
0.0152835320341369995
0.0181803979100541406
0.017695398917601031
0.0171711866744454038
0.0165683793677707109
0.0158712702896717239
0.0186471996202529529
0.0181741423169284357
0.0176774970350589596
0.0171425914970282402
0.0165603237264992445
0.0191489729697749619
0.0187207458904616597
0.0182854504157398783
0.0178414775810748008
0.0174108002768312425
0.0196890732557747951
0.0193276935112317028
0.0189859760303227459
0.0186891390486724797
0.0184854516083889121
0.0202547862243617066
0.0199731117680641904
0.0197486300935623832
0.0196146264410825798
0.0196164278564834663
0.0213861886915171356
0.0210850789560563766
0.0208226804917477741
0.0206128574592630738
0.0204764254633816763
0.0204428544891768101
0.0205595840101318247
0.0218486601048329468
0.0215849236801794221
0.0213595071534558173
0.0211867341917608698
0.0210869153428211824
0.0210901344523705576
0.0211291929142863079
0.0223011931431552762
0.0220549243596721775
0.0218405009553875387
0.0216721179024617905
0.0215688743611278516
0.0215570988836794424
0.0215322950720981295
0.0164926558206248547
0.0161535890778212593
0.0158421532495517103
0.0155713809157593929
0.0153572146635041797
0.0152203183141439852
0.0151603118679519023
0.00577351199075607294
0.00330839800246368132
0.0146413518830249053
0.0130098252851724803
0.0133805311854178401
0.0134183553428160029
0.0177471538999119521
0.0193745988118872517
0.0193642171343138096
0.0152050019047863926
0.014820746176668979
0.014684772283278285
0.014603106681408573
0.0150685995392399689
0.0161915692907417669
0.0153710456418290793
0.0147061885235567312
0.0142425251035978619
0.0139845118998818078
0.0172701758588272823
0.0165872285873975879
0.0159810012153144103
0.0154192510941703054
0.0148621581519404172
0.0177528446002684116
0.0172381190133942541
0.0166954593659762625
0.0160794913538228404
0.0154089860992763523
0.0181747067729298821
0.0176834541230592029
0.0171433846801769367
0.0165334976866173267
0.0158805313713702469
0.0186048343603211902
0.0181254341708006958
0.0176247661731183357
0.0170955198997505518
0.0165290307656732367
0.0191103354480804122
0.0186832724105020845
0.0182497796138798227
0.0178072264947081969
0.0173623370549522218
0.0196477902703188385
0.0192831175750468632
0.0189366923987492573
0.0186208955156936806
0.0183658323900294518
0.0202091874156233101
0.0199156346071560908
0.0196672248199280843
0.0194878155380243771
0.0194181037153328788
0.0213498107853202293
0.0210423482894598647
0.0207672433104112049
0.0205357904646653391
0.0203653668139037389
0.0202831646312236491
0.0203319663176780019
0.0218105435992036502
0.0215376066850386759
0.0212977536892831401
0.0211041473854478405
0.0209753925256051903
0.0209386623032779377
0.0209732323431464363
0.0222687067872449143
0.0220150449181760778
0.0217895490065352082
0.0216054132865762735
0.021480245459409783
0.0214381698381354291
0.0214069576552587716
0.0164642358235827374
0.0161221297453802252
0.0158057649635320492
0.0155277868983241946
0.015303582183167028
0.0151531179858278159
0.0150806846037652882
0.00601820251791632555
0.00174926595065848017
0.0171521923609760096
0.0140084673528141305
0.0131661051209716121
0.0117655208952881282
0.013992642560281144
0.0164487161514515132
0.0174577421746438706
0.0156920030625942904
0.0147712481955328909
0.0138529686147463721
0.0138008801409531187
0.0139568934235505104
0.0161942847837404438
0.0153881067517351658
0.0146538007713619203
0.0141621722933271861
0.013855695548351081
0.0173790744745195257
0.0166736237694472059
0.0160192783110852596
0.0154517835076718544
0.0149461757953670352
0.0178830985956523816
0.0173898018322144396
0.0168317859748770837
0.0162101518552173057
0.015544787904582082
0.0181974769143280514
0.0177090306378977595
0.0171611721139919536
0.0165423262741654746
0.015889289914229901
0.018569530283946558
0.0180776314122642681
0.0175590894866494984
0.0170139702853054839
0.0164407087437946561
0.0190522271818340493
0.0186093877739352993
0.0181558091723612036
0.0176894140540183702
0.0172095753889788886
0.0195714644112939262
0.0191878188091583919
0.0188157075874463321
0.0184620541078679562
0.0181413669521685098
0.020125411445537273
0.0198086118684128315
0.0195259740584151076
0.0192939344538907778
0.0191395839807100565
0.0212925660679623777
0.0209740046263808579
0.0206813353114599537
0.0204238691081679614
0.0202155806226619085
0.0200782721943965035
0.0200450592498483612
0.0217578924899035769
0.0214737746143383104
0.0212170815698668365
0.0209994152524985711
0.0208369478903552494
0.0207527708295039554
0.0207794367804810184
0.0222254125131167886
0.0219629072054599896
0.0217243606186405779
0.0215217562691529113
0.0213709437837467722
0.0212931406968298077
0.0212692439602804075
0.0164252841373640837
0.0160791653388748582
0.0157562433815531776
0.0154685933907872993
0.0152307525256561906
0.0150614365644015091
0.014972612723706865
0.00504069395865256158
0.00282020272110249061
0.016697186396816853
0.0158183706288294521
0.0140156013622609738
0.0113869807456193402
0.0105766145335186908
0.0143478227614785066
0.0148010124877523096
0.0158206602596715103
0.0143846377557970452
0.0140305497088778
0.013740017402213504
0.0134208176752938068
0.0163462811767995861
0.0155807722399876423
0.0147264516318374502
0.014148801155044341
0.0138193483602466576
0.0175368855306650452
0.0167921073868132313
0.0160142372153293869
0.0153781602577978318
0.0148857817507122396
0.0180404550578394975
0.0175577241585906686
0.0169696562666937015
0.0162748966096840225
0.0155616626790699743
0.018237903925712097
0.0177455080338307127
0.0171674438068679727
0.0165083203604516095
0.0158362897371686177
0.0185538858761788265
0.0180459298007449795
0.0175005466166306238
0.0169229705875240076
0.0163218362545963884
0.0189977211009159618
0.0185346516753488282
0.018052261505488585
0.0175471167828355756
0.0170164095955918637
0.0194936791098537822
0.0190850283586345426
0.0186775107591725872
0.0182731546413539628
0.017875221981675668
0.0200354992833203065
0.0196904035541568025
0.0193667633040284053
0.0190739641128162135
0.0188258842755288855
0.0212328214514277622
0.0209009763402067221
0.0205880952289248416
0.0203014013413582578
0.0200512633925246757
0.0198531996984573737
0.0197295701148559322
0.0217018367458284532
0.0214052430673129998
0.0211300381753978354
0.0208860378047743336
0.0206864911221791431
0.0205497479262170754
0.0205006037971329942
0.0221777503589331085
0.0219053908267516535
0.0216523228426741196
0.021429164107795929
0.0212496753899212021
0.0211320171209795384
0.0211004375560789222
0.0163800581990710924
0.0160289882134387121
0.0156980148075214522
0.0153984985408240627
0.0151438974962919103
0.0149511529111284042
0.0148426371490252701
0.00736729041578460583
0.00833666098444468297
0.007801379653240419
0.00829265296701288748
0.0185876542172750368
0.0164135142101177328
0.0118979143196261076
0.0111238159085170155
0.0112426554294372226
0.0169183361759112257
0.015925315588844087
0.0124312977179046203
0.0124660939928910933
0.0128315052537597198
0.017026762530265669
0.0160554496923867134
0.0142963230527284376
0.0132671906762121105
0.0135210540613185676
0.0177619166459275502
0.0171079354526410404
0.0161303767731791614
0.015241674008797966
0.0146940620736044046
0.0181792583640471225
0.0176843775162356456
0.0170016989081460609
0.0161772241507893953
0.0154232819061809398
0.0182762817488989864
0.0177598414513007521
0.017132089299384836
0.0164337724705763133
0.0157593287741377638
0.0185490958236927718
0.0180225102412589662
0.0174515304817457959
0.0168461757773570621
0.0162214694285675066
0.0189500921480374521
0.0184659362889662108
0.0179548865779739011
0.0174130158514845881
0.0168393370613078713
0.0194219188613143322
0.0189870801179517421
0.0185438952387800247
0.0180908747628594525
0.0176243143538058443
0.0199485303451812368
0.0195743532926256174
0.0192095343260967229
0.0188575198499397884
0.0185221466585158596
0.021175250256542863
0.0208293133606179438
0.0204955020514366835
0.020179028031360461
0.0198869181462653886
0.019628825132559348
0.0194174329659774145
0.0216457340983513789
0.0213361318715971048
0.0210418628227266036
0.0207709700233237871
0.0205338046841571677
0.0203440231261058091
0.0202191967224596911
0.0221280546622660418
0.0218453357101101205
0.0215771051066377395
0.0213325852657740393
0.0211234281254044781
0.0209646114007469749
0.0208754754336073663
0.0163302323412323862
0.01597357504115526
0.0156335469500150891
0.015320697975660276
0.0150472488691728527
0.0148282582830965189
0.0146831718622745504
0.00703586995176763794
0.00343273069457425938
0.00526550714027991182
0.00549445257407097515
0.0193237373095118993
0.0187313469986683488
0.0148838545142894046
0.00769696998614675075
0.00799611228570129041
0.0167727397301719421
0.0160296284906300997
0.0142410083141142202
0.010487381793052834
0.0103407333800688353
0.0173350875937664552
0.0166427738571499687
0.0143771030308737693
0.012618337939820411
0.0130128551914056572
0.017853055417332897
0.0174442591919187484
0.0162847626169244745
0.015348676354420783
0.01467220485175731
0.0182126606786821681
0.0176966399641447364
0.0169601021565473839
0.0160928172842563222
0.0153342783480673994
0.0183005206024876993
0.0177481516332486169
0.0170967885063265934
0.016388603059467155
0.0157172910505360246
0.0185440544500133989
0.017997953359558113
0.0174096569475720442
0.0167873529200110345
0.0161471562563546278
0.0189082170173966307
0.0184025191169881371
0.0178670914983811886
0.017298855190184953
0.016697328083620698
0.0193578495709527329
0.0188981587674968664
0.0184234766398505695
0.0179303181564322671
0.0174117961859214347
0.0198679659655065163
0.0194661572764192256
0.0190637466026051701
0.0186603173566729265
0.0182534258232993629
0.0211217507951524733
0.0207618376654110891
0.0204077539300635512
0.0200630775876253602
0.0197321204268979325
0.0194201216780418157
0.0191325216397301573
0.0215917277041239829
0.0212692819343966687
0.0209564336962174136
0.0206597585219701549
0.0203870880576173322
0.0201482435953806022
0.0199552547258882995
0.0220783873600577316
0.021785360297237398
0.021502135001438407
0.0212366876907167518
0.0209987936153613192
0.0208007790684070076
0.0206578273376811679
0.0162774679579761467
0.0159149222460395826
0.0155653852188263817
0.0152385746934519603
0.0149454414291392921
0.0146990923147567419
0.0145161400723080401
0.0035907693722143693
0.000375487950715724765
0.00748222778757262532
0.00640009248381892461
0.0198417833110611716
0.0159927945234863908
0.0139705917282165366
0.0091476857961963684
0.0090093172459664965
0.0161692183198779878
0.0153369910091552594
0.0145516326439553024
0.0106335958901464279
0.00991248957374230889
0.0174304940297443818
0.0166465402316944427
0.0153377769121638922
0.0141979707569924816
0.013786880124766223
0.0179916635913182285
0.0175339767457735884
0.0165978837972779771
0.0155686085226184063
0.0149752624119801111
0.0182130486238081674
0.0176102814499011981
0.0169397931269521761
0.0161619974734804155
0.0154293829311286171
0.0183230499020624361
0.0177249602189869897
0.0170721520595020736
0.0163881628259828251
0.0157203289911815695
0.0185414731121172419
0.0179749032720636359
0.017372172642511223
0.0167429101060896576
0.0160962342629156901
0.0188746437619517898
0.018346836325003734
0.0177911573720703695
0.0172064510245785174
0.0165896529552181649
0.019302978753186692
0.0188214322184430266
0.0183210762990093853
0.0177974393718570018
0.0172424849430143808
0.0197966473948399113
0.0193702110960335266
0.0189360345231250789
0.0184914907656092767
0.0180307579913254988
0.0210741144918076204
0.0207011590191610063
0.0203284874129334089
0.0199586548721532447
0.0195941304693184361
0.0192371615377112185
0.0188885193424484857
0.0215417967096642425
0.0212072993171257551
0.0208773100626392927
0.0205572625380389187
0.0202532023311997392
0.0199721874242877982
0.0197223480152178623
0.0220306757723663649
0.0217278876209789674
0.0214306145740379705
0.0211457906310134787
0.0208816897636311706
0.0206484957901917759
0.0204586290510253496
0.0162234807605770824
0.0158550798253385902
0.0154961373786617652
0.0151555701494572766
0.0148431544950443448
0.0145703702238764166
0.0143513728287371616
2.27120961900891228e-05
3.5995930496813122e-05
5.0965165076015551e-05
0.000238250030092731683
0.000113289160711854827
0.000200941028740085886
0.000627192190821609106
0.000246364862384296733
0.000327610938741744917
0.000801547226679638495
0.000931653528311581934
5.07124724865266001e-05
8.22263330019691612e-05
7.47411867874858097e-05
0.000178868799640300423
0.000107618666482178161
0.000199645061118284157
0.000482566720829347899
0.000227715488660096814
0.000246585939291233942
0.000637430844842273967
0.00123979380037814646
0.000190897889235142998
0.000296302639999826813
0.000165476848749637832
0.000157091914193795471
0.000133467449465449656
0.0002328896893958321
0.000359061670922483569
0.000137109641569160704
0.000221559166112372851
0.0005058521763084225
0.00146497628604434294
0.00029919722416661248
0.000253658583086378636
0.000270687736770000565
0.000372309817710276744
0.000363572266992580383
0.000421525650047161946
0.000939053216827526118
0.000351025080717994118
0.000390159247310322777
0.000948133659704797718
0.00204197050041495702
0.000721122695638085802
0.000747236158863249025
0.00147116979320612625
0.00139197838464868171
0.00180772884921169075
0.0019695055422887589
0.00241529350356624274
0.00270505301121181903
0.00325887287301753403
0.00261481170269800339
0.00408493620830294515
0.00018023556850906659
0.00016628136527349914
0.000273690481417560808
0.000296160290429697283
0.000367471619896961039
0.000390193329863109046
0.000442694495664686311
0.000686926017097323153
0.000549708778481598184