/*--------------------------------*- C++ -*----------------------------------*\
| =========                 |                                                 |
| \\      /  F ield         | OpenFOAM: The Open Source CFD Toolbox           |
|  \\    /   O peration     | Version:  2206                                  |
|   \\  /    A nd           | Website:  www.openfoam.com                      |
|    \\/     M anipulation  |                                                 |
\*---------------------------------------------------------------------------*/
FoamFile
{
    version     2.0;
    format      ascii;
    arch        "LSB;label=32;scalar=64";
    class       surfaceScalarField;
    location    "0.330000000000000071";
    object      alphaPhi0.water;
}
// * * * * * * * * * * * * * * * * * * * * * * * * * * * * * * * * * * * * * //

dimensions      [0 3 -1 0 0 0 0];

oriented        oriented;

internalField   nonuniform List<scalar> 
20536
(
9.0182898861144897e-05
3.10649098044395289e-05
-4.0311256323556348e-05
2.42688984242972197e-05
0.000441991759111786862
-0.000506020922070068448
0.000547708515389574708
0.000190900666986122398
2.95742637006830363e-05
7.06552663007595068e-06
-4.91091199769804416e-06
2.15942094644379443e-06
0.00024197003769007349
-0.000332293636250869425
0.000345687634532385415
0.000169041927497194644
7.17500056567713054e-09
-1.44468544271907835e-08
1.65415302789647947e-09
-1.46899328316833505e-09
9.8527979266209972e-09
-6.30768142693668036e-09
-2.56886109913860978e-09
1.41414159081766151e-09
4.2659132954866767e-07
5.86653140089633063e-08
-6.96324644582178783e-08
5.7406039604194048e-08
6.44443303384721374e-06
1.48739917919197984e-06
-7.41624383626104266e-07
2.22220876922093237e-07
5.50448347262838384e-05
-0.000128381113808953936
9.92440980433251409e-05
0.000133818047820748756
-5.42835838468762992e-10
-3.69720259580892152e-09
4.15654968321016264e-10
-5.52478063758679939e-10
4.41392772740024867e-10
-5.18658118316742798e-09
-2.97306444037330289e-09
1.230367611219639e-09
7.71203888864383854e-08
1.59410556564536092e-09
-2.35386802379772852e-08
7.66956565913329475e-09
1.32219045204388743e-06
2.18081789800135786e-07
-1.3814329564021943e-07
1.36945295150232488e-07
9.32421414576235208e-06
-2.59675663545907317e-05
2.0600271148875372e-05
5.0241352543441206e-05
-7.9568079654523254e-10
-1.04372293856886262e-09
3.26964806970006603e-10
-4.08815496887706582e-10
7.12178030277771621e-10
-3.77350078004262338e-09
-1.55234404801735239e-09
7.62921290967760936e-10
1.4793998074921071e-08
-3.93246241138549947e-09
-1.37375448290079874e-08
2.02269534767123311e-08
2.63615360842798078e-07
1.37983202417565538e-08
-9.05040327904800228e-08
5.21703150868757699e-08
4.24196684942422709e-09
-4.09668488720662184e-06
2.42133433217869434e-06
1.12023279661367216e-05
-8.58782127995399215e-10
-2.23261803543507552e-10
3.29478197363512788e-10
-2.18885858674943481e-10
-3.65584504561689527e-09
-1.00933896511626746e-09
1.49220733036760533e-10
-1.33443256437345976e-10
1.36400932068905882e-09
-5.8330709328361184e-09
-1.60249189710333495e-08
-6.41037460241358841e-11
5.8384109978394971e-09
4.56862026288119561e-09
-6.73789033700002334e-08
5.00072770715346502e-08
-1.91611116227297829e-08
-1.95575182717036695e-06
1.05225728841433351e-06
-2.31055285467694114e-07
-9.28173185509386567e-11
-6.81836464545655658e-11
5.80575353491537861e-11
-6.36599609508299932e-11
-5.49022002340156249e-10
-2.72295512665254295e-10
4.67679231902945196e-10
-2.43156066302149078e-10
-2.59714246586325779e-09
-8.80613776895617535e-10
1.06929818592328719e-10
-1.41282480816155781e-10
4.69891883243817543e-08
-5.13394447596189849e-09
-8.07260228261805625e-08
9.97580425707105496e-09
-1.83862887228897099e-07
-2.60464656648201803e-07
6.12700853491927299e-08
3.56024204440190408e-07
1.91022456450470263e-14
-1.69173374779471735e-11
1.02596254397467415e-11
-9.23219507115870871e-12
3.23092415308321567e-13
-6.77169204415609847e-11
5.01141609548702924e-11
-5.25876359130180828e-11
4.74263585062856027e-11
-3.9643265546179274e-10
2.24665640423322527e-10
-2.9631635925171896e-10
1.10236225987615225e-08
-1.32817266205457771e-09
2.13226864114590955e-10
-9.28110450120942441e-10
-4.88251254899715674e-09
-6.5810202619968504e-08
2.36465811374171713e-08
1.46869821671748535e-07
1.10918174632124723e-12
-2.57469503474777127e-12
3.41975825977226709e-12
-1.89979583590850053e-12
5.85004410989196772e-12
-1.79383053793081504e-11
1.5475800241201414e-11
-1.36422166522842973e-11
1.95933209124347102e-11
-1.29159491632467305e-10
1.7075702547584681e-10
-1.40368560520287194e-10
3.85285415583872018e-10
-9.2021661275350512e-10
9.4176947064009517e-10
-3.72414039125278283e-10
-3.20933863532866597e-09
5.5799749465313933e-10
-5.4341791981830162e-10
3.94679811327982129e-10
2.78087616251762754e-13
-7.48268662743421358e-13
3.9705561535495145e-13
-4.58328588955857184e-13
8.66968114816333928e-13
-7.09071241163473229e-12
7.64927554984994846e-12
-4.81822897333464023e-12
1.19377622310957196e-11
-5.65062593386014459e-11
7.49485844360804622e-11
-3.16732171557546275e-11
2.6388086189328007e-10
-3.15887390235863146e-10
2.68707588852107363e-10
-1.8085591634489645e-10
-9.60743844614386802e-10
8.02270404022916586e-10
-1.07457891077744858e-09
1.09616055579553781e-09
5.04018356300795465e-14
-1.94286456760409765e-13
2.30057711372545023e-13
-1.31284383048487528e-13
2.0474072878406775e-13
-1.716371435405931e-12
2.68928117192762694e-12
-1.23201382762811185e-12
8.15581228118562235e-13
-1.40628684001158304e-11
1.74787558308666191e-11
-9.7064425651885816e-12
1.95660453456481414e-11
-7.0210713869311403e-11
9.43747864386271923e-11
-7.15566113255316032e-11
-4.13901748182109073e-10
7.77425922807708454e-10
-2.89126838419552894e-10
1.74426807864711358e-10
-5.09357731146866487e-15
-1.607127196318364e-14
3.8513181128923304e-14
-1.70410621161914084e-14
-8.04488295292679637e-15
-1.57371008263890921e-13
3.34508228134823974e-13
-1.33065626098460014e-13
1.29641086088746256e-13
-1.58626275987750861e-12
2.90935973819796139e-12
-1.21015570647412264e-12
9.12062703488480749e-13
-1.07977392071493038e-11
2.23263540027533167e-11
-7.67188601424003789e-12
-8.6069119165895384e-11
1.15454002717777507e-10
-6.18502932422561205e-11
1.72089978089351802e-11
-2.0440800975499525e-17
-5.29946606599555719e-20
-2.71438015066894111e-19
-1.45445547248885103e-16
-8.36812944322336456e-18
-2.25661066313494109e-17
-9.39827204551874388e-16
-1.51332254418169821e-16
2.18417285487819754e-15
-6.47532789391125188e-16
-7.41453003192839474e-16
-1.36596123257808085e-15
1.7151481930675364e-14
-3.29846893272469512e-15
8.56367637181162638e-15
-2.07115384624471932e-14
1.53603532218154894e-13
-3.32152681074172798e-14
-8.1424112038832088e-14
-2.86128231632891679e-13
1.77143499464254657e-12
-4.33178641996253512e-13
-5.76830554527434618e-12
2.34776948188327278e-11
-6.9609887505914106e-12
2.77366661620711765e-12
-8.49021733679106935e-20
3.99975519239230604e-24
-3.16324008336600122e-22
-1.37037543837433521e-18
5.03544032086686722e-26
-2.8420048264389819e-20
-2.74412504729881415e-18
1.02899059139266634e-24
1.49894867315373193e-17
-1.1386432255241717e-18
-8.58876937946299511e-17
-4.61505879999549856e-23
7.36850882946373192e-17
-2.02486218730038131e-17
-1.27241981091581102e-15
-7.89464930902467973e-21
1.10692107012151007e-15
-2.0325733343412514e-16
-1.95646988035812838e-14
-4.03151240738266901e-19
1.29351446601589931e-14
-1.41887897059930382e-15
-7.62434392710321922e-17
2.48265964284346017e-13
-7.08429559225763965e-14
-8.04449993256399424e-13
1.40987714781809107e-27
1.73539846538992187e-27
2.4881406837161926e-27
2.68638014195787685e-26
8.52447515472345637e-26
1.12501650514644316e-25
-4.54088160221876304e-25
2.15528841834213757e-24
-8.93358291739659656e-26
2.92643434963301638e-24
-4.24238853590017127e-23
1.12136374488228945e-23
9.99467749289050969e-25
-1.63943327976036535e-23
-1.35393483745339888e-21
1.46280490994523859e-27
2.2272498128444925e-22
-2.8405000808040425e-21
-7.46815218990799724e-20
-1.49065297765971228e-26
1.39776332198652119e-20
-3.43542799828274971e-19
-1.28288653702998275e-23
2.07503927590815834e-18
-7.83795332456160819e-17
1.26627379997118793e-20
7.04820708860196082e-28
2.294702055129339e-27
1.57813443523883221e-26
1.41994317336114968e-25
6.68746156104753958e-26
-6.44319557792378307e-26
4.95836169816498365e-24
5.71987772615616799e-30
-4.02290697652475587e-25
2.64393863426515736e-23
-2.872044397319816e-30
-6.47425342191711236e-29
6.55540806338182371e-27
3.79040990527404228e-29
3.78387175199063499e-28
-1.56590239756072574e-26
2.52738550627775103e-25
-1.32125702288600914e-23
3.59452449103354565e-26
0.000120112882202768267
5.10527030859057917e-05
-5.20993042198907445e-05
0.000519393901610256227
-0.000454146020952507523
0.000209354850106406088
4.50454874177235733e-05
1.35198511286868121e-05
-6.89816916964041424e-06
0.000312870022208270953
-0.000311565340787667267
0.000176221316154522923
7.40086032419808988e-09
-1.79171844578120502e-08
1.16091753352253594e-09
1.13151828449900783e-08
-6.52927025690415998e-09
-2.81494638149296887e-09
9.12965854174692284e-07
1.6579189611987107e-07
-5.72166688083272031e-08
1.0924335816828461e-05
3.37366226225151341e-06
-7.91243767810775268e-07
8.66063903825582064e-05
-0.000168213085468932669
0.000163272330890541859
2.12195760953770378e-10
-3.92084239629792361e-09
1.7430324053719799e-10
3.75827821615627068e-09
-7.23529021446577654e-09
-4.26002832614978199e-09
1.98028252022148025e-07
1.78596852547881372e-08
-6.54410891115522163e-08
2.89316098786558523e-06
5.7608643190913591e-07
-9.30014612628666082e-08
1.92174780302492678e-05
-2.92556014447000368e-05
6.68058133671103259e-05
-1.30259497938103109e-09
-1.65349990799357844e-09
1.2878176532956416e-10
3.06511159325648509e-10
-1.21751608947705392e-08
-5.06791792073407921e-09
4.66534112056273226e-08
2.50728503813651362e-09
-4.69290083995236355e-08
5.57640031560469964e-07
7.19564125180326698e-08
-1.09114376476121462e-07
3.53436205057977624e-07
-6.29599429124979604e-06
2.16365080925138606e-05
-1.44555420406252732e-09
-4.15244913337081933e-10
4.33986300324548839e-10
-1.95149188556195354e-08
-2.70805601053462633e-09
-7.58529351807771657e-10
7.95612894785984303e-09
-1.41764372601660351e-08
-9.59137573870782145e-08
9.14819923861764247e-08
3.26875965845234458e-08
-1.10257181321454933e-07
5.64012983654601144e-07
-1.01877676949386764e-06
-2.04605901614033829e-06
-3.13574057434066741e-10
-4.77096259646763375e-11
8.65058277194100894e-11
-2.20725815243934106e-09
-3.21690273157071723e-10
7.00571872662509463e-10
-2.18944590833728539e-09
-2.48903099888561064e-09
-1.20936133162883736e-10
1.04166257588400344e-07
-7.15419436505421878e-09
-5.4668930202882108e-08
-2.24798861040709938e-07
-2.56882986795563877e-07
8.75591666063002392e-07
-9.01795467118105356e-12
-1.59419004087869559e-11
5.60497314416779941e-12
-7.01547764183670439e-11
-8.37169843675463832e-11
4.96185020629390033e-11
-1.36642015642349087e-09
-8.07091867253553579e-10
5.66758796883632348e-10
2.29549178846868732e-08
-4.43046294512702538e-09
1.9852823665407861e-09
-4.93317151718158636e-09
-2.53500270333463875e-08
2.77700774172954023e-07
1.50184131447514528e-12
-4.22956517578750801e-12
4.57561178060446e-12
7.49014448872177767e-12
-3.52767845788971412e-11
2.71793318018909079e-11
9.19020700969075239e-11
-2.54870787113665825e-10
2.32313167640831448e-10
1.39133864049974056e-09
-9.50646052071513167e-10
1.51980555083448149e-09
-1.33557976166678302e-09
6.23446870170159808e-10
1.15686090005541464e-09
4.28568150306057688e-13
-2.14685029986869968e-12
1.39736768481801874e-12
-4.4354755893428981e-13
-1.84145447197571321e-11
1.59752121434058872e-11
2.56148929734256917e-11
-1.04988353956870063e-10
1.73070963396662465e-10
1.77377047217407642e-10
-4.58976311395569295e-10
2.82157156569233513e-10
-2.87067616979641509e-09
5.14363780633862254e-10
3.34379775676572042e-09
4.72597854608402342e-14
-5.48409333974946499e-13
5.59057312656586649e-13
1.53822751559830671e-14
-4.70824226637227583e-12
6.17166337749672705e-12
1.45313592434646301e-11
-3.19716764396020139e-11
2.89030885692202647e-11
2.03976452635089134e-10
-1.74160349049815593e-10
1.59600222863006512e-10
-5.36318519419822124e-10
2.39175150172518381e-09
1.59995755591842597e-09
3.72543093912813446e-15
-5.52265047756808571e-14
8.57132167213400505e-14
4.1282809669540412e-14
-5.73078911345172658e-13
6.65296990715925428e-13
6.46181573723969578e-13
-5.2528595848889055e-12
5.05159860257653836e-12
8.41124614316879225e-12
-4.00175952972998748e-11
7.60800102342476264e-11
-2.60818095539696604e-10
1.31780813346100414e-10
1.66365666592930568e-10
-1.03925426353121485e-15
-8.05137663728870588e-16
5.2519951344741069e-15
-3.04473620657339781e-16
-8.86472570917617596e-15
4.33960413227854706e-14
2.44304500440371385e-14
-9.95501015774012901e-14
5.14827859043252223e-13
4.35713818886317539e-13
-1.0522663583943022e-12
3.49669180282904852e-12
-2.41140888213701299e-11
4.14490226372980206e-11
-4.275655634239844e-12
-9.43321962975375425e-18
-1.23145234195515778e-21
5.78881184087520928e-17
-1.14182829307404675e-16
-3.35614801865509669e-22
3.65235229050107356e-16
-1.30534550700668822e-15
-4.3058080403808881e-21
2.82298373055076857e-15
-8.11420857559409275e-15
-1.34555303175561892e-20
5.60394164412480644e-14
-1.91389645952918767e-18
1.6702335411802294e-12
-5.16962203550279821e-14
-1.21112103305878751e-24
2.12722420161513962e-26
2.22726652582164128e-23
-2.17971580503183825e-24
1.30556581750218619e-25
7.17224934384969484e-24
8.41130390049496044e-24
-2.20510602635642381e-28
1.10567421219758185e-22
8.52358816153578236e-23
1.63683493445145341e-26
4.42472690609761824e-22
1.46400888918306787e-22
1.39425586798263113e-19
2.14978821308084555e-20
1.43151193969182005e-28
-5.7192415499271137e-28
-3.42141262154099786e-28
-4.20481497758238186e-27
6.82719141021904383e-31
2.98722479049663416e-30
-3.66945967815166056e-28
-8.48656845704771011e-28
-1.07012460663785642e-23
-7.40019729913263907e-24
0.000150850608219404699
6.40706753659258646e-05
-6.22103315807664948e-05
0.000590019119601168165
-0.000377645835309755955
0.000218624174912864275
5.72518203809735334e-05
1.9913787418643832e-05
-9.98933688221211227e-06
0.000381017968546031884
-0.000270371652573883267
0.000183656964673762724
8.03145554087931437e-09
-1.50705531356981849e-08
6.07909151204047574e-10
1.22198740434535255e-08
-7.27934583221996078e-09
-2.55727573186133741e-09
2.14862036214973427e-06
5.69961709308000829e-07
9.25104984620750073e-08
1.63392879955258281e-05
5.41811476148545526e-06
-8.63402699386092453e-07
0.000138381410188606038
-0.000162172760136696892
0.000184446634826363219
3.1162712061562243e-09
-3.83914517533941623e-09
-6.23967864354293166e-10
8.14052560782509308e-09
-8.7411481235504983e-09
-6.3207040412987324e-09
4.68718791385116221e-07
9.25171974592454422e-08
-4.29081282392023861e-08
4.60276351221215803e-06
1.14463985019559298e-06
-9.61841751793783732e-08
2.91524279076574224e-05
-2.4780110080020667e-05
8.25943849815185768e-05
-5.31356102455604153e-10
-1.25873429615080847e-09
-1.01431987418074732e-10
4.41235892369307606e-09
-1.37499770876017786e-08
-7.37379087111737251e-09
1.01014852151834389e-07
2.20640997092343121e-08
-7.48547003603829536e-08
1.0742727713913155e-06
1.51472159107114505e-07
-1.1305793747943321e-07
5.84249133528512652e-07
-6.47309229898641955e-06
3.19079058686240951e-05
-7.12930129602102239e-10
-2.91164801455493756e-10
1.5558299920440442e-10
-1.10416995458786552e-08
-2.70412274586193801e-09
-1.53946128113175709e-09
7.12609452523741724e-08
-2.36986747087293229e-09
-1.25453559571595509e-07
1.89812687329520681e-07
5.89336748959793074e-08
-1.07817220699459078e-07
9.12266964697618824e-07
-5.12153790710018831e-07
-1.17993552832458688e-06
-1.47955233453116053e-10
-5.27938131164017897e-11
4.02759296423140928e-11
-3.66571691749556425e-09
-5.07938658797660133e-10
4.49899057279016587e-10
2.73145225797314761e-09
-1.88005468794287786e-09
-1.10472171424759256e-09
1.1124274832687794e-07
2.93065123620791885e-09
-4.52228329688739583e-08
1.35537114073063763e-08
-1.91641424616581294e-07
1.02364895968843584e-06
-6.33804885648795941e-12
-2.33155268122684063e-11
8.02905267798099447e-12
-4.36938473117775116e-12
-1.51113338476581826e-10
6.82385069412103215e-11
-3.59021464823185831e-10
-6.40710374705225781e-10
3.05817924828561798e-10
1.02691670846117501e-08
-2.34623773719037871e-09
5.51444083755083055e-09
-3.58908984903869066e-08
-3.35932716609032528e-09
8.76400457573122003e-08
1.48276816788193363e-12
-1.00642087049217764e-11
9.67532884604866391e-12
3.5079916748012493e-12
-6.64984884789111656e-11
6.91106761775971867e-11
3.83566871434578163e-10
-5.26769688331290599e-10
2.88657458243103297e-10
1.05353418916291005e-08
-1.69291041114549881e-09
3.23711660219079016e-09
-3.6435567957281287e-09
1.93829911784146386e-08
6.47658510104724651e-08
4.53567279605203859e-13
-4.68513330145251193e-12
2.55035379916231858e-12
1.29529394324557222e-11
-3.99010622793786799e-11
2.38377074026471007e-11
1.65880544959365629e-10
-2.7322024790439974e-10
2.60702758476422058e-10
1.20758887626229169e-09
-6.238467519713519e-10
1.07874825652342846e-09
-7.63065451308275774e-09
2.05649214439402624e-09
6.47738503479620132e-09
1.3630343321191725e-14
-1.24994613776533649e-12
7.49331855607035761e-13
2.9038727241796636e-12
-1.18075443160120599e-11
9.37246269931380741e-12
3.43015768413511138e-11
-5.8987238806658536e-11
5.3115791325794739e-11
8.20326811423607464e-10
-4.85606471618185549e-10
1.3443740513101393e-10
-2.10817077390472768e-09
3.31198851049056653e-09
9.81339026965616824e-09
1.33337446692447804e-16
-1.24851997485880793e-13
1.51967511020135474e-13
2.9981605592978606e-13
-1.24561183236559667e-12
1.17924861614453138e-12
9.09766324955838217e-12
-9.39683985354840862e-12
5.41813292124595845e-12
6.57477452631330187e-11
-1.12717897547192403e-10
9.66278917968078304e-11
-1.662932526480655e-10
4.65218654812249365e-10
3.6723615602182319e-10
-2.03869721049783797e-16
-2.75529018011143234e-15
8.32478112975623424e-15
3.96739569540939014e-15
-4.09116406573064413e-14
5.27696240423459621e-14
1.12378502882620862e-13
-5.96016529172931848e-13
9.31636704963525104e-13
4.41649456129337533e-13
-3.55667279326814692e-12
7.29094430943775e-12
-3.75129819841942303e-11
1.17737383001581689e-11
-4.1015725350292092e-12
-1.01447565310766598e-17
-2.1890571859637832e-23
1.44229586105589623e-16
1.09683417870590019e-16
-5.66530701629253207e-24
1.72451067792224684e-15
2.93728721683907356e-15
-9.15889303783258495e-23
1.42351204150985476e-14
7.307855326300984e-14
-4.01597059061821515e-22
2.51820937042869486e-13
-1.31757701594279943e-19
7.7160908317518292e-12
7.21338134506099915e-13
6.07778249195433384e-27
1.70085187284456182e-28
3.47105850673254995e-25
1.85714476748105974e-26
1.23233609475733601e-27
1.08506236972109202e-25
6.6352707642801361e-25
4.07490952921678769e-28
4.07285528058594701e-24
1.0265325377189074e-23
4.98593531183679987e-27
1.84262103721530963e-23
8.28436740207978898e-24
4.63764949388904745e-21
2.71560917048296689e-21
-5.26658359112615981e-31
-3.95454724910340321e-30
-1.04832377334397698e-29
-3.43472419830887498e-29
-7.50512560703894865e-30
-1.40977405491215751e-29
-1.95285277523418194e-28
-2.25400836829637997e-28
-5.59387130187814102e-25
-6.67220507918385736e-25
0.000192133298468302846
7.94277114424807708e-05
-6.82207421803957752e-05
0.000608306624994518134
-0.000288196580449922505
0.000242259225960035472
7.11495856315387933e-05
2.31642721551629795e-05
-1.05701958611056447e-05
0.000409577059157036419
-0.000214361922774363638
0.000199113890354498139
9.49127547304733773e-09
-1.89573616246984799e-08
2.87502205085522606e-10
1.49729276599559578e-08
-8.06377528264233097e-09
-3.18929743488055304e-09
2.43362447728825679e-06
5.30396074741479815e-07
5.08721032069271284e-08
1.97287840678619685e-05
5.97843163006479546e-06
-4.66549904606084342e-07
0.000155187474106364834
-0.000135538392946763306
0.000187901934400722597
3.63647797663050866e-09
-3.20022505126689772e-09
-7.18946585672777085e-10
8.32693417087597442e-09
-5.91321577253177936e-09
-8.0702876465976609e-09
6.11372382269342249e-07
8.01103062748581868e-08
-1.98000777025389798e-07
5.35310007494798879e-06
1.3254031728739973e-06
-3.93773035447426476e-08
3.76239522816677077e-05
-2.4099807714217285e-05
9.34579931556924208e-05
-4.02685112888633776e-10
-5.69862548767065709e-10
-2.19848058293521395e-10
3.91412886568251315e-09
-7.6394362479567918e-09
-6.59870800773998652e-09
1.62405094224913295e-07
2.30774487222031005e-08
-1.75663442658486952e-07
1.45122564613880735e-06
2.69207646988604761e-07
-3.21150864249438866e-07
5.11275140279068248e-06
-7.95624507602391066e-06
3.81133168836531803e-05
-2.68633844416243853e-10
-1.56690873584604247e-10
2.53485594650208944e-11
-4.83761026958920346e-11
-3.28915618611869034e-09
-5.75591251732868689e-10
3.96987644119179799e-08
5.17310102262373237e-09
-4.34048739037981504e-08
2.97384127984425525e-07
8.93682502072362491e-08
-1.92633854097443811e-07
8.36363900280914843e-07
-9.4475468214803296e-07
5.03062549022334871e-06
-7.48438403791437432e-11
-3.79782479946577228e-11
1.97677370419849339e-11
-5.16766018288011912e-10
-3.69007007114251774e-10
5.34280134532914912e-10
1.4697058375508123e-08
-4.02644813790216975e-09
9.82467963602928085e-10
9.65838120078289993e-08
4.78947895501657865e-09
-3.66604743170436092e-08
1.52018592993818405e-08
-9.24051802602409506e-08
8.20003295802613453e-07
5.40399414463629499e-12
-4.51774147661441629e-11
1.60283561349406127e-11
5.01191014532152127e-11
-2.53715793680600924e-10
7.12937826136411383e-11
4.19544769697512387e-09
-8.75452110818718867e-10
1.71205901489530399e-09
3.84114247473516501e-08
-9.97981189657774234e-09
2.53057589724105299e-08
-3.66159650876342013e-08
2.06742949319883375e-09
9.69258757836420474e-08
3.15041709856957224e-14
-2.04954095960863371e-11
1.5848572413397869e-11
3.74285393290177806e-11
-1.31694195938936602e-10
1.33242223654210782e-10
1.35468194627630308e-09
-6.29746772969240192e-10
4.02393959181973024e-10
5.03643235492120111e-09
-6.05406931996152393e-09
6.82516236199888133e-09
-1.07498799249127329e-08
3.86530960487881974e-08
1.07819680180332943e-07
1.27707501524042594e-12
-7.26421344881133841e-12
3.14097409200666459e-12
3.94822131647778743e-11
-6.81903303718637707e-11
3.1678842894172372e-11
5.82124960022198551e-10
-4.36676196964191952e-10
2.56700595429374635e-10
4.34875165801185884e-09
-1.15980930607736227e-09
1.70823518313863832e-09
-8.46687117722804459e-09
1.2665493326256461e-08
2.41138388192831103e-08
5.91779898954761645e-13
-2.13369313962578648e-12
7.25159619453508421e-13
1.32372293662575234e-11
-2.00946409616210901e-11
9.51843219392376661e-12
8.16154033594565962e-11
-1.11786384769730673e-10
7.09342401017933107e-11
4.0409088007769939e-10
-4.60467285181344994e-10
1.65969809844775658e-10
-5.00162005485672351e-09
2.6184975281037215e-09
1.07479814228970761e-08
5.59341658903021533e-14
-2.88938847668621353e-13
2.09748319211503677e-13
1.00035551382764631e-12
-2.63300764459465517e-12
1.78073318783820544e-12
9.7960908775184457e-12
-1.56936367852978262e-11
5.34239083127093528e-12
2.43461152550578703e-10
-1.41340857962134971e-10
5.656796535160479e-11
-1.97103185549415398e-10
1.25557063876854313e-09
3.931104850968306e-09
1.42246995106007762e-15
-7.8568619486333735e-15
1.77413075094074124e-14
5.31036162709469577e-14
-1.17424387722827611e-13
7.71006069570970413e-14
8.44123812103228886e-13
-1.2518862815521767e-12
1.0405219794551532e-12
3.58568522801732901e-12
-1.84127225433065843e-11
2.51479542112166015e-11
-9.42634765771677502e-11
1.69077916221658017e-11
8.30007002048949782e-11
3.63734810403920664e-17
-2.9967974944511244e-25
2.3909634194438983e-16
1.81883416079765952e-15
-1.04312466870801221e-25
3.69472065395361633e-15
6.95400842456179614e-14
-3.94802265173385472e-24
5.34250319290894486e-14
4.13123070256876866e-13
-1.64346928947723644e-23
5.83587566115551373e-13
-3.96443965448836893e-21
8.25016189714561816e-12
1.77144904032376352e-12
4.58016635004995754e-28
2.1192801595001049e-26
3.95454676359990479e-27
1.34179636806064618e-27
4.33777549052977227e-29
3.25534426913561541e-27
3.79569408948269913e-26
6.3433107084639091e-30
7.42245382843832061e-26
3.97346540127408548e-25
2.31814293819115092e-28
4.72483332057105539e-25
2.06784683158834906e-25
1.23018367186581364e-22
4.57086824824364251e-22
-1.41809120909357304e-28
-4.05356761457670565e-28
-5.98862882462138678e-31
-9.96188188153797768e-31
-1.73592922031512614e-31
-1.80107033998229574e-31
-1.24971079368000387e-29
-8.963175338103029e-30
-1.20467592698036705e-26
-2.31129410684569384e-26
0.000198683192245365279
9.26539925654585033e-05
-6.79479961907439691e-05
0.000628777015892462436
-0.000202926540678989212
0.00026222349810934789
8.04576240419079707e-05
2.90328600143005742e-05
-1.22992825312919616e-05
0.000443001721000436379
-0.000163107796757871169
0.000196424409819392345
6.15718802624345936e-09
-1.07352029420774006e-08
5.40394160812090827e-10
2.46205343676647122e-08
-8.84999425440439645e-09
-1.50268649571803879e-09
4.21038895281396405e-06
9.66754203471057042e-07
2.05644668632922552e-08
2.51074758671807657e-05
8.65819335083622246e-06
-1.24086145810260428e-06
0.000192603870975573143
-0.000107859883002180433
0.000185226590210181325
1.73867395542699528e-09
-2.33444260980985672e-09
-4.13618309846507108e-10
9.93462700150011636e-09
-5.27967097609343488e-09
-1.4398054404439543e-08
6.97047129040307253e-07
2.13652054881383889e-07
-1.11384023243751456e-07
7.06448674071375279e-06
2.33952545216997728e-06
-3.29762256100537875e-07
4.58181609109479241e-05
-2.92612657340423348e-05
0.000107998470651039346
-1.45339224618661463e-11
-2.81449123172903947e-10
-9.95304310859276006e-11
-1.20384386760260758e-09
-3.16158706271378042e-09
-4.63970881739197316e-09
1.02999310476934045e-07
3.42804529911627088e-08
-1.04733250895036206e-07
1.71671252497704077e-06
4.93142241969768667e-07
-1.44850639299943173e-07
6.54583954424036884e-06
-9.61281935252173714e-06
4.30192941563029696e-05
-1.40413651907877048e-10
-5.81071228885080995e-11
1.12832256963236617e-11
9.99499520839463049e-10
-2.12642468023790412e-09
3.47833347197093707e-12
6.37380006038087398e-09
3.48428103571973321e-10
-1.14425839840474513e-08
2.82295073505549551e-07
7.89260792461937361e-08
-6.19908643842342474e-08
4.46512964768019435e-07
-3.17170697953180034e-08
5.61831258718304221e-06
9.47290012217425432e-12
-4.28323065128991895e-11
7.16173350853733193e-12
-2.31254034500081751e-10
-3.13207833106202319e-10
4.60139050971278507e-10
1.53722607220677815e-08
-4.08028185813920128e-09
3.3036542062352597e-09
8.28635142664622622e-08
-6.73136457632613184e-09
-9.53839825318679223e-09
1.59726005576634588e-09
-9.66000568298761322e-09
4.89194264107389548e-07
1.53975340062690973e-12
-6.47719950452575274e-11
1.86999438707681292e-11
1.43790609122943839e-10
-3.93791374193991608e-10
1.10169349683382719e-10
1.05958007503589165e-08
-1.69238121967239053e-09
1.3623965085832147e-09
6.67814391908670148e-08
-1.94244609597228989e-08
1.01498636854967622e-08
-6.48766842784030631e-09
8.43024994012279833e-10
8.24196965116641635e-08
9.26687190107291743e-12
-3.26516977641093015e-11
1.2637290758094288e-11
1.74747398713481924e-10
-2.40844046265747373e-10
1.25418859910987721e-10
1.70654846418701252e-09
-1.07738555054502617e-09
8.73875061566022267e-10
1.25704106063453368e-08
-3.04372556363609393e-09
4.31550757952011126e-09
-1.84231890195950646e-08
1.49927090022710721e-09
5.62369817570604721e-08
5.7136711917036096e-12
-8.77641181481382975e-12
3.09919334751591418e-12
7.56470931340428741e-11
-1.0193263821130767e-10
3.72702898964571922e-11
6.48978540655299178e-10
-5.95822047700483959e-10
3.95799545388518729e-10
5.2665329863125681e-09
-1.61113846081617916e-09
7.07657629103070075e-10
-1.78248024179298204e-08
1.29375301555458636e-08
4.48689306852402713e-08
1.35693214073765093e-12
-3.15994384566253888e-12
6.87359562508091528e-13
2.00715370399991104e-11
-2.95158998495510883e-11
8.3656866543617207e-12
1.6443414748223388e-10
-1.61951114532126584e-10
4.3504452653246427e-11
1.61289238928185575e-09
-5.80346022134949666e-10
3.23789805570402487e-10
-8.1864465285862516e-09
1.00238781756386361e-08
1.51220197609008742e-08
2.35739004842617917e-13
-6.04312293970407876e-13
2.20121644424098849e-13
2.63550565187277998e-12
-4.84261449354188579e-12
1.50673520147825835e-12
2.29798263573272557e-11
-3.42746362842182075e-11
1.01714359823868455e-11
3.3143875783761381e-10
-2.79404959076687927e-10
7.02865843119082921e-11
-6.91199500863439555e-10
1.18761702417724807e-09
8.76233527823476578e-09
1.48937848981698998e-14
-1.72402863526763824e-14
2.61695290165093631e-14
2.81688649087891821e-13
-2.03889176462423674e-13
1.60838424733873115e-13
3.14641758420066134e-12
-2.86307565434837485e-12
1.95355260182258118e-12
1.09879871161025023e-11
-4.16492038615144419e-11
3.09654045971122486e-11
-1.41747860700097114e-10
4.77815998651810711e-11
2.22719729008595466e-10
1.53949195860704725e-16
4.06922063871288152e-22
2.71005509362240185e-16
5.30177293984017168e-15
2.95904529204767145e-24
4.23291349247332324e-15
1.82581620540851419e-13
8.62075702299632101e-25
7.50502496066777e-14
8.07369427037576972e-13
1.24232444937067174e-22
5.8819966896733299e-13
2.13280481859417717e-20
6.63074497050374681e-12
1.14902801696218476e-11
-8.42564657743423145e-24
1.70081339578284278e-21
-1.71612610115865089e-23
-1.11812543799900446e-25
3.99419914710575871e-24
-1.4724878356862329e-25
-4.59704903582996769e-26
2.99771836007073824e-24
-4.309106534294564e-26
-1.13140482838258779e-23
4.63332667639516451e-22
-7.89437383328658145e-24
9.31873720780186551e-20
-1.91456322063581684e-21
-3.4914129732210271e-21
-1.64187257025385823e-23
-2.4918080548075639e-23
-7.2931093629830927e-26
-7.04532638814271543e-26
-1.03181588834380298e-25
-6.58650500773488802e-26
-3.17546647949052693e-23
-1.41034361254783923e-23
-4.25292443115034912e-21
-1.31615294143832373e-20
0.00021213023436857437
9.85187770065248979e-05
-5.52472780822363098e-05
0.000670191203645066191
-0.000133414275473478684
0.000272857884441923555
9.19897741100702784e-05
2.78138849443224072e-05
-8.1035288671948161e-06
0.000486045580716267553
-0.000115242772104824946
0.000204745755580641069
1.12361323709536352e-08