/*--------------------------------*- C++ -*----------------------------------*\
| =========                 |                                                 |
| \\      /  F ield         | OpenFOAM: The Open Source CFD Toolbox           |
|  \\    /   O peration     | Version:  2206                                  |
|   \\  /    A nd           | Website:  www.openfoam.com                      |
|    \\/     M anipulation  |                                                 |
\*---------------------------------------------------------------------------*/
FoamFile
{
    version     2.0;
    format      ascii;
    arch        "LSB;label=32;scalar=64";
    class       volScalarField;
    location    "0.330000000000000071";
    object      p;
}
// * * * * * * * * * * * * * * * * * * * * * * * * * * * * * * * * * * * * * //

dimensions      [1 -1 -2 0 0 0 0];

internalField   nonuniform List<scalar> 
7248
(
3.90385746545783263
-4.17746339311793236
-1.33042702996025763
2.79273685227553869
-2.22388446168472909
-2.24417938750356116
-2.26018784575382892
-2.28439185369075481
1.17795795439383255
-2.78099853894938143
-2.84152024917514057
-2.85207436852179086
-2.97884631437336633
-2.69254413570153162
-3.27611613294363924
-3.34516838853198939
-3.35658722141723054
-3.40051569676737397
-3.53602763938076547
-3.71384916771216744
-3.75923521111426417
-3.76178406816945365
-3.75209740355679067
-3.83396675169989543
-4.15406468839927268
-4.19352594520129074
-4.22813123245212008
-4.26677907376097032
-4.43040130228835505
-4.59685452224479896
-4.63987262030395442
-4.68444283072261403
-4.73911577961166675
-4.83683553490247853
-5.03196733137232677
-5.07718727238533862
-5.13214895534068738
-5.20247091640745296
-5.30254826477212937
-5.45267798038268037
-5.49735020277167763
-5.55232811673422688
-5.62036007083416145
-5.70637748835596792
-5.85904535552431227
-5.90037719262458271
-5.95107101398574034
-6.01244147435959064
-6.08471794154493217
-6.25246732620153711
-6.28852730230488799
-6.33238209368277971
-6.38500861233204997
-6.44723450547867927
-6.59181044786192594
-6.61102999468695884
-6.63493767701968729
-6.66424207778768096
-6.69969086939147651
-6.74205435048082258
-6.79217565403093815
-6.97709757416448539
-6.99129011717864746
-7.0089158227590671
-7.03053993397505472
-7.05677113911389853
-7.08823726236673135
-7.1256952438750627
-7.35761207924055149
-7.36607274428999848
-7.37674545770551759
-7.3900217929901304
-7.40641384441217987
-7.42657449183327412
-7.45142399493887009
-7.73389007929207128
-7.73607732518585145
-7.73917363018620463
-7.74337486465500291
-7.74893023267660297
-7.75627409627321462
-7.76619192655852864
7.3516360317335625
3.77125944203567087
-0.83217379843169681
4.85941228237243195
-2.22548933191240739
-2.22950421404872845
-2.19636278648076955
-1.89557946496265561
4.4842050178926911
-2.77462421726260011
-2.84121242629822124
-2.85862653873013928
-2.91879521519004115
-2.82011423896443603
-3.27360901282042605
-3.36027998929251481
-3.3683761076235692
-3.38612407605686938
-3.52727348907324467
-3.71932190152299746
-3.77587572328811572
-3.75149066729595271
-3.73260623573103967
-3.6688413274818128
-4.1543172933142305
-4.19332571174179058
-4.22571316489759674
-4.23629220621175495
-4.42982667942142783
-4.5963938376643263
-4.63505370721906917
-4.67306639946686531
-4.71375742859707714
-4.81255937362504493
-5.03106670389424337
-5.07197753111140148
-5.12119519168250381
-5.18490511554142941
-5.27648477935968341
-5.4520878453846775
-5.49356118489946699
-5.54452002423096957
-5.60824454154202989
-5.69018689208509176
-5.85898800187968405
-5.89825694453863125
-5.94647289546656665
-6.00505203702684476
-6.07345173016745665
-6.25299605263933245
-6.28779784665502195
-6.33018350841241872
-6.38130580811494852
-6.44212646586060611
-6.63610735027732446
-6.66472863492192591
-6.6993599656716567
-6.74074699464653815
-6.78954072974742839
-7.01080332117342131
-7.03224950122032588
-7.0582661479449289
-7.08939489818633284
-7.12614307448258977
-7.37934494883050718
-7.39289612707285571
-7.40972309576708277
-7.43056868244727742
-7.45646727798120601
-7.74244270234666132
-7.74720574655169614
-7.7535986034447939
-7.7622718580186465
-7.7744148437304359
15.7574179354858757
18.2902967689008165
-1.7309928987902623
3.199472052666124
-2.22921615567082165
-2.231764068552895
-2.18273825960080581
-1.66541204620181382
6.24974580322600559
-2.76726770225445762
-2.83591073920089665
-2.8626140069716266
-2.93178942039130774
-2.47839644957699079
-3.26151896199666735
-3.34451593483905318
-3.35343414047340893
-3.35216364812061141
-3.40295971249873608
-3.71528164196533117
-3.77821959088593795
-3.74807330237580416
-3.73049219265704846
-3.65414878857046332
-4.15424980736683391
-4.19467806876532023
-4.22659707218615655
-4.25202136339273551
-4.46209528321732485
-4.59679388441905523
-4.63363847423362074
-4.67463892554391158
-4.71850299985122223
-4.82999720015247469
-5.03083296217797482
-5.06849380729283361
-5.11350900497384409
-5.16664433798156697
-5.24235123163839845
-5.45187528159135404
-5.4907571495174734
-5.5384317596498942
-5.59867866445557461
-5.67331973625647201
-5.85909440833645068
-5.89658815763337074
-5.94284019840504296
-5.9998372101847588
-6.0673843758576913
-6.25352234802704299
-6.28716851084691264
-6.32828748682011
-6.37839013535320731
-6.43962711751573291
-6.63714218816756585
-6.66506282592539989
-6.69886887394672215
-6.73937330074390584
-6.7868436690850773
-7.01247840404387723
-7.03366965748535478
-7.05933201083290562
-7.08989896854130119
-7.12553045439144128
-7.3817271562542226
-7.39547902470323759
-7.41262958349908896
-7.43395812164320713
-7.46050483256648178
-7.74549199235930885
-7.75077974487699617
-7.75797928046551366
-7.76795370319182243
-7.7821732887569981
24.5671473505991571
28.2527440274207038
-1.88411350238872899
4.35809722330350269
-2.23521144732067834
-2.24689798235880689
-2.19281362913051048
-1.39333361487530816
7.53123083163609408
-2.76139311477244886
-2.83303564151026777
-2.85449978964210338
-2.87253740265948787
-2.12152546761370786
-3.25307923342483907
-3.32188100663419839
-3.34613912441818551
-3.34295818591659799
-3.34071654253360828
-3.7083621614080613
-3.76154787089599418
-3.75304280561482839
-3.73368316138264689
-3.7715651137138142
-4.15399758263622232
-4.1914729906085002
-4.22045280348354446
-4.27053817497482591
-4.44792995972469551
-4.59748246347145439
-4.63199113682281283
-4.67583207590099192
-4.73327534459671817
-4.84489057726496952
-5.03116816183397475
-5.06678431630725079
-5.11137903545532257
-5.1671609894984547
-5.24122856720917696
-5.45219686379233082
-5.48922505408198891
-5.53471837157726121
-5.59469393562023765
-5.66937283751453958
-5.85945193657062902
-5.89548790636609077
-5.94019733227010427
-5.99616014919072882
-6.06873798238656637
-6.25407805314300891
-6.28672371494400561
-6.32681485366020357
-6.37608302700476859
-6.43658757999692543
-6.63803979263913302
-6.66527638121050803
-6.69825894198303917
-6.737878657113197
-6.7846782669031489
-7.01390919055357642
-7.03477397522555847
-7.05993028942469714
-7.0895592434334036
-7.12342803327337926
-7.38381045739457154
-7.39769107287679173
-7.41503659845591745
-7.43661848864994734
-7.46314498427679052
-7.74821137824479234
-7.75396186284255151
-7.76188283696849091
-7.7728011349562518
-7.78947107250094106
35.630793105852149
41.9489218066307785
-0.792963018970041844
4.87523876972704784
-2.25330776895507956
-2.29023377093593483
-2.23963331220425577
-0.781005644124352472
10.1957224547090846
-2.75575879618963615
-2.84569447583187607
-2.82012891076196626
-2.62371829832466563
-0.602713199644654196
-3.2367705203228283
-3.29654906942170189
-3.30794640194306222
-3.30345925374372618
-3.34478311938062589
-3.7008221097658085
-3.74180405268384941
-3.77247792430874895
-3.76232020715885707
-3.81782195961154036
-4.15428536628669498
-4.18773612565090669
-4.23056027342092378
-4.29004668126213584
-4.41478952546127079
-4.59862030972242586
-4.63112323792991898
-4.67578947948946588
-4.74626322415267676
-4.84595317867000741
-5.0320892667786099
-5.06645170315081916
-5.11022578289057261
-5.17441324446580442
-5.24553363747382484
-5.45288136399581713
-5.48879904720435174
-5.53227361142340168
-5.59202133983382677
-5.65942416167730045
-5.85997300159753109
-5.89482219984622446
-5.93816951589981912
-5.99354516283484795
-6.06711815373412655
-6.25462287701699537
-6.28641423982286174
-6.32558293012016382
-6.37426492508093201
-6.43428262868267353
-6.63877331163689988
-6.66538810779005964
-6.69760139428993906
-6.73630773594512977
-6.7819641547466416
-7.01505987003624565
-7.03556431485916001
-7.06010381096410988
-7.08850694149936889
-7.11950485323826676
-7.38553079724300332
-7.3994674448472324
-7.41687403434741821
-7.43847172739713791
-7.46420722437988005
-7.75049999455170369
-7.75662634062211342
-7.76501585431013819
-7.77693820427374138
-7.79546764549034865
42.2830257909112106
43.792016319357117
-1.8825356167947298
2.7267684985181404
-2.25148091364784664
-2.2930070076196456
-2.26687160208729388
-1.54656043961497502
6.25730758343752314
-2.7325293429627
-2.79399353607479828
-2.742936909288054
-2.6163461322207664
0.135913390211726437
-3.21863543862557089
-3.24396281604876124
-3.21538405742618494
-3.19914464971264012
-3.04634398275023699
-3.69354346016969348
-3.71627382315580768
-3.73708992084660085
-3.75573027928425729
-3.97632755584878916
-4.15515977389530811
-4.18504302509382864
-4.23316565449127236
-4.29324128269577621
-4.38975842594507792
-4.60021246332192746
-4.63180320428915149
-4.67697310702753288
-4.74600882237854194
-4.83001200380268969
-5.03329607924542799
-5.0665720622537167
-5.10955189521497743
-5.17383598865338978
-5.23917686808240646
-5.45364344070257534
-5.4881993831447593
-5.53063291787091593
-5.58828868060248229
-5.64483031813838831
-5.8604476741776157
-5.89424363268707729
-5.9363161208616626
-5.99079905648787836
-6.05895588754012859
-6.25507072360227845
-6.28618621458941185
-6.32469745745448364
-6.37290843969916132
-6.432504393827565
-6.63931030276561529
-6.6653918794393423
-6.69690325713440693
-6.73487553021721563
-6.77853927772413822
-7.01590247138301759
-7.03605183739682882
-7.05994877698135781
-7.08709382941313049
-7.11559636486830449
-7.38684062659161267
-7.40076154336552161
-7.41807478059338354
-7.43915322977134164
-7.46429998179440268
-7.7522834716368898
-7.75869346279195149
-7.7673778259359274
-7.77997989818007607
-7.7997755565163196
54.6521116565947978
54.3297472567705881
0.0805299305501705476
7.5476797927158259
-2.28704192410237361
-2.35338373316556293
-2.2190935569252952
-0.538806947899894695
9.79100788800269584
-2.70791433925674907
-2.79089455140705223
-2.67443532042507659
-2.28100633661555463
1.15659794505847913
-3.20189204741132016
-3.1987148692088625
-3.19151036392361931
-3.27324005477973401
-2.9641727924770791
-3.6911947662646849
-3.71073645871315927
-3.76532360423873458
-3.82668860067681882
-4.00439913429474803
-4.15733967661131221
-4.18342941164514937
-4.23531346125034602
-4.28855093231689644
-4.39315701764657973
-4.60180388725986944
-4.63168866690835745
-4.67383004898342147
-4.73329083308771459
-4.81180796563376223
-5.03408887442777964
-5.0659542703575422
-5.10677405747558133
-5.16582596165685537
-5.22547447012841637
-5.45398559446051667
-5.48723909667063747
-5.52830665012844236
-5.58399497092245323
-5.6342762456129325
-5.86065383355831937
-5.89339487684208407
-5.93397589880548892
-5.98806555029544629
-6.04903615890691526
-6.25531682065091843
-6.28580141843823625
-6.32372331720634939
-6.37172244500380014
-6.42941087251050547
-6.63963648780133564
-6.66526577172092338
-6.69616266792951986
-6.73310964771846709
-6.77541436558941612
-7.01644546150325255
-7.03631103467120411
-7.05962127265958106
-7.08551959785595997
-7.1117821030298396
-7.38772191147725632
-7.40160225929579596
-7.41861757420839218
-7.43941563328081035
-7.46348799477148894
-7.75350482358512405
-7.76004981479703826
-7.76899830892288268
-7.78198131839353291
-7.80241871010436405
63.1836866331468627
67.1927458241245859
-0.905642839978042957
6.39757834969077521
-2.30961948795573857
-2.36063369403215439
-2.21711975760997815
-0.981714025378742861
7.88812483720289492
-2.72417732643439159
-2.7468151279496329
-2.51573162570612263
-2.19181901015211622
1.17824061342150799
-3.16971787975399799
-3.16039195888864644
-3.10962898335874538
-3.2729565119071653
-3.50507309278380319
-3.67952947908829087
-3.70952457761923027
-3.76329733389718069
-3.8674056951828808
-4.06084755725673041
-4.15429761506746154
-4.18244841106277665
-4.23446003012079153
-4.29863533941197851
-4.40350720417583918
-4.60108040700562437
-4.63029459930555287
-4.67109959819623732
-4.72303403576637137
-4.79907931607852145
-5.03371956103387497
-5.06471947892384833
-5.10382134611934557
-5.15708324335666646
-5.210151187723981
-5.45397102115917409
-5.48622467374365907
-5.52680790427232971
-5.57975912211265523
-5.6241805175689219
-5.8608409772565766
-5.89285451573203911
-5.93322439059109108
-5.98401448897144395
-6.04460165024410845
-6.25546600819635934
-6.28567306297455808
-6.32333785313389907
-6.36957836842193093
-6.43140447242750568
-6.63982146163401232
-6.66523721996721985
-6.69575148888361582
-6.73214650326215036
-6.77484936099153234
-7.01672484922699713
-7.03647249137813002
-7.05958927297826477
-7.08533192536286371
-7.11092797598956672
-7.3881763640093796
-7.40207123312082249
-7.41885771038779218
-7.43962970941081192
-7.46344368586953255
-7.75413671164595542
-7.76074416659156263
-7.76983729429905345
-7.78305192987899908
-7.80376409647505209
-1.36167659086968573
-1.13534561928713806
-1.23975620696917233
-0.984564549334987049
-1.47210906263705787
-1.5603470641606294
-1.75300753942931564
-1.78603396242152535
-2.11489974418562809
-2.41112570991891895
-2.46130264917479247
-2.52711608689864953
-2.59784561209796294
-2.97934632752292394
-3.15872198963087181
-3.19727942008319355
-3.26061194107836538
-3.36540707826290975
-3.58513842959929541
-3.70512339138493907
-3.76965481016066839
-3.84519804354112482
-3.95543811344160501
-4.12949364658219586
-4.16404195473855676
-4.24397809460707087
-4.33370094022280483
-4.4550411551272413
-4.63136327212190668
-4.60044613049151607
-4.67547681151689698
-4.7701018378464628
-4.88866483134488305
-5.05584238846393941
-5.02997759984786796
-5.09405325928516373
-5.17666076201525982
-5.28106904882197359
-5.42435267208179273
-5.44891877123162427
-5.5063636194535297
-5.57753318274262799
-5.66463571567747159
-5.7702399928010415
-5.85238731634078224
-5.90110847422901319
-5.96015071227300197
-6.03096051700459679
-6.11242648554511092
-6.24287814979084565
-6.28211984221895925
-6.32912908095903415
-6.3844748570173957
-6.44749874919948684
-6.57769910048431061
-6.59779927148498846
-6.62243042395647219
-6.65197728286425249
-6.68665129210780318
-6.72637196820486949
-6.77083769965227944
-6.96336090826907572
-6.97709849850392771
-6.99380425539643191
-7.013597347241185
-7.03642936724407519
-7.06205486141790129
-7.08989074828900279
-7.34364520593760961
-7.35073292184045357
-7.35937256032284459
-7.36956342227169436
-7.38117481294000211
-7.39389558623149856
-7.4071899296649395
-7.71895253979055518
-7.71907221202734117
-7.7194855310956525
-7.72010983744013846
-7.72078842773747631
-7.72128416468456358
-7.72129196608297352
-1.74286380036840249
-1.29353371036864839
-2.00306596102481249
-2.01668812268455344
-1.48217664119780368
-1.67796859906157891
-2.11362058926699792
-2.54465304414259474
-3.1500800281818826
-2.44390859063600718
-2.51347924471281203
-2.74669724350321243
-3.11132369119931695
-3.62402894848509938
-3.20458431554028333
-3.28421099306430797
-3.43191852143153842
-3.66590433017297723
-3.95578156727646402
-3.72456865228436396
-3.81641531608672402
-3.94793010481982876
-4.12963344270373156
-4.39359110667891883
-4.16168238093070109
-4.2502511559409637
-4.37263319459658284
-4.53691785923964197
-4.77274534494348401
-4.59426551330894029
-4.67087499823519714
-4.77758750774691343
-4.93186367684763294
-5.14544421947108255
-5.02431852305408366
-5.08944021425365012
-5.17702902498034678
-5.30198454662524732
-5.48159165222787514
-5.44643043990637121
-5.50406715744462538
-5.5766728641482004
-5.66947495829529302
-5.79419738041290611
-5.85176763718884985
-5.90049486059991146
-5.96007786278868412
-6.03140656887606497
-6.11827853112114806
-6.24322317025179707
-6.2826127894035233
-6.32993401989764948
-6.38554544705639238
-6.44950693880977788
-6.57834670663486509
-6.59843938765291504
-6.62312542373564295
-6.65283581445411443
-6.68784846481757533
-6.72819076350785128
-6.77364869532505232
-6.96393600192079099
-6.97774547240113652
-6.99455723774260729
-7.01454462725286199
-7.03773964965599941
-7.06395001854329063
-7.09269271645262833
-7.344195700888001
-7.35136644371465131
-7.36012648022279947
-7.37050143294927995
-7.38239932870716054
-7.39556974596217209
-7.40954853306299555
-7.71959504058605006
-7.71981657016059408
-7.72035606004340558
-7.72113543423354454
-7.72200699791271283
-7.7227573128778495
-7.72312305544152355
-1.60726293703647505
-1.22666839970329056
-2.14228603195953848
-2.05156398077106372
-1.66411049480888873
-1.91785742111791135
-2.41659458650099701
-2.82787041979047649
-2.92923633318507015
-2.51820279566020666
-2.60607825876651011
-2.85879214811718718
-3.11658344160102274
-3.23816611168134738
-3.22717000897198414
-3.30925999942559157
-3.43203769057913544
-3.54819344519125535
-3.60704216942926692
-3.73427856453541462
-3.83196071735737753
-3.95430841892134177
-4.06967783975850494
-4.19805380705598807
-4.15155067065885941
-4.26459122045336514
-4.40484165022307117
-4.57327800261674344
-4.75977831167129128
-4.57608668767201809
-4.66649554380319387
-4.79493553732286237
-4.97010425923681964
-5.1652820458997768
-5.01726391588383702
-5.0849613479068978
-5.18437750865842606
-5.32162902552394801
-5.48477714089148005
-5.44506662458431556
-5.50388426071648063
-5.58078620456397267
-5.68029282190083684
-5.80760560302281448
-5.85218083011735413
-5.90135233516119051
-5.96250351712489302
-6.03742062666546442
-6.13044542275663318
-6.24434175132972058
-6.28410273946743292
-6.33228328161027054
-6.38967874387809687
-6.45755150323107063
-6.57948170266569043
-6.59962573926036722
-6.62448119229019206
-6.65457538170368768
-6.69033412194820087
-6.73207202621714274
-6.78012634721776752
-6.96500626053218408
-6.97893223957103004
-6.99595460252868317
-7.01632456186186815
-7.04018634338918314
-7.06753630700532298
-7.09821012879550484
-7.34522400041656809
-7.35253582878610068
-7.36151477336065696
-7.37222905157542208
-7.38465918254442588
-7.39866556135114539
-7.41394837312582666
-7.72067180902816741
-7.72105361676037205
-7.72180185150827025
-7.7228550860041052
-7.72409316822804559
-7.72534054885982613
-7.72637916243626588
-1.4189476659116993
-1.17642483552165888
-1.92776212692549942
-1.79004923711571418
-1.88758120642969507
-2.0558995572901253
-2.35206925401060918
-2.56198033894238497
-2.6168141737441708
-2.61116137920489599
-2.67404378243682972
-2.79815964315028332
-2.91510543120482923
-3.01050821094487153
-3.2233599719368895
-3.26659201876936045
-3.31596779227434668
-3.37496444601564693
-3.49135357601201246
-3.73901034505461283
-3.83115339492775142
-3.92235936015129028
-4.02601518008312631
-4.11086795833963503
-4.16305434437834876
-4.29582258545182238
-4.44567054605180179
-4.59356679318701122
-4.7132752947212726
-4.57600730295355618
-4.67566794409384023
-4.812132556617299
-4.97056479640620807
-5.12582022142976879
-5.0188985349715729
-5.08954951668447553
-5.19154300347228759
-5.32023592406672119
-5.46021314433305349
-5.44652361348929936
-5.50602268968957453
-5.58400423623174458
-5.68215551147733144
-5.79985216614039079
-5.85375080697823602
-5.90321848119849868
-5.96513800750699996
-6.04115976930519682
-6.13418140177143378
-6.24602368741045044
-6.28609404091704072
-6.33497526622519835
-6.39368060375037661
-6.46371885683166703
-6.58103360660443659
-6.6012390740858935
-6.62627167542907358
-6.65676200520501649
-6.69329387738236559
-6.73642248428285484
-6.78684465990028585
-6.96648085477859702
-6.98055131986020605
-6.99782604320576151
-7.01864358920460152
-7.04328225610291181
-7.07193522601552971
-7.10474915019968911
-7.3466769682620825
-7.35418311477341824
-7.36344871225292685
-7.37460449946983143
-7.38772235702572821
-7.4027915575606329
-7.41970892133723048
-7.72219150970148238
-7.72279697226264528
-7.72383600622408828
-7.72527645113826544
-7.72703469226114148
-7.72898652393745245
-7.73097752923379122
-1.23158612001284085
-1.00433019280922475
-1.71204690113965241
-1.40959218568543876
-2.02909793882538247
-2.08621016163658091
-2.14893745761202126
-2.13678956034220136
-2.54277448407799334
-2.67475151308367165
-2.69661844832769759
-2.72402982742034583
-2.77604026737698373
-2.98004536719983193
-3.23288484503789597
-3.25857587556776629
-3.2954897899572213
-3.33241073361238804
-3.45776108457741493
-3.75724428540220368
-3.83912098952770897
-3.90943861242801782
-3.97898723866061665
-4.04463554324362917
-4.17938921010257047
-4.2968712207894848
-4.4137051708941053
-4.52883446638573872
-4.63759829350048314
-4.58787269948952581
-4.68152739903622006
-4.79961550150528105
-4.92201682812107411
-5.04368785304199463
-5.02611354900519647
-5.09590132087607639
-5.18944358942548156
-5.30045464916498688
-5.42112662673669199
-5.44957595722571764
-5.50814728493619388
-5.58318221885143906
-5.67480150149771223
-5.78196217230793774
-5.8558425089372701
-5.90484000912073181
-5.96588711846294473
-6.04019464788532279
-6.12928466419134654
-6.24788212409672905
-6.28787424411575913
-6.33672253857313983
-6.39544054882764446
-6.46539628212563855
-6.58292488764090677
-6.60314123859449964
-6.62825524678241784
-6.65896782117996011
-6.69595555972892065
-6.7398971925295994
-6.79164837983891623
-6.96829092146085394
-6.9824913807714557
-6.99999534128107914
-7.02122029710454676
-7.04655652031192758
-7.07635694005688975
-7.11102242707220622
-7.34849057618417856
-7.35621003902231596
-7.36579156594466689
-7.37743124948713724
-7.39129143594281235
-7.40749777924831587
-7.42616012975271023
-7.72409350599894839
-7.72497268876484533
-7.7263701700016556
-7.72828483284359269
-7.73067853275196804
-7.73349322506490644
-7.73665897524502189
-1.12610078818017878
-1.06965208688733071
-1.61759004576339804
-1.21284035417912861
-2.10676376259826004
-2.12184964761851358
-2.10442559817861241
-1.91167256373013306
-1.09028099317369964
-2.7072430010794255
-2.71375903600702006
-2.71357366368865671
-2.66657533791603241
-3.13942192111678642
-3.24768975130105453
-3.26506282139265736
-3.2983243728422571
-3.35294915090943535
-3.49137900019221847
-3.75430493418353217
-3.81578324293927107
-3.87234839132595088
-3.93484431907428789
-4.02870876017213853
-4.17829464556844776
-4.26790013623978925
-4.34977991858822399
-4.43534045289348633
-4.55326131229622266
-4.59682202735793766
-4.6744661494583033
-4.76783555031266282
-4.86764101532088578
-4.97893853531804176
-5.0316954797597111
-5.09595024384015183
-5.17773076923156683
-5.2738865517762763
-5.38288865865393884
-5.45211565385734875
-5.50795262947068398
-5.57801328246634665
-5.66232264693586629
-5.76019719418378884
-5.85761000322308512
-5.90529748479921324
-5.9642649770277707
-6.03547427794206648
-6.11999861179220872
-6.249561526615107
-6.2890158337999349
-6.33712932325290446
-6.39487672988352074
-6.46345305959103911
-6.58504792832608832
-6.60517798180230731
-6.63021995912987094
-6.66090165958202363
-6.69794604104366087
-6.74209843261678721
-6.79430637893812772
-6.9703532003946469
-6.98463581655415577
-7.0023020132830629
-7.02382776092906802
-7.04968494488880015
-7.08035627753711605
-7.11645841215327568
-7.35058479737242543
-7.35851300112245443
-7.3684095108273997
-7.3805282703821673
-7.39511783614169538
-7.41244618310863057
-7.43284750419092077
-7.72629970371926333
-7.72749161412254715
-7.72929354844504157
-7.73173907350103295
-7.73484901199512986
-7.73864955459532755
-7.74318735858545004
-0.923313228182658374
0.435982438532960259
-1.57650781345922475
-0.481168523199016818
-2.16278862308232167
-2.19333481169610867
-2.15733113426836365
-1.91004651533302994
0.99699768875132122
-2.73650075852978025
-2.74766733499321569
-2.76688283919792832
-2.69198974726121065
-3.27176134255053963
-3.25631989069701611
-3.27811206516894194
-3.31211477469749038
-3.36470198510550977
-3.53317873704571195
-3.73198017758002809
-3.77977465631479559
-3.82582431657293931
-3.8671704991409257
-3.97352456228091677
-4.16835363934092484
-4.2328147847722164
-4.29099255112989919
-4.35482958260295749
-4.47683047245600463
-4.59932366662425274
-4.66169207437545197
-4.73471196452664245
-4.81984735655548491
-4.92163055933857052
-5.03364002980787006
-5.09085288412076586
-5.16192805217611905
-5.24811978704176596
-5.35507508088131079
-5.45326110310954792
-5.50542511040942806
-5.57016735384772499
-5.64841244978003498
-5.73950185253622891
-5.85864562224992458
-5.90442899444332703
-5.96074354888524649
-6.02855029070856485
-6.1086965291223505
-6.25088063172130859
-6.28940552108564255
-6.33630174224563447
-6.39252498782010292
-6.45918250697266672
-6.58729042642526164
-6.60722069467133721
-6.63201738894058135
-6.66241882303843713
-6.69917035478462797
-6.74305335077140811
-6.79508686397696149
-6.97256677836440986
-6.98687224693990405
-7.0046130086927727
-7.02630703544762536
-7.05248377192061682
-7.0837267106697146
-7.12081574756697577
-7.35285879744837878
-7.36098808921291514
-7.37118063067518126
-7.38374303160530676
-7.39901134442230557
-7.41739410291615364
-7.4394462104045882
-7.72872725212822598
-7.73025266423039792
-7.73248187603059911
-7.7354945535281594
-7.73938238523672428
-7.74427554420863817
-7.75039186285005144
0.54316439792071769
3.57804342840586287
-1.54029745625986836
2.02181038812409497
-2.20145574378988451
-2.23772301678921659
-2.23511708738927251
-2.0044144059985598
8.12179235412531852
-2.76517696134042135
-2.80393030100386609
-2.82395689977910003
-2.97401812971259183
-3.33039115138953079
-3.26579493636653106
-3.3127236807447713
-3.3469516617007975
-3.37991511519813814
-3.54603768989327994
-3.71568173905366228
-3.75876334912758869
-3.78413627771576389
-3.78593730101902093
-3.94064044094324473
-4.15826172005522121
-4.20635801656724162
-4.24795641927537027
-4.29773926911918203
-4.42997689058881505
-4.59820790132973301
-4.6491103420352653
-4.70601863066138737
-4.77613996373438887
-4.87218054879635076
-5.03321009031978317
-5.08389812769305305
-5.14607693222648788
-5.22325513655131513
-5.32569307137777415
-5.45325991042436531
-5.50156501569520007
-5.56121030601084332
-5.63420371668126219
-5.72230946120115469
-5.85902802307024206
-5.90261372771164261
-5.95609363413789161
-6.02062483186979058
-6.096837109652542
-6.25182147192789728
-6.28916460588803705
-6.3345830520487203
-6.38904435901365275
-6.45359499363710221
-6.58956472385545311
-6.60918518379693509
-6.63358685668870063
-6.66350603584060508
-6.69970041489384815
-6.74296500979588487
-6.79427885597364334
-6.97483753772378368
-6.989111464425803
-7.00683819143556974
-7.02856122591305255
-7.05485361046757742
-7.08635740026732464
-7.12392250573012831
-7.35522624919868662
-7.36353967344918292
-7.37399454952696498
-7.38694524413158682
-7.40281466485307771
-7.42213647028432888
-7.44568028734346221
-7.73128918861591341
-7.73314742840541758
-7.73581282966373607
-7.73941829024627559
-7.74413300483716593
-7.75022437177509449
-7.75813788534557336
30.8425482417965569
52.589098687214225
26.0634559979158027
47.2240218744846487
9.55530250877526655
23.3276134651868929
43.8302441594620831
2.14111809998955849
8.7345666671412765
21.7725112855875516
41.2807037968004025
33.4491577493923842
56.7452425758329326
26.2966890967293523
48.6755354137309482
8.55902714726143543
21.5008786215026397
42.7503031892059013
1.50505745924430823
6.65417455459524021
18.4424460881636954
38.2963646524536188
43.4052899121555669
67.3401367278188729
32.3604884763656884
55.0279665892383036
9.70483289939755522
24.5960570586549636
45.3000185675756484
1.18714912126414252
6.51053212444086427
19.4268446207134673
36.5000692910967359
57.0817379155953404
69.8531509323418049
39.5570695955676683
47.6236410800713656
12.7599405328121804
26.6313765166257781
29.8147039706693704
1.74058188223533605
8.95389666747711033
16.3596942342298917
20.4276716575931232
58.7557137207168125
40.7072752476085498
34.7184360533374274
21.3955840438412679
11.8555841597046765
16.9243163143556785
4.59035332327562173
3.39617372411819929
5.47962055885932386
7.55888081650152799
-0.287664629856180909
26.1751331855590479
-1.80003424818031021
9.16797874208168651
-1.41105294170492002
18.7776859187129048
-1.8813980431885966
-0.938744228876231546
2.26523746775626478
8.84036855677413769
-1.96283289287649154
-1.35008870496306432
-0.766220643709084603
-1.38080910134962576
-1.18147343058919851
-1.44351215407195932
-1.03845563244311734
-1.41103513104288036
-1.54262183052848201
27.4148808291406567
-1.40609578952833658
-1.5354335812074984
-1.65962197268631639
-2.189030927748842
-2.12609498393474849
-2.15676335023653776
-2.04525811684427294
-1.67591289882769101
-2.04645621630866215
-2.00707499574079851
-4.52200487944060114
-1.84937062216440395
-1.98801026201614794
-1.9843709590173082
1.06778298849253517
7.17264163097311069
18.344344524297064
35.8634202379756601
-0.184552882013974795
2.94439630418856524
13.9492763293994955
34.0018911817649894
-2.77026333781711998
0.00340197150549670368
14.7838225147258981
39.1991785891323445
-3.33939656766627735
-0.085485540037524288
15.4255773493329684
36.7766925590267988
-3.81023368694841658
-2.50027039137365392
7.67441540218754881
25.4666246391392974
-4.348252684900622
-4.08426782011785861
0.399318774040310132
12.0578266339907998
-4.83904365647518553
-4.79913074193689404
-2.90742168818332658
3.06126847254098777
-5.22955164753369939
-5.18291090314598435
-4.41566292534305305
-1.88481377917977255
-5.58631990544067492
-5.65765782881066492
-5.40289241985827218
-4.27713338122912035
-5.89688515168125793
-6.03970331388089665
-6.09637964714299407
-5.76112256950947987
-6.20194404058691262
-6.32156709156818408
-6.47817434601213549
-6.53464491592533392
-6.51426058659744633
-6.58650405139773909
-6.6750591283000702
-6.76447216499096893
-6.81657587975844415
-6.86070753546369883
-6.90073447099308268
-6.93109770323250363
-7.11713981096829418