/*--------------------------------*- C++ -*----------------------------------*\
| =========                 |                                                 |
| \\      /  F ield         | OpenFOAM: The Open Source CFD Toolbox           |
|  \\    /   O peration     | Version:  2206                                  |
|   \\  /    A nd           | Website:  www.openfoam.com                      |
|    \\/     M anipulation  |                                                 |
\*---------------------------------------------------------------------------*/
FoamFile
{
    version     2.0;
    format      ascii;
    arch        "LSB;label=32;scalar=64";
    class       volScalarField;
    location    "0.330000000000000071";
    object      p_rgh;
}
// * * * * * * * * * * * * * * * * * * * * * * * * * * * * * * * * * * * * * //

dimensions      [1 -1 -2 0 0 0 0];

internalField   nonuniform List<scalar> 
7248
(
48.2379243484937632
1786.48201651642717
5.35881086104445448
1777.34233247339921
0.722813762733391374
0.690803633491373859
0.681043972101351813
1.60777912724454919
784.898317186234749
0.50719285650666035
0.468489475820888124
0.460167308702897293
0.533211904091336231
34.1256539714729854
0.349951506402836066
0.312771214300015254
0.356591222281550657
0.399755871217484404
0.851685181688746962
0.272530352461489878
0.241616244984994455
0.420505048135554449
0.56545691187953584
5.89809665188908916
0.199360183240143513
0.160971247548029217
0.198552864582807409
0.879168116211710093
0.824029561225918528
0.124479336382629993
0.0823941879888254597
0.0410569611222962594
0.0272741083487727312
1.8095016490039173
0.0570747642189697521
0.0122094679996629391
-0.0389113684863243714
-0.0956320018053958693
-0.198547909082869012
0.00414945532101349771
-0.0403377491561171392
-0.0941756698596399044
-0.155744535408236823
-0.221136321175038869
-0.0343482088648736084
-0.0756140938120211381
-0.125844269110589352
-0.185160030851918761
-0.254389677352914345
-0.0599026305043672685
-0.0959501170728659092
-0.139732879558459727
-0.192049842763632017
-0.248818678944500132
-0.0313729478694268135
-0.0505924793871932454
-0.0745000080519206132
-0.103803504744494818
-0.139246376993971993
-0.181522039089164922
-0.230986634413549691
-0.048785074164505067
-0.0629776170796718937
-0.0806033212348769151
-0.102227424912489179
-0.128458528778159553
-0.15992396868934336
-0.19738274361762409
-0.0614245792405512456
-0.069885244289999357
-0.0805579577055182405
-0.0938342929901299222
-0.110226344412148139
-0.13038699183327343
-0.15523649493887029
-0.0698275792920713678
-0.0720148251858487715
-0.0751111301862007613
-0.0793123646550003697
-0.084867732676603469
-0.0922115962732144856
-0.10212942655852679
98.2388060722013279
1880.85476386058508
10.7648330604302576
1869.78917554560076
0.726679818777478337
0.701021339882504146
0.739065183642587331
3.24750521208873177
1293.13283488421234
0.515476525166803645
0.466591938560401043
0.455047074857100775
0.939362762795354245
82.0302053623567389
0.357898181369591895
0.343664125519865415
0.33640627961623093
0.474422713664157725
1.65534559076626442
0.26756738223018528
0.363610701114911394
1.34644457566568532
0.739749404971163815
5.6087963931530318
0.19907361580451266
0.161287954152405572
0.387821450306873261
1.54912279744819159
1.12693074446888208
0.124734366167329275
0.0865439883665531096
0.0495473491703695076
0.310145082318024901
3.38156925569625866
0.0579991332884458172
0.0176269707849192325
-0.0261956837242436624
-0.0602635632207523669
-0.164927896131482787
0.00476939063678795145
-0.0361834789248851457
-0.0851034659542943411
-0.14858747088042823
-0.228043617131630516
-0.0342729726074918681
-0.0733747251689937097
-0.120877862088294014
-0.173839092522536875
-0.193282195353364827
-0.0604281134220878008
-0.0952043686633849001
-0.137329259003646342
-0.187124315299653787
-0.245712322263405475
-0.0756693430594380517
-0.10428729793460069
-0.138894517344719054
-0.180134879961876382
-0.225489731770670609
-0.0824908137878782172
-0.103936949775586915
-0.129953445205506279
-0.161075930231940723
-0.197818233214966249
-0.0831574488305079074
-0.0967086270728502589
-0.113535595767057768
-0.134381182447277397
-0.160279777981203658
-0.0783802023466578651
-0.0831432465516939306
-0.0895361034447934717
-0.0982093580186472193
-0.110352343730441324
409.530749208138843
1925.34519531100909
16.2140612258287113
1937.14904860562683
0.695146911523258137
0.71154073954117214
0.716152840363068588
6.20958860661328504
1598.42554452593868
0.526299130601567855
0.476834245169233228
0.446087470956969101
1.82756873127562502
201.934565455996164
0.367959509589946554
0.386522602190581988
0.368293382878972897
0.762968336980932027
3.03241638369165978
0.270937040563351772
0.375963343044209253
1.8340641758575893
0.838751440279302374
4.13254139383376984
0.199119509170297304
0.17714614442654511
0.347439687063667901
0.219246527075862674
0.324616803039791901
0.12439066845934077
0.0895982311787373725
0.0485977798684470441
0.0642589720288046923
0.0209499602327218315
0.0583884663836879356
0.0218572484588632036
-0.0166102745652928659
-0.0148103778279012211
0.517735289778754493
0.00505448693569967005
-0.0329358535074421171
-0.0706009237671705314
-0.123190079860689292
-0.1939576189418869
-0.0343536829779147318
-0.0714099026989172547
-0.116908722314345695
-0.168785412948897762
-0.106689912314112539
-0.0609482211806101695
-0.0945516487927618998
-0.135368346708609338
-0.178842251125370666
-0.232052938673500603
-0.0767037780552168452
-0.104619952300501015
-0.138341341174270077
-0.178844109194622208
-0.225758168056797881
-0.0841658796600654596
-0.105356959563171926
-0.131019013742141421
-0.161563875292413978
-0.19666926890585365
-0.0855396562542230787
-0.0992915247032372245
-0.116442083499088744
-0.137770621643208829
-0.164317332566479346
-0.081429492359307229
-0.0867172448769957527
-0.0939167804655116623
-0.103891203191823947
-0.118110788756998555
629.903424767247998
1994.37659513546282
19.5866230765866618
1968.9808958889198
0.69921256990546421
0.706434272657057716
0.708487220426254893
6.42641258130583815
1686.60806700856187
0.540221565354887967
0.468621928613856487
0.463227859109139051
1.91622881543783175
310.290978227633161
0.372365960204574797
0.352199181264165384
0.339300766988582303
0.907100113976123223
3.82690750313882289
0.277223624132518165
0.312697055904920973
0.475287191929449349
0.688673003646200987
1.57692796852760431
0.199274983295152863
0.179125990477005587
0.332087143600928059
0.288814400243678937
0.342124812093281494
0.124037222988401419
0.0907017819623490845
0.0840959489970940638
0.577936445220044837
0.24406136653104149
0.0585366222977116574
0.0259212160625662096
-0.0137890893128791211
0.09106887324174541
0.83409233816315409
0.00481137771190355643
-0.0309673538311182536
-0.0679774052870597695
-0.081066460267802648
-0.00230324534043700648
-0.0346991101939967406
-0.07010450017462376
-0.11059157759592729
-0.165779950731346964
-0.187271208906808123
-0.0614942418851935763
-0.0940093578177092909
-0.134011883457088449
-0.178875865732708611
-0.164565113002724556
-0.0776000585128804599
-0.104833131193413934
-0.137705892658276541
-0.175930209659135944
-0.22289042029691461
-0.0855966356122600941
-0.106460909697624909
-0.131608569866241532
-0.161246743433403339
-0.193826675553759348
-0.0876229573945723761
-0.101503572876792042
-0.118849098455917596
-0.140430988649947019
-0.166957484276791496
-0.0841488782447935846
-0.0898993628425516222
-0.0978203369684889773
-0.108738634956251579
-0.125408572500940618
813.342481819055138
2024.93821779801215
36.6495190820552423
1971.51865912126686
0.653038246425247992
0.645793380717189613
0.557010412834086033
10.9651681689275957
1782.70032659894764
0.520089566682450988
0.445541139873748326
0.412745845857349358
4.12748496265190301
484.166520476649964
0.3875882161858763
0.332268701232808217
0.363210170034026336
1.38552495902156858
22.6365033134386522
0.28464651813168973
0.26809352136041581
0.244277201713782754
0.486796601377147919
0.721047125179077764
0.198990427860931823
0.183995136541610399
0.335658299943611904
0.203647946291767939
0.0805855452216668461
0.123241284712330215
0.0933660242498345339
0.0735044434445381312
0.751723185408107009
0.142949804328660945
0.0580138830731049202
0.0286302890037884485
-0.00150739714050643825
0.0329780771354236668
0.25805300492021277
0.00421952167511807034
-0.0296023778766182424
-0.06320865791736624
-0.11847266214294512
0.297804155920660896
-0.0352148378700647482
-0.0693230590212750297
-0.108960886609979504
-0.152319297317491942
-0.100528774164120149
-0.0620258765164495088
-0.0936551017556323945
-0.1321437032305538
-0.174507548329315754
-0.165817787187778953
-0.0783307032355379518
-0.104928373569931954
-0.136906030711778648
-0.172789817508254728
-0.216292839960816774
-0.086747290892192977
-0.107250404513446862
-0.131773874906753435
-0.160194441499371842
-0.189747643350419548
-0.0893432972430158318
-0.103279944847232019
-0.120686534347416163
-0.142284227397138113
-0.16801972438043028
-0.0864374945517495247
-0.092563840622111232
-0.100953354310136384
-0.112875704273753666
-0.131405145492800024
966.828787996910137
2025.52919356974894
30.8788293992509075
1972.91466230093033
0.646441229201259904
0.642691344193952685
0.730681814878425651
8.35691590204985602
1875.2033060983531
0.583837278981958807
0.542979314375477862
0.79529453810023254
3.03861292503436475
748.734600441241241
0.39951449318944432
0.383690484197869885
0.671153157236634823
0.984005274228903049
37.4171416836356627
0.292092447742314909
0.2963618720444261
0.356240881292991196
0.337987572145434567
0.141484833533712051
0.198761820401888611
0.20040276636371418
0.331780305026311728
0.147922426241398369
0.0497821324506010771
0.122988154053842697
0.0977062124963058859
0.052483549875504118
0.542088642381491348
0.0294148113920470675
0.0567224376722682833
0.0297774735092599593
0.014452321486253028
-0.0202820649720076886
-0.0528480655380432277
0.00350716390171083555
-0.028010954208385376
-0.0430259867772888119
-0.102193940380755091
0.0940371232065677076
-0.0356086728824586835
-0.0684952948467495992
-0.109367617480078561
-0.143179069314317731
0.335818432722530424
-0.0624681387959624898
-0.0934144921563310887
-0.130638631093711821
-0.171142502620214576
-0.156448280806239903
-0.0788660410535436396
-0.104906669907112976
-0.135976625578057286
-0.169393123243927635
-0.204345834390620373
-0.0875898166767733466
-0.107737231148939919
-0.131603383453151868
-0.158758017171949178
-0.18727261680176055
-0.0906531265916191709
-0.104574043365520952
-0.121887280593382843
-0.142965729771342226
-0.168098964516981891
-0.0882209716369165148
-0.094630962791950074
-0.10331532593592796
-0.115917398180081468
-0.135713056519754349
1160.56114751382233
2013.0741650310224
53.1676279463785306
1985.1879809428749
0.621596869158143051
0.617196042799130096
0.854356827640187944
15.5294635084996724
2001.43859606950537
0.641330653940636375
0.576416248103193585
1.71000151465423955
16.06830255070577
925.945920887143984
0.416904524528670273
0.651243258006612979
1.60440084782088843
4.67478195379548378
39.1926265059985539
0.295108218992870486
0.302373654224813604
0.272809420439938999
0.203152578682617296
0.060016485785496218
0.198664608805418808
0.180621321779210808
0.141741613043338405
0.0974990041460251089
0.0247030149538114766
0.122096341449789772
0.0956517320718064529
0.0957822678554116624
0.140445172398775908
0.00296171386214172123
0.0555569956476962973
0.0309992610553621595
0.0562900418561634378
0.212992860001887052
0.0267586930009007483
0.00327021265082792865
-0.0251284225346450653
-0.0430023626044831464
-0.0735298144566646772
0.0703507882480401969
-0.0356943517664241802
-0.0675154254148768174
-0.106994354024252655
-0.151155085390737964
0.587856720414735912
-0.0627129062220439931
-0.0930489258880265874
-0.129097148031058623
-0.171058514428795827
-0.0953984287326018754
-0.0791921851592831266
-0.104752266265368571
-0.135078915718259501
-0.165898058427252221
-0.195391584554489628
-0.0881327353076190728
-0.107995666214008024
-0.131268199320106832
-0.157184297788969307
-0.183446249552408375
-0.0915344114772561335
-0.105414759295795968
-0.122430074208392053
-0.143228133280807995
-0.167270407093210588
-0.0894423235851225934
-0.0959873147970386614
-0.104935808922883358
-0.11791881839353377
-0.138356210105781363
1299.32630755192122
1992.69350852105117
54.0863062489287643
1949.91155186754713
0.661806751614852251
0.819598367682101259
1.07665380440062375
16.5817815012364598
2010.86912817462871
0.581522694682642172
0.896426228182699014
3.58548699234928181
14.4271879008976889
888.486972835476877
0.449469625444506915
1.68562387432496341
3.5237755273343323
0.708441184622533138
31.4214039844501869
0.307726044120593956
0.278076121708832724
0.226600679872402011
0.128764265575008668
-0.0278697756403175935
0.203323413738410036
0.179069432691125768
0.136052723282861221
0.0773344738189932629
-0.00406111033968009974
0.122708474554312927
0.0952242064614280403
0.115289826419446295
0.138521886159924557
0.00389789811016400542
0.0556725757141830757
0.03112480551586869
0.0524677568630599819
0.221444538976777267
0.0387392396964604188
0.00337908581858224755
-0.0237802098979253869
-0.0558717382250025346
-0.0895775145175598531
0.0645581673458294758
-0.0359597278857889946
-0.0677968135010092732
-0.106356302118604251
-0.154486774341170446
0.387246780067279639
-0.0628863094974080467
-0.0929953948854767287
-0.129390209742784146
-0.167222629685007756
-0.185641903268275621
-0.0793783038168178329
-0.104730907124721495
-0.134737339671408274
-0.16782767686020611
-0.207052570265143704
-0.0884121731236666569
-0.108157730820182485
-0.131259084738888948
-0.157019425362861398
-0.1826152213330762
-0.0919888640093793203
-0.105883733120822374
-0.122670210387793063
-0.143442209410812233
-0.167256185869530782
-0.0900742116459529313
-0.0966816665915610912
-0.10577479429905301
-0.118989429878999325
-0.139701596475090922
5.49922826536738274
10.3575814940871034
13.0410062836412539
24.1562909002776394
1.58324231282563943
2.59132916923632228
6.07767525895918226
13.18995666139074
16.5625139336691518
0.897574820902918291
1.02608415043571455
2.51678090511404573
7.06284843069360413
14.9303688823236005
0.508944146879077075
0.6102479069716783
1.27551763349448799
3.74969956087989198
7.98587894858445502
0.319389054447762943
0.383256899743463941
0.811136768076708647
2.34616895313830343
5.86305686642691626
0.211143412729051405
0.203106556712718794
0.383545464682152781
1.10793258872282041
3.09015488306584363
0.124322793715506419
0.0665903973725129467
0.0751206412108336025
0.423129262242730841
1.41920944861526643
0.059237570027763975
-0.00286912611561034384
-0.0704166134911721336
-0.0785427707389792784
0.196608013445656343
0.00790535067216394799
-0.0494040827664447776
-0.1194002695535306
-0.197132415185989063
-0.230119356943318865
-0.0276994618815891817
-0.0764144108746197398
-0.135382050618124583
-0.2055122806602592
-0.281840783973458964
-0.0503156517073720874
-0.08955724296717546
-0.136563793812364914
-0.191875647614280415
-0.254572965796752704
-0.0172616004847309032
-0.0373617715037454778
-0.061992924406790606
-0.0915397884137244544
-0.126213805647512167
-0.165934124306032771
-0.21039385661451826
-0.035048408269076764
-0.0487859985039986732
-0.0654917553985167877
-0.0852848472907932059
-0.108116867956314561
-0.133742367295752812
-0.161578309306619067
-0.0474577059376089794
-0.0545454218404547025
-0.0631850603228433644
-0.0733759222717235288
-0.0849873129411459899
-0.0977080862652511262
-0.111002430339582916
-0.0548900397905549703
-0.0550097120273419435
-0.0554230310956503325
-0.0560473374401388238
-0.056725927737477623
-0.0572216646845647089
-0.0572294660830044849
1.77301677485799525
4.75836660159030522
2.72370699501667746
6.49991492355902967
1.71535201138234239
4.01085033590361739
7.58857465710126267
5.17875951501955445
9.45512370113528
0.960543271798089959
1.41762608328937145
3.92470077080646806
6.48320793762577097
9.03063332440561517
0.5309366511782041
0.748789104550110163
2.39146983921636647
4.91261143659808308
7.07725669511374278
0.343524135540838438
0.47574737016399643
1.07404338058840865
2.95185512740585976
6.84018680218633257
0.213535698903564664
0.209590230586132048
0.348460410378478525
1.39959595984785667
4.4408305654785547
0.129554231170423806
0.0641225779065551227
0.0518398452244844404
0.494233937509142685
1.22592347516458355
0.064854812399904177
0.0012203561006146359
-0.0699957187335768227
-0.0239916406253806135
0.0705770450361749013
0.0103924329182752684
-0.0471298627932046216
-0.11870959449681609
-0.204696592869447525
-0.280023781100938396
-0.0270800318189315971
-0.0758026772870045162
-0.135337008313858781
-0.206228873813837449
-0.28997029097475846
-0.0506606741137148667
-0.0900502438142229827
-0.1373704818914947
-0.19296479264115432
-0.25677426940306064
-0.0179092066353053227
-0.0380018876599274302
-0.0626879238879854972
-0.0923983160769731859
-0.127410965721913544
-0.167753176064137338
-0.213208686292029465
-0.0356235019207899531
-0.049432972401157467
-0.0662447377433371537
-0.08623212726997595
-0.109427149969231766
-0.135637520083775942
-0.16438022518331552
-0.0480082008880003339
-0.0551789437146508396
-0.0639389802227993409
-0.0743139329492845391
-0.0862118287073446177
-0.0993822459670457153
-0.113361033182465362
-0.0555325405860496932
-0.0557540701605944294
-0.0562935600434037522
-0.057072934233541546
-0.0579444979127135343
-0.05869481287785068
-0.0590605554415446349
1.69444534248631129
2.55181166410149807
0.929948781708095251
2.58423584456803601
1.75476424879749326
2.76119559005070991
2.41065796383579212
2.15433859687428031
3.89717768334999715
1.11935677181004256
3.32486709255027302
4.13112843589176659
2.10365695453149204
3.30118369362567154
0.705912193269113475
2.45798633389174936
3.43337924371138836
2.78827343374554593
3.9335692069510797
0.476818212676715814
0.774268655553416396
1.22123700078852471
3.34257504194978061
8.64199649850047535
0.241714204124818421
0.172360066469435053
0.369850613629265634
3.45765952788354891
7.81809146264380228
0.145898701469445641
0.0632773503773634699
0.264415687746668404
0.614339898887437119
-0.00388337246163681336
0.0717285792518733145
0.00588841571820762546
-0.0792668937383739641
-0.178093162332508076
-0.239313450788472132
0.0117489348605267479
-0.0470295263378182199
-0.123629556012400776
-0.219127682549615843
-0.320524723351695962
-0.0274932891779764502
-0.0766639927511809649
-0.137801158418206865
-0.212572789424106623
-0.304005402321014362
-0.0517792596103245281
-0.0915402562406118919
-0.139721012545630713
-0.197112024734866748
-0.264933682571328599
-0.0190442026657656194
-0.0391882392616912656
-0.0640436923259317531
-0.0941378824962638278
-0.12989664358102701
-0.171634469647922339
-0.21968815950592821
-0.0366937605321834073
-0.0506197395710369924
-0.067642102528829337
-0.0880120618627353024
-0.111873843389496505
-0.139223807793117105
-0.169897628589031152
-0.0490365004165676868
-0.0563483287861009929
-0.0653272733606565514
-0.0760415515754198773
-0.0884716825444934879
-0.102478061351682637
-0.117760873130373978
-0.0566093090281669722
-0.0569911167603703028
-0.0577393515082684008
-0.0587925860041055084
-0.0600306682280436973
-0.061278048859827329
-0.0623166624362690505
1.20774822602628085
2.03489076703203153
1.10722345397759625
1.29374521483128269
1.31922524106769146
1.47235576000102797
1.61776565610685497
1.02617050589042202
2.36701218149698711
1.22476055149012897
2.02983374069779243
1.69320682012961776
1.59967777120556454
2.05406422152246071
0.949428871296485011
1.32530386723972904
1.17732577502983604
2.63263569051185709
3.84884060533244021
0.418099340783191498
0.452442211065648026
2.50649715140916118
6.90363685978071651
7.47496032124115661
0.228723424081494126
0.301120488543864973
0.827955424245752525
2.37623872588248553
4.81004671538630113
0.146422887045310507
0.144747023655907525
0.269829464823764187
0.156582251529340133
-0.306369752963335629
0.0700521433433753116
-0.000439156350622486565
-0.101493294136442425
-0.224978097748837091
-0.343455428540603236
0.0102893509367564893
-0.0491981841541510381
-0.127089474412461184
-0.224425730347099339
-0.331167733581011703
-0.0290632946429805333
-0.0785305891069598555
-0.140446109576304629
-0.216343514853183705
-0.30845715339347185
-0.0534611873225843692
-0.093531547497985576
-0.142412851652683831
-0.201116444795128302
-0.271131856704487362
-0.020596106604446926
-0.0408015740860866102
-0.0658341754510601701
-0.0963245061147254139
-0.132856393286134855
-0.175984978935634695
-0.226406811654304263
-0.0381683547785937605
-0.0522388198602063217
-0.0695135432058052588
-0.0903310892069654897
-0.114969756138169898
-0.143622725978312271
-0.17643664918522059
-0.0504894682620833438
-0.0579956147734198013
-0.0672612122529283873
-0.0784169994698315498
-0.0915348570257249333
-0.106604057560630766
-0.123521421337055404
-0.0581290097014801957
-0.0587344722626458732
-0.059773506224088363
-0.0612139511382617796
-0.0629721922611398144
-0.0649240239374503231
-0.066915029233791376
1.34301356646010661
1.98028597538415663
1.29476097028015524
1.53370905931057711
1.051796601101886
1.09499792785810879
1.35255042113655866
2.10305601421184463
1.5276228082613843
0.902462975796165967
0.846505979175524947
1.10078803354380161
1.66248895135181107
1.83689240308845991
0.534240209437660818
0.570300153262253917
1.21532725511799522
2.91025714668718649
1.74963372538189232
0.305501123506517147
0.251988817839426282
0.797439554328030042
3.40743302563947825
3.73685010236200599
0.198446383193938036
0.3427759350775475
0.572643986583212805
0.17695442122492902
-0.0573751703366662744
0.134602282578019816
0.0847165923249518782
0.0343897242930641528
-0.165311941532849199
-0.147995507245292812
0.0628375544562249644
-0.00688249736388598862
-0.0999281152237679465
-0.197439227398619022
-0.256431328175680984
0.007236989834220507
-0.0513284911199128474
-0.126240554969685698
-0.215356895038203655
-0.31771880316924539
-0.0311549577524804361
-0.0801509917858885673
-0.141173052605765792
-0.21530618628214962
-0.303271679491236457
-0.0553196218620251312
-0.0953115605105432084
-0.144158563058602168
-0.202867572593861262
-0.272750344507853015
-0.0224873876409848357
-0.0427037385945101128
-0.0678177467690299907
-0.0985303195875174564
-0.135518035458900066
-0.179459596462601567
-0.231210283134794747
-0.0399784214608511768
-0.0541788807714552595
-0.0716828412810785742
-0.0929077971043976159
-0.118244020301488076
-0.148044439725459304
-0.182709925563640213
-0.052303076184179606
-0.0600225390223170646
-0.0696040659446666432
-0.081243749487137959
-0.0951039359428119124
-0.111310279248308608
-0.129972629752529267
-0.0600310059989466183
-0.0609101887648434287
-0.0623076700016559556
-0.0642223328435913982
-0.0666160327519778744
-0.0694307250649069674
-0.0725964752450196926
1.52301348923857138
33.5681760377949345
1.22153993473257239
50.8644911704073479
0.900148835145454962
0.892938413293037025
1.0039729814258973
1.45979863741070348
43.1863566676863542
0.629014142361303041
0.704690121090761901
1.50055454614976602
2.22581479128401982
1.53123299554204406
0.395752681103230586
0.448862084531277905
1.12775297510645656
1.89338473639187166
0.81613472416967292
0.241984355312250848
0.249349706621694228
0.39544838736058463
0.175781737633844276
0.289620952077381144
0.178515403712359827
0.132486079414379232
0.0851020050215944429
0.0433624013524624985
0.0913950683705182509
0.124297324171097831
0.0495107619283047945
-0.0400771652095754521
-0.125333594154534572
-0.159666033863217149
0.0572516406330546082
-0.00664738523170587455
-0.0865875616077989713
-0.171788115153266141
-0.212311219977699611
0.00470189553553989649
-0.0510740553697475244
-0.12072489115988104
-0.202443002654082299
-0.295211645283667556
-0.0329218348676931574
-0.0806031899212359265
-0.139511214120471377
-0.210486448887331701
-0.293058155076202864
-0.0569990004718772952
-0.0964529402298818367
-0.14456350559956227
-0.202286605273340053
-0.270620746336914908
-0.0246104283261610636
-0.0447404818029717571
-0.069782458762648894
-0.100464152017348457
-0.137508437124218008
-0.181660044222008821
-0.233862418135669992
-0.042040700394646198
-0.0563233165541547967
-0.073989513283042832
-0.0955152609159301696
-0.121372444555527634
-0.15204377277413525
-0.188145908389709321
-0.0543972973724258582
-0.0623255011224545172
-0.0722220108274005679
-0.0843407703821672794
-0.0989303361416950244
-0.116258683108631453
-0.136660004190717055
-0.0622372037192632441
-0.0634291141225453714
-0.0652310484450400324
-0.0676765735010333713
-0.0707865119951724825
-0.0745870545954092912
-0.079124858585450264
3.20357772204055236
967.845832554640083
1.12233682967177018
740.067976576664705
0.800434502019707006
0.759997510822394973
0.845397866948290666
4.87673143134933884
145.320585206028284
0.564221102050429857
0.562357159888852931
1.05740927858795564
5.38884508847025145
1.59652613894651729
0.37220664342265658
0.373352840165485034
0.788151090161762657
1.25166380202538408
1.086362837425076
0.257155906666086842
0.227238153439736912
0.26765096126881549
0.364389911312357873
0.378325821401986118
0.185374473920544958
0.123873205162391212
0.0713429066072611695
0.0391383392185854564
1.27322641183574747
0.121790221193861056
0.0603261499096360565
-0.00726850579310798963
-0.0622124496268753949
-0.154844509278586701
0.0553269594619239108
-0.00162665676222898152
-0.0706699152489753957
-0.149257786657402663
-0.233534958972384715
0.00356091913074899373
-0.0485281120008167546
-0.112740096412395213
-0.187879366432991551
-0.265670132648512691
-0.0339564023791706776
-0.0797278708748486303
-0.135944314675756101
-0.203158663252558852
-0.279718550942317956
-0.0583180248220936878
-0.096841480911277894
-0.143728384397805053
-0.199878911068284926
-0.266060594828168906
-0.0268529264255155074
-0.0467831946534222123
-0.0715798837353319034
-0.101981250119564409
-0.138732396983274164
-0.182612735680115351
-0.234622485673133596
-0.0442542783644091706
-0.0585597469398845619
-0.0763005086879935679
-0.0979945350572948154
-0.124171269806739593
-0.1554141824615074
-0.192503203850322685
-0.0566712974483796136
-0.064800589212915316
-0.0749931306751788901
-0.0875555316053048122
-0.102823844422306201
-0.121206602916106743
-0.143258710404446321
-0.0646647521282262688
-0.0661901642303988208
-0.0684193760306007343
-0.0714320535281609686
-0.0753198852367244071
-0.0802130442086359946
-0.0863293628500495652
13.7919939903185931
1607.96343743611328
2.07998730939290866
1524.00365299485179
0.724204276749961351
0.711923411179526511
0.720007995848369831
20.2939292245436604
622.277336208209135
0.516150348853927077
0.513144074984137499
0.500218245645397186
4.42032517654432233
4.84646748858192566
0.358970374274371007
0.35851744656613338
0.492138700910978888
0.464247527075295152
1.22765048499625751
0.270929788682818307
0.231371245025806277
0.258877956367726925
0.626501418922720599
0.538838537090317371
0.195204375579140971
0.148981539216670206
0.119051977042919602
0.103289387628258816
0.726238753677214799
0.122988613683171016
0.0728581106793166067
0.0247818831787064119
-0.0141168400706167402
-0.130606874339582874
0.0557789401001084345
0.00545442867344024702
-0.0540680873396637632
-0.130955560160929213
-0.223750707679048311
0.00357268016240574896
-0.0446245110577738816
-0.103692733616414234
-0.172538737620925753
-0.224385277257655336
-0.0343353134217137743
-0.0778926897790906819
-0.131182848953993875
-0.194408800754480277
-0.266286468169930013
-0.0592581283637772308
-0.0965969210882449553
-0.14198647513116408
-0.196289661465680582
-0.259707294501536068
-0.0291272238590343617
-0.0487476821188142576
-0.0731493146237194025
-0.103068319713593343
-0.139261215076638384
-0.182512613895145864
-0.233685507422930178
-0.0465250377237853008
-0.060798964423648745
-0.0785256913397255479
-0.100248723848673657
-0.126541092473838795
-0.158044782720177884
-0.195608705909790515
-0.0590387491986848131
-0.0673521734491830254
-0.0778070495269659046
-0.0907577441315869232
-0.106627164853022677
-0.125948970284322781
-0.149492787343458555
-0.0672266886159109678
-0.0690849284054175505
-0.0717503296637399257
-0.0753557902462948376
-0.0800705048371672251
-0.0861618717750929214
-0.0940753853455732064
69.0595415829675119
106.640220756710036
56.441443695271758
88.2928023491155471
27.9819483237832927
47.0164204005523487
83.3242702782409594
13.3921345515675743
28.0593145992992916
50.1098500826602518
81.3151984542655555
87.6964217016485748
128.987439919701956
67.3684484303818607
108.835862009683595
27.5819708950293219
51.703642659883954
98.0081776297807892
9.28926571107566801
20.135017804686985
47.4373695871142971
93.2542839541034283
128.698397480236679
222.912135289421371
99.5897829680534556
217.525070284694692
39.4856499204957103
85.3514979652727845
271.134171918222876
8.13304284139683098
25.881960352087944
93.3276093917830423
363.897886980290195
592.03035477060871
889.348293717159663
590.063680473781346
777.341605762753943
99.91754715195232
623.447713780507229
679.807414861853999
16.5059475081866331
122.538136747185575
621.516664553546548
603.983807565718166
1135.72401753624104
986.613058289329842
1012.61748456095415
764.395466713081078
898.871934003867864
882.406482888764231
696.174783010642273
183.870868103205993
773.947824826483838
772.032603706885084
473.745276773957528
879.374581773941713
231.674803650086318
841.315523326967991
31.7821826089835504
1093.82376057167926
519.961033098894518
25.8119453763353839
1017.09002624157415
945.863288051927611
154.01676880827165
0.552626993587867932
0.767575808914245261
0.152639808583703601
0.47460129411826335
0.212588871285993214
347.340694438332832
0.367322374052142908
0.23592176295980391
994.03437488396105
130.808835253743354
0.365421020627376691
0.241451901291354076
-0.655374663943925961
-0.593001925639950245
-0.501145485406563229
-0.389537445376308689
0.102149587882467585
-0.268392173433807946
-0.228755717362245314
548.042685787473943
0.0503629427150838541
-0.0873228578230556413
-0.0834733636066225942
20.4914609081802261
34.2209733876357021
54.730710223459063
92.0307619559715278
29.1930808477842803
47.2702663385700106
93.4367702779625802
118.389278326904218
32.5929615936182131