/*--------------------------------*- C++ -*----------------------------------*\
| =========                 |                                                 |
| \\      /  F ield         | OpenFOAM: The Open Source CFD Toolbox           |
|  \\    /   O peration     | Version:  2206                                  |
|   \\  /    A nd           | Website:  www.openfoam.com                      |
|    \\/     M anipulation  |                                                 |
\*---------------------------------------------------------------------------*/
FoamFile
{
    version     2.0;
    format      ascii;
    arch        "LSB;label=32;scalar=64";
    class       surfaceScalarField;
    location    "0.330000000000000071";
    object      phi;
}
// * * * * * * * * * * * * * * * * * * * * * * * * * * * * * * * * * * * * * //

dimensions      [0 3 -1 0 0 0 0];

oriented        oriented;

internalField   nonuniform List<scalar> 
20536
(
0.000467538599143594094
0.00035840342465444288
-0.000300600424271281507
0.000260488808885675418
0.000744487720265680163
-0.000718815034805341262
0.000890882151873655863
0.000323411756698642992
0.000409392116492646868
0.000308937635995745502
-0.000106010669943479025
6.58094255865041683e-05
0.000630483843852149874
-0.000585893022229639444
0.000720050176610128071
0.000389239094713914437
0.000121765640315930375
-0.000489918574239520078
5.59278274029631351e-05
-7.34992775372739064e-05
0.000143658068669487752
-0.000265216333292924702
-0.000108212527664321146
4.84292923145013805e-05
0.000236301054948156878
0.000151411614719398056
-7.3399413418795203e-05
6.60450336944372096e-05
0.000199346220587953704
0.00025101312835744226
-6.52301354692773539e-05
0.00016010787824341185
0.000361531613250351113
-0.000458714744889637263
0.000516879192769853935
0.000410134548045366833
-8.00920835847832241e-05
-0.000439929396524461631
3.37752111269714431e-05
-6.71366832261740301e-05
1.24150392863174808e-05
-0.000248375430464510506
-0.000135889333129724882
2.65397624739062559e-05
0.000168686031901746575
4.93273490792229494e-05
-9.90765924652322813e-05
4.48919432872813145e-05
0.000141027166474484537
0.000179017221445682982
-2.86314684759457711e-05
0.000128282147054003702
0.00016244068574229381
-0.000283442356725660744
0.000267397708854919913
0.00035616197781729135
-0.00017548961094143324
-0.000398061926681393414
7.50719959076149207e-05
-0.000107826308642172916
-8.57501583926825663e-05
-0.000301066670335146502
-9.18044065542534827e-05
5.47553581553171783e-05
6.3386840150680477e-05
-5.81543558282572053e-05
-0.000304372492497475276
0.000262707244269618629
9.74926501930530921e-05
0.000107387250377387219
-0.000191875750167012427
0.000229396621138655928
-2.53516226609283059e-07
-0.000186833500834193797
0.000213132031284733747
0.000233887300148356153
-0.00020507060314164439
-0.000343651537970008324
0.000150237310947150601
-0.000171637641297718525
-0.00019907081922673791
-0.000295176295051955979
1.1220823553196197e-05
-2.31122747854741615e-05
-4.98104256446395762e-05
-0.000146414706768697805
-0.00033511830795723526
0.000274120717638230455
-7.70979970566611217e-06
3.52791510905471227e-05
-0.000395967308881076097
0.000425971311406675814
-3.08646767110143947e-05
-0.0002708044113404009
0.000333654056604104502
-3.99471838160494336e-05
-0.000138366121273993733
-0.000290153308481489402
0.000160143772888233192
-0.000199275144036559351
-0.000148690596119910068
-0.000266856529048622017
0.0001531010912344934
-0.000171099354736216661
-7.40132264198545427e-05
-0.000205353395547624437
4.54085791657727776e-06
-2.02826331780417565e-05
0.000144171396233345409
-0.000118507681887819818
-0.000280261430652612874
0.000215861538760353576
-0.000202190427906764317
-0.000273243635582259728
0.000282967269435056422
0.000305772321736837475
-8.50598973228250529e-05
-0.000267265228503920683
0.000132733262424096862
-0.000159034128324624373
-7.56704648440429496e-05
-0.000249061584793190726
0.000152529881111386777
-0.000179714570101250097
-3.02588314917582121e-05
-0.00022407956253603462
0.000121607922662683238
-0.000148295246304559351
8.41559470871552657e-05
-0.000197337532935304514
1.16633100545773089e-05
-4.7246697086867804e-05
-0.000261729766909601729
-0.000104406843675577238
8.05733096279146865e-05
0.0001675277649664102
-4.81922851495665181e-05
-0.000263104272721952125
0.0001102857965371237
-0.000124195194023485008
-2.97553616225157817e-05
-0.000253358951445326953
0.000130436246837149105
-0.000144580103491989069
8.86294124573188633e-06
-0.000247765093871816187
0.000144658811898423203
-0.000159596507051209743
7.78577512315849652e-05
-0.000251633778362842517
0.000139764954858601325
-0.00015446220239026637
-0.000254519052848192707
0.000100974168389293529
-0.000106313799723263655
7.59893020570414279e-05
-2.91597745209855785e-05
-0.000263171192676767856
9.62836396555072994e-05
-0.000106597538828931827
-1.26215613584751052e-05
-0.000258904266788190132
0.000110812458384681648
-0.000121808082862438519
1.1671163933404751e-05
-0.000259966809178760493
0.000126910055400961369
-0.000139002989548028339
4.81793385312520497e-05
-0.000270985078764824153
0.000138491383326692273
-0.000155639515698427516
-0.000288917232945478308
0.000120662833543634266
-0.000156262338598752636
0.000118187450513153799
-2.18379313642666659e-05
-0.00026454721171957434
7.96090674438303223e-05
-8.66831249355627193e-05
-9.48308190444296212e-06
-0.000263122573460041788
9.32905838851425971e-05
-0.000101425562440185543
5.0473224954666185e-06
-0.000265314779433207322
0.000108565899818023967
-0.000117745046992270391
1.92455673457123035e-05
-0.000274058652447905907
0.000124664547013673288
-0.000135789638368610804
-0.000289687840459695281
0.00013355623174859512
-0.000146796276789211433
3.32552825800638873e-05
-1.86906095954366383e-05
-0.000264630520073538779
6.31626524599773656e-05
-6.81422677119672177e-05
-1.17103447183101862e-05
-0.000263968143188499419
7.39027888842569625e-05
-8.0035015991318162e-05
-4.24254440356639385e-06
-0.000265365471595844452
8.61201431413617148e-05
-9.35433800373993454e-05
1.29845226304733187e-06
-0.000270370504369262909
9.96274034779485616e-05
-0.00010886888934178125
-0.000281706717279372998
0.000111344421595560366
-0.000124889357831140955
6.85675490185610036e-06
-1.96392932186411937e-05
-0.000267790598635356031
-3.77055448578606715e-05
-1.78998273302822203e-05
-0.000265518670637735464
-4.42928545925102649e-05
-1.51855847592847981e-05
-0.000263860293541170739
4.86004570294077767e-05
-5.20901834564438341e-05
-1.17835250584934136e-05
-0.000262909845291852545
5.67275589753238059e-05
-6.11934998159345935e-05
-8.67642422122704817e-06
-0.000262722981459980463
6.58925661693203957e-05
-7.16441446915243806e-05
-7.84943914529219141e-06
-0.00026358747275312931
7.57600705706870501e-05
-8.33680972802327706e-05
-0.000266939657977498875
8.48219315734446256e-05
-9.6445174881345017e-05
-1.09991753367729201e-05
-1.26842588769164898e-05
-0.00026700914607836199
-2.72571051644120976e-05
-1.16705657927714989e-05
-0.000264836934408015491
-3.17455628053750461e-05
-1.02184918992653551e-05
-0.0002630944504247046
3.50165973080761604e-05
-3.72369668711625745e-05
-8.52479644233054159e-06
-0.000261746273138363148
4.1016468635291653e-05
-4.38719501455758724e-05
-6.93527495170138456e-06
-0.00026061141846936024
4.81332903557667142e-05
-5.18380543802497479e-05
-6.26443287957242407e-06
-0.000259305488996857856
5.63061668970172899e-05
-6.12605616000088402e-05
-0.000257687262563382319
6.56163405688820725e-05
-7.2244625556547502e-05
-8.89247626325820356e-06
-6.53561408797558344e-06
-0.00026680203343998018
-1.68920541189909864e-05
-5.8327120243359363e-06
-0.000264629904394695259
-1.95713502797221516e-05
-4.90771042821096008e-06
-0.000262852825644506211
2.1722103654741257e-05
-2.28901010490177923e-05
-3.74511073251731638e-06
-0.000261451260574674523
2.56041710203522962e-05
-2.70723660492935894e-05
-2.1894103012020857e-06
-0.000260381614965972418
3.0638316516587815e-05
-3.24321427920914348e-05
7.15552457535701108e-08
-0.000259471091731519241
3.73873892905949581e-05
-3.94829964233534269e-05
-0.000258334587773163186
4.67553028291999508e-05
-4.90479951821179468e-05
3.01873615649161101e-06
-1.97167814439012689e-06
-5.81219013057306565e-06
-1.67569505717483593e-06
-6.72412770174432017e-06
-1.29458217865604925e-06
7.50669689669018216e-06
-7.86390196615410487e-06
-7.46595935702676457e-07
8.88774493474489284e-06
-9.34260990087451244e-06
1.28245651993986811e-07
1.08120012260189024e-05
-1.13236441202550173e-05
1.74947352237961161e-06
1.37221149007342316e-05
-1.41395411774548911e-05
1.85831351340867427e-05
-1.85511214840101878e-05
5.22115985354657939e-06
0.000440924158785423702
0.000414395845985069777
-0.000319531000527789794
0.000793758535569007964
-0.00057769006368586567
0.000333171190769236724
0.000392790050135620114
0.000364384664659030545
-0.000117838306710371665
0.000714689037904946015
-0.000497068130276422711
0.000383034558331883527
0.000140896275123253336
-0.000486106463908502905
4.30329604265389956e-05
0.000157765102883026457
-0.000307370775335211296
-0.000125464266850230813
0.000174991350823397885
0.000216289381051703309
-3.55152103113110516e-05
0.000189437110197421266
0.000325417095027587082
-4.07106518430561977e-05
0.000433111595891527874
-0.000403445178513810448
0.00041574469391414756
9.7098723401060189e-06
-0.000444912293822059617
9.02257878608564577e-06
7.00224266529183729e-05
-0.000295939954236394112
-0.000207636887431492117
0.000145261540217741543
0.000143872593359595935
-0.000101908164288106557
0.000195320902189792187
0.000264603972824683251
-1.78770763232704764e-05
0.000234781478618601878
-0.000263338220979728553
0.000373546068014099335
-0.000108766041620168583
-0.000401561425978895698
2.61085961076726786e-05
3.64010342647808957e-07
-0.000325997008660828473
-0.00017087779405844947
0.000138117670104238502
2.79005954438415592e-05
-0.000326160794981643538
0.000138741165197871013
0.000197317970758218299
-0.000125213203643686002
6.98487197594420287e-05
-0.000143007497714154973
0.000259849345098435436
-0.000156143193242358475
-0.000349939031633642711
0.000108043258150136151
-0.000151621918482674307
-0.000301887194458401887
-1.74052831526214332e-05
2.36593454643566504e-05
-8.98285985767130111e-05
-0.000392675563457544393
4.18592045444217582e-05
0.000130729189349635473
-0.000347583996298036796
0.000105076276496127814
-0.000184318977547509024
-7.98534235771780621e-05
-0.000133736416959957306
-0.000295490216215581875
0.000128267381348066837
-0.000152565944002280412
-0.000267467384896702854
0.00013751263998970558
-5.84670921828121457e-05
-0.000176081249360369888
-3.30376036941326499e-06
0.00012862689499618644
-4.38369246203226402e-05
-0.000292786692061409982
-9.93921542145250066e-05
-0.000235155656466894429
0.000295008655242443832
-7.83146729316637437e-05
-0.000273871400380868021
0.000114679342863285619
-8.06772341302958531e-05
-0.000254187219221576558
0.000141607412105843484
-5.28836344548511117e-05
-0.000214130522979301857
0.000131864217451906372
5.00882859773756767e-05
-0.000160473225119868961
2.53332011817208012e-05
-0.000274524453793180065
-6.74813734734287102e-05
0.000188295877225119583
-3.60467000272859212e-05
-0.000270775081811569843
9.83982744617559234e-05
-1.81978864184705754e-05
-0.000261557714101135147
0.000119954129320053442
2.87546811815089749e-05
-0.00025198827563928291
0.000135563639140748413
0.000134787647746435247
-0.000246502483534655355
0.000119764490156468921
-0.000238936976167238328
6.6848349585356859e-05
0.000133320551446105255
-1.73182756971681344e-05
-0.000270587069488697162
8.57684589235749734e-05
-1.14192654108748713e-06
-0.00026793404593995979
0.000101013892930235791
2.51327959420135746e-05
-0.000269924758414621956
0.000118574192758988167
6.11672889727234549e-05
-0.000276804256204418481
0.00013275666685895769
-0.000273376502112206176
0.000116592345502357936
9.96768969763925069e-05
-1.0905043715828749e-05
-0.000271817589316567811
7.12644891291607863e-05
2.28071187097827403e-06
-0.000271581062339777289
8.37490813745982767e-05
1.81073280940151601e-05
-0.000275800394586658197
9.86172293173059834e-05
3.71614566157868264e-05
-0.000286548406198322016
0.000115351576654920389
-0.000301735802461139337
0.000126864014226223224
7.22081910941753928e-05
-9.63485618163045175e-06
-0.000271660016791226569
5.68517845147900331e-05
-1.63678029666443957e-06
-0.000271998865723929414
6.63149554006579493e-05
6.48391417618778514e-06
-0.000274875572890954619
7.70646749850641995e-05
1.28135723402399065e-05
-0.000282317589628003243
8.90601390550379153e-05
-0.00029633417953860478
9.81557502139020124e-05
2.0603786186709283e-05
-8.23005813807357642e-06
-0.000270557393318287165
4.38262685462250355e-05
-3.88100519793049438e-06
-0.000270432699762797866
5.08107125755970557e-05
-6.41845639578512918e-09
-0.000271236684071448036
5.83833787078981707e-05
1.07834515555761695e-06
-0.000273675116830674771
6.60309739870527023e-05
-0.000279934377995226611
7.08209840603419102e-05
-1.32345452914149497e-06
-5.06050516909306233e-06
-0.000269617879814173437
3.17985289305314906e-05
-2.37605176505191999e-06
-0.00026911431402810575
3.70098779862092255e-05
3.52114363231889767e-07
-0.000268869519304527254
4.30350297074260304e-05
1.9622418477364438e-06
-0.000268449495302292755
4.94623551551219882e-05
-0.000267846009187288161
5.53170403268976973e-05
1.66236515502127691e-07
-1.64884959922504503e-06
-0.000269373024592512919
1.98882782825623719e-05
4.89763803787294298e-07
-0.000269013616331603396
2.33593900356631919e-05
3.5283816194781809e-06
-0.000269194052081535805
2.79302345072105578e-05
8.05014228142082944e-06
-0.000269760661070264087
3.41824900874813047e-05
-0.000270429204358821947
4.30255826481425513e-05
1.43556266483396834e-05
-1.21354599171064198e-07
6.89973609757206843e-06
8.2969741819814687e-07
8.1698019809467932e-06
2.42865225124950652e-06
1.00024091868545845e-05
5.66990780743059149e-06
1.28458749004050682e-05
1.78711200960273532e-05
1.25233944107064484e-05
0.00041235932581782514
0.00039420735288466706
-0.000284118605021622787
0.000832624629658621266
-0.000459156765544319295
0.000328206928031546299
0.000398244475311461052
0.000394608081304170224
-0.000131640861484547903
0.00076531289110047182
-0.000403572493383408013
0.000372060601762015447
0.000206943559838630275
-0.000485370135016717041
1.82743281662781398e-05
0.000221629539201918942
-0.000316605250372191318
-0.000110716845894753388
0.000243026560869882575
0.00033910936695259042
2.46958432111854012e-05
0.000245314396531279982
0.000375490498893146871
-2.3881439746880637e-05
0.00050851181503535443
-0.000320575977972305487
0.00041924621726268502
9.13930878137472107e-05
-0.000447929250251853542
-3.85395547273214287e-05
0.000116448316905955681
-0.000298977901539025474
-0.00025031838223646348
0.000173716460530189641
0.000239805547212066457
-5.98718305657988797e-05
0.000221371129483970142
0.000314115738060872683
-4.15814489826689084e-06
0.000293546293625199673
-0.000218606156669641494
0.000391603955558675072
-5.50801904994916707e-05
-0.000388169844559099579
-2.63734644954661041e-05
2.98575729010277472e-05
-0.00031653053821369397
-0.000238273562632244261
0.000130416233779294784
0.000147016889513606574
-0.00033393292415023648
0.000141365247510696142
0.000287750948135001691
-0.000109800070806572234
0.000138416363493381185
-0.000135030174936819736
0.000288516242458030162
-9.54807157963821285e-05
-0.000342844485056461278
6.47224490895920059e-05
-7.98382527067152984e-05
-0.000309941773512520142
-3.96384518037238708e-05
7.75819412180836845e-05
-8.88066207663468308e-06
-0.000394198376485037274
8.51558105862551887e-05
0.000255605873296579152
-0.000323019975599891365
0.000184347416175640135
-0.000130912463539110263
-1.41855720812433805e-05
-0.000107063732218045272
-0.00029710706220132131
0.000104033618679614658
-0.000124166408930845827
-0.000272499581626282233
0.00011716874774333997
1.86100553236752061e-05
-0.000138547583958980957
-1.64101087784835932e-05
0.000188244353169953632
9.96114778193339775e-05
-0.000306427152512145232
6.24670237358756206e-05
-0.000230497330832997986
0.000305457656942714176
-6.11640029898404707e-05
-0.000280560163451334021
0.000100376746464804115
-6.51226719273613301e-05
-0.000261079503652930829
0.000134145837962602258
-1.82263363593127353e-05
-0.000205413767799175035
0.000151830549980239995
0.000131057169797669918
-9.15126975742288365e-05
6.71728157661278798e-05
-0.000128924651964453847
-2.19849082971302831e-05
0.000276955451849923858
-2.30223939519711468e-05
-0.000277894841452712026
8.64364591841505797e-05
-5.48680536123663474e-06
-0.000270617485521555917
0.000111955760256692339
3.78244296592484492e-05
-0.000255208952950550705
0.000142048316146361429
0.000133342932856626633
-0.000226408118607922195
0.000159129166373994023
-0.000220437809982083498
0.000108721381404966249
0.000182977268062639272
-5.67766201493008149e-06
-0.000277336918627286966
7.38245279262721187e-05
1.14703179723695686e-05
-0.00027706304782256153
9.03130759553719841e-05
4.20712366601855054e-05
-0.000279832095681112
0.000112595341275509956
8.97742648036863684e-05
-0.000280697935348047441
0.000139340281606017779
-0.000250957536598197845
0.000147767465770591648
8.91161212606139414e-05
-7.61893523901581627e-07
-0.000278455482272856459
6.16617622872277975e-05
1.33652221601390111e-05
-0.000279967852007812824
7.25294814773482486e-05
3.19471981827927856e-05
-0.000286863720588192842
8.70617120205740777e-05
5.8441391223430325e-05
-0.000298026490362032401
0.000106183003224163866
-0.000307286885469513235
0.000123170505520783628
0.000118461883844906351
-1.5987058510609709e-06
-0.000278017302449067559
4.91964460019553599e-05
7.21395999312382681e-06
-0.000279484999485279137
5.70131334893670663e-05
1.58660464747462928e-05
-0.000284508692248827645
6.60553669256969968e-05
2.51234513329396087e-05
-0.000294674336639247217
7.64554183207193176e-05
-0.000306790334265039674
8.16653160553274427e-05
4.11197737952161591e-05
-2.18793890264069797e-06
-0.000276627828401807864
3.79942457602921852e-05
2.64187229793650657e-06
-0.000277180942653714444
4.3677556034836171e-05
5.9879115722970493e-06
-0.000279037445756709042
4.95661317042905529e-05
5.69200409868367854e-06
-0.000283479399105824074
5.51253498815972986e-05
-0.000290267197773559497
5.81439904691521188e-05
1.84019535416425118e-06
-5.40173438703921572e-07
-0.000275548140426634593
2.77470029031322774e-05
2.9130460516591536e-06
-0.000275674337923149373
3.20472811625305e-05
6.19922977301579566e-06
-0.000276013830110262729
3.67231671720092548e-05
7.52770624283880522e-06
-0.000276190398630439852
4.0843807449678932e-05
-0.000276971513406040271
4.33306706248707196e-05
6.22163688254603008e-06
1.31284627892026986e-06
-0.000275338903592109636
1.74579527025220282e-05
4.39045538201334148e-06
-0.000275845012104012981
2.04579869600225664e-05
8.93010846029142512e-06
-0.000277071064552700144
2.44528777584913377e-05
1.57829106925827794e-05
-0.000278786058024414209
2.99217303279731263e-05
-0.000280695020061043777
3.74498633309852807e-05
2.50815341487895026e-05
9.14051589233992748e-07
6.07526237035487776e-06
2.29091800648814408e-06
7.21090376690500237e-06
4.77605865991043248e-06
8.86282159575371677e-06
9.99180922523419158e-06
1.14561014902940454e-05
1.69314540826848893e-05
2.0381101798431562e-05
0.000418687939557728546
0.00038123708258416128
-0.000237297639309560533
0.000834575996722087187
-0.000345719629939860611
0.000347787082268445754
0.000408191579105481039
0.00039022048421365733
-0.000138154039245345206
0.00076657580816319622
-0.000308063274096107974
0.000380682318689802329
0.000199379353421025155
-0.000485413839386411962
1.44537205966865744e-05
0.000211777336102957086
-0.000259032765544464161
-8.12039344915635735e-05
0.000221932088909544212
0.000358173474018379115
2.1722283267172488e-05
0.000251836246042747014
0.000394307474684764251
-5.78750133961042102e-05
0.000528408004230591748
-0.000250211584591077227
0.000419640109159848465
8.6091787281467394e-05
-0.000427180991261442164
-6.98674496487059783e-05
8.42332314906723255e-05
-0.00023886381807742055
-0.000268636697608775482
0.000146777666299041773
0.000321733887794042645
-8.59770678835241806e-05
0.000211362360913808917
0.000370495751434378462
-4.49324509151392078e-05
0.000312131176586697085
-0.000183371157350161102
0.000392404604522632316
-3.31114499857541048e-05
-0.000352268540741823804
-6.9079689453194738e-05
2.51867360065858022e-05
-0.00027618913027409645
-0.00025923561638454179
0.00011150028313192898
0.000263738428710055914
-0.00036225629538569966
0.00015215611641370883
0.000353422957180311349
-0.000133382905283670514
0.000165781946498953396
-0.00013780662095366723
0.000301280063738402701
-5.73544018838832142e-05
-0.000319643930265822208
3.52493913362533542e-05
-4.04958137351093018e-05
-0.000299626248792807042
-3.30568108226015074e-05
8.19448793127762785e-05
6.85136609806657489e-05
-0.000321418560767745625
0.000101187481592424663
0.000294597717981940461
-0.000283438655698021276
0.000146460135067203899
-0.000141935033085178466
0.000131529316880957259
-6.22627890825472091e-05
-0.000292398511880309056
8.39269889182326311e-05
-7.29183642435249856e-05
-0.000274425681028842765
0.000102615032885824725
8.43785629862571116e-05
-0.000131363282547975857
2.61672677897189701e-05
0.000225617518663932527
8.05947055666186748e-05
-0.00023367406218529325
7.3923573892701702e-05
-0.000215894447058422322
0.000283554152389181395
-3.38586736277536756e-05
-0.000284885660662188823
8.54863610954842033e-05
-2.47953933786220916e-05
-0.000271376762074229064
0.000122030684759914104
5.60085486574533691e-05
-0.000217027497851251063
0.000156692089619006467
0.000196437812913734174
-0.000117809498441751411
0.000125151519414842512
-7.96170896068110461e-05
1.37598466198892268e-05
0.000314240973556365489
-7.14841646735128378e-06
-0.000284389455751082616
7.30184553970397916e-05
1.58195474290955935e-05
-0.000281819005802680378
9.94322409827740793e-05
6.54423841095397085e-05
-0.000264513758663587051
0.000139915300730241929
0.000142470744285494574
-0.000222476353627120712
0.00018677045642077783
-0.000200825640678090403
0.00014344527179032334
0.000228950025998681298
7.13605467912187087e-06
-0.000283914074423402627
5.94854336092533179e-05
2.72548966383307321e-05
-0.000286936874498602444
7.53086071471922001e-05
6.56034904866391262e-05
-0.000291170040225453603
0.000100897586742447414
0.000132297113577267353
-0.000287539667075754999
0.000137712148702931193
-0.00024776616687015383
0.00014632689739485803
0.000180675786292581705
7.9819465550942614e-06
-0.000284574354616227553
5.02440057268239312e-05
2.31753951314910312e-05
-0.000288306382011795028
5.87023391938121383e-05
4.50754351336400756e-05
-0.000298259825864718455
7.22510845524983137e-05
7.84049260388086812e-05
-0.000307480192218150743
9.2794697737800879e-05
-0.000297096397278491574
0.000110043144300863403
0.000140870264988959105
5.15161153618042423e-06
-0.000283593293481826847
4.02443814109560035e-05
1.41440083963267624e-05
-0.000286227272489598928
4.59380340442022442e-05
2.24370647821828857e-05
-0.00029336919017244
5.28757511299890088e-05
3.20096381932103599e-05
-0.000304522910737046321
6.39231897309540154e-05
-0.000312761577879332707
7.5345593800028846e-05
5.39896478398998905e-05
2.78855647485929306e-06
-0.000281890288472668143
3.12455101551726598e-05
7.85815247729831302e-06
-0.000283053886300764783
3.54375914709204113e-05
1.04216370689048223e-05
-0.000285905150027538767
3.95376237907104624e-05
9.00023585796654144e-06
-0.00029199722237181194
4.40191451425105522e-05
-0.000300819184647288312
4.62915462289863734e-05
8.90340793518524425e-06
3.22729646818567714e-06
-0.000280655257816656793
2.29937505884493432e-05
7.10066298645021732e-06
-0.000281254731931502645
2.6373447959592861e-05
1.01286036422118541e-05
-0.000281971661611671862
2.9760297884558281e-05
9.63684635090983409e-06
-0.000282512141535732578
3.18533151101877478e-05
-0.000283206521884261919
3.11395066556693787e-05
4.21367962424944759e-06
3.88939846129105641e-06
-0.000280526756301536985
1.45431274660890461e-05
7.8413593101760253e-06
-0.000281747261665333875
1.70062989386597212e-05
1.38297463095908589e-05
-0.000283793229898402519
2.02848363927436526e-05
2.29121925560037959e-05
-0.000286380635508771725
2.47023193253511192e-05
-0.000289153665619887226
2.99861092913096556e-05
3.63239302641734843e-05
1.82225172219174211e-06
5.07111578445158303e-06
3.64860139877957343e-06
6.03288152286730326e-06
7.12251924398492019e-06
7.38797048383530493e-06
1.38795063214613189e-05
9.96364104522013403e-06
1.48782744588379695e-05
2.89080257589317393e-05
0.000409967302149697203
0.000381046109260736211
-0.000183728138045772892
0.000832485697413436242
-0.000242014213025156167
0.000361295333695260635
0.000411624193908065143
0.000364001192504226237
-0.000106714108778827358
0.000794794957131566638
-0.000226853654071287723
0.000368105494474897091
0.000209190662292200975
-0.000460780663039170215
2.10926595907475572e-05
0.000269413265619757177
-0.000192427483389971286
-6.0042440924999317e-05
0.00029833423415690397
0.000346964886176620319
7.33292530606429046e-07
0.000290174879522528406
0.00033144077933522126
-1.71520923366290395e-05
0.000605398723466168314
-0.000186751031720200117
0.000416109719060335265
7.08244650448362019e-05
-0.000420245728848813577
-5.23428491099661375e-05
9.01409240886145763e-05
-0.000196966463083126015
-0.000283425108246145897
0.000163152847155616991
0.000301803573324820518
-0.000113832720133347028
0.000185748188718044133
0.000300167563564172272
-3.62534625729217866e-05
0.00035774151430844215
-0.000145869546462245106
0.000395902291728337293
-4.79949828997599701e-05
-0.000366356810884564058
-5.51428637967511901e-05
-9.63845475582049245e-06
-0.000239580664119233816
-0.000254980812932124531
6.09272595825958237e-05
0.000221893471529695198
-0.000352911928895666138
0.000133552414228267462
0.00028534362152910544
-0.000191191117129902246
0.000142558769712354278
-0.000105210554140686087
0.000316141123516815517
-4.54715679074696932e-05
-0.000331059145654482158
2.74131704738087177e-05
-1.74394148519624887e-05
-0.000288503902999786611
-1.21609740730721583e-05
9.59861352869916776e-05
1.7624949008615723e-05
-0.000230584420459160476
0.000160085227715151907
0.00020770298619022826
-0.000269897835618369917
7.94061888545879925e-05
-7.16500922363421874e-05
0.000152953602049241133
-2.36869884261001537e-05
-0.000303028561158471524
6.00427975659739702e-05
-1.66811801044544741e-05
-0.000280556064904253577
8.76633119636219856e-05
0.000126917483567101934
-0.000169894202928830935
7.00917559493590087e-05
0.000239289842265272832
-2.67999840539766634e-05
-0.000111541373076243504
1.41129561490865078e-05
-0.00018800759570496427
0.000276687818361157339
-5.39386506442919884e-06
-0.000291487525757425439
6.06575764928657998e-05
2.26639672740596259e-05
-0.000282964876590759747
9.63786008967606176e-05
0.000110978137910676823
-0.000243174208355329382
0.000141652019499217865
0.000246940322464389789
-0.000177202746630682331
0.000139589383725137651
-6.49867357065200965e-05
1.4629016751340561e-05
0.000325171196750103047
9.48918215215061535e-06
-0.00028923880070794145
5.27519699534933481e-05
4.05089414103307116e-05
-0.000291279090700292682
7.67221764225714862e-05
0.000101004889382870367
-0.000280354078646221228
0.000116604508838791669
0.000182184362331700372
-0.000240750712842699037
0.000169139006544654421
-0.000170298175180510792
0.000148783783686071619
0.000282157560261851292
1.72909222769151156e-05
-0.000289730639584110804
4.39133787631802754e-05
4.08585222681753427e-05
-0.000295587048522538947
5.60470731122438327e-05
8.2685043918023798e-05
-0.00030230016720825503
8.10189233650360593e-05
0.000152063142403776675
-0.000294683062982658379
0.000122269124874814879
-0.000248384873484170342
0.000142533390698500976
0.000233941586682254632
1.44865124797055109e-05
-0.000289620562259400858
3.75961753835967011e-05
2.94682857732963298e-05
-0.000295052778184108047
4.31895136168480907e-05
5.17989945426002599e-05
-0.000306970473163400385
5.45938188313245466e-05
9.02283969512819887e-05
-0.000316899200909849998
7.65830208167133384e-05
-0.000290141318498872837
9.37348675126699836e-05
0.000148298621278436082
1.00371346273975163e-05
-0.000288093619915244091
3.02972564256873565e-05
1.86431136760430635e-05
-0.000291672652235122013
3.39554483064087966e-05
2.58512818146759624e-05
-0.000300325696112258218
3.90234159263375767e-05
3.57714664810248353e-05
-0.000312828204945696286
4.99271240842474596e-05
-0.000311441860784316793
6.6166565368631214e-05
6.62501009333036099e-05
6.67096176329447995e-06
-0.000286161706043684997
2.3901705288174055e-05
1.1553771516705951e-05
-0.000287845664201324914
2.6728107079573431e-05
1.32429837139928079e-05
-0.000291684729486344657
2.92041866190967664e-05
1.04146116658179904e-05
-0.000298550113034940748
3.25642668245912731e-05
-0.000304385362946825975
3.60242360051296026e-05
1.36263379796518148e-05
6.21083040692974092e-06
-0.000284809845935245427
1.76891635591529187e-05
1.03419781715891563e-05
-0.000285758474837387506
2.01511624276855296e-05
1.26946973200043963e-05
-0.000286724208787815787
2.24458489076318755e-05
9.73852869252099506e-06
-0.00028743452608894892
2.36913966535797402e-05
-0.000286938478231841209
2.31679516585164323e-05
2.58042652253741463e-07
6.01349578376812056e-06
-0.000284792744292347827
1.12586625239553202e-05
1.06998665421848097e-05
-0.000286585213971079795
1.31454871554053085e-05
1.78983089703671205e-05
-0.00028925740738381658
1.56143692985478374e-05
2.89949081498082166e-05
-0.000292340252288992414
1.85089733160602117e-05
-0.000295620397783708498
2.21658696463397958e-05
4.54935573446063997e-05
2.58430957368054256e-06
3.92802551572859724e-06
4.81557731137939756e-06
4.68467639797398291e-06
8.98571809140137745e-06
5.7784949311344675e-06
1.78523092345540921e-05
7.92326864909933844e-06
1.17822934803142237e-05
3.71877274725209789e-05
0.000409574897574564267
0.000384544831078797913
-0.000132092425259134244
0.000876839994306766179
-0.000162233983074551739
0.000360783560848784452
0.000410894043671217873
0.000377985752296080527
-9.47030078642272454e-05
0.000849802339800339972
-0.00015883323068658072
0.000369911727745400511