/*--------------------------------*- C++ -*----------------------------------*\
| =========                 |                                                 |
| \\      /  F ield         | OpenFOAM: The Open Source CFD Toolbox           |
|  \\    /   O peration     | Version:  2206                                  |
|   \\  /    A nd           | Website:  www.openfoam.com                      |
|    \\/     M anipulation  |                                                 |
\*---------------------------------------------------------------------------*/
FoamFile
{
    version     2.0;
    format      ascii;
    arch        "LSB;label=32;scalar=64";
    class       volScalarField;
    location    "0.330000000000000071";
    object      rAU;
}
// * * * * * * * * * * * * * * * * * * * * * * * * * * * * * * * * * * * * * //

dimensions      [-1 3 1 0 0 0 0];

internalField   nonuniform List<scalar> 
7248
(
0.00016014807725707209
1.37693720489217727e-05
0.000629139407671221564
1.91311910199705698e-05
0.0164400342942014298
0.0186497167340219996
0.0140944767400490827
0.00266633347405341664
4.99181748374807142e-05
0.0176862254207823984
0.0202506003915370256
0.0211645418768978029
0.00853253640975535667
0.000290261539702329151
0.0168190852920570254
0.0189602825975892578
0.0195300052597026583
0.0160385704931363358
0.00174455576409964278
0.0164363204448260275
0.018749017362913175
0.0179731953719476992
0.0172983457390037294
0.00742582681184013587
0.0174657891394005768
0.0179506062810370799
0.0219311648868281799
0.017094936587166279
0.0124448739770659251
0.0189118592373780717
0.0190024247585122812
0.0204842738966240848
0.0228721960886194807
0.0128813227303884986
0.0199897440516003215
0.0200997197810572382
0.0204062523241707663
0.0202227264502334581
0.0197995863775865047
0.0205573015245768993
0.0206357772706708235
0.0205601247802864769
0.0199335004031894469
0.019034981751142821
0.0209840290591836488
0.0209551453391209098
0.0208351015991713358
0.0203489697209252723
0.0196979212438362708
0.0213598478109128867
0.0212739371427503772
0.0211313622378046309
0.0208648684988770455
0.0204374935795299008
0.0218542576297330107
0.0218013124711364283
0.021731291803276015
0.0216353603964291562
0.0214945675292340828
0.0212721013491121991
0.0209166300678063806
0.0222016440642369174
0.0221729700683692896
0.0221242962171678062
0.0220498026919176693
0.0219432521018395645
0.0217946820154427921
0.0215630982526147652
0.0225340799012275529
0.0225363415925578757
0.0225221625873533379
0.0224880340449516887
0.0224322549455625748
0.0223543365335414079
0.0222388169287336679
0.0165517442938960015
0.0166100866176814368
0.0166575119678862051
0.016691679002807866
0.016709885681764191
0.0166907820619934255
0.0166027065436930334
0.000105600691336897294
1.31551717232306215e-05
0.000385764899780854508
1.78832992989875796e-05
0.0163380837456315042
0.0176841014114200966
0.0105742852241077663
0.00153452953370122273
3.41411516510232996e-05
0.0186514848450453838
0.0184489694960833263
0.0174463860124070592
0.00513577423269994619
0.00019426558209974457
0.0178464982174861841
0.0185042535003941792
0.0185516532667042988
0.0124498348465500747
0.00094711716481549039
0.0171057616206135854
0.0186625207511978974
0.015712724940078502
0.0150980409307315093
0.00532622396663744602
0.0179153585740215761
0.018079279011078829
0.0220258728152112372
0.0144125508615445975
0.00936335660020473463
0.0192862508846583548
0.019248249029732472
0.0206944475953978815
0.0230514646646380467
0.0105963499747210692
0.020281655048073461
0.0203828297249295937
0.0205788159853542464
0.0201234832500440594
0.0192409455081935868
0.0208046414867105456
0.0208642453878401003
0.0205973183281366774
0.019925595290880737
0.0196394038933457304
0.0211717332150473808
0.0211533609212830563
0.0208153446111627796
0.020115568519079554
0.0192918430633979773
0.0214871596201761765
0.0214213780934438235
0.0212227334365839085
0.0207999102620548028
0.0202829300828898454
0.0218023026270796061
0.0217258678576666003
0.0216024808748133783
0.0213847064705378516
0.0210425627390945537
0.0221421641920178519
0.0220822577111333407
0.0219952779535255993
0.0218689119694882896
0.021660822647939542
0.0224821079447066474
0.0224527576676232937
0.0223648005558089308
0.0221862481417791045
0.0219273775945867874
0.0164864207866631564
0.0164845832049788366
0.0164418372861277855
0.0163409584941885885
0.0161423264354168886
6.14316021879804315e-05
1.28967302693944041e-05
0.000289168877855063944
1.6975047648653204e-05
0.0163270966560902404
0.0171233005891136061
0.00603493610871998643
0.00102960149288216628
2.69718368617113946e-05
0.0177225831502298217
0.0169459952074761042
0.0130241125305904596
0.00342703359461327085
0.000133758472469192881
0.0189921705263983477
0.0177242170051427929
0.0156943508433671775
0.00914972868392746087
0.000644424297768537687
0.0184349243207374384
0.0192840947304942986
0.0133956316809830511
0.0128172073682800026
0.00656226058718142706
0.0186439678053900715
0.0185518006824691647
0.0241075377962579329
0.0159033211959753729
0.00922481769572317326
0.0197029970292539706
0.0195256180723097084
0.0212499830729106984
0.0233812820480995935
0.0193770240944899745
0.0205706847357920511
0.0206146306275962372
0.0206725952085553243
0.0203997472276166297
0.0171370111402486189
0.0210682692887206174
0.0209282802963915368
0.0203939403027745304
0.0196352941813458214
0.0194799727996393078
0.0213819735583532754
0.0211747151653797899
0.020610341681102224
0.019856362494640678
0.0186507116357849147
0.0216339208607127242
0.0214927177200894409
0.0211229114785434768
0.0205931138682373151
0.020070743180525881
0.0218928724182286608
0.0218190993970055723
0.0216311838560184072
0.0213635901269750191
0.0211288275808338734
0.0221788656727874983
0.0221092631732917842
0.0219626551605517813
0.0217893774727304888
0.0216590213832486694
0.022448537089769089
0.0223593939643078367
0.0221922733478232478
0.0219616596126942995
0.0216480537533962382
0.0163267315719263714
0.0162853890924895932
0.0161969073887886263
0.0160329026543416069
0.0157352421909786773
4.52638937383538492e-05
1.29629364486138017e-05
0.000234073686020792263
1.68291917478700887e-05
0.0162118447835310417
0.0174369722045126761
0.00584743793015591977
0.000890957807304854099
2.5894855145367732e-05
0.0171643075135587096
0.016909338423861657
0.0119628003638077608
0.00305800311968688898
0.000109334849705076462
0.0194958206334298438
0.0179736219513030454
0.0140607544215503918
0.00766843766123916429
0.000506939588392645349
0.0198841194769772654
0.0203941867851461234
0.0155762333462303344
0.0121435125650576591
0.00331794022091455327
0.0196712157941845295
0.0194963113114072044
0.0231755070645095589
0.0157718968424630374
0.0102958809099712029
0.0202730816779149968
0.0201039062672745752
0.0208128035898564809
0.0191731297446529926
0.0188674223046034484
0.0209252379857956666
0.0206668024726117464
0.0201699731429902107
0.0191064212156832613
0.0156201590057814862
0.0212848550118498007
0.0208463065897773678
0.0200592026995847911
0.0189075026376411236
0.0176899951884562992
0.0214864306197092049
0.021111841377768864
0.0204386544672468251
0.0196488721981336947
0.0187040743414280085
0.0217294730274692656
0.0214700463770480347
0.0210329479527660498
0.0205196811712753113
0.0198506203587348086
0.0219699367083811582
0.0218110795572029233
0.0215622705627451609
0.021307948127698751
0.0211282963577467606
0.0221895516750855344
0.0220515568564990903
0.0218807819482771115
0.0217434972822553099
0.0217000966843016729
0.0223804299993756693
0.0222454925766572692
0.0220555689112597285
0.0217947120547893648
0.0214493519876294628
0.0161833119881664156
0.0161153575865291311
0.0159908744577421415
0.0157754192951514369
0.0153945107088268168
3.88419659247614502e-05
1.32372992191141234e-05
0.000196782496595373439
1.70978933453257936e-05
0.0166964081921322817
0.0191659740378204019
0.0038845505349979566
0.000684555328334438841
2.49966563446896702e-05
0.0176374735845641201
0.0181982964351089654
0.0102144928122803354
0.00222364437634940812
8.51073842835730585e-05
0.0191125540004301007
0.0182315766831186998
0.0135110911872995745
0.00620555438287106152
0.000409702166340876418
0.0202853026105393186
0.0214739044605378043
0.0195436888093920326
0.0125676233933526855
0.0031605897316556112
0.0203863692775772994
0.0204108576376052404
0.0230244517166500115
0.0179071454256495358
0.0133452406674712653
0.0208626827292354086
0.0205133729723156466
0.0199418683202463969
0.0173215567102146979
0.0195107625731106155
0.0212125634091734558
0.0205769236728459634
0.0195510425729909024
0.0179798609672306917
0.01740533346255815
0.0214332201657716874
0.0207791804725511037
0.01984314340426864
0.0187210539364286131
0.0166203021095803725
0.0215843011510488646
0.0211172767403994335
0.02042612535061928
0.0195448100863594085
0.0183466872465821197
0.0217981863394758439
0.0214775496609701903
0.0210508732846953137
0.0205081673223821252
0.019770682849125934
0.0220067475245758794
0.0217969123571664473
0.021560859993350924
0.0213160996107312727
0.0212070441327279514
0.0221682461204757292
0.0220111422319279743
0.0218510675730694721
0.0217538931591476602
0.0217939530863078962
0.0223187855353422816
0.0221725759664899436
0.0219681127182980301
0.0216923224609963591
0.0213399113599296621
0.0160687658843813481
0.0159805253733880416
0.0158290705065095919
0.0155703576114401224
0.015130834732757047
3.4787388685983265e-05
1.3465491027020221e-05
0.000182694737390795515
1.70831699187780181e-05
0.0160374970154472489
0.0183168235837796456
0.00497993611037046268
0.000717847899179735959
2.39681404032616843e-05
0.0181218991384631406
0.0184061129461829537
0.0144534316911305409
0.00331295678840759413
6.3265739893112217e-05
0.0196800019006340074
0.0185091604741600066
0.0168634957882094899
0.0125028107563105607
0.000388358766775305519
0.0207571119979677865
0.021879499961626251
0.0207196114870089494
0.0170102372973679368
0.0173629820889594534
0.021005909610758159
0.0204431717398303806
0.0202377560865667147
0.0204148718252417406
0.0182670871850880955
0.0213156999150651422
0.0203737098500682938
0.0192836590076183451
0.0167196960376481511
0.0193895055280087006
0.0215167580164893069
0.020639788960323778
0.0193635983444218271
0.0178846496923072244
0.0180566762497390808
0.0215483941270413551
0.0208933043391818091
0.0198593657324329827
0.0186874820977843484
0.0172978473022548894
0.0216697253662693698
0.0212288305411267378
0.0205782047589195549
0.0196499461565825158
0.0175588334543662905
0.0218615692084417959
0.0215604724728712255
0.0211548547089864918
0.0206273629340354252
0.0198410108528692501
0.0220345629970784551
0.0218367215858995163
0.0216173294844854112
0.0213994171248360968
0.0213887118467964675
0.0221707721963691658
0.022018231809025051
0.0218679494652665452
0.0217849020940887664
0.0219319985076109995
0.0222923631639454327
0.022140568516196911
0.0219310840145714656
0.0216617521605844895
0.021333385557268162
0.0159852405769775226
0.015882154238936172
0.0157106804372283311
0.0154262636151582706
0.0149480166942868049
3.15597667439935061e-05
1.38186660501358927e-05
0.000168152245760287879
1.72884676945514604e-05
0.0163270002793137366
0.0199142334911389871
0.0035258824178188734
0.000619378848814959799
2.34266711461059306e-05
0.0192955915537471774
0.0198677264973757955
0.012124185753790739
0.00375156738335198116
5.59137002948441591e-05
0.0198395552284144731
0.0199096229307338668
0.0158207550322372083
0.00995889970621136739
0.000429576280818993366
0.0213448997825825375
0.0216622991791498472
0.0216903535562730648
0.0176793139978393236
0.018827508452351014
0.0219633640663371918
0.0210013049400975364
0.0203496555814028403
0.0194843086581754157
0.0192608883996296214
0.0219431413393410928
0.0210302171423112395
0.0196983454715800206
0.0183373524131014778
0.0188422359075631901
0.0219901485385584419
0.0210563297276592579
0.0196847472222095483
0.0178450767955989908
0.018165097573625999
0.0217478278887441971
0.0211164383165570527
0.02020113324340303
0.0190450847759386886
0.0178806700370963516
0.0218287848793978882
0.0214303156117172933
0.0208797167839535613
0.0201560845104052748
0.0174125499643273569
0.0219745540352458968
0.0217009697098286373
0.0213432577262803388
0.0209573197470903604
0.0199360775670706786
0.0221083689683364282
0.0219286713830006245
0.0217396344073532317
0.0215796191291708767
0.021574436220750802
0.0222121126010550764
0.0220676439976808594
0.0219354169006650036
0.0218886592587461959
0.022091067262411692
0.0222998010652614639
0.022145998850578736
0.0219397927480730094
0.0216711256067789668
0.0213418657951312506
0.015933281076011694
0.0158215096014642786
0.0156382839778922943
0.0153385360435650733
0.0148387651267760448
2.96296398962945184e-05
1.45778829553409027e-05
0.000156264232106278323
1.85730157075187207e-05
0.0171601379776483431
0.02074481648309872
0.00354730916202259392
0.000553247309622905857
2.45856645231859823e-05
0.0204265440369055182
0.0184612291745620723
0.0111129151489706961
0.00429278943192227831
6.0460658897306447e-05
0.0213702566492586406
0.0177770978517999348
0.0136901745881352673
0.0121139733776019741
0.00058375666280680201
0.024099972500406127
0.0235193269314084991
0.0223008521097598708
0.021979093395585108
0.0197199646405430903
0.0237639889847778112
0.0225043484441586061
0.0212738779243250194
0.0207251978159689425
0.0202211271735831047
0.0229710477763550754
0.0221410405197865374
0.0206005221569186582
0.0194800524983457304
0.0198565516534572224
0.0223505071068268897
0.0214529984330373881
0.0201054987725679916
0.0184016019249442671
0.0188601184937120733
0.0218948571991136043
0.0212111434913367369
0.0203101964341860786
0.0192205193170718533
0.0179634836521143058
0.0219328305186224475
0.0214743645862912995
0.0208221586874566753
0.0200229758362459286
0.0174416032894978319
0.022071639223822638
0.0217583216707692567
0.0213209047164006002
0.020730533413142925
0.0195830549176701611
0.02218767522134844
0.0219883596241552438
0.0217457901884813495
0.021453005703767597
0.0211536811545191168
0.0222677066754182959
0.0221190631868111373
0.0219502026893998413
0.0217780197521570892
0.0217150740433564166
0.0223218953833599701
0.0221681278143543332
0.0219551998449525124
0.0216553276091931562
0.0212214549541588048
0.0159033616960179425
0.0157869856591885509
0.015597821419859657
0.0152852190774135956
0.0147616794904222113
0.0023360147323303721
0.00169840332117902372
0.00182583291507749284
0.00124511088051700784
0.0162553105310773126
0.00826483057519963177
0.00413505983516409843
0.00240761621485544421
0.00180924537790180524
0.0230825807881801792
0.0168981734705227274
0.008511499551517792
0.00386064394496975216
0.00216863973933321876
0.020266512020420839
0.0189861331489128773
0.0132919100885535626
0.00627214949005685564
0.00336618230701132707
0.0187862243537921733
0.0191137666356260907
0.0156690620824791252
0.00936078419254216844
0.00496555395907136762
0.0187863202416251769
0.0194534898946721671
0.0179287418623589219
0.0135640897852381242
0.00818272839478294788
0.0192890039754622759
0.0197903194298528623
0.0195043728027839286
0.0165059208078794546
0.0121530484500586046
0.0206331443395586824
0.02105763066123904
0.0213163962845013197
0.0196840646276512064
0.016172556783082357
0.0213479510502750103
0.021562410075200919
0.02185086074244217
0.0214685161795991446
0.0195392400896160015
0.0217211238938753159
0.0218083663677651959
0.021964935110610026
0.022096529643398366
0.0216204752842979082
0.0221163269863810137
0.0221236930727212282
0.0221063498413000513
0.0220961468977948945
0.0220835686903370007
0.0224052828611244238
0.0224372299561201131
0.0224739230047772756
0.022493699739330679
0.0224780544531596252
0.0224292958303869555
0.0223756231076580533
0.0228847451149771508
0.0229394219511033677
0.0229919217602892779
0.0230362838864188145
0.0230628401195543259
0.023071276779011194
0.023092082845962765
0.0232082777985591106
0.0233049858978631938
0.0234063389938110426
0.0235124204659279586
0.0236260091173354295
0.023752230359928822
0.0239154375502126197
0.0174904229291441178
0.0177262781895734904
0.0179985574126558939
0.0183214748204292496
0.0187169979910794017
0.0192189554784591814
0.0198862532440048263
0.00572183847007379318
0.00415701035207563258
0.00368942431797601939
0.0028793944300286897
0.011512207815926585
0.0061734947651423339
0.00408192423600028942
0.00360101905149639093
0.00345040121889510177
0.0179868074750276739
0.0105160288220640351
0.00677961223409455794
0.00539009105464514134
0.00522193067881329687
0.0183533126809308743
0.0131196212641669432
0.00988485447754456834
0.00800956785004600623
0.00658584442578737713
0.0180975912794280186
0.0156510249904997269
0.0134842769063609289
0.0116040745210470031
0.00810161638760788921
0.0190043956646499153
0.0188727061137774245
0.0165893628435579317
0.0138358873672460754
0.00991026800362787043
0.0192252386289090658
0.0196602408758743859
0.0185019708873665721
0.0163648571604596317
0.0135980620993511013
0.0200279730766293254
0.0198218613786206067
0.0194200131387536473
0.0180453517232823726
0.0158599756531455915
0.0207290039205205445
0.0205228129514568487
0.0199714469737083573
0.0189047197609799322
0.0173950957584029647
0.0212615882435219956
0.0211265805012441459
0.02078158221438536
0.0200685938015414504
0.0188210397926564417
0.0217395739746129857
0.0216305349800571707
0.0214094329656117875
0.0209971256485435437
0.020272971206318588
0.0222733915122610635
0.0222476864514088643
0.0222123674144674293
0.0221416440807149194
0.0220026160167931285
0.021758222207133613
0.0213720665591811201
0.0227002662749570192
0.0227088350894275905
0.0227095895699420264
0.0226962338878011309
0.0226540755497870103
0.0225632357430835123
0.0224121297428194755
0.0230992943891533721
0.0231683912106722643
0.0232351037297648458
0.0233006753040167561
0.0233673220960236364
0.0234348989197091344
0.0235054192657830688
0.0174189730523758024
0.0176403853004717844
0.0178938385942998372
0.0181928318156593279
0.0185584067726100137
0.0190236368548784146
0.0196371867741449366
0.0166157901385754307
0.0127645720379172475
0.0127967558739280549
0.00963221959674786209
0.0118550084317592674
0.00799643844721021138
0.00737211170773289116
0.00819749173261368272
0.00905231036649193667
0.0150195007229681141
0.00868342411561583843
0.00718682261020679291
0.00924935701548084549
0.00958181320057307183
0.0143892823273517531
0.0102187953056316408
0.00919860419087923514
0.010333675530868015
0.00964526377847124694
0.0144832933544921001
0.0132467602185190273
0.0132082167268351806
0.0118689358886908385
0.00749632120212512416
0.0167832110080486478
0.0155092762801405798
0.0150587022524962932
0.0115334838994897819
0.00741627840238822354
0.0193196364384446741
0.0183829262649710772
0.0173496423821115839
0.0166266238566439954
0.0156031686123534498
0.0199227397674550423
0.0197925730015640032
0.0193365474532547557
0.0185051182619720041
0.0180388502806689
0.0205170638468397323
0.0202924249386836342
0.0196620438000907442
0.0187538750145518143
0.017972580063204343
0.021032708697621541
0.0208661459186833334
0.020445728529412132
0.0196510468310907398
0.0185557552687635255
0.0215380397247570653
0.0213929821771592331
0.0211272718732413607
0.0206439783829920342
0.0198320170205193332
0.0221444887364783301
0.0220994689928847472
0.0220363164069508621
0.0219313448685744816
0.0217532652220684339
0.0214602551013233674
0.0209992257644941033
0.0225865639134493895
0.022579235778168151
0.0225573532385103491
0.0225139844478576233
0.022435214312449419
0.0223010531230170422
0.0220903240620686364
0.0230057470564849348
0.0230605203288805141
0.023107933530332192
0.0231474893691500476
0.0231796562305187775
0.0232040948242444936
0.0232200674680118867
0.0173401678000553103
0.0175450789502836144
0.0177767760304117957
0.0180463084244194098
0.0183713296016723253
0.0187791927096302436
0.0193102212480619796
0.0126010082950711207
0.00310335929846121839
0.0162391375548601863
0.00310745298948796175
0.0138670255493166337
0.0126035349467408329
0.0144156409380454629
0.0139392972888475377
0.00588621906903298749
0.014063361125438727
0.0115900075699540885
0.0126873790735141361
0.0166485327810742476
0.0126605275578600095
0.0138950247561874258
0.0127503100815473825
0.0147814913355808122
0.0134635423441757524
0.00897052108278085548
0.0149604435644256784
0.01599927210606681
0.0136865377628915767
0.0078806672226174844
0.00620095137807745098
0.0164420900363982311
0.0161832481842177668
0.016601195429549305
0.0128535990807162447
0.00879516549920454811
0.0185882419800559688
0.0179967216107520291
0.0179812887107758911
0.0176851583347236822
0.0182659867666723416
0.0194867469510696459
0.0193930323465536618
0.0191832791942834202
0.0189755142718202041
0.0191350137153922552
0.020261757019720196
0.0201036883465064674
0.0196625980915995334
0.0190684241538220389
0.0187227153956977914
0.0208217887427724312
0.0206651780198052158
0.0203170639040896363
0.0196954590664198889
0.0189016663986250957
0.0213519298348706366
0.0211887065204149801
0.0209246100253129876
0.0204858778907842515
0.0197913388091431539
0.0220192395013580032
0.0219549407160326733
0.0218695276463648121
0.0217406345335050058
0.0215398827904179357
0.0212316118032895122
0.0207691220858413073
0.0224757839185318366
0.0224531396333624705
0.0224112993875003469
0.0223422948539109961
0.0222323466339066356
0.0220628943122697756
0.0218118357663056664
0.0229087923086988381
0.0229486439725776481
0.0229770939674036681
0.0229919836129275044
0.0229916982385705397
0.0229741850281847231
0.0229369622130275695
0.0172349881799816022
0.0174177576520585589
0.0176207080732940884
0.017852079921024621
0.0181253985529505786
0.0184615658430371948
0.0188918212485566644
0.00991062225835854724
0.00044929968432641797
0.01699488823786139
0.000539778628955478608
0.0161888725034114826
0.0173740786294226297
0.0176273570326154518
0.00799735577956512365
0.00109640504336424899
0.0159305183042866838
0.0166677831065259983
0.0177225502063429949
0.0174773689183610297
0.0159322714230613581
0.0169617404402352158
0.0176795359038932863
0.0178150188749214532
0.0131862977213266057
0.0100785323812391941
0.0178568908229969035
0.0209007346226878221
0.0186033127778502116
0.0103179766597843881
0.00771950943613605375
0.0171688889181987291
0.0180754194832202404
0.0185988154321623904
0.019217161006847866
0.0177512117913539748
0.0177157139839481809
0.0180127567935904065
0.018363963644562966
0.0193505394971504735
0.0204053288087288134
0.0191635568527561417
0.0190737540786545534
0.0190899724609510345
0.0193481015872058598
0.0197129121202603841
0.020080738650101803
0.0199683058197056978
0.0196912587749630344
0.0193447413949470667
0.0192157105064362996
0.0206887742722367783
0.0205463502774529891
0.0202745856129713242
0.0198065002815497916
0.0192074494022112414
0.0212276765681233409
0.0210642215838138629
0.0208173625808903313
0.0204273349645859685
0.0198205968504134196
0.0219242593254619436
0.0218485256671870111
0.0217510380623710253
0.0216124468791530945
0.0214070684063240139
0.0211030248377954248
0.0206524807821820387
0.0223823010617673554
0.0223491882391526099
0.0222941484056583539
0.0222091195789802416
0.02208086540647251
0.0218909410642109913
0.0216165542280420779
0.0228159077642513357
0.0228427517602919142
0.0228553302849495883
0.0228505387529180023
0.0228250019816555391
0.0227748423285878965
0.0226947050669882265
0.017110860236616874
0.017268447807521143
0.0174391096456695226
0.0176283961215830849
0.0178458072460128264
0.0181064766597553856
0.0184331190673507131
0.00542007777983234598
0.000111885860528829174
0.0156155142330428875
0.000155162062754902731
0.0179918293811299479
0.0194816461990836749
0.0205277819680330584
0.00690869038851845384
0.000344483053802333602
0.0174922791226248958
0.0199812898175787748
0.017299411130167041
0.0136645166746743214
0.00962127288481095036
0.0182061206034104771
0.0210463153445109644
0.0188975626208371106
0.0145025681416147949
0.00991715003268060433
0.0176545553820077923
0.021457693389560991
0.0194779204121635213
0.0156028133062415721
0.012707213938290227
0.0166141318401251473
0.0179912205098652113
0.0204367487491348317
0.0211129093764260943
0.0156974099623244379
0.0175143626582202547
0.0178476299212678782
0.0187927362103620203
0.0198060233439321422
0.0209455571323945572
0.0191513271866999638
0.0191199880131175913
0.0192566875764666259
0.0194435569662481482
0.0192216012486059358
0.0200455580445669593
0.0199870093835716502
0.0198200632802108222
0.019568856264319253
0.0194098342784500486
0.020659279053957473
0.0205411218835640057
0.0203323975527052031
0.0199537034970702284
0.0194327998672502548
0.0211769646672142382
0.0210275359115064259
0.0208093230841792133
0.0204679143466131551
0.0199240786076865552
0.0218643804837998466
0.0217854964746830582
0.0216856126707348842
0.0215483497604735189
0.0213512687469558371
0.0210661108377031003
0.0206436700330166686
0.0223088889054565108
0.0222701667748389301
0.0222087542411759792
0.0221171452724171595
0.0219823857360866536
0.0217859938213403603
0.0215036699587599599
0.0227303231851925004
0.0227469773389399679
0.0227473655965496797
0.0227280325288902151
0.0226845386711749739
0.0226117511065879462
0.0225008913104501884
0.0169744546283242884
0.0171056876157059737
0.0172429559873319566
0.0173894934869293985
0.0175511697313416697
0.0177377067911059401
0.0179635982603474978
0.00129134554940312646
2.72986291162992051e-05
0.00713107886305358336
4.43166065495180844e-05
0.0177126723664178497
0.0212587743629291635
0.0237250004875003209
0.00514825754710744512
0.000157430016322062207
0.017085511623475963
0.0202305005441615997
0.0205988990808394223
0.00982354312357032293
0.00380003206242064294
0.0172433623985950718
0.0195805274089702365
0.0191772402292792812
0.0172543211224771599
0.0123523362710491018
0.0168299860858902722
0.0198734053711656193
0.0188039264352506744
0.0158093998660748872
0.0113239041571306844
0.0167121541294161513
0.0178781245380289291
0.0210496437936229623
0.0203616501069857556
0.0118870379721507206
0.0179054251145484462
0.0181829481706022381
0.0192878052492237682
0.0200970355706106794
0.0203124926522763871
0.0193878929903328022
0.0194264945373258113
0.0196093286115244236
0.019601828298911838
0.0193666780737049536
0.0201430582639865671
0.0201473547304304793
0.0200678455422781468
0.0198565112149657642
0.0195179927523159401
0.0207129056286126587
0.0206273477316679388
0.0204769051526867002
0.0201659113428902317
0.0197251799993235916
0.0211912397313443399
0.0210618907219794621
0.0208749461656191591
0.0205737095518881419
0.0200865563103432912
0.0218367748787430642
0.0217608889541438463
0.0216660376892923202
0.0215378702609498665
0.0213567714297651159
0.0210930116535811632
0.0206842680966815261
0.0222549336767984655
0.0222156851245657906
0.022153932269522978
0.0220629846079082453
0.0219313271816922936
0.0217430544221847571
0.0214715334726608975
0.022653967254851793
0.0226632150120810311
0.0226553020363846544
0.0226262373579626669
0.0225718620612170989
0.0224862775013087227
0.0223589744163643807
0.0168321036151403217
0.0169372214180962127
0.0170420296000750177
0.0171473499658059483
0.0172561302613820702
0.0173730308967308053
0.0175043165103740336
0.00035245779931125735
1.59287106105157539e-05
0.00175825249864776031
2.2333115688574915e-05
0.0176118695054768917
0.0209305028600134495
0.0198307466347244291
0.00163169193450427171
6.5126982807172843e-05
0.01740004375418314
0.0207331966190316304
0.0238624246115471915
0.00370345670097246621
0.000967458722957957422
0.0167103873060920616
0.0187364603239501895
0.0197311578543421483
0.0173731927281321093
0.00636873593170366598
0.0164267579922737147
0.0189264189498636291
0.0183789725930283837
0.0166932440014453329
0.00976122464507064684
0.0170869356164680582
0.0179502985877289245
0.0215966761503815115
0.020013110431488193
0.0133656640915543901
0.0184642289163867053
0.0186691050301835137
0.0198872397519658795
0.0210572040694438981
0.0196723866684625978
0.0196915353740672247
0.0197811046189205406
0.0200350320112024499
0.0200277708305052794
0.020059601894314244
0.020326113068066174
0.0203820915466659848
0.0203891268970996763
0.019970339707061243
0.0191792305122302463
0.0208274541194171312
0.0207752614145888491
0.0206686152556951781
0.0204001930135611319
0.0198457938380800052
0.0212574488115328079
0.0211507432033899642
0.0209906254655581603
0.0207107750962327898
0.0202554348544493959
0.0218344409134223101
0.0217681799747391699
0.0216840495726304226
0.0215706895855501991
0.0214107626175695752
0.0211747153536410854
0.020799249354489565
0.0222199475535446445
0.0221843505260777701
0.0221271330274654572
0.0220420389594576174
0.021920157331326965
0.0217493352074831538
0.0215034810416946144
0.0225881839888562516
0.0225924736157640665
0.022580039910373894
0.0225463708464129463
0.0224876887657090643
0.0223989072140662257
0.0222696817577160769
0.0166894982834623652
0.0167699261300012711
0.0168444677740909078
0.0169118874893915173
0.0169726274004194273
0.0170268480737921085
0.0170718999180903552
0.000465767640712807531
0.000322028978402398461
0.000769428292325580795
0.000482892207688288128
0.000984339996726882977
0.000575994048175948827
0.000408081967991633001
0.00150536898888391506
0.000746506743074651369
0.000495397770860055869
0.000383466416241803995
0.000198092726859815555
0.000137189943284509114
0.0002866228775081125
0.000173932537317582288
0.000973249596700564534
0.000380722133817054122
0.00019581345462217693
0.0026008785363714048
0.00108122463866880468
0.000455498782310293025
0.000224969312737115224
8.60817560103136284e-05
5.13071670237099281e-05
0.000105898984056709025
5.66194108196790578e-05
0.000283285397725705759
0.000118428617653703762
5.86281085839742588e-05
0.00136991250360644803
0.000331591170082406387
0.000120727493222277268
5.98009907820791522e-05
2.4848925475652724e-05
1.7807260855487917e-05
2.80079985395704141e-05
2.17441613294633219e-05
6.9901061585924315e-05
3.07643470515012174e-05
2.62538778572407716e-05
0.000257171888986205824
7.33954101278419231e-05
3.37697154624707233e-05
3.27069663893504958e-05
1.34458979819817142e-05
1.50639355215016471e-05
1.60370977445131389e-05
2.06043553389991626e-05
1.98401236890021522e-05
1.92531320166303853e-05
2.66543879622000779e-05
5.11299732284563592e-05
2.33591118468860088e-05
2.42209178775030571e-05
4.27522980271625324e-05
1.67741327980253117e-05