/*--------------------------------*- C++ -*----------------------------------*\
| =========                 |                                                 |
| \\      /  F ield         | OpenFOAM: The Open Source CFD Toolbox           |
|  \\    /   O peration     | Version:  2206                                  |
|   \\  /    A nd           | Website:  www.openfoam.com                      |
|    \\/     M anipulation  |                                                 |
\*---------------------------------------------------------------------------*/
FoamFile
{
    version     2.0;
    format      ascii;
    arch        "LSB;label=32;scalar=64";
    class       volVectorField;
    location    "0.330000000000000071";
    object      U;
}
// * * * * * * * * * * * * * * * * * * * * * * * * * * * * * * * * * * * * * //

dimensions      [0 1 -1 0 0 0 0];

internalField   nonuniform List<vector> 
7248
(
(0.548908083289467164 0.596559484866802547 -0.281379760101685639)
(0.383857713765531239 1.15048490605061038 -0.773214673466151803)
(0.464395957726287834 0.513457440708737556 -0.0784708841073318564)
(0.437809203667387292 1.09806897478979559 -0.598430848022465156)
(0.125823770314803546 -0.705967963655488084 0.0752653739438565034)
(0.104191453678967927 -0.455201733106992412 -0.0627705618207126392)
(0.183795672152589962 0.251895962604702761 -0.060333845850308758)
(0.154780740748374557 0.37662675801511114 -0.0271856704312952203)
(0.444751026557407392 0.801883167759933735 -0.440788682647865859)
(-0.10057865974729957 -0.679501879774192297 0.0571592234232518454)
(-0.108830300780562078 -0.305305272572020836 -0.0689633253203107838)
(0.197020308284794332 0.111492543499189606 -0.0738788219638763649)
(0.0238476856553390439 0.305445828228645078 -0.00862418814652525685)
(0.319781868589031737 0.316944254815600956 -0.277559201806418854)
(-0.214662824444091016 -0.566929796892719384 0.0956581815386335077)
(-0.203196103003101008 -0.364483877768825792 -0.0675550801529630207)
(0.0889578214942339379 0.0475093211077943084 -0.284440627122284406)
(0.0610748079716438297 0.207192374037478894 -0.233571463331021356)
(0.0752424263418451228 -0.0187651540578759671 -0.201183582929675447)
(-0.208136823299007845 -0.535726127071673663 0.151485410796873887)
(-0.25715556485252361 -0.428969489874562626 0.0144912485565852657)
(-0.141322012724009211 -0.141415384073103834 -0.293666870069475894)
(0.0886166601687192468 0.158089133593163789 -0.40731273242606636)
(-0.267541362602088217 0.0172880260552362164 -0.276188983577561609)
(-0.142329703929804596 -0.442536942098525565 0.167595454472026256)
(-0.164127821716970934 -0.414612018088558021 0.147695268325652967)
(-0.149196485461954825 -0.284162557351162581 0.0023015558289709373)
(0.0728225456715418246 -0.0799791974984605247 -0.235957284242711118)
(0.269220845695185507 -0.141895341145736487 -0.261030850124113423)
(-0.0955335998752331189 -0.38935153214113527 0.13593261809264276)
(-0.0938917588457878899 -0.355233701212408048 0.154750094936195265)
(-0.0601502594934906418 -0.313092737880273919 0.123140400634687799)
(0.0336366095368895029 -0.274223758364833148 0.0194396199814323122)
(0.163888320667539278 -0.389701567163439178 -0.093566249338164334)
(-0.0584963791884935691 -0.37737566747534429 0.110601936975126686)
(-0.0445133647761061096 -0.360074555537219509 0.129795964679952219)
(-0.0138871790060653214 -0.340267999380976183 0.143630937262047065)
(0.0453341339990844805 -0.328378216820457147 0.138208790804631998)
(0.123742522175063652 -0.371553044857997228 0.094535462506166526)
(-0.03794403496695474 -0.372918123522106792 0.0965183972930972328)
(-0.0230731590103345069 -0.363733860010032939 0.110315263493931087)
(-0.000641784614828104505 -0.363294901595746178 0.125825825225219484)
(0.0296172407383981304 -0.377851590359206568 0.139119653358138667)
(0.0635250329406554931 -0.399040221827370645 0.132677966650425028)
(-0.0282409114711735937 -0.375520096098082512 0.0792478248353568615)
(-0.0167942283526623937 -0.372235617759930026 0.0928099294229858124)
(-0.00187175638164762542 -0.374496423370429876 0.107818365882692432)
(0.0136309116708363057 -0.388791132957281182 0.123790226672094508)
(0.0291442087551173727 -0.415278565803618216 0.132126454363628132)
(-0.0226038743838326804 -0.375819450764841523 0.0625597597758861396)
(-0.0159463591913787082 -0.374625071499312012 0.073331762930752456)
(-0.00776080979034489415 -0.377382544674876363 0.0855935941847918574)
(0.000251394013978938069 -0.387478754632313793 0.0994644723859324925)
(0.0055147251025846819 -0.408918625602153141 0.113689554773058255)
(-0.0212070502383007904 -0.380876705591473852 0.0349516020641205474)
(-0.0198450521299526443 -0.377407214860516427 0.0409243379146330688)
(-0.0174050468588167057 -0.374934540580158293 0.0479795095902765603)
(-0.0139816547419556736 -0.3737070068111083 0.0561979239661611341)
(-0.0101442845950803322 -0.374105597611022467 0.0655780317188200124)
(-0.00706260226828144683 -0.377376234018941492 0.0760680080895325267)
(-0.00727595729006724062 -0.386864081081696232 0.0871641769088809248)
(-0.0136681123635621019 -0.379142844046469918 0.0253345143583642435)
(-0.0127928257341592445 -0.375918222973681271 0.0294056288409585039)
(-0.0114025085714543912 -0.373394651720866333 0.0343896524080712501)
(-0.00966447996112239013 -0.371574010963420909 0.0404074960571637679)
(-0.00777773746545097969 -0.370229391079303305 0.0475915802091062129)
(-0.00609328208212458339 -0.368868444880106727 0.0560307802084328843)
(-0.0060269913335440628 -0.368136599198987058 0.0658364239736470014)
(-0.00708728051612205617 -0.379022024349116859 0.015728751691195593)
(-0.0064221319578836528 -0.375834386378652185 0.0181716472378657262)
(-0.00552184395674630568 -0.373225925809643921 0.0211993163294050407)
(-0.00435817750223320075 -0.371136082607654572 0.0250248679643425009)
(-0.00294508053735208393 -0.3694121312326204 0.0299528784485656938)
(-0.000866293652829645128 -0.367618655323874055 0.0364920177852359473)
(0.00209968317960364248 -0.364830975726054552 0.0454608658868964691)
(-0.00219762533419483449 -0.378738519179985689 0.00542188914575220636)
(-0.00191605182636028532 -0.375583555145878933 0.00625677660729653546)
(-0.00154447300718332315 -0.372942442010607333 0.00729841993759026107)
(-0.00105555898123350532 -0.370885681743915008 0.00865368207730744625)
(-0.000257587615111259331 -0.369499015415892973 0.0105041989882330468)
(0.00104183570751578171 -0.368953565693045771 0.0132182456973018517)
(0.00360177250033371808 -0.369732455039202101 0.0176189680032291171)
(0.527695961247561018 0.662444818206106567 -0.300028140661460163)
(0.37162837839129681 1.23843949099562223 -0.585263351016231281)
(0.451081497135648213 0.586538607238680454 -0.108000363935004187)
(0.420338893712514039 1.16668137805427086 -0.509696395572041494)
(0.12640044028970901 -0.701876482895959386 0.0443048277198701893)
(0.140959910513610148 -0.478744236777725929 -0.123200278304827118)
(0.123272342086404307 0.316822479079921004 -0.0465941641880569662)
(0.142888066363832417 0.463574039009294725 -0.0560135823605203836)
(0.443227044005732596 0.945596509477408365 -0.416758328546474432)
(-0.001213312242230348 -0.675095793447271442 0.0205818180226723067)
(-0.0139061827513796768 -0.402449852522017926 -0.162499031125319271)
(0.202533745078566141 0.20405764690982503 -0.102102282460318619)
(0.0646241373743478287 0.415282521537468474 -0.0289620789793501865)
(0.347231399715861311 0.43629115435639243 -0.266365013878415102)
(-0.148924969962792642 -0.58886839863715601 0.0514969073690849863)
(-0.149448343638940634 -0.421035678884048914 -0.118442358369843945)
(0.1925383805774733 0.20569347331959309 -0.316628171550643933)
(0.105885230112946011 0.352182441082160902 -0.119094663550825999)
(0.124090564921722338 0.0720170983223318434 -0.155118506440052817)
(-0.17757246248154171 -0.53398863511425354 0.122677340056694714)
(-0.211724480912902496 -0.434495447313727357 -0.00966451790997958221)
(-0.0489160457318407876 -0.0530046344271957529 -0.35674233969751501)
(0.0856358562222105657 0.25361406147957799 -0.351058768534101562)
(-0.266990942760793937 0.118656637763324996 -0.20863816655581352)
(-0.13127508178391184 -0.451947811077536954 0.132999816285572864)
(-0.17047599638436714 -0.412121552221135112 0.133512263714816226)
(-0.170439705354042736 -0.207885242458514002 -0.0037105401158451564)
(0.143774112488838146 0.107504136643795753 -0.274013768454250461)
(0.192510803004863423 0.10074876959557047 -0.242390401725222054)
(-0.0831322393266580861 -0.397582891590364085 0.115919251336201082)
(-0.0939800399540934445 -0.364040767925956077 0.134685881731730184)
(-0.0737097109972591202 -0.300961879642580143 0.10877735414609728)
(0.0136070035650888502 -0.22201939760723019 0.00935197389713122995)
(0.118302189872331875 -0.301713308813461756 -0.093489798806977234)
(-0.0452709717955126767 -0.388403837538546515 0.0988929439571672453)
(-0.0326174924557281337 -0.369158756889889639 0.117821062823186384)
(0.000854584103284344865 -0.338211713741623288 0.130723238013986998)
(0.0747131308421781076 -0.310556253123286941 0.119746902591278126)
(0.220914839035750099 -0.421768139643117213 0.0784353641920005062)
(-0.0250245910648077274 -0.383924221051752446 0.086336927124866944)
(-0.0107471962610004648 -0.378336533989065082 0.100488937898656525)
(0.0118143760681450778 -0.37782814714787577 0.115897287508209643)
(0.0443112845422255902 -0.381027159029945828 0.126309841275979495)
(0.0826012401909721472 -0.353110952035649184 0.105901436955970277)
(-0.0170590313338379769 -0.38563247258432648 0.0718065116838436934)
(-0.00452260845497694242 -0.384064121805035741 0.0842987631249343533)
(0.0110033531689641279 -0.389411297964475378 0.0986039169993214171)
(0.0287534649347133756 -0.405318803178954634 0.114305531312372449)
(0.0525540641079314391 -0.427480757702559722 0.124271577102304201)
(-0.0134781164152799719 -0.386081141114238857 0.0571209249919986325)
(-0.00558815263994336467 -0.386442646106292531 0.0667976849944831447)
(0.00363360130825707284 -0.391741105123843303 0.0778713595392374752)
(0.0122102418155770262 -0.40576346691564269 0.0900827961516831727)
(0.0189278067335758929 -0.428300003185365097 0.0989654759456556898)
(-0.0104432082933709619 -0.384519331789508034 0.0439823419693455356)
(-0.00595119738168057785 -0.384458866130305832 0.0511887831538171759)
(-0.00106275519813154792 -0.386364565966527018 0.059194562128014834)
(0.00254601657481319521 -0.392426332266256228 0.0675022246519101921)
(0.00223453225948044842 -0.408616079051379366 0.0738879767483284766)
(-0.00633409585783816474 -0.382715989812254964 0.0317806083913979159)
(-0.00362750200611772558 -0.381999574105160777 0.0370996917072464252)
(-0.000558365847091263356 -0.381794276056807103 0.0433611003109994619)
(0.00258760159586561567 -0.381709698214501292 0.0503793241644468481)
(0.00360827617550194685 -0.382255444761359475 0.0577531378324089087)
(-0.00240596530654521232 -0.382449789876335988 0.0197570326346357301)
(-0.000417062772837276108 -0.381699834163192919 0.0232443567490036029)
(0.00231405914856664188 -0.381502784158558872 0.0278005974286359495)
(0.00634486074714147794 -0.381296629928820963 0.0339631331456529337)
(0.012209462380951908 -0.380389476722945985 0.0425508850658286517)
(-0.000449767986706849695 -0.382212827273969602 0.00683843225412647179)
(0.000413928829584111081 -0.381750351049900072 0.00809235989777926969)
(0.00175115096154214098 -0.382444810156909898 0.00987158898739174014)
(0.00414320117633697887 -0.38479970767975763 0.0126016886764602921)
(0.00926484355307626017 -0.389761689356096397 0.0172794281297791869)
(0.513462721403267763 0.6901612736330065 -0.295153191810364868)
(0.337159486375514184 1.30555791826440903 -0.505760548904090834)
(0.465434652084560141 0.578206689356952186 -0.13020918240210938)
(0.407825123562755132 1.21338113183776253 -0.43575191861998902)
(0.20561836383559548 -0.680902838907657904 0.0365813908153944795)
(0.197363386189728179 -0.483065958006422769 -0.10366006393495121)
(0.215710625086404539 0.545354614209441979 -0.0212797555746302887)
(0.22891449168294184 0.520503699306344769 -0.0261569844792245015)
(0.448683860464163586 1.03426903279596627 -0.348226635519508443)
(0.100059323337544165 -0.691202347807653661 -0.00374977559998284065)
(0.0492128110394040724 -0.420182399954278085 -0.224962555746568704)
(0.221578843336790732 0.324660739872837667 -0.0931026229907431085)
(0.105534720251506772 0.483802262962077345 -0.0171082518237712297)
(0.38209610502896868 0.570020251697637925 -0.231591799734992887)
(-0.0669437572272686826 -0.572512972506239004 0.00370756797106321784)
(-0.108297947712401643 -0.404513577270583402 -0.197521712383244452)
(0.195107819111622949 0.368128478865613062 -0.305855049637775711)
(0.0787886433499895844 0.445111334591428931 -0.111820709602335061)
(0.181629446802244215 0.168842391794820135 -0.113106711474401489)
(-0.117676673876772664 -0.515276662964610943 0.0852923574011642538)
(-0.155930090951081068 -0.439453309611109455 -0.0291054123508970065)
(0.0539411820992424101 0.13035753360287336 -0.389286228545096369)
(0.094296946121141173 0.40272952438377202 -0.321348518057797683)
(-0.165651584113075068 0.187666009654107319 -0.143943018918114229)
(-0.1016493224998124 -0.448886342078603895 0.110820482587368638)
(-0.147350774447191163 -0.422303308875128847 0.120334870442437195)
(-0.126384218091079387 -0.154176938430243021 -0.00736997349088347638)
(0.229105877103889244 0.306300044392923687 -0.30915095438550827)
(0.221226734228501254 0.245850077906968167 -0.223002289960661321)
(-0.0639106145410486964 -0.405969180952794106 0.101405441494394843)
(-0.0765710255264518969 -0.368858342804808614 0.129650044021870997)
(-0.059692197292099021 -0.266007120320638168 0.131937631285935275)
(0.0791684469685227793 -0.0245995728700213537 0.0261832838855447121)
(0.227706201186309104 -0.0298069008291534446 -0.0470609599032913717)
(-0.0313040922364658039 -0.398572993868259617 0.0873551633558306562)
(-0.0194002572252536983 -0.38255331074055432 0.109790987278241367)
(0.0111353069426768266 -0.340831937726206735 0.129563707817593771)
(0.0815156158858493796 -0.271936535010618485 0.126167789785115225)
(0.222417889382167028 -0.327754160398629146 0.0789135512194279187)
(-0.0130215714725066822 -0.393741418315307456 0.0762372347053980604)
(0.00209659510862491086 -0.392384929780582425 0.0912821796019752801)
(0.0264832308597671984 -0.390508477300375301 0.109695867948030712)
(0.063890133299964097 -0.37648066138772307 0.127721950829038589)
(0.140413922044205552 -0.321594203293295577 0.121249466552895632)
(-0.00660178840949410609 -0.395121864476611684 0.0632631598297721948)
(0.00695743585939979231 -0.396506807836032038 0.0745085856240924188)
(0.0236662993895415952 -0.405569533383598024 0.0883478031838596245)
(0.0460122002387866255 -0.41942214421426055 0.104284176197609588)
(0.0776691440308160952 -0.421067073393942004 0.115631305714785679)
(-0.00538501507012901712 -0.395278028565384631 0.0504907634556938587)
(0.00369243613459159167 -0.397667412036653178 0.0587906754020441902)
(0.0137881269080915025 -0.406764658750291663 0.0681523166454437168)
(0.0230117664488225515 -0.424071013337650071 0.0780489281895441755)
(0.031339981758091516 -0.445291835082377796 0.0829779953166070727)
(-0.00434283480062219035 -0.393212372175016533 0.0388994144826816449)
(0.000996182968273848224 -0.394217980975996585 0.0449400900144873924)
(0.00631456227828005104 -0.398340865110913322 0.0513429675984054465)
(0.00816765919479560745 -0.408475193753349952 0.0573239280808705287)
(0.00496880557285429153 -0.421676886404832862 0.0597512651883795945)
(-0.00187599165923541499 -0.391167798382391574 0.0283051326151951763)
(0.00165114229318493247 -0.391234175731035472 0.0328058364741941749)
(0.00557083647056279968 -0.391683414639176219 0.0378849472936062526)
(0.00895596595627195027 -0.392870560282227332 0.0428479644729554687)
(0.0100304388330503223 -0.397758632559903458 0.0466141526300268422)
(0.000399471393424787741 -0.390882797100866375 0.017724938608865079)
(0.00319740568535517231 -0.39123537355377247 0.0207928104958754779)
(0.00715568185814845735 -0.392271126481315402 0.0248596881444785797)
(0.0132189599891114444 -0.393073844010512041 0.0304377292696149798)
(0.022154552557568423 -0.392826558328655817 0.0382976603648856467)
(0.000516633745963950616 -0.390695876750558169 0.00615455876413598026)
(0.00172152753947888912 -0.391625970518281297 0.00729393473901219364)
(0.00366106819245362071 -0.394201912896407825 0.00894669756142986786)
(0.00740522661572344532 -0.399231886793801616 0.0115083026834353098)
(0.0151755498424816261 -0.408164578215525431 0.0164750995598833029)
(0.522910142103961473 0.704475918816021118 -0.244457828940932653)
(0.340872235180620153 1.31505811400995576 -0.368358353281566631)
(0.485958754094088508 0.567919882589445701 -0.121443760161953448)
(0.413572640663522451 1.21976940850890303 -0.327987670047126589)
(0.197689993270729947 -0.687975078892876679 0.00291732712990745539)
(0.179467193330039354 -0.402332532920818498 -0.115249375324035563)
(0.193819945434259622 0.50519807914267878 0.0683361592257261952)
(0.237727158242003467 0.505952708845646026 -0.0250235453829730885)
(0.449656201521717147 1.03469318836486313 -0.260962994159131323)
(0.11174289145248241 -0.681705060812446972 -0.0713234669772790097)
(0.0264017214641858698 -0.311767147652586007 -0.257112269424605744)
(0.174865383232333527 0.436744292190387462 -0.0350130953729840683)
(0.0913037468219859982 0.541774302972608202 0.00261014586761145612)
(0.390042510469629899 0.608685111151183622 -0.185580502851642043)
(-0.0207230662174373026 -0.524078081296202591 -0.061656588986157855)
(-0.0918585389700649624 -0.321467727240230317 -0.242026144941018317)
(0.152970211530954803 0.51000862382633394 -0.327146661845847453)
(0.0800049188346419193 0.54910874356800865 -0.109280025514320547)
(0.211330181098939862 0.229398081324439423 -0.143247816285312773)
(-0.0656997281246709114 -0.470844604679254319 0.0385672326287367986)
(-0.113684339216343036 -0.423433755815491586 -0.0304655118388234766)
(0.0703162994859237167 0.296129360854250456 -0.346397200747019685)
(0.124909540194474381 0.485920930765771641 -0.288191608085039852)
(-0.0280834729562147375 0.143326771803134495 -0.128982766954235412)
(-0.0598302877608650058 -0.432049021216719287 0.086221502508256595)
(-0.0921857797603701928 -0.414881957368724408 0.106868059840103238)
(-0.0383568033786370888 -0.117995513640937189 -0.00585069566437805295)
(0.258127459657999325 0.299432912560542996 -0.283114864485104034)
(0.239087793138081706 0.224409541512836069 -0.21616624586619812)
(-0.0405070961413458441 -0.408549369579437882 0.0885702267583586139)
(-0.0375952043527286797 -0.379344874816314293 0.124371506767217796)
(-0.0118943184528081808 -0.269854841550793145 0.149467671721632056)
(0.144744544697001543 -0.0560898554291775348 0.0810454016328055749)
(0.283890356242237851 0.00132873729345412729 -0.011498965616226901)
(-0.0164459198279591975 -0.407015933569571442 0.0767081290508799668)
(0.000228672078248816357 -0.399098287597640655 0.101479253430152683)
(0.0361411996673748348 -0.354164193998635135 0.134684888499962852)
(0.110009106738280418 -0.274735562533639233 0.163774551549211722)
(0.21500321785526863 -0.209271520963217078 0.108893914061612085)
(-0.000226771124444073713 -0.403546620602515393 0.0635761515631006885)
(0.0166526677645938842 -0.406934457138021677 0.0791527633784961243)
(0.0468706130929329584 -0.406001432043101074 0.101901984971294157)
(0.0926988044914750092 -0.384914046692202416 0.131666373094901562)
(0.207538203872846161 -0.345478804951840801 0.140603168886506563)
(0.00222298664015259037 -0.404045131060081553 0.0532579897761106535)
(0.0172153781354599071 -0.409900053442765089 0.0624693852590284121)
(0.0352408095489643372 -0.423525694795603147 0.0757417942684311118)
(0.0629107687874698729 -0.432056295323381689 0.0939183761582696036)
(0.103712206584203132 -0.398028358661013493 0.108064913981646776)
(0.00160716790053526751 -0.403404175956564692 0.0425022302884131425)
(0.0114152512302947255 -0.407982674842048476 0.0489009902531935686)
(0.0210643909974473943 -0.421301627259803746 0.056269571648237808)
(0.02916942123649921 -0.439892313437999727 0.0658807913133435952)
(0.0371130515271720293 -0.4440822924806061 0.0727261268026541813)
(0.000726876336829739012 -0.400784796899984253 0.0328718883787281063)
(0.00671885112828667433 -0.402813660956640396 0.0375540370998256948)
(0.0120374414199039929 -0.408728147285069066 0.0421817929601819158)
(0.0122131030581278076 -0.421137261282047204 0.0465615782845578974)
(0.0100767833561043255 -0.439992979869341883 0.0483723882060646745)
(0.00187073322783329159 -0.398443760057874019 0.024087766689750479)
(0.00597168625819074345 -0.399146244653001969 0.0277263659089408664)
(0.0102380975736055691 -0.400349571907687385 0.0315382706008991015)
(0.0127191406461886255 -0.402910632710426153 0.0344297715835201745)
(0.00954108431335021906 -0.406973980815077185 0.034946833922140319)
(0.00282610487611513646 -0.398206109667973651 0.015177044424275369)
(0.00634953254726547487 -0.399431315838504719 0.0177622548681318042)
(0.0114285361576433563 -0.401262377266964343 0.0212060608266851705)
(0.0193646102161194704 -0.402683146464946073 0.0259474545007271941)
(0.0314740094325603112 -0.40374106656264569 0.0321977562560174652)
(0.00135052839267495845 -0.398107256351979522 0.00528620262303092919)
(0.00287928534397176783 -0.400243480549749953 0.00627951335926883129)
(0.00543835765110152036 -0.404469229081258597 0.0077009151881330673)
(0.0105173224438260965 -0.411742535713945867 0.0101526741167513312)
(0.0215531552084835439 -0.42403220935214686 0.0151740167843711846)
(0.522200679973036874 0.724321157032920881 -0.200150278852470304)
(0.328198766096079786 1.30090676279523287 -0.281095183422628847)
(0.491059560542620788 0.560195703576322313 -0.126462905161614847)
(0.404414382465939859 1.23658565903785833 -0.255848693920243286)
(0.194331197638018344 -0.645075299972508898 0.00591168063381051784)
(0.181317585601575237 -0.25426560005473875 -0.0744771391354891593)
(0.308350762103758669 0.470179093707478124 -0.0329056585467558949)
(0.31950821654860162 0.438230691966308761 -0.0599691419631153411)
(0.440683368165529832 1.10091158152707935 -0.20990162614469135)
(0.098003362369796107 -0.63793787887793485 -0.0710985430176683531)
(-0.0211211761747322271 -0.246669032865487692 -0.27012121111740417)
(0.229216587558244728 0.446365562296337892 -0.119476257091428617)
(0.0705545795658802516 0.440551056776078642 -0.0653849633868246738)
(0.39718836499717608 0.74021067930485418 -0.158706505978348317)
(-0.0338302579648223564 -0.542012231764471442 -0.0629046786612526415)
(-0.113950265031688897 -0.251593773978694313 -0.254459437608597572)
(0.121780384081573073 0.439916892281743133 -0.347440826392201085)
(0.0107751091451359464 0.438875446663484325 -0.139332359955946145)
(0.241321477656014804 0.275805801584671939 -0.120857839578815227)
(-0.0422921102904740276 -0.494384467140773665 0.0313161792994247831)
(-0.0870787806007554815 -0.406325783320618916 -0.0275930495009557575)
(0.0630821685240656044 0.203722389209931548 -0.280644103784202292)
(0.175067071947372394 0.397505010136303683 -0.249711334464901569)
(0.0245518807247271514 0.0404845636488092228 -0.127131751585418562)
(-0.0234324682946574735 -0.445768530238135896 0.0746386801211669781)
(-0.0323382969133359649 -0.409588355715168717 0.0936317874006201145)
(0.0170923763426785932 -0.154179701796916813 0.0444748241430041671)
(0.281146566723860791 0.121898465488517571 -0.168698532005235158)
(0.228585533345326747 0.0990325615305319706 -0.187362628791058167)
(-0.0142685558873385659 -0.421535971294247191 0.0744067104401412716)
(0.00271306506592058211 -0.398158231896193537 0.109524737191943944)
(0.0509934757504306724 -0.316681150254137622 0.147539697486236965)
(0.194370963193717716 -0.168981020506094648 0.141889252748098688)
(0.333610470650019253 -0.039502757839464088 0.0286716172164976357)
(-0.00113507094457265464 -0.412189320420723315 0.0614259422591265508)
(0.0219968689080473692 -0.412017989837381138 0.0862427151751513216)
(0.0684650875846511409 -0.379064757469065483 0.126621186398993585)
(0.142655699309858053 -0.311875754273617023 0.174738554398393947)
(0.27168730578286171 -0.142951169719047116 0.149632736389533783)
(0.00965991576498480969 -0.411639318122440867 0.0488881057586381049)
(0.0287353351123531102 -0.419595113698833067 0.0625334112658873231)
(0.0613783226634564555 -0.424028177409416063 0.0872974405376761992)
(0.107424806821538377 -0.397352353633084354 0.125419886267932462)
(0.235682805412046448 -0.331060700249493245 0.139397740903080436)
(0.00922618619291512738 -0.412014918576737943 0.0416166478235680259)
(0.0244222754301482645 -0.421209363701914086 0.0482049193257926487)
(0.0415135470309060672 -0.438004647202780872 0.0601581552326752797)
(0.0692335395462927161 -0.44337925328984118 0.0812563854088951126)
(0.119559404441921799 -0.386308001948644286 0.0993004733077702539)
(0.00680194211444268282 -0.409791350900183149 0.0334323589902930721)
(0.0167970333851165977 -0.416046089076946402 0.0377831452337822754)
(0.0255796566693938764 -0.431915118478293447 0.0435968153633397582)
(0.0314857006745405954 -0.455297932222719859 0.0546471178129915927)
(0.0416362731770115874 -0.43911781755776802 0.0684417580335467124)
(0.00476055850958255304 -0.406986356115001835 0.0261254432426708816)
(0.0111025632912471178 -0.409959034963273461 0.0293987186938928294)
(0.0158482541432986221 -0.417740906972634607 0.0324905338177844394)
(0.0136919128591332095 -0.42994960402362481 0.0363783056838195978)
(0.012098600145071553 -0.443013835538397349 0.0395503509505658046)
(0.00483309148807053481 -0.404335781337124334 0.0192990205459601452)
(0.00938050966425852881 -0.40550263185382418 0.0220483106874686113)
(0.0137114407656493183 -0.407330799232346441 0.0246753936442126454)
(0.0143268301575889025 -0.411079320532198922 0.0260707879733842775)
(0.00661414166409549434 -0.410666799310089925 0.0252743051235086551)
(0.00480617106686486145 -0.404220974158431001 0.0122301778872316805)
(0.00895586633380222701 -0.406127014300886824 0.0142860391187976995)
(0.0149338685946005644 -0.408490880300017845 0.0169927372161606215)
(0.0240848830437520763 -0.410136194623233474 0.0204421718709206293)
(0.038241341605948366 -0.412237946876556627 0.0245453251928865364)
(0.00204227689281651819 -0.404232109281022045 0.00426624568151968975)
(0.00382707768242054099 -0.407363503737898924 0.00508274335020271733)
(0.00704782035211307285 -0.412904677817350407 0.00624316712779424132)
(0.0134571302759296275 -0.422051294639446628 0.00850881360161373675)
(0.0277949230700064789 -0.436744035449832535 0.0127085674017289787)
(0.516567911980055916 0.733677296826188541 -0.151662653001267966)
(0.323018506095699209 1.3673720655887136 -0.184927775839094422)
(0.494860368355314384 0.565220047739213305 -0.0941952854080662511)
(0.397053380863800709 1.30102505702898963 -0.177055883354079541)
(0.290961144702757135 -0.611999128003762549 0.0612659365950984358)
(0.176211025551236689 -0.313671644397331639 0.0101449468520517106)
(0.204102066920990283 0.532234717899293219 0.0292655748434943186)
(0.291749239140740635 0.462246224951476992 -0.0156339185681025304)
(0.439432208414031689 1.18455475949255495 -0.149350190006319411)
(0.135797103980900558 -0.603545007076959794 -0.016940533132920519)
(-0.031228438277498563 -0.156188604473361498 -0.224464224284464164)
(-0.0597722808379291398 0.376926311822146587 -0.0795864001173301749)
(-0.0814853039708371696 0.478766116416740273 -0.0339971005612075133)
(0.398166974717377942 0.836216601220887368 -0.116515484156458279)
(-0.0415641470061156384 -0.501796854895624533 -0.0353762478306637942)
(-0.108587414133047802 -0.276634114887020999 -0.220186917418925737)
(0.091307556332575035 0.28002029028796771 -0.301092363715563083)
(-0.16069702576099465 0.383155263425538739 -0.169586387507213193)
(0.212099755232173115 0.161813505645554828 -0.0742002125925763784)
(-0.00804915619182654078 -0.499466971591078557 0.0228520327638155815)
(-0.0485587502232796425 -0.455724980132714452 0.0158233929891637183)
(0.0570759978592696657 -0.144628759438128141 -0.114763102734245268)
(0.0552939628411364681 0.144378950615793533 -0.219956923114941916)
(-0.00751012726246437501 -0.166453963005828515 -0.0567135839067388625)
(0.0118121859957148675 -0.468318422715312099 0.0390714919631584001)
(0.0133797037023249167 -0.443185918720079397 0.0707827572573406089)
(0.048562401086856298 -0.308135780760135036 0.084205823319395412)
(0.264791351043699497 -0.148372761174034418 -0.0304842023509604675)
(0.247943124852303853 -0.0409262960498517972 -0.145475258663026102)
(0.0121535368972234981 -0.430358194132272887 0.0393078003846662055)
(0.0350502276872448545 -0.425289316345008661 0.0713033635199951249)
(0.0907403797913833715 -0.383291508463070141 0.117944110643405833)
(0.215036890806163311 -0.302483417352105655 0.126738162028965512)
(0.330730422990478778 -0.14247367447510248 0.0163148211645123969)
(0.00733756564660697531 -0.414756105099754246 0.0375393688514623139)
(0.0380331397706311636 -0.421630755689000214 0.0577928642901865894)
(0.0912065106208193588 -0.409592903343550585 0.0928467172094067095)
(0.163398121431396093 -0.354619217786798169 0.145112061308592388)
(0.300955502053942336 -0.160463776425472326 0.136350044354184768)
(0.0160935732490022528 -0.417321320814269814 0.0335778107634381179)
(0.035833830231462957 -0.428071284816285369 0.0426569541789157541)
(0.0691334275245660407 -0.438009473661548132 0.064547771836782647)
(0.104522927801035281 -0.41502997537696068 0.104575553088497822)
(0.263117994577631853 -0.323117820431684355 0.130966757235242703)
(0.0137683920806837279 -0.417392127182161787 0.0291257070612227532)
(0.0284421188815036953 -0.428766063990936586 0.0328406998317716248)
(0.0427159582651282024 -0.446476937117097128 0.0420371431902122061)
(0.0635742065118341526 -0.449373396165513861 0.0636294958783616416)
(0.124276538443790385 -0.378623327748808081 0.0857527196429370281)
(0.0102521357086759746 -0.414648634791038084 0.0236991577724608438)
(0.0197936785551597501 -0.422169279313887702 0.0260385335138999807)