/*--------------------------------*- C++ -*----------------------------------*\
| =========                 |                                                 |
| \\      /  F ield         | OpenFOAM: The Open Source CFD Toolbox           |
|  \\    /   O peration     | Version:  2206                                  |
|   \\  /    A nd           | Website:  www.openfoam.com                      |
|    \\/     M anipulation  |                                                 |
\*---------------------------------------------------------------------------*/
FoamFile
{
    version     2.0;
    format      ascii;
    arch        "LSB;label=32;scalar=64";
    class       surfaceVectorField;
    location    "0.330000000000000071";
    object      Uf;
}
// * * * * * * * * * * * * * * * * * * * * * * * * * * * * * * * * * * * * * //

dimensions      [0 1 -1 0 0 0 0];

internalField   nonuniform List<vector> 
20536
(
(0.498707839086500571 0.873522195458705908 -0.527297216783918277)
(0.506652020507877499 0.509729315064097577 -0.179925322104508567)
(0.538302022268514091 0.629502151536454724 -0.285013735605363361)
(0.557171191200568128 0.530961489006196885 -0.246981981758269464)
(0.410833458716459266 1.05882697993341512 -0.685822760744308368)
(0.377743046078414024 1.1944621985231163 -0.681543144111731891)
(0.45207126462142222 1.0667383620062183 -0.844688262517243049)
(0.344972540478551026 1.23990164276107739 -0.710784219826986363)
(0.436684924258823937 0.805763207749265464 -0.338450866064897493)
(0.309588349237330696 0.439377971193950834 -0.0528282772693134742)
(0.457738727430967995 0.549998023973709005 -0.100513820390855241)
(0.410222854559736727 0.430089141589776458 -0.0623970850005366381)
(0.441280115112397342 0.896688133478614868 -0.519609765335165674)
(0.429074048689950693 1.13237517642203311 -0.555513384039955205)
(0.46451204730831186 1.03146233958995825 -0.682714241526642396)
(0.415188367694842131 1.19567197632691835 -0.672397742759475836)
(0.129883349670326442 -0.580584848381240692 0.00624740606157215585)
(0.012622555283751816 -0.696773083362874357 0.0662122986835541605)
(0.126112105302256278 -0.703922223275723735 0.0530278659820685727)
(0.0756094921122470592 -0.694380411343323067 0.0696882038871920462)
(0.153235273247453785 -0.101652885251144853 -0.0615522038355107021)
(-0.00231942355079706956 -0.377196562905492472 -0.0658669435705117046)
(0.122575682096288982 -0.466972984942359115 -0.102601507711356704)
(0.0657354902689266385 -0.413614512357257547 -0.0459181438241198434)
(0.252054458611367216 0.314261360309906812 -0.0437597581408020464)
(0.190407990218692147 0.215340963156477411 -0.067106333907092558)
(0.153534007119497135 0.284359220842311855 -0.0695935179081910438)
(0.159294480268209082 0.159101940293750577 -0.0626204763917627694)
(0.212635968627151006 0.589254962887521216 -0.233987176539579289)
(0.0893142132018567986 0.356996449219473766 -0.017904929288910236)
(0.148834403556103501 0.420100398512202877 -0.0618478321486481825)
(0.109017118626571055 0.359629230936297284 -0.151805988260420299)
(0.382266447573219592 0.514178294400498892 -0.359173942227142384)
(0.443989035281569966 0.873739838618671327 -0.434929535895360264)
(0.447757092911319043 0.70647602367154938 -0.490078049441046271)
(0.437476851248395859 1.00414428216713181 -0.564960798175083045)
(-0.0854315558237696698 -0.492403576173106983 -0.00590205094852938681)
(-0.15762074209569546 -0.625677363945900011 0.076408702480942739)
(-0.0508959859947651291 -0.677298836610731869 0.032023903883350871)
(-0.135045293998687366 -0.639224577758031542 0.0636555218737061002)
(0.0132427085720722218 -0.0969063645364160869 -0.0714210736420936437)
(-0.156013201891831543 -0.353245056660638268 -0.0682592027366369092)
(-0.0613682417659708462 -0.353877562547019409 -0.128843219560035804)
(-0.142113854136674017 -0.269830660649592768 -0.0251636266419256217)
(0.179931767361863448 0.208469185863917161 -0.0412515050552008725)
(0.142989064889513934 0.0701544520237830788 -0.179159724543080712)
(0.199777026681680209 0.157775095204507332 -0.0939392876707391827)
(0.149238593503142447 0.10809598684332003 -0.0425642128946072326)
(0.150428977572783257 0.311195041522123017 -0.143091694976471534)
(0.042461246813491435 0.254602270500526529 -0.121097825738773313)
(0.0442359115148434068 0.360364174883056665 -0.0271468738142298313)
(0.0497454855317241498 0.2940569564717464 -0.121630480169722305)
(0.197512147465438964 0.231026753055706191 -0.239371392368047331)
(0.333506634152446524 0.376617704585996749 -0.268745345636181743)
(0.260159394802104704 0.0387311521092360694 -0.25353264246984919)
(0.379906109671777237 0.652942797869317415 -0.439615511215011467)
(-0.187188918337529403 -0.465706837330772172 0.0140515506928349104)
(-0.21139982387154943 -0.566132517946869473 0.123571796167753656)
(-0.181793897203441801 -0.577899097764937753 0.0711793738975902562)
(-0.230555625425620386 -0.551221575711949519 0.102235314860726276)
(-0.0914668356188613613 -0.158487278330515291 -0.175997853637624019)
(-0.230175833927812351 -0.428183708921098249 -0.0265319157981889105)
(-0.176322223321020877 -0.39275977832643727 -0.0870441780662557646)
(-0.228474914243414984 -0.352216993467321104 -0.0519161914361527671)
(0.067612629494059176 0.127350847572636761 -0.259006045226652826)
(-0.0261820956148884412 -0.0827084171779656624 -0.289053748595880233)
(0.140748101035853529 0.126601397213693512 -0.288590215108717851)
(0.0111524169701223974 0.00776102098510482452 -0.249085387159342447)
(0.103992160205923154 0.0942136099898014667 -0.217377523130348416)
(0.0748457340701815244 0.152728533870061606 -0.320442097878543719)
(0.0834800190422949479 0.279687407559819967 -0.181926637195389568)
(0.111495206069226152 0.179044093547424732 -0.217501981524058918)
(-0.0961494681301210408 -0.000360556411177646505 -0.238686283253618403)
(0.0996664956317838135 0.0266259721322280873 -0.177145837827976466)
(0.0271028611254509333 -0.0724323827993509084 -0.202080740773673495)
(0.249479786824913147 0.314708389978571645 -0.333885926293870372)
(-0.21874197668441886 -0.482347808473117978 0.0829883296767294359)
(-0.175233263614406165 -0.488748854001790245 0.159540432634450086)
(-0.192854642890274791 -0.534857381092963657 0.142447228157297656)
(-0.208773769411857907 -0.518923965213784033 0.162737911748947722)
(-0.21234220717518737 -0.285192436973832675 -0.139587810756445913)
(-0.210641693284747272 -0.419806286296113385 0.0810932584411191149)
(-0.234440022882713039 -0.431732468594144991 0.0106390030726599954)
(-0.251642577475746088 -0.421579863850227055 0.0219138605373385177)
(-0.0531311206876153783 0.0083368747600297121 -0.350489801247771016)
(-0.14525924909298199 -0.208234249626592427 -0.145682657120253162)
(-0.0951190292279249089 -0.0972100092501496926 -0.317741803100193454)
(-0.14770726049756272 -0.181232380611921318 -0.259907050797729411)
(-0.00822378635271051039 0.0876885798242005438 -0.341750858001814484)
(0.0807196029201305149 0.0501747926621115073 -0.321635008334388461)
(0.0871262581954649062 0.205851597536370834 -0.375435670642797981)
(0.103778980035705057 0.100936996315667979 -0.403883910074477548)
(0.000839741546548200546 -0.0438964291001094423 -0.268609916850837516)
(-0.267266152681441105 0.0679723319092805506 -0.256762701122750403)
(-0.153628759730367326 -0.0373208488082673109 -0.316353475891298863)
(-0.0426103294037861735 0.128267050485579515 -0.316777757811375738)
(-0.147590529358926664 -0.428574480093541765 0.157645361398839584)
(-0.118931651902518851 -0.412662483173673655 0.151764036282334508)
(-0.136802392856858218 -0.447242376588031232 0.151840021701436317)
(-0.14564814663224715 -0.434623408850209836 0.188942358790220116)
(-0.158603302527903917 -0.34938728771986044 0.0749984120773120877)
(-0.129009790281379294 -0.379529285758039903 0.151222681630924144)
(-0.167301909050669023 -0.413366785154846594 0.14516251613344569)
(-0.155455456488063498 -0.401354410821290808 0.162227536342486184)
(-0.0789474415145116071 -0.182070877424811955 -0.116827864206869622)
(-0.104673372477722626 -0.292058162556621315 0.062720978231829469)
(-0.159818095407998795 -0.24602389990483825 0.0043054060246066261)
(-0.125389654723254196 -0.311759086794793971 0.0192309410873283647)
(0.153782822648901835 -0.110937269322098436 -0.248494067183412243)
(0.053229577604215747 -0.168544258684899584 -0.108258832130640165)
(0.108298329080189923 0.0137624695726675152 -0.265729356470626232)
(0.0586259870507715164 -0.159560273719460577 -0.204668718232039443)
(0.216554583181362226 -0.287559719689620907 -0.177298549731138622)
(0.230865824350024507 -0.0205732857750831472 -0.259075447070587217)
(0.236222862555515389 -0.232865478645435109 -0.268294892501387494)
(0.326157143185959397 -0.445632819074338882 -0.192453661092091499)
(-0.090730557144346885 -0.372292616676771715 0.145341356514418985)
(-0.0770149895318634203 -0.380110547205576632 0.123267277533884778)
(-0.0893329196009456233 -0.393467211865749678 0.125850796965069761)
(-0.101265737873257489 -0.384770793866179572 0.150787914263347284)
(-0.0807151625003125761 -0.334163219546340928 0.138945247785441484)
(-0.0692025618109469304 -0.354220920594759736 0.142273029808073714)
(-0.0939358993999406672 -0.359637234569182063 0.144620924313018234)
(-0.0915206116640309708 -0.352522601444153483 0.170396036836740539)
(-0.0322760869245416748 -0.2936582481225537 0.0712900103080603698)
(-0.0370187192497779816 -0.31869093338458282 0.133385668948367425)
(-0.0669299852453748706 -0.307027308761427031 0.115302326672766325)
(-0.0513762468129890029 -0.315261866557851822 0.140605863162841821)
(0.0897663435596325887 -0.33196266276413583 -0.0370633146783656692)
(0.0394853717679869987 -0.280657824619100049 0.0788242053930322539)
(0.0236218065509891523 -0.2481215779860316 0.0110585458295251651)
(0.0361548807177621834 -0.288710835068825555 0.0447968683490302666)
(0.143815421421301437 -0.372237890715878372 0.000484606584001248675)
(0.141095255269935688 -0.345707437988450661 -0.098993155484992032)
(0.197874211133380329 -0.380991562041260834 -0.0763954343138753544)
(0.178696282630837311 -0.426757732959679059 -0.0867256562475525877)
(-0.051405104159537883 -0.3687251115062819 0.120198950827539439)
(-0.0482202070777240713 -0.374192743426776608 0.103560167134111897)
(-0.0518836754920031298 -0.382889752506945402 0.104567273753717216)
(-0.065400623951163514 -0.370076764561707683 0.11775544322226715)
(-0.0317390523973498234 -0.350171277459097818 0.136713450970999656)
(-0.0337932618932203083 -0.360332730944466328 0.120055614086941653)
(-0.0385654286159171147 -0.364616656213554602 0.12367288589003804)
(-0.0496198781015185497 -0.354551900126196584 0.137083357384996773)
(0.00945380399544735496 -0.334323108100716693 0.140919864033339531)
(-0.00726448181044673201 -0.352377022395471029 0.134728381243633288)
(-0.0065162974513904709 -0.339239856561299735 0.137157984614800998)
(-0.0186713331107537621 -0.341488567621160477 0.151321132611517695)
(0.0830482679803572765 -0.34996563083922716 0.116372126655399255)
(0.0374756873687412534 -0.357879151449375488 0.138664222081385347)
(0.0600236324206312871 -0.319467234971872016 0.132517883125192165)
(0.0331742506543829807 -0.337386285972820055 0.146453051155215785)
(0.0936337775578594822 -0.361982652939651539 0.113606714578295825)
(0.172328680605406875 -0.39666059225055722 0.0957384707691075754)
(0.0939754961494991131 -0.354534357701876801 0.100801232330206186)
(0.0810552555275112774 -0.371440529848815482 0.0221839670312373866)
(-0.0311037594890513289 -0.368325991766069893 0.103416830393514153)
(-0.0330924732190642223 -0.374287918473624026 0.0878831110642271512)
(-0.0314843130158812476 -0.378421172286929619 0.0912911546363320142)
(-0.0450868452618005885 -0.365913603028942602 0.101070259037802077)
(-0.0134629987823739455 -0.363514380802889558 0.118070544359575202)
(-0.0199336936814984225 -0.36821940165431627 0.101562596458458373)
(-0.0169101776356674928 -0.371035196999549011 0.105066627209180238)
(-0.0298218444405706461 -0.356512794468300087 0.115492108195497517)
(0.0124492415289650851 -0.370573245977476373 0.132472739291679076)
(-0.00125677049823786475 -0.369730573054236789 0.116822095553955979)
(0.00558629572665846497 -0.370561524371810946 0.120329534009800329)
(-0.00762225054247728153 -0.356149511735570246 0.131795427127019527)
(0.0513912944333352953 -0.388445906093288551 0.135898810004281861)
(0.0216240762046171972 -0.385401000909971259 0.131454940015116567)
(0.0369642626403118707 -0.379439374694576226 0.131310348635678614)
(0.0201808471847336607 -0.371810385077402328 0.147569318588138737)
(0.0463346208478864208 -0.41090450907801318 0.13240221050702658)
(0.0730631365658137993 -0.376075586931509886 0.114406242174704964)
(0.0496909535951575165 -0.400878452150947084 0.148159846967706121)
(0.126066613880697231 -0.405576941493295595 0.103226387733691069)
(-0.0232937934552166735 -0.373877856929006269 0.0860288771291713439)
(-0.0254223929275031457 -0.376244923334505599 0.0709037923056215214)
(-0.0226499714025057662 -0.380576284341204496 0.0754811898726687608)
(-0.0342842626227976635 -0.36986520161928832 0.0821884443833483802)
(-0.0101152873647399853 -0.373366020565179924 0.100314147652839109)
(-0.0163702937720205562 -0.374218771143169371 0.0830708461768692175)
(-0.0106584184038196611 -0.378149869782482884 0.0884532943503576058)
(-0.023373054527172768 -0.365734129696692223 0.096166459202546406)
(0.005383810661831058 -0.381643778163855474 0.115804296277393415)
(-0.00481628308599628321 -0.377336575193895796 0.0967059800337420478)
(0.00456579839365823734 -0.381953860667452627 0.102936556864497125)
(-0.00891795448030529084 -0.367269433837467574 0.11163974825933809)
(0.0205286051687598066 -0.402034849380449755 0.127958340517861341)
(0.00694115284240760539 -0.389772305703688537 0.111627349529013459)
(0.0211921883027748753 -0.397054968068117964 0.118200459390742266)
(0.00633948865027111983 -0.380445269572420586 0.128748694156904625)
(0.0173294669288509562 -0.412000484209345152 0.122908004568343138)
(0.0408491364315243799 -0.421379661753088941 0.126631093806075345)
(0.0210485574657309146 -0.406571244078683447 0.139184617992733434)
(0.035472301418735315 -0.416009263847127164 0.117476551936853149)
(-0.0199366502351327607 -0.375222261132076795 0.0679457613533192423)
(-0.0200044606213247052 -0.376363406326810701 0.0552696346830813673)
(-0.0180409953995563262 -0.380950295939540218 0.0598875519620527957)
(-0.0276152077872792515 -0.370111544852977425 0.0646089649417168482)
(-0.0124910343661975062 -0.376003808087094216 0.0794626785577721567)
(-0.0149640069666671822 -0.375421359201420946 0.0647648434484567187)
(-0.0107672559156610191 -0.380533858802802272 0.0700707924235918767)
(-0.0215715563898012629 -0.368242252885536692 0.0758850521991757399)
(-0.0045253806971374648 -0.382430649653595023 0.0925290332853621333)
(-0.00895254719271261663 -0.377408670714090178 0.0755858129518058447)
(-0.00206360424104390459 -0.384561824899359861 0.0816546542377353662)
(-0.0139305828019032248 -0.370040822449390683 0.0886929825539788524)
(0.00138501574725048812 -0.398198690117233467 0.106577013579495367)
(-0.00340560412715124831 -0.384526939547396251 0.0877662402377325374)
(0.00623081791477799515 -0.396621110773978269 0.0944615381124250392)
(-0.0064233895610904335 -0.378564530756578754 0.103223835820355256)
(-0.000880616093741336606 -0.400649553463997554 0.100426865840969451)
(0.0122212659180802943 -0.418609314393759147 0.10557100714245736)
(-0.00214955484808648572 -0.398255040795893744 0.118413613351007516)
(0.00731387189531253028 -0.426201944267452726 0.114601441941793503)
(-0.0209485794332173771 -0.379141960225995112 0.0379379699893768116)
(-0.0174375813009314332 -0.380857740281395629 0.0301430582112423816)
(-0.023984974421890147 -0.376830667083279836 0.0357504425318973876)
(-0.019093149152301099 -0.37617087772033736 0.0444519237524548111)
(-0.0163189389320559236 -0.377626553795890774 0.0351649833777957499)
(-0.0231431584143748058 -0.372891205085843724 0.0419961880580839997)
(-0.016197957076570197 -0.374320773695633269 0.0520887167782188645)
(-0.0144037777151355302 -0.375267973036331248 0.0411845809991738671)
(-0.0139241275760938303 -0.379726936184833164 0.0460804333315862624)
(-0.0212472713630185127 -0.369766435120447712 0.049389210980924747)
(-0.0125690933957262677 -0.373906302211065411 0.0608879778424905801)
(-0.0118230673515390388 -0.373916224415078324 0.0483027100116624961)
(-0.00996642606181810664 -0.379082936470707066 0.0537861299914178873)
(-0.018432149533073889 -0.367810018064393729 0.0580205035291822338)
(-0.00925485250264224645 -0.375740915814981979 0.0708230199041762626)
(-0.0089610110302656646 -0.373650462520861759 0.0565848059639630849)
(-0.00560351989660594005 -0.380235081788774743 0.0624759145901706767)
(-0.0152275079256063307 -0.367432402823834381 0.06792926311492678)
(-0.00837273508831169917 -0.382120157550318862 0.0816160924992067049)
(-0.00657794217520300643 -0.374879961248895388 0.0660493941489826708)
(-0.0022582928467341206 -0.38490128314259886 0.0718317706151701818)
(-0.0127135662423274072 -0.369568445931063361 0.0790453070508874422)
(-0.00665147431180565518 -0.379647513567998751 0.0765003004412640325)
(-0.00252071251529340651 -0.397740080066537771 0.0804237573437104891)
(-0.0132446986130824208 -0.377016769815342212 0.0914443139615715855)
(-0.0117324536925578083 -0.394594760390003796 0.090763689616610313)
(-0.0135298761353775613 -0.377530533510075594 0.0273700715996613719)
(-0.0103776964398420695 -0.379746341089225892 0.0205316330247799043)
(-0.015558368626283646 -0.3753136481493482 0.0258437737855168777)
(-0.0124486035122896091 -0.37465643734727383 0.0318976406245148753)
(-0.00960747884602143262 -0.37665697338028814 0.0237886380394120821)
(-0.01509700566463534 -0.371544605531649308 0.0300994965858375936)
(-0.0108997246925501504 -0.372484331342143593 0.0373985742326175125)
(-0.00846217626410033716 -0.374178773937357156 0.0277944843687381246)
(-0.0088683022146462745 -0.378055320766560676 0.0332009218921021435)
(-0.0141975282186241839 -0.368428569135355322 0.03530616118154669)
(-0.00909311620515211236 -0.370901701021362107 0.0439995381331349938)
(-0.00701132873167780325 -0.372261366241228742 0.0327161820107531587)
(-0.00664599098362003791 -0.376786792534290871 0.0388896887801286201)
(-0.0130071099380802014 -0.36592595795064814 0.0415971082861753341)
(-0.00739762661514811737 -0.369548917979705016 0.0518111802087695347)
(-0.005361409001401524 -0.37064735071197874 0.038772229328835929)
(-0.00416805165627112152 -0.376011833568055232 0.0456374901150970735)
(-0.0117631690310600508 -0.363862383293277136 0.0491501552642367445)
(-0.00668206173821056428 -0.36850252203954692 0.0609336020910399359)
(-0.00347978786747709908 -0.368790028795530911 0.0462613989968343603)
(-0.00175284024312949882 -0.37528907154730401 0.0533865878727271398)
(-0.010904868708425882 -0.36186349741279733 0.0580840880355639744)
(-0.0019636540769702223 -0.366488551201253954 0.0556486449302717665)
(-0.00120935757902106275 -0.375196021980173267 0.0622140117986432969)
(-0.0117051409993095806 -0.360070722393902476 0.0684986079350972249)
(-0.00948530801414206384 -0.370234408568782092 0.0711718900319086578)
(-0.00697132169384063072 -0.377428205363884495 0.0169501994645306631)
(-0.00464245292515845422 -0.379451780892415824 0.0105753204184739127)
(-0.00818914577215706409 -0.375318161300915443 0.0160161698313398652)
(-0.00622155949262496923 -0.374530156094148081 0.01968548178363538)
(-0.00416909189212196635 -0.376362530694677233 0.0122142119225811287)
(-0.00778176379555111687 -0.37159979018344913 0.0185565395244772433)
(-0.00523489112342502387 -0.372181004208649246 0.0231120921468737743)
(-0.00353315848196482027 -0.373835129805518696 0.0142488681334976743)
(-0.00396390463164576247 -0.377837857842989955 0.0205957723541247764)
(-0.00721404230774661329 -0.368344828961697179 0.021703206920550399)
(-0.00399478478135191321 -0.370274106920137458 0.0274888732064541078)
(-0.00270686824173333677 -0.371841792817316275 0.0168392750208249016)
(-0.00238762013753523626 -0.376417958385423745 0.0242765473378157223)
(-0.00650424591514086464 -0.365493321054173426 0.0256686137356265352)
(-0.00233537098794889568 -0.368515393278247227 0.033222448116900824)
(-0.00160133407623167271 -0.370320519062715792 0.0202285387183993477)
(-0.000315510694392708772 -0.375457457695589691 0.0290496630675792789)
(-0.00567295726849881277 -0.362850608320686663 0.0307504761287979156)
(7.63255954704747126e-05 -0.366224815524964331 0.0409764418360662047)
(8.77710273430670437e-05 -0.36902555268482623 0.0248551317412689342)
(0.00273928354715591987 -0.374457642626347509 0.0354487839199713328)
(-0.00453773999115939485 -0.360015054744305396 0.0374357299421428993)
(0.0028507278399686831 -0.367409191499609322 0.0315399169450627515)
(0.00715457278027778042 -0.372610226224500296 0.0443309537936120157)
(-0.00309368089586874954 -0.356192733789017668 0.0465047658023044416)
(0.00321998523359104611 -0.362625942837288162 0.0517548088564940001)
(-0.00210312335401612515 -0.377161037162932311 0.00583933287652437048)
(-0.00255593422652583644 -0.375114768545292188 0.0055108173089877888)
(-0.00178740806098648852 -0.374262998578243133 0.00677759827244339697)
(-0.00236169839842902043 -0.371398200327570926 0.00637546922832053255)
(-0.0013808876572331168 -0.371914061877261171 0.00797605100744885019)
(-0.00099712049694508512 -0.377577634642288495 0.007117460761306235)
(-0.00211050390864999304 -0.368061167176549686 0.00745614408642756004)
(-0.000796368998083430346 -0.370192348579904018 0.00957894053277023698)
(-0.000320815075824699611 -0.37631801639690754 0.00842689890109151428)
(-0.0017965633599030654 -0.365138349492895808 0.00885817827638475143)
(0.000136795362126918832 -0.369226290554469372 0.011861222342767444)
(0.000746781673215440715 -0.375971912786401408 0.0102513789402256719)
(-0.00130962982279103288 -0.362634133823125537 0.0107364922029084715)
(0.00186610509053825946 -0.369343010366123936 0.0154186068502654983)
(0.00259251844192638203 -0.3768766366864017 0.0130105978318076076)
(-0.000468377560173118088 -0.360585359012473461 0.013406379783068037)
(0.00643330802670499888 -0.379747072197649305 0.017619565164171163)
(0.00127967985893744779 -0.359208766770307719 0.0175892114811352189)
(0.00556923717711635229 -0.371285885382715009 0.0215872354564758187)
(0.470319102704451819 0.950442154600863898 -0.442645745838845417)
(0.489388729191604532 0.589362980956545157 -0.204014252298232002)
(0.520579341325414391 0.676303045919556478 -0.302962726426348639)
(0.395983636051905452 1.12890102836481154 -0.547479873294136277)
(0.354393932383405497 1.27199870463001563 -0.547735764087338595)
(0.355382603487184479 1.2973235863958581 -0.54958981873470425)
(0.41897605347799477 0.8766099926464751 -0.308848379753522417)
(0.296984781749740079 0.518235967515066842 -0.0820069731477622438)
(0.458258074610104149 0.58237264829781632 -0.11172817228835269)
(0.431782968859123317 1.01644663168703464 -0.463227362059257908)
(0.414082008637634558 1.19003125494601658 -0.471294227225052487)
(0.408570195554008087 1.2350131104903459 -0.552139808643481556)
(0.150289360131470956 -0.590310359836841991 -0.039447725292478926)
(0.0625935640237394175 -0.691351415336537323 0.0324433228712712671)
(0.166009402062652245 -0.691389660901808645 0.040801621737755471)
(0.16828277640856204 -0.0809608788489048492 -0.0848972212464422782)
(0.0635268638811151143 -0.437149547143411865 -0.142849654715073215)
(0.169161648351669108 -0.480905097392074321 -0.118958712272811545)
(0.186657440878290504 0.390198259044607754 -0.051303873274288668)
(0.162903043582485113 0.307611564162423357 -0.0743482233241877094)
(0.169491483586404312 0.431088546644681214 -0.0336736808877617991)
(0.202066250877249387 0.704585274243350601 -0.236385955453496693)
(0.103756101869090289 0.462815424039235146 -0.0424878306699353475)
(0.185901279023387184 0.492038869157819803 -0.0385997291548979202)
(0.395229221860796953 0.615980936379060595 -0.34156167121244474)
(0.445955452234948091 0.989932771136687206 -0.382525798887168367)
(0.443461006841758598 1.11314021185180945 -0.498559762019641528)
(0.0103571971627791151 -0.538772822984643351 -0.0709586065513243408)
(-0.0750691411025112831 -0.632764151213595305 0.0360393626958786031)
(0.0494230055476570299 -0.683149070627462551 0.00855474136754810419)
(0.0746905884297795336 -0.0991961028060952821 -0.132300656792818772)
(-0.0816772631951602768 -0.420892379358429047 -0.140470694747581559)
(0.0176533141440121284 -0.411316126238148005 -0.196870530305414321)
(0.154945642898924207 0.309670084223646558 -0.0655321807198344791)
(0.197536062828019721 0.20461879944475872 -0.20936522700548113)
(0.212056294207678409 0.264359193391331071 -0.0966240372509457601)
(0.208342295669111638 0.425786837946930397 -0.147663546428881937)
(0.0852546837436468918 0.376325650239549447 -0.0740283712650880305)
(0.0850794288129272519 0.449542392249772826 -0.0169501168102115692)
(0.235660982318792012 0.333911436257566585 -0.210741760159234043)
(0.36466375237241494 0.503155703027015067 -0.249683646558556155)
(0.398449139215037273 0.766898649313327962 -0.395352405534698303)
(-0.11601711106151251 -0.504952038760602795 -0.0334727255003790733)
(-0.163248716222167217 -0.571109583614429317 0.0870871237128899578)
(-0.107934363595030572 -0.580690685571697451 0.0247548170502376631)
(0.00038827769882368926 -0.107671102782229772 -0.21753526496024328)
(-0.180586412275921565 -0.463640190095400251 -0.0640534381399117808)
(-0.128873145675671152 -0.412774628077316186 -0.162017463996159766)
(0.147325514777854438 0.278937957200876718 -0.217861417550735348)
(0.071811167422816638 0.0396808468534633127 -0.33668525562407936)
(0.193823099844548125 0.286910976092603187 -0.309248753760373807)
(0.147990576211062624 0.212099769702245533 -0.137106584995439512)
(0.0957605431675782881 0.280630002856132599 -0.235076716042463774)
(0.0923369367314677975 0.398646887836794916 -0.118720667158457957)
(-0.0714501889195366946 0.0993404014356508713 -0.18187833649793328)
(0.152860005861983284 0.120429745058575982 -0.135592294128976415)
(0.277172634771663373 0.440134383189280498 -0.289161939550769242)
(-0.166552739458515259 -0.484242041213990282 0.056506411073357507)
(-0.15442377213272665 -0.497691067212292781 0.12783857817113381)
(-0.147624568179157284 -0.524632649039432297 0.102441015134943678)
(-0.161730046381519277 -0.243750040870461177 -0.183203428803747626)
(-0.191100238648634707 -0.429350676563059697 0.0619238729024187348)
(-0.183827285931991768 -0.436974378462418378 -0.0165027869891522135)
(0.0252366351619805751 0.100304713526191372 -0.353900554115808286)
(-0.109677875542941589 -0.127756229086881001 -0.18022643990668058)
(0.00251256818370085939 0.0386764495878389042 -0.372314608315301498)
(0.0446498181807164773 0.186135349621451091 -0.279848467544957125)
(0.114704984355524398 0.185925958186148571 -0.312536268494175928)
(0.0899664011716758694 0.328171792931674922 -0.329561122415916119)
(-0.0372400698779649375 0.149441815461159616 -0.225514284140517801)
(-0.216321263436934613 0.153161323708716074 -0.174761697230230384)
(-0.0851769851489903307 0.244668623204136793 -0.259144562216984731)
(-0.142652178090621501 -0.432034681649336116 0.133256040000194531)
(-0.107203660555284949 -0.420252751951050052 0.12445953381088698)
(-0.116462202141862134 -0.450417076578070452 0.121616480092982523)
(-0.162737006935765427 -0.310003397339824571 0.0649008617994855375)
(-0.132228018169230105 -0.380398058519755111 0.134099072723273205)
(-0.158913385415779151 -0.417212430548131952 0.13038235495320219)
(-0.0623648983283331335 -0.0501905529073597562 -0.138862154285047279)
(-0.122074708175650984 -0.250426665756969979 0.052533407015125988)
(-0.148411961722561075 -0.18103109044437854 -0.00313245427618443362)
(0.137202021329265289 0.104126453119683118 -0.2582020850897363)
(0.0786905580269636057 -0.0623458483489030754 -0.132330897278559845)
(0.186439994796363639 0.206902090518359616 -0.277605159880448593)
(0.155406496438597441 -0.141357730438435608 -0.167940100266099179)
(0.206868768616682353 0.173299423751269333 -0.222962400205647948)
(0.314675898925272757 -0.327195604490952474 -0.20403720234529002)
(-0.0835356511271088259 -0.380811829758160025 0.125302566533965654)
(-0.0642016055610852149 -0.389505991652789763 0.107406097646684087)
(-0.0735214269338533982 -0.401776036271579096 0.108733006566671134)
(-0.0860557164056491575 -0.332501323784268166 0.121731617938913753)
(-0.0632987662049109279 -0.361510711781797889 0.126253472277458312)
(-0.0852755327402727054 -0.366449555365382318 0.134264805552206573)
(-0.0564092100851741329 -0.261490638624905236 0.0590646640216142549)
(-0.0364275634469874432 -0.304541188237230143 0.119750296080042118)
(-0.0667009541446791088 -0.283484499981609239 0.125026813584030005)
(0.053427505042534143 -0.26186635321034557 -0.0420689124549224885)
(0.0441600672036333922 -0.228228586837147057 0.0645494382442045184)
(0.0463877252668058113 -0.123309485238625782 0.0240196277871132235)
(0.169608514454040987 -0.39043477872807747 -0.00752721730748837081)
(0.17300419552932042 -0.165760104821307735 -0.0639823392933250162)
(0.200848935706793436 -0.412704977646211557 -0.0960920147466122893)
(-0.0384498133624390365 -0.378781297214218049 0.108357003390176856)
(-0.035147781430160209 -0.38510233857645354 0.0926149355410171016)
(-0.0382875320159892507 -0.393488415703403038 0.0932961417118870068)
(-0.0194110788463678456 -0.353685235315756519 0.124272150418586691)
(-0.0216823443583642646 -0.37199319338828285 0.109155000360921434)
(-0.0260088748404909316 -0.375856033815221979 0.113734285577532249)
(0.0306716599269428424 -0.324383983432455114 0.125235070302632562)
(0.00633448008571472869 -0.358383325353647419 0.123310262761098299)
(0.00599494552298057877 -0.339521825733914984 0.128534413407524611)
(0.143773490929531123 -0.366162196383202077 0.0990911333916393161)
(0.0595122076922018697 -0.350581309915954487 0.123028371933628797)
(0.0781143733640137644 -0.291246394066952685 0.113554479555762838)
(0.151758039613361762 -0.339821477215627776 0.0921684005739852596)
(0.221666364208958577 -0.374761150020873179 0.0633821388661157809)