/*--------------------------------*- C++ -*----------------------------------*\
| =========                 |                                                 |
| \\      /  F ield         | OpenFOAM: The Open Source CFD Toolbox           |
|  \\    /   O peration     | Version:  2206                                  |
|   \\  /    A nd           | Website:  www.openfoam.com                      |
|    \\/     M anipulation  |                                                 |
\*---------------------------------------------------------------------------*/
FoamFile
{
    version     2.0;
    format      ascii;
    arch        "LSB;label=32;scalar=64";
    class       volVectorField;
    location    "0.780000000000000471";
    object      faceForces;
}
// * * * * * * * * * * * * * * * * * * * * * * * * * * * * * * * * * * * * * //

dimensions      [1 1 -2 0 0 0 0];

internalField   uniform (0 0 0);

boundaryField
{
    inlet
    {
        type            calculated;
        value           uniform (0 0 0);
    }
    outlet
    {
        type            calculated;
        value           uniform (0 0 0);
    }
    top
    {
        type            calculated;
        value           uniform (0 0 0);
    }
    bottom
    {
        type            calculated;
        value           uniform (0 0 0);
    }
    left
    {
        type            calculated;
        value           uniform (0 0 0);
    }
    symmetry
    {
        type            symmetryPlane;
    }
    interface
    {
        type            calculated;
        value           nonuniform List<vector> 
352
(
(0.430397521452492438 -3.48718669586211305e-06 -1.21903517953231955e-05)
(0.392838129322627405 -1.19201023121825636e-08 -1.25389281521778337e-05)
(0.355492553821819324 -2.35782761536891007e-07 -1.25440726020556291e-05)
(0.31848983924398433 -6.36747302085199273e-07 -1.25409537022948698e-05)
(0.282035779146288634 -9.91712803390468988e-07 -1.22706292483321268e-05)
(0.246357833935886172 -1.39734262091049749e-06 -1.19532406182677564e-05)
(0.211454754937856648 -1.95869465704488086e-06 -1.16812207681287524e-05)
(0.177342271726697726 -2.74187015930513199e-06 -1.1560456151684475e-05)
(0.143348869175636662 -3.75804283710730395e-06 -1.17068836545725433e-05)
(0.109064032906397185 -4.65304215881758924e-06 -1.13912134701767362e-05)
(0.0749715729892326266 -5.25363571888439065e-06 -1.05104366973306959e-05)
(0.0422631694512698927 -6.12028240536592935e-06 -9.52815805488139388e-06)
(0.0133751177567623582 -6.42402223546079112e-06 -7.30946225245208513e-06)
(-0.00457535274418858617 -2.60405613344258e-06 -2.05507618329301339e-06)
(-0.0107178362539800814 -3.75028235489606107e-07 -1.77898722756422386e-07)
(-0.00930774410232620454 -4.40123163925288719e-07 -2.56575398152407612e-07)
(0.45087609226666725 -2.02754113362684966e-08 -8.3910971467295745e-06)
(0.413169535366612162 -2.59036133440233784e-08 -8.74071190442260337e-06)
(0.375421996908922972 -1.35621308274965264e-07 -8.67557321697794849e-06)
(0.337867989207542962 -4.01009596703852118e-07 -8.62984358117699893e-06)
(0.30062074554382906 -6.86671067405069472e-07 -8.64070804279835256e-06)
(0.263707868093118081 -1.04215027677275048e-06 -8.60005930760711671e-06)
(0.227424827163870441 -1.42682547919194194e-06 -8.42064971321318265e-06)
(0.19195688399636035 -1.83466589552833345e-06 -8.29380952911033817e-06)
(0.157231505038225194 -2.2719794453161147e-06 -8.18481686530065482e-06)
(0.12283059285368135 -3.27860634906958237e-06 -8.19780660488102811e-06)
(0.0885967595633041505 -4.36572735157812898e-06 -8.06841358539769484e-06)
(0.0553114691555990773 -5.35328335775502371e-06 -7.69543938486271044e-06)
(0.0232101387419519078 -6.0878935029143561e-06 -6.86905092508518333e-06)
(-0.00264844578665591589 -4.03529413389648012e-06 -3.51212165333745908e-06)
(-0.0150292901778507435 -1.0048423270261079e-06 -6.69916810967345959e-07)
(-0.0134965452699295999 -8.95361132863837732e-07 -4.17466373959562403e-07)
(0.460697534452107815 -2.4021340966316751e-06 -6.80890691553668424e-06)
(0.42297732212730732 2.987018450182738e-07 -7.30322093012025933e-06)
(0.38520020511318509 3.94547377065688527e-07 -7.20047055419688311e-06)
(0.347578515716747249 1.87933234955649565e-07 -7.18120284298454609e-06)
(0.31021238459974132 -7.65638757934330264e-08 -7.19867143294428919e-06)
(0.27308083059642585 -4.20256344821117768e-07 -7.28716527006961583e-06)
(0.236316581333032016 -8.10508426073400147e-07 -7.2737005528311729e-06)
(0.200360322669525109 -1.24644766997745978e-06 -7.18153321882695381e-06)
(0.165238696955175485 -1.85190356114277006e-06 -7.10652129440428884e-06)
(0.130603072809798132 -2.74573974581218802e-06 -6.96521734190801502e-06)
(0.0964351329720217754 -3.95087266660745084e-06 -6.73856788531868982e-06)
(0.0630492450289717593 -4.6543276718601634e-06 -6.35469083562262535e-06)
(0.0301373390964700012 -5.51349451619356295e-06 -5.80586711886179601e-06)
(-0.000349555066370802988 -5.15415217513039011e-06 -3.99171601670518787e-06)
(-0.0177077668891123426 -1.75322690998646695e-06 -9.93963609201317236e-07)
(-0.0162093274775854321 -8.2560620982999949e-07 -3.03138990550359117e-07)
(0.465028109775263265 -2.1145686965783233e-08 -4.44459126718897173e-06)
(0.427253198428220127 2.26481628269870259e-07 -4.94996065098456169e-06)
(0.389493301232179123 3.07692240211200463e-07 -4.85051396889147193e-06)
(0.351868122237451841 1.82565534699223447e-07 -4.82360143326298116e-06)
(0.314463060466493749 4.50678138120064973e-09 -4.8337599358803021e-06)
(0.277414315195881001 -2.54289035795440306e-07 -4.86424023769356339e-06)
(0.240818437295259952 -5.56991242274948925e-07 -4.92366870061999459e-06)
(0.204968734798150476 -9.10789522085087879e-07 -4.94706412781639791e-06)
(0.169899346172992433 -1.5560668199255828e-06 -4.98236971654906347e-06)
(0.13532351140144705 -2.50852052728476551e-06 -4.94895974429522491e-06)
(0.101429358060769137 -3.69610318464636552e-06 -4.77505584141337117e-06)
(0.0683811195448639081 -4.44430737703769713e-06 -4.52722605319292107e-06)
(0.0351960004505832771 -5.26823809842835107e-06 -4.18288546737675868e-06)
(0.00151642538643856632 -5.93286399020014415e-06 -3.49017018441078885e-06)
(-0.019470433092902157 -2.10129850997848621e-06 -9.43322092752795897e-07)
(-0.0179331262534267906 -7.658665189177452e-07 -2.31404391539134923e-07)
(0.467543315069183396 -3.35291189937317982e-07 -3.66886927454150421e-06)
(0.429876046509823861 2.7296615011854496e-07 -3.99986233017892466e-06)
(0.392078532661112811 3.82561481685933982e-07 -4.03886226973770706e-06)
(0.354359066349263285 2.90079850757880241e-07 -4.02567667201130062e-06)
(0.316982922562171421 1.63041719148203394e-07 -4.03150862693133985e-06)
(0.280029250236701166 -2.74326411042039978e-08 -4.05994227259742833e-06)
(0.243615383398500002 -2.48286878745215629e-07 -4.10254264442340996e-06)
(0.20797517271091065 -6.7692842764627547e-07 -4.16955905267123631e-06)
(0.173004634999316287 -1.35449804464571864e-06 -4.1948130638382938e-06)
(0.138380436204789403 -2.3996307128009013e-06 -4.15108804923222012e-06)
(0.104583390202625054 -3.51955897972403074e-06 -3.98116840924487994e-06)
(0.0716532022119402284 -4.32281492443204341e-06 -3.80592236616605603e-06)
(0.0381874080728041299 -5.18386860573952072e-06 -3.55895866877624866e-06)
(0.0027695534882237749 -6.33580163650837051e-06 -3.14102289616707229e-06)
(-0.0204607970042510294 -2.53242250531722389e-06 -9.11948183750743072e-07)
(-0.0192876063374888516 -9.57056360290670578e-07 -2.3056957806893216e-07)
(0.468789528957915869 1.92526411933204489e-08 -2.03111269578754489e-06)
(0.431136206362201846 3.01254716598570214e-07 -2.4946025831117397e-06)
(0.39333082611189113 4.34664773439515078e-07 -2.47628757867964309e-06)
(0.355644490330343732 3.69703057426564264e-07 -2.44441740821674757e-06)
(0.318366045672976272 2.57555988722237879e-07 -2.45059951614550187e-06)
(0.281498528981218743 9.9413769668747522e-08 -2.4792149673972522e-06)
(0.245203118047426172 -1.31317421091768346e-07 -2.50994118783321223e-06)
(0.209681665667535433 -5.73305091583030271e-07 -2.55475295858051521e-06)
(0.174746836265033317 -1.29846357436174547e-06 -2.55868138972403137e-06)
(0.140180641669688244 -2.4482128517744878e-06 -2.50478972853722529e-06)
(0.106414504013795347 -3.50036494701024612e-06 -2.32150725752230941e-06)
(0.0734944933126265021 -4.3094450202531697e-06 -2.12445096902046311e-06)
(0.0397673547267968427 -5.17063010559194255e-06 -1.92960057066234448e-06)
(0.00366067865479650272 -6.42115643007780184e-06 -1.78821180097966911e-06)
(-0.0208982785708184543 -3.06143389874802069e-06 -6.83999065015827479e-07)
(-0.020363629388142096 -1.11914511352200933e-06 -1.90618439533988891e-07)
(0.469699021191632315 -5.15279861604440002e-08 -1.2530625605288025e-06)
(0.4319394465119063 3.6564169112668826e-07 -1.53192140122631336e-06)
(0.394161283427811482 5.36361744272673663e-07 -1.50580194892103136e-06)
(0.356677073173648773 5.1120918328416445e-07 -1.51648727218933346e-06)
(0.319509878898368738 3.87299556382361166e-07 -1.54799027671393668e-06)
(0.282748928388323939 2.50072946325464689e-07 -1.57927881873656174e-06)
(0.246559628656899288 -2.31260881526469008e-08 -1.61413640782859597e-06)
(0.211208065230367337 -5.02563563352130895e-07 -1.64741023596262336e-06)
(0.176294194747722538 -1.30799187643573998e-06 -1.65061615272383694e-06)
(0.141796885108731924 -2.53771099157681718e-06 -1.61562090507362554e-06)
(0.108123389156180458 -3.47381138794474117e-06 -1.50226779973180531e-06)
(0.07532716244381997 -4.18451576345638307e-06 -1.37967883075583605e-06)
(0.041598880396823551 -4.99869234433009834e-06 -1.20963910630846993e-06)
(0.00515649273561762274 -6.3929766968343772e-06 -1.06840490442474955e-06)
(-0.020714458957365723 -3.60506425407371573e-06 -4.78202146902372134e-07)
(-0.021155552191799095 -1.23353563106845011e-06 -1.38487541574112597e-07)
(0.470086759043231495 8.0677631177547305e-08 -3.99080765022809346e-07)
(0.432275772191230978 3.83992574799478088e-07 -4.89273473900794908e-07)
(0.39450607755379552 5.86962614169290191e-07 -4.80236543289532032e-07)
(0.357109365088784381 5.7119408050644825e-07 -4.842970262020906e-07)
(0.319993645395857118 4.33657730767229848e-07 -4.94778955498413253e-07)
(0.283288324826716842 3.02692739559963902e-07 -5.07235662597151632e-07)
(0.247191269944422365 1.31340060685489907e-08 -5.1945547765790322e-07)
(0.211858365831266188 -4.91404476256686033e-07 -5.27064639799965288e-07)
(0.176936947377849207 -1.32741405421393251e-06 -5.25486918834026723e-07)
(0.142450502481308139 -2.55133841621511932e-06 -5.06990210825362069e-07)
(0.108804736492004769 -3.48378090721293465e-06 -4.73741376927496175e-07)
(0.0760401488102678269 -4.18135216760236083e-06 -4.42323767679534841e-07)
(0.0422744264714245838 -4.91394791421401858e-06 -3.90482380092305406e-07)
(0.00577848499508211173 -6.30051397802474327e-06 -3.33717211422953456e-07)
(-0.0206640591055419591 -3.93923552842680258e-06 -1.55644974185446588e-07)
(-0.0215015275968867409 -1.30284480832124271e-06 -4.57914665888434472e-08)
(1.54998879046983014e-05 9.42133871850371012e-06 0.264055100623307615)
(1.5236701767150629e-05 -9.11881551107125102e-07 0.227239797302352858)
(1.46647825224995475e-05 -2.3093766880563836e-06 0.19336362204565985)
(1.38787618424656118e-05 -3.53886770237972578e-06 0.162011071780880117)
(1.26719606734916788e-05 -5.36249863211398101e-06 0.133508152446365991)
(1.1032464702527859e-05 -8.1111904150932397e-06 0.106075921565110434)
(9.24622220738537317e-06 -1.12974812695754127e-05 0.0782572711501925006)
(7.35943577391392681e-06 -1.41428319867605857e-05 0.0516599072213205918)
(5.32362153663464995e-06 -1.61860130762626108e-05 0.029439841293610363)
(3.20234973613289251e-06 -1.68246880042724297e-05 0.0135075676174003321)
(1.21234878311368289e-06 -1.1797959500367938e-05 0.00403162349073003714)
(7.84890257268278537e-07 -4.53341107857281898e-06 -0.000193697508270952587)
(1.18056705924770908e-06 -3.64967827459144937e-06 -0.00599938900809997202)
(3.39030748489810089e-07 -6.47899958495557504e-07 -0.0122067044442608231)
(3.01811188744250524e-07 -4.48782426426763242e-07 -0.0160109691613591967)
(-1.43051296598582874e-07 -2.23705593887091565e-06 -0.0163925872890842393)
(1.29230694225552269e-05 4.673454072905981e-06 0.288858715275562561)
(1.24397513285781529e-05 -2.51427727552066909e-06 0.254578678406661263)
(1.14048040273375011e-05 -5.220039820320159e-06 0.221276409012300612)
(9.95251018837764467e-06 -8.34839819586857881e-06 0.186428022518067338)
(8.36661813765164416e-06 -1.1129623885036277e-05 0.150030365545745892)
(6.83623073138788144e-06 -1.27956605363908415e-05 0.113783088882029426)
(4.84976960862533521e-06 -1.20677749936875664e-05 0.0795799892968801215)
(1.8315803231749113e-06 -7.20289204990344064e-06 0.0500925152192548614)
(-2.7197553833700142e-08 -2.7692059897342951e-06 0.0290400058448458467)
(-9.61862498957187644e-07 -1.72854923792287886e-06 0.0168571885778850475)
(-1.12158722771825273e-06 -4.68484530826071256e-07 0.0121604182924747554)
(-1.7383270566084471e-06 4.46344881624344686e-07 0.00894889683622071032)
(-1.08585598068543053e-06 6.20731733954548891e-08 0.00229470263162617413)
(5.21319845508591277e-07 -1.50618115668185127e-06 -0.00907474205975337435)
(9.12197497778855108e-07 -4.0714150007778819e-06 -0.0232163036290743453)
(5.59909277944973686e-07 -5.14857406548125657e-06 -0.029370950258299805)
(1.30033854505183751e-05 6.73508929161894234e-07 0.305444934811392399)
(1.21458058973716903e-05 -4.70489391292036693e-06 0.267687224999709428)
(1.09590680096565997e-05 -8.69465115528041016e-06 0.227606872765545143)
(1.0216170237113804e-05 -1.13299061494082054e-05 0.187182426266027296)
(9.82758937503221842e-06 -1.24500800740496717e-05 0.148935826608939642)
(8.26893447187223042e-06 -1.11621838460600755e-05 0.111357009863190748)
(4.89484539567915499e-06 -6.9817773412697805e-06 0.0745546951507517902)
(1.72109370655448403e-06 -2.83819073070554989e-06 0.0453035519121336924)
(1.4056136872350306e-07 -4.66930134757321804e-07 0.0278933275405793407)
(-1.87810664020324647e-07 3.38298763151083643e-07 0.019346215680228096)
(-5.10292564575039586e-07 8.62442283429993373e-07 0.0132051585836527527)
(-4.28538547818684681e-07 6.15398022226342652e-07 0.00826745968597925561)
(1.2635810844212738e-06 5.10962356779725513e-08 0.0017319398584744771)
(1.73726767525345833e-06 -2.18169939858194249e-06 -0.0082091635041039758)
(1.86234731637925249e-06 -5.46604836094171084e-06 -0.024718590186788042)
(1.47289130385441316e-06 -6.79589111382077479e-06 -0.0334338828447980838)
(1.8984222039519766e-05 -1.93246352293031084e-06 0.26990186751922407)
(1.86979296808675822e-05 -7.16156105462094348e-06 0.230057788418619041)
(1.8878804432556335e-05 -1.08791567716692212e-05 0.190025127295941731)
(1.89084220380483272e-05 -1.24521161750146398e-05 0.153932829903222046)
(1.76274159304606826e-05 -1.22432114403653058e-05 0.119821547778022661)
(1.09370551965682807e-05 -7.49627635120830996e-06 0.0845523232158446048)
(4.49767263512840267e-06 -2.53917186771693111e-06 0.0558724702033615156)
(6.82229776843557488e-07 -1.80146698802719116e-07 0.0383958610194711919)
(4.17322843276282054e-07 1.55355404087322519e-07 0.0284841392731744643)
(1.45661413043648255e-07 4.76429550682186407e-07 0.024779438340355741)
(6.7535584482713333e-08 2.50582305719148715e-07 0.020380077819445095)
(8.81382922287426052e-07 -3.01480143606207994e-06 0.0113380432282349213)
(1.20930429560571074e-06 -3.87295330822995891e-06 0.00231109759277404753)
(1.55128737070022817e-06 -5.62740256384064694e-06 -0.0116304732033355052)
(1.81836040411638632e-06 -7.24184719248234708e-06 -0.0302577774492226309)
(2.09433752363130156e-06 -6.86428080526594316e-06 -0.0363871831189863798)
(-0.0505803528584782836 1.1344262055982117e-05 5.10043396809326329e-06)
(-0.0240775784475121997 -2.69831413402069967e-06 3.69880026153809722e-06)
(-0.0259340104639015009 -3.85791272929462925e-06 4.0791168702054572e-06)
(-0.0267299403719177472 -2.90021065487999618e-06 3.81492148758739386e-06)
(-0.0262360096257978452 -2.52197185069039867e-06 3.99873820702008965e-06)
(-0.0253962228194259468 -1.70252773594087594e-08 3.61656030285508041e-08)
(-0.0255144202255149291 -2.23155218934506396e-08 5.34278827329431042e-08)
(-0.0253507893496181837 -3.61249567428766873e-08 -4.28912329330729654e-09)
(-0.025454124049838503 1.21179287320766316e-08 -1.04837212097734436e-07)
(-0.0254974228442825003 3.15195460503105223e-08 -8.8236630035823954e-08)
(-0.0255834123972425442 2.34552268673136389e-08 -7.12766165670013207e-08)
(-0.0255004078934952007 4.41198307611499799e-08 -7.63550117585705183e-08)
(-0.0251932602398138583 8.52590274094919519e-08 -1.17389136735717224e-07)
(-0.0236706756126889191 3.52003953148070539e-07 -3.96189078513183375e-07)
(-0.015318826301121061 -2.83549589034570625e-06 -2.61068679109243913e-06)
(-0.000806795258709191239 -4.85883391401573275e-06 -3.16028061999174529e-06)
(-0.0408611702524699708 -1.32909994261620261e-06 2.78401714249598615e-06)
(-0.0271229401586427568 -4.60973899860828162e-08 -2.33126557827942871e-08)
(-0.0271122311795274351 -1.25092121411837009e-08 -1.25287046418838162e-07)
(-0.0270505106955582324 -1.25315289903331088e-08 -1.55606759740834786e-07)
(-0.0268315455102493515 -4.8980481673333519e-08 -1.75187289752551671e-07)
(-0.0265820218154565538 -3.10831637529074071e-08 -1.79947283159961256e-07)
(-0.0263922939475521451 2.82681372546351731e-09 -1.81105316468834577e-07)
(-0.026202691895096792 4.78659101003579039e-08 -1.65449302296126581e-07)
(-0.0258705132021148053 7.83897307874325219e-08 -1.42405474260734644e-07)
(-0.0257149721678430997 7.13083490531588624e-08 -1.22352905661229636e-07)
(-0.0257258873173709414 4.41665502162928507e-08 -1.12889740475987488e-07)
(-0.0257846555292403704 3.96319200494219122e-08 -1.13668880264467176e-07)
(-0.0258069755328801144 5.62859775549761338e-08 -1.27243840950891918e-07)
(-0.0243827139185367227 4.89237690536078725e-07 -5.43340012939011339e-07)
(-0.0155550275735222877 -3.37657526324902022e-06 -1.89159005442196169e-06)
(-0.00134119941853797203 -5.35899923892881382e-06 -2.2146986405439691e-06)
(-0.0365603289124400224 -3.0377816392410939e-06 3.10709969432239283e-06)
(-0.0280059821553378455 -6.61279366996816459e-09 -1.40343609476493895e-08)
(-0.0274594403962723707 -5.63484901669453169e-09 -1.07360547665265171e-07)
(-0.0270734310788905315 -3.70376349400342859e-08 -1.31586236479858862e-07)
(-0.0268052531207691874 -5.88611519500222526e-08 -1.23857884151091222e-07)
(-0.0268560533854868937 -2.15853373878607798e-08 -1.15498941916162818e-07)
(-0.0269453520703994143 2.13489025330528851e-08 -1.20815854499856285e-07)
(-0.0267859307596666797 8.0552414904513131e-08 -1.2512729677724685e-07)
(-0.0264522481599585961 1.13095436316635343e-07 -1.29902066705787578e-07)
(-0.0261845631346212804 9.00374724084486764e-08 -1.24551667945549125e-07)
(-0.0260319786877154166 5.50538678381614734e-08 -1.2076352170635641e-07)
(-0.0260309875067582658 4.86944349724200535e-08 -1.18371698238972677e-07)
(-0.0260184329089676002 6.53021652019570872e-08 -1.21968415925193648e-07)
(-0.0256758770640935045 2.26033479413621925e-07 -1.26324770369685439e-07)
(-0.0192043677840095343 -2.13783402194735823e-06 -2.16127271528399933e-06)
(-0.00532727790382698206 -4.89484767693098563e-06 -2.2572516587910654e-06)
(-0.0342723202292895199 -1.14984525977996525e-06 4.2712998051350375e-06)
(-0.0283097024371352785 2.77914316628562826e-08 -8.36169470333217003e-08)
(-0.0280333268609951822 -1.58186094803336491e-08 -1.46681552484079097e-07)
(-0.0279227843596871264 -6.41700456787667712e-08 -1.45698462268393183e-07)
(-0.0280688055387835443 -6.14282007816235114e-08 -1.24558927616089147e-07)
(-0.0283630046885672664 1.55476217403442089e-09 -1.34266418606754e-07)
(-0.0282733703031781448 6.93317513492883941e-08 -1.27855967323921641e-07)
(-0.0278126429918917652 1.07125147672538104e-07 -1.15170888085385762e-07)
(-0.0272465441526236404 1.22852311308054299e-07 -1.26064655583907804e-07)
(-0.0268176833095571006 1.05562321733442245e-07 -1.37791266864652137e-07)
(-0.0265687104515316026 6.87873987761573002e-08 -1.36552692419634243e-07)
(-0.0265520579877519917 6.40946798334949713e-08 -1.28136962905512736e-07)
(-0.0266067185892944098 8.13296416695116456e-08 -1.28603919321526668e-07)
(-0.0259802014601206652 4.42786492886281373e-07 -1.39538579336275201e-07)
(-0.0184747633479923415 -2.1260473384655086e-06 -8.73087084266405416e-07)
(-0.00469953165925976728 -5.03749406576221235e-06 -1.40340051983076998e-06)
(-0.0342837834466913974 -1.02195907425080212e-06 3.15710132960339776e-06)
(-0.0287563104950807891 3.46129419127085184e-08 1.49930967429806838e-07)
(-0.0286426226116541192 4.66025744984562118e-08 -1.53393145789408263e-07)
(-0.0290965440498312661 -1.14081039681957313e-08 -1.8429602743184293e-07)
(-0.0293827156684152713 2.58834897869240319e-10 -1.7556301573428055e-07)
(-0.0292891978398602155 6.0548169673479296e-08 -1.70413018559725292e-07)
(-0.0288345943517427442 9.81469326256144884e-08 -1.40409289034365966e-07)
(-0.0282644853845254312 1.21803089039055764e-07 -1.26886058689706517e-07)
(-0.0277100116993314258 1.26560015922743708e-07 -1.32912985886902595e-07)
(-0.0272981413901130614 1.11397988910716801e-07 -1.38640315784862245e-07)
(-0.0270033899822767973 8.89254789039926546e-08 -1.47484130419809455e-07)
(-0.0269525165641802469 9.34647910190920231e-08 -1.3529726243223437e-07)
(-0.0270820325441970197 1.11749555380793407e-07 -1.20935458616267329e-07)
(-0.0263060612701124172 6.19251401196612377e-07 -1.62188929212459849e-07)
(-0.018271793215149712 -2.10638589402844775e-06 -9.80291188245398117e-07)
(-0.00443249197255905433 -5.18079247762993093e-06 -1.28544026548885878e-06)
(-0.0376831457469337799 -6.74470593191565617e-07 2.31445942596838536e-06)
(-0.0319396635773217807 2.37823817794537204e-07 4.19476249141575674e-07)
(-0.0304015214904670913 1.3527904921767931e-07 -1.18019962995718744e-07)
(-0.0303500376399745697 9.63024611929046887e-08 -2.48100888180948045e-07)
(-0.0303374182793061282 9.71525310249859525e-08 -2.48187828145915835e-07)
(-0.0298975197390604873 1.36380697285661459e-07 -2.41521613837658499e-07)
(-0.0291313931362774357 2.83877134503634572e-07 -3.55521539917057182e-07)
(-0.0283747970805660506 1.34486190918110213e-07 -1.41552969215669878e-07)
(-0.0278698934940981545 1.47468402305643696e-07 -1.55694085220001384e-07)
(-0.0274479293842128137 1.4054545823274402e-07 -1.6043827006447686e-07)
(-0.0270878564659026017 1.28188537954591836e-07 -1.59677133336104725e-07)
(-0.0269444758282519174 1.29452211123102168e-07 -1.61062410209619632e-07)
(-0.0268373267726088778 1.6718785348645356e-07 -9.58008630888804556e-08)
(-0.0255951027006193696 6.58227377844238903e-07 9.33903702444037038e-08)
(-0.0167044826425941928 -2.76443871518426492e-06 -9.20992002972453619e-08)
(-0.00201072886000038279 -5.56243191238474611e-06 -7.41775590297850036e-07)
(-0.0433907711423777917 -1.78917923566522766e-07 4.12069324756693912e-07)
(-0.0384601583027646757 5.18240537972430408e-07 1.74205753580311612e-07)
(-0.0344426365540652507 7.12136399587211027e-07 -8.37784161878145296e-07)
(-0.0328144193865251357 4.06113988450060622e-07 -6.25675175844061392e-07)
(-0.0322413294456420502 4.83809067181091508e-07 -6.10935665654667041e-07)
(-0.0311452650767613699 8.43806125166665759e-07 -8.21619168548114988e-07)
(-0.029624701078108738 8.22379643168529816e-07 -5.96669469734625152e-07)
(-0.0285586033149387089 3.11031689792458177e-07 -2.00233587072744753e-07)
(-0.0281157560273312644 2.08549652483880548e-07 -1.31386530007398885e-07)
(-0.0277067473766984332 1.97581015508782439e-07 -1.38753715470489557e-07)
(-0.0276103645568663361 1.99626918523529186e-07 -1.32651053465810359e-07)
(-0.0277671603355401503 2.06383400508574038e-07 -1.45014336724746515e-07)
(-0.0274484672232170532 2.50149597384392466e-07 -2.84303604085655474e-08)
(-0.0235120205168235855 -4.04858318277243545e-07 4.71270256293335702e-07)
(-0.00991058933103858286 -4.76424057913237344e-06 1.26315904650359044e-07)
(0.00606214817666982618 -6.64702296845919556e-06 -3.62739546374111978e-07)
(-0.0517457554470968431 -5.33558316772215957e-07 -3.98889774276746278e-07)
(-0.0488764476924961958 3.46755775192293303e-07 -2.70769117252658607e-07)
(-0.0452885659711570604 8.50525695501571494e-07 -9.83539543424847362e-08)
(-0.0418917785043631391 1.06682923652283412e-06 7.12599741314841857e-08)
(-0.0389494884997904078 1.29885132236608318e-06 1.23299434584319125e-07)
(-0.0355794006874326149 1.48231776934498144e-06 1.21004646403574675e-07)
(-0.0323842727179026527 1.06108132446084491e-06 6.87584949980237745e-08)
(-0.0307474524958440028 4.58100336149183261e-07 1.48857790918892567e-08)
(-0.0297934611998980324 3.97602991149806999e-07 -1.53706373937133605e-08)
(-0.0289913960771769064 3.47233224331727181e-07 -2.90648607372821116e-08)
(-0.0293044692751750213 2.92240549669530319e-07 -4.25028188470337695e-08)
(-0.0302863208151215348 2.3541275781224632e-07 -5.58581183499156178e-08)
(-0.0292363532492267708 8.29387950524103931e-07 1.74077797443759486e-07)
(-0.0216132343448997774 -2.74137741706695483e-06 2.15864941300379302e-07)
(-0.00258660458937893861 -5.94690345731533503e-06 1.12849638748695934e-07)
(0.0139658900908214562 -7.45343957935886941e-06 -6.11221808055088783e-08)
(-1.65738926945237567e-06 -0.054297038711681643 -4.07547535606321169e-06)
(-1.84425926633015069e-06 -0.0628156434705276351 -3.26062304042735385e-06)
(-2.11375355594742516e-06 -0.0657139459888557986 -2.99428260014536764e-06)
(-2.22746798253554459e-06 -0.0677975075684537076 -2.39324743729596288e-06)
(-2.33706522711302151e-06 -0.0691837518040841898 -1.93269791507193416e-06)
(-2.42716735985231091e-06 -0.0697827945807237698 -1.39871269967590969e-06)
(-2.56060871686744004e-06 -0.0702185730565185601 -9.59851074834355286e-07)
(-2.57967487573507263e-06 -0.0700120104583324965 -3.32103273210429272e-07)
(-4.98608067255707089e-07 -0.062362053691429005 -4.11825657614341798e-06)
(-1.60665245226967528e-06 -0.0676757641592234255 -4.1272096146967477e-06)
(-1.7418340113338246e-06 -0.0714964977340853403 -3.51615763001935866e-06)
(-1.85569854462445777e-06 -0.0750484281425659872 -2.64972628158569338e-06)
(-1.99528153201760569e-06 -0.0779388526528880798 -2.06712937437482279e-06)
(-2.18566684895984218e-06 -0.0793993249065756829 -1.5987225948442092e-06)
(-2.42579352438450716e-06 -0.0799531076250127593 -1.33850769190624735e-06)
(-2.60421905223762033e-06 -0.0798323707222381995 -5.43622300825693618e-07)
(8.78823920207962268e-07 -0.0584367046750260619 -3.4534127604290844e-06)
(1.25956445193574873e-06 -0.0661666293361443947 -4.20448549952471251e-06)
(9.96899626990386768e-07 -0.0726990354688807211 -3.41246968966476924e-06)
(1.10115582999405828e-06 -0.0771328938542013426 -2.57472798603617485e-06)
(1.12410390966564979e-06 -0.0808057679698614556 -2.14655823629065176e-06)
(1.04991205357914321e-06 -0.0824014227264054794 -1.84356434206752383e-06)
(8.54247962527836133e-07 -0.0829575948512903116 -1.54366007958289363e-06)
(9.79945529932445014e-07 -0.0838024726995091479 -5.67789635747515341e-07)
(1.41078807979483937e-06 -0.0517874845513087781 -2.98899858340816118e-06)
(2.1694558146762772e-06 -0.0605077808640193324 -4.02415957549340341e-06)
(2.45351556008553085e-06 -0.0660028190942562737 -2.96249439473013372e-06)
(2.6309040279572569e-06 -0.0694914153834375464 -2.29542772682704219e-06)
(2.70538167198745669e-06 -0.0726318864535774739 -2.04223880627322706e-06)
(2.83660003170444118e-06 -0.073405065131025668 -1.95232951236455731e-06)
(3.15416455341170997e-06 -0.0733274632533309073 -1.68756827416806029e-06)
(2.41455177105987104e-06 -0.0724603437730826361 -6.23065696004644796e-07)
)
;
    }
}


// ************************************************************************* //
