/*--------------------------------*- C++ -*----------------------------------*\
| =========                 |                                                 |
| \\      /  F ield         | OpenFOAM: The Open Source CFD Toolbox           |
|  \\    /   O peration     | Version:  2206                                  |
|   \\  /    A nd           | Website:  www.openfoam.com                      |
|    \\/     M anipulation  |                                                 |
\*---------------------------------------------------------------------------*/
FoamFile
{
    version     2.0;
    format      ascii;
    arch        "LSB;label=32;scalar=64";
    class       volScalarField;
    location    "0.780000000000000471";
    object      p;
}
// * * * * * * * * * * * * * * * * * * * * * * * * * * * * * * * * * * * * * //

dimensions      [1 -1 -2 0 0 0 0];

internalField   nonuniform List<scalar> 
29184
(
1114.61116907204655
1121.24499781402028
1132.09718951547529
1148.15960189411476
1169.56003382525068
1195.98503844475363
1226.53034660191292
1259.95314970157438
1294.40126092770947
1327.67556312734314
1357.55480195306427
1381.86481228217281
1397.83902892040214
1401.43979876369713
1394.69361565365944
1326.51318159334323
990.967132554861337
997.242585717216798
1008.15296156415684
1024.28388622847842
1045.77251297500516
1072.36850578327062
1103.24192738751231
1137.04341494785808
1171.85745667181482
1205.44718230525496
1235.5339290112006
1259.90263000687037
1275.97893805200624
1279.56868024889786
1271.70907701582269
1205.60778116754955
866.084760331857069
872.000627739597235
882.93004206972455
899.160762675077876
920.867022242718804
947.860348012373947
979.340283201499687
1013.8638150338827
1049.40400946948421
1083.61758623038418
1114.11832936615656
1138.68727925360417
1154.80263290279163
1158.50168811047774
1150.0892486146472
1085.03699422007048
739.96362112969814
745.546346949540407
756.434153407510735
772.806120718589
794.825793957251221
822.392382545506052
854.75839267563515
890.37810067151554
927.036542772767461
962.200197498763259
993.309624316080544
1018.15747716806572
1034.24757741473059
1038.07802027886396
1028.9995231099665
965.302381386937554
612.577078591716599
617.805260012783492
628.609262270585305
645.161890139219167
667.585897577675837
695.917650512572436
729.489709476075177
766.621349127793337
804.81842385264315
841.271957307113894
873.162421253647494
898.320238093782905
914.289234983370534
918.263294607796297
908.380160641762245
847.098098084923436
483.934543318837655
488.805278717903775
499.487574225849357
516.198033940102505
539.071500043284118
568.342969175584926
603.473827035862882
642.598934576608258
682.811196891588224
720.928199713742742
753.74322586652977
779.172460598362591
794.842336065585869
798.9328139430487
788.067010600044796
731.08443240309839
354.13492946368774
358.686469367059431
369.237709969973139
386.060879788115926
409.350539295869453
439.638947928400853
476.6522407430557
518.298127005006336
561.074745033505906
601.288698990203898
635.150639463995731
660.750536406938863
675.838627829256097
679.858709669839527
667.878556165048849
617.351707010861901
222.622588928789696
226.610386475172277
237.3069640579306
254.441534782581698
278.325450003723631
309.851855896242341
349.156454197517405
393.828393065807859
439.7216978189457
482.471159993142351
517.4033372953769
542.988533910908359
557.104811879208796
560.676434287717484
547.545895560564418
505.667346206498337
96.2672023120154563
98.6419273813943391
108.110883889412776
123.399206271844605
146.17423625809306
178.360690496281222
220.757495368791524
269.605527091516706
319.247451732173886
365.007535361185774
400.779741863843356
425.922994447546898
438.565099588072826
441.337394656791048
427.201762740923641
393.882963015815449
21.1419171395667718
21.8026734674875797
25.6388778123833845
32.5386935462406655
44.9754610132533799
66.337266862231786
101.09075555338211
149.098429480816776
202.28564611010961
250.522408461888517
286.656509502240169
310.56249452076031
320.669187042123212
321.270702404480062
306.367984644591388
280.149221341245948
6.5734696063887661
6.03567772966874472
6.22325700880780808
7.13900728378389005
9.78094257181064819
15.8565361197987329
29.5700259541799255
59.6400636495820891
103.298270024796466
145.749912638837941
177.271999425416652
197.229710240066424
202.027949808304129
196.359527191333655
183.547072813095383
167.154778606450009
5.34298966937121733
4.75734383903910718
4.72049601335291769
5.14097447602395619
5.96255122554401851
6.96908401180953163
9.8404310982199803
19.231528305865595
37.3802001747593522
58.3102294873671099
76.6862671647718344
88.2442585308197067
86.9850443441835068
81.855901685562003
81.0058620039251309
66.5141165766917766
3.71866843606769848
3.27673279510372595
3.12870787821291074
3.25145528278159723
3.85275544408355941
4.46106442328574815
5.45599587934772501
6.65879984855211404
8.5070755041317625
12.7340298760347537
15.8850343121796413
17.448057102251596
15.7646297768026216
19.5944842736430758
28.0809387151089993
7.24040809752716541
2.11999795166984661
1.91444240709835967
1.71628400775607304
1.64988785914076885
1.76945641662694086
2.13242983872064684
2.89839046347282903
3.5308365264802255
1.87231138632812844
0.265568753746313391
-0.11715089445506166
-0.385645313143155199
0.217559284493907157
3.84958947123124062
9.75487342130448098
-15.9051386544835509
0.930936506493041271
0.701569691602802692
0.433688641911668782
0.248258589081663317
0.0173152063082717689
0.232148188955079604
0.651358847790469042
1.12401804429955376
0.449042941309656385
-0.305741908079366631
-0.540317749207790854
-0.770833848690393175
-0.701258076959054399
0.735003226643451413
1.88688245062940574
-25.3362180883338155
-0.00305879233504935399
-0.383109596919084083
-0.590469683314596594
-0.659877521875984918
-0.92319517386894745
-1.10875353953305122
-1.33408109728894431
-0.965870847472821481
-0.732976740003493887
-0.752555865885549125
-0.912607460500160173
-1.12773712637452572
-1.22889645204595066
-0.706872198122457718
-1.7327167108265904
-24.5371560965856546
1113.54601784081569
1120.55697337328911
1131.8003123350752
1148.50360243067757
1170.67682627421914
1197.88754233086456
1229.150910315175
1263.13980817487618
1297.96793206961411
1331.53485981159383
1361.81571296218476
1386.9745097263542
1405.15376547310393
1414.25038547044255
1413.26606954188537
1388.90257259527357
989.886135614432533
996.493676429911261
1007.84002614355484
1024.63402459449389
1046.92126844573477
1074.33578286452143
1105.94365680081933
1140.30685587909375
1175.48644596578515
1209.33800456243193
1239.77981831385614
1265.01035488806019
1283.05518420577482
1292.11923200610454
1290.1516668618242
1267.56103966729779
864.941443814911281
871.165050305785826
882.582777194970845
899.51981458496175
922.0765378573833
949.944078520782796
982.194381231726538
1017.28528464756664
1053.169605737143
1087.59622426308579
1118.38579974800382
1143.75683138846648
1161.69868096395248
1170.70762702978141
1167.72204728193196
1145.82899643516066
738.709859400465803
744.603267555764091
756.035333417725496
773.17224432921239
796.120127057399031
824.647963686216372
857.846854830346501
894.048142766147407
931.017455783435139
966.31802190485314
997.616838137568948
1023.16657494301012
1040.95030939978278
1049.92487668294325
1045.8479605427674
1024.31174758798124
611.167525239832116
616.736290744039934
628.138948322248666
645.523955490245953
668.984701559680616
698.403787538207325
732.90216565077526
770.636311946129467
809.097741432760813
845.579238429291195
877.525089934792732
903.251605137289175
920.784106176951923
929.699959288943205
924.433739751562598
903.435842482832186
482.307000392879218
487.55107676582702
498.882350783143806
516.522571794699502
540.582170160223995
571.121720596100658
607.314595648334489
647.064903186458764
687.479475838531926
725.474756661275137
758.174588396047284
784.00906812984806
801.121788026551371
809.917927091914294
803.251054572270732
783.161902633388877
352.19434689703985
357.136463886177353
368.406450128029746
386.28365632604482
410.951386042600802
442.770471239111316
481.048983810782715
523.342700147096025
566.224863989864048
606.107113125343517
639.646390916772702
665.455090905373368
681.893291261973218
690.386322876175882
682.197656022894421
664.633764623806314
220.223417410546176
224.678383053928655
236.172289828348994
254.486148741865122
279.977179356961869
313.389993832732443
354.227835135266332
399.618289026713114
445.475164004155317
487.583248664141024
521.946058792374401
547.517193848138504
562.976473700393399
570.903789621557166
561.617675967247351
549.13186738282991
93.5151597796916576
96.5147967570594574
106.589076687701095
123.030164726520979
147.698168193478864
182.350203183984831
226.657283282293974
276.157426962394084
325.704004957739926
370.402260105282494
405.380776561136372
430.286164008046853
444.387274468763962
451.413018849837272
441.396670860989161
435.879143978815478
19.2998775331136585
20.4235506827299105
24.4825396530807211
31.8553984968176565
45.5177126574409385
69.6095692111388189
107.257727945014949
156.399744278217668
208.567575618554656
255.788799854581612
291.156086449798977
314.657314888263727
326.449313000664688
331.061622838676158
320.953475425477791
322.698707474964522
5.43301786612716242
5.34998247965596896
5.79663966160126876
6.76504063003205047
9.56381931595654322
16.7196517048361954
32.2754075611540543
63.8610666395595672
107.599779420862319
149.130522576212798
180.241054717583893
200.512775105783476
208.047734940178771
206.828185807869886
200.45605314245995
209.027399025993645
4.36606964384427165
4.18605907013668244
4.42911442208879436
4.90797599343812507
5.59755965080906748
6.91928938287606599
10.3132091564054207
19.6030863829896589
37.5647250327184565
59.0744534261366425
77.4682057280610934
90.3769012234693037
93.2154203733521172
91.9085268049184378
98.5751041135179094
100.049518806181595
3.07780125091067092
2.83410686832906045
2.84300523080994694
3.12397410291769262
3.8023215492264093
4.62910330636105272
5.80805277571996115
5.91390881204796415
6.65550191471142227
11.0689421264173689
15.3865666470483688
18.6750312699137453
19.3403015088038615
25.1093903026033445
39.1069551254203134
22.4748297684792533
1.76590237419487472
1.57156900843762237
1.52601818521151422
1.78541026385498469
2.14100995951827855
2.40672826340422574
3.31151762634559077
3.29957072888499425
1.27393500501490387
0.192657450580382417
-0.22734770413327432
-0.436815185849638077
0.337601356236335803
5.78512646768756866
13.867446647209789
-17.3572783319237374
0.775240521050552189
0.57410860392347729
0.463647130998547041
0.656490310519604492
0.515008056990790664
0.308207207426136165
0.814089045615055795
1.23467099753276699
0.421768673373543734
-0.259186347178093079
-0.595824812244659885
-0.897704852327016134
-0.799320579429707578
1.22043203921371202
2.48062883951929081
-36.1806892906486581
0.0511870526006124038
-0.211429758089729525
-0.391150825302927885
-0.424913028647019075
-0.941077003564728898
-1.23765114989508618
-1.15303290653558577
-0.627876687480878104
-0.438083923624379423
-0.632136079030511056
-0.917842417022773471
-1.19884762377030807
-1.30490054540234812
-0.479589040304826852
-2.10771061737259302
-34.9958682138664159
1112.96137637352876
1120.16557064588028
1131.77370639686706
1149.0279699861444
1171.86373433825565
1199.75196656393314
1231.63300353258887
1266.10506450419871
1301.2751453148378
1335.13826300718915
1365.80057622009554
1391.76264431192703
1411.46938544604336
1424.08768317479007
1428.7197703134741
1419.18953347294223
989.267787542344195
996.096945363348709
1007.80648694410934
1025.16279346673286
1048.12999813254373
1076.24531075987011
1108.48237062302974
1143.32540879825342
1178.82940536796832
1212.94039996344236
1243.74133503251983
1269.75320199219732
1289.38744554260484
1302.01408765038218
1305.88942609696824
1297.79834509956504
864.285056219376884
870.724582858334998
882.534076946369964
900.057575958283223
923.328776917083815
951.938131168460814
984.845544865059082
1020.41985870713927
1056.60637506365651
1091.24672918010083
1122.34665591649491
1148.45191454987776
1167.95473102900701
1180.50778516202013
1183.34537765844198
1175.86336720872805
738.000097766925819
744.110101795425521
755.966680956889832
773.71830640169992
797.42949903094609
826.764336256998718
860.671637720162153
897.367698796336981
934.608512609726631
970.058410809216412
1001.59267109858183
1027.80488318382595
1047.10573684151427
1059.61134143134768
1061.23179234949066
1054.00043090656209
610.39832754231827
616.200773166789304
628.048833040656291
646.072983720898492
670.358579081731818
700.677734694071432
735.963583790130997
774.211993617930943
812.904528696022339
849.447766805558445
881.524795534589316
907.814171560614227
926.80287371455654
939.232703448908978
939.470186811014287
932.687832350741701
481.498884798871018
486.980824963777422
498.759133740293123
517.057387450157762
542.01624165694659
573.584206475402539
610.680558112281801
650.974555370700955
691.566367971574095
729.507306090532779
762.198510361479293
788.463500496565416
806.973463807747407
819.255658394051125
817.870688880372995
811.813003241347701
351.350148873849434
356.517792999222365
368.227678627772661
386.760490765349005
412.41291225124462
445.441563394223408
484.796255882165156
527.67641919010191
570.66255493904805
610.333637071242492
643.676607910387702
669.739389443832238
687.546635139354407
699.533290021290213
696.332743666400916
691.917994262217235
219.329718337446025
224.018581845995641
235.929322867864585
254.847424079005691
281.39745243982361
316.253441856913696
358.419708463944403
404.455541773502887
450.344475103258219
492.028817720433381
525.962798615808993
551.574320434977949
568.412211099068372
579.972936506311498
575.267518472280472
574.775511784332821
92.4780439061809147
95.6898377072836865
106.099779079837049
123.119053794104275
148.959448364097057
185.346001821865457
231.35074459168527
281.537178969351316
331.050663751417915
375.06379454418402
409.363621794096161
434.117730668955119
449.558630066165279
460.3670822188476
455.101368969522355
460.44479241462227
18.3721188724567526
19.6667084905047318
23.8984949922492547
31.345985974912935
45.7805152622623837
71.5709039807967429
111.762054181944222
161.900952300782365
213.931954955558012
260.551501179566912
294.996987095583108
318.127512835664902
331.465429598100627
339.215556838352313
335.55808433544712
347.216515716132335
4.6671225910964198
4.74636137382153933
5.20965743262279091
5.89763620157777879
8.77981876495032765
16.5153460052136438
33.6166402017281598
66.67190466178306
110.622233073579309
152.264739232979991
183.130944566484459
203.3155870822834
212.910918096385331
215.129401068969401
216.706871875583829
233.659186214468718
3.69422476007842349
3.71004818088356458
3.97181108939852834
4.28508449281779846
4.9372729729672038
6.37787498473824499
9.81232833077311284
19.03975208614753
36.6140144115687463
59.2373455650057394
78.5199940558493381
92.7674335117731061
97.4185632613230155
98.8275270632102547
112.566953020742972
123.251299027063851
2.55563559108585459
2.4938095987693103
2.54138117245718576
2.83434672156412582
3.54547107011689278
4.43341712806917343
5.23099846314513073
4.48128431317469378
5.01924213485357029
10.1971944049929846
15.5725943793145802
19.8059598889374229
21.0801555459158863
28.8124562273457627
46.8193117393145144
33.608329369395733
1.46919205904404837
1.37380736326933484
1.40231414689952061
1.6870785594644726
2.04347834240118686
2.38646986591097487
3.10056572350377735
2.60651837043477386
0.854771591256030305
0.0639889666351285413
-0.332856970890817117
-0.61019338688023339
0.143400186666580609
7.09746706614858169
17.1071740735843889
-20.5306569123727058
0.672395281356905627
0.526980588998408273
0.501685204396198792
0.653956630191727228
0.397954797989605424
0.275671710641635315
0.927976057124897835
0.899991673196169018
0.182898553251199303
-0.32679922013158258
-0.64822994675151735
-0.974343867858650903
-0.890534722543709023
1.27932028321507829
3.45271256398065418
-43.730983308587561
0.0387235147872875274
-0.131371527765408835
-0.241628208653230203
-0.39800977578162744
-0.960348939076222763
-1.28754700813308531
-0.988631133220980729
-0.686089236218677456
-0.427313965636249904
-0.69603569496726081
-0.939685738665402503
-1.20890211442905482
-1.28717698753739951
-0.4533989346395364
-2.120670910821433
-39.8200173781668028
1112.73178797951914
1120.07996756610623
1131.99280780890695
1149.69537499704302
1173.05881755585119
1201.49189800346448
1233.87595418142018
1268.73828987673937
1304.18655140009218
1338.26455187351326
1369.23379180401298
1395.82549722223166
1416.66275801998063
1431.33783471776906
1438.3954479782567
1432.72736754395373
989.003946755362108
996.032395808665683
1008.02827061508015
1025.83586215065543
1049.34527921366862
1078.02222638718263
1110.76614046010468
1145.99388958688701
1181.75970172658776
1216.07875326891985
1247.18383672442587
1273.80998070313808
1294.57059427019067
1309.27224595002895
1315.49645990854242
1311.16562889543502
864.019757555895239
870.647257546289211
882.758722080328425
900.746551743954569
924.585273207683485
953.785154532602746
987.2160831341331
1023.17364502913301
1059.6011767897337
1094.42156170230646
1125.7929700626571
1152.47176692323205
1173.0681970738965
1187.69377863441787
1192.79004199301971
1189.18504933278109
737.740747098674092
744.021213872660496
756.195123509080531
774.427401559140435
798.742239089509098
828.715209659137599
863.180474761729215
900.263345704837548
937.715901132028421
973.299761687312639
1005.05202285055293
1031.78094804662669
1052.13287935972812
1066.70941418550979
1070.47205182297603
1067.17115567386418
610.158324654124954
616.11367799704999
628.283595325676515
646.802116234460868
671.738388908950697
702.764917394386089
738.662107636527139
777.304007660262528
816.165833124212895
852.776844772278878
884.992619852998018
911.715933542481935
931.708541380936708
946.231232125511838
948.398126428093633
945.542743262310751
481.312150271549626
486.914784371761698
499.001954016474087
517.799840962295889
543.467366866435441
575.839995943465055
613.626786172197399
654.321378629702167
695.021136697254974
732.934464974247931
765.654943816355853
792.239117129236206
811.720479568916062
826.154364706405545
826.403961718212372
825.089012926545706
351.264531588945943
356.501107032265509
368.475262261196576
387.492645533767359
413.923823867544343
447.891349325788156
488.052939241591275
531.336378252985924
574.352531707226944
613.859629899971424
647.0784397214004
673.316174072852164
692.061774676034929
706.389127180747209
704.6695836011138
706.228139886750341
219.428451431964845
224.136260595398198
236.188728337842235
255.515640769580955
282.926322112797834
318.900659436090791
362.031711041044446
408.48481473031859
454.299081701841942
495.655338618911969
529.260246950237843
554.904557833521835
572.610448771296092
586.62676770604196
583.856483573868104
589.760247576255665
92.6322449712989737
95.8070832482318337
106.234037911566929
123.566856510638559
150.392160413949227
188.181377332455668
235.440576390677734
286.00765934595438
335.284494282386049
378.785082108690858
412.485854672490177
437.170333703297274
453.572720378115946
465.850865692779735
464.626818322310328
475.740164443666913
18.0326376976741471
19.3162601694558589
23.5506321532691913
31.0670323509040713
46.2592619470958653
73.3444526837677131
115.383459381221655
166.220423714386698
218.188791047416771
264.434671087175275
297.86115995070918
320.645320572578839
334.854180721629973
344.214459265016558
345.804021725489747
363.384377752997352
4.01880101330836847
4.20302457226867876
4.58761002665953299
5.18594250356014541
8.25058972285199843
16.2797889915469796
34.619804962157275
68.7583496386987463
113.01051282744038
155.283311145320567
185.236529744044219
205.328662261156978
215.663517542311411
219.76291117963774
227.649355723769759
251.277129040347745
3.12300895305485859
3.26853772521239527
3.49485463482132097
3.76550288461305449
4.33888681497155915
5.60010000824706822
9.10982859042825055
18.3362799504466807
36.0954675484435938
60.0459153981734062
79.9137231575518854
94.3365420071449989
99.5663830759847315
103.01906662143665
121.635349122497928
141.265032623729894
2.10575563580932101
2.12499160653773167
2.22614352079751399
2.51743926218211733
3.07375337573175322
3.87187228556289398
4.38280259362754521
3.34341753646199891
4.00143303136007944
10.0197876781786874
16.0956801614497067
20.4175208754056712
22.4247051026468398
31.9214234719611909
52.3759679708414296
43.4706411043252956
1.1827797804718676
1.13503075844985002
1.20730306759169359
1.42913960895685221
1.65111054472589913
2.0250492032089511
2.58411066351262164
1.99608721813329382
0.538562243483101888
-0.146244107179693827
-0.501931874634853337
-0.694291968260144721
0.539569389977138769
8.51637609811464813
19.5152765638807466
-21.6181323752994672
0.516823131502256672
0.43688043201835125
0.436079623573867536
0.341302365111427974
0.030671238462861794
0.0901910113600159491
0.750431684704270907
0.718077434160200312
-0.0080041133338246695
-0.500595277610683009
-0.781668310991976423
-1.05367573891243649
-0.949063309823882317
1.64537363559684202
3.81394473844599702
-49.2358907442478824
-0.0362766900933086944
-0.142560109593677709
-0.270950675923721462
-0.658524156312894959
-1.05392874796172453
-1.28512410580622927
-0.980621794482388509
-0.592363538051110083
-0.488077068266536962
-0.845042464848371644
-1.0467196102447851
-1.25461415803284426
-1.33320038037152244
-0.385670068083461715
-2.12681939896077488
-43.2441741694211288
1112.74812772181258
1120.23639962905281
1132.38194585363863
1150.42042456380318
1174.17741406430719
1203.01989073072241
1235.7845507888012
1270.93806016145504
1306.57400319080602
1340.8010276724201
1372.00620065932458
1399.03907557582625
1420.66451620902421
1436.62553939653208
1444.85510312278711
1440.63620913256636
988.991368432775175
996.227340197095373
1008.4255615972163
1026.57159994738231
1050.48855016119273
1079.59070767806475
1112.71919328530885
1148.23482766917505
1184.18924739038857
1218.66233503517037
1250.00418008850988
1277.07703147182224
1298.60585763442896
1314.54516338462213
1322.02007492715484
1319.41679829714326
864.023779489171034
870.827807667013758
883.167419904894587
901.506309371349289
925.773675133757024
955.420264004234696
989.245931389599946
1025.48851831094794
1062.09449153424248
1097.05362286663308
1128.64071134826168
1155.74390713918183
1177.08678796190725
1192.96378476140535
1199.29468965135561
1197.26696446503843
737.770937314298067
744.192729008732613
756.621335888216663
775.222923448222105
799.997741869067113
830.451844118854297
865.331844951028302
902.695402574634045
940.305737420180094
975.99595520692219
1007.92528369563161
1035.03674757253202
1056.10897481179336
1071.98901679039113
1076.85434736096977
1074.85467377839905
610.224273925429884
616.301172447621184
628.738397679090212
647.648043829846415
673.088683289502342
704.643679572346855
740.981452754268503
779.891700502244134
818.877747465509401
855.543293742810761
887.879770531379677
914.922470590123908
935.612441292543053
951.510131388963259
954.535908786219125
953.363493828544392
481.448076889267554
487.162181114743021
499.504342928411234
518.713779706893547
544.947099317485481
577.912017189555286
616.168799642110912
657.104875224817874
697.873017760323478
735.763886763302025
768.530522731870178
795.348080517958351
815.49988608397075
831.491035522308152
832.294659072874424
833.22805800421952
351.539114205791407
356.877181515654229
369.045590558188906
388.485986279038912
415.567251371744646
450.209343771552426
490.874251390419431
534.356464917451262
577.349409319261099
616.730908186554529
649.913117796537904
676.286826119972716
695.671609975766728
711.685243465665963
710.53162118341038
715.19501331709364
219.997427589241738
224.758418368273965
236.860892337711448
256.601856497456083
284.780085427542417
321.512035113446018
365.165889640868386
411.761204079229856
457.441693359973101
498.529933506182374
532.085824181951693
557.651365627324822
576.166864980732612
591.082737419523255
590.319161774630288
599.523246559518725
93.1760013222093448
96.4069142757754207
106.912266309738357
124.628751290415494
152.406691082723
191.172723373557346
239.032963693171496
289.594976000215183
338.597781755019696
381.612420474881901
415.302090871840164
439.496498797130926
456.627494574269122
469.899297827326336
471.793712329692426
485.523359472512652
17.8900797397786846
19.2062008557501258
23.5257425790265984
31.2650237977546226
47.3444407768607789
75.3882174046617592
118.479724627875612
169.654400168732991
221.587460204221316
267.350636571210543
300.311777471765254
322.466258461213329
337.246383958599381
347.802766819181443
353.442336274583568
373.444437119420854
3.48768919944867672
3.74290576418847198
4.09541969744995349
4.77058560616352345
7.98266922390378397
16.1813579797229465
35.2989271537467175
70.6627631945636949
115.35559311369002
157.676427954647352
187.310804975019437
206.823941449772519
217.340115937161727
222.867466755124269
235.490098135557446
262.186288648824075
2.66616720288200337
2.87835367423397415
3.11921239493524993
3.40361643573447736
3.81372562679569604
4.9321871843601599
8.59249423284195757
18.3173043557026745
36.6538161167558201
61.7159302847113622
81.5575981057700119
95.4859177903151704
100.810767585773192
105.983739712536135
127.773891409815405
152.275986149469873
1.75067358362836867
1.80486637283271811
1.93923235357353363
2.20636737227109414
2.63043991441114322
3.34529072539353933
3.89409256094127443
3.04785617980179246
3.89161701348874089
10.4094906044329605
16.5040959506102922
20.9614253305077796
23.888522750257664
34.8259501430979981
55.9727889860594132
48.8367147683400162
0.930498622923130903
0.890266901714032777
0.957613006837786607
1.13026531306761413
1.33522198621135857
1.72353601641690801
2.20199676647966314
1.71854119262895644
0.3517790490300996
-0.390803390883196933
-0.690065255110803299
-0.614978228029326779
1.62863060595748621
10.605859359541256
21.5208465373978584
-23.0380889150945904
0.339657325146638378
0.267591363171140628
0.251305225085271644
0.118961909051892079
-0.0924543774361374915
0.0175222942547215155
0.516676513212072308
0.479317940083923588
-0.209858491521650592
-0.686382187586355386
-0.944511410923536188
-1.13658500640972937
-0.701728844945270325
2.75653734273603312
4.71703272561670417
-52.377057027032393
-0.141679111951031
-0.240080610441227638
-0.390936976830676741
-0.788977988323599888
-1.13496868725084887
-1.27641105510197583
-1.06434851965694222
-0.754841352194645765
-0.714976492697295463
-0.949018569267666479
-1.15680989863749639
-1.33197422519213626
-1.28157731304510447
0.212511321201686698
-2.14614317034839708
-45.9534087734184453
1112.94570138611493
1120.51270329825866
1132.84617785968317
1151.11891436689007
1175.1492398537614
1204.28239399946847
1237.31557918315366
1272.66762150602653
1308.42667391195232
1342.7582774751977
1374.1468394245619
1401.532949898075
1423.67353858351908
1440.42934064860583
1448.9381739601663
1444.5623359521835
989.135335536853972
996.557191427309704
1008.90587891927169
1027.28365762661588
1051.48612684063437
1080.89323058648461
1114.29529288079152
1150.00785857938831
1186.08440221838714
1220.66096086020593
1252.17987475862947
1279.59416484207645
1301.62791731555444
1318.36302410880558
1326.12021845660274
1323.33065576069021
864.203779722680565
871.162092482527441
883.660116362797908
902.238386861232129
926.810809801847881
956.782185226212505
990.890386426462555
1027.32786292319429
1064.0478305638801
1099.09821805856495
1130.84694419752441
1158.27756343673445
1180.11284385101021
1196.79989974982777
1203.35980888872632
1201.16293495040577
737.984759383721666
744.536237944249933
757.125524269917832
775.982110221726089
801.09148159728602
831.900843229649695
867.078097418501784
904.631878020023009
942.338406980150239
978.094813913631242
1010.15828314882151
1037.57262341957744
1059.12157785028103
1075.86135591523112
1080.81748361757946
1078.95482016367669
610.452446558128599
616.644712022231261
629.252918854221321
648.445084404603222
674.262708485151393
706.21218059427656
742.863711747556181
781.955574065301789
821.00982522951108
857.706760637299112
890.13412094806506
917.44522670868048
938.595332029921451
955.492189163319608
958.42066040500697
957.842796324704864
481.63418571161651
487.485633090702095
500.033099780559837
519.570753604806214
546.239579417233927
579.643993877135927
618.225926028590379
659.31966095864675
700.116618890228096
737.999224479285203
770.79758928253375
797.837691837078751
818.458191589687885
835.629964836874592
836.126619890083703
837.936786723599539
351.638943604539236
357.17256592821866
369.599037933294426
389.444165015782119
417.035642675840108
452.164554872318377
493.157425943514113
536.739934528490835
579.704860930488849
619.037969177399532
652.265047849712801
678.734046755704867
698.82395978244233
715.493008996643084
714.460649982025416
720.279848662568952
219.969171243149617
225.017455878472333
237.462517685485636
257.716220360071929
286.499594811869656
323.763716551048446
367.728488397898786
414.336756673361833
459.908039856025994
500.99155539045114
534.405300614792054
559.947132559581178
579.143594864937995
594.564276343091137
594.987749175657768
604.951592481807893
93.1671154499225622
96.8533082673656054
107.573041771144631
125.732921521078083
154.296840153334415
193.783373357498704
241.902026454373527
292.37043741829325
341.156588814547604
384.281367671668249
417.343668541043371
441.532295243856879
459.236800657948606
473.178414224679045
477.031869703031816
491.13500839574067
17.7877969390337398
19.237630931495346
23.6059639966254053
31.5777434541664093
48.4475961087125597
77.3697434813650489
121.068308237285237
172.266637722352925
224.189420687139545
270.039247274161653
302.132742570568325
324.152361833348778
339.375405070943543
350.800394212885521
359.102879235153068
379.39732122236228
3.13062846983554355
3.37831100728103895
3.77576403053919663
4.53095484050713182
7.95180340919117157
16.48359392112053
36.1900729532661671
72.6586580439372938
117.81600620037193