/*--------------------------------*- C++ -*----------------------------------*\
| =========                 |                                                 |
| \\      /  F ield         | OpenFOAM: The Open Source CFD Toolbox           |
|  \\    /   O peration     | Version:  2206                                  |
|   \\  /    A nd           | Website:  www.openfoam.com                      |
|    \\/     M anipulation  |                                                 |
\*---------------------------------------------------------------------------*/
FoamFile
{
    version     2.0;
    format      ascii;
    arch        "LSB;label=32;scalar=64";
    class       volVectorField;
    location    "0.780000000000000471";
    object      U;
}
// * * * * * * * * * * * * * * * * * * * * * * * * * * * * * * * * * * * * * //

dimensions      [0 1 -1 0 0 0 0];

internalField   nonuniform List<vector> 
29184
(
(-0.00458456638562972779 0.00122309587024161553 -0.0300694509322058934)
(0.00249368332898312894 -0.00346312424376129298 -0.0354515066357650108)
(0.0209457677438757775 -0.00580125587902637768 -0.0388314261775860453)
(0.0467817363694043448 -0.00666017871694755872 -0.0439607808329556884)
(0.0690357736834587288 -0.00567815792103328401 -0.0510766056992492737)
(0.081554888077886592 -0.00373472563520625602 -0.0606627099105787257)
(0.0890141602255561104 -0.00221056872833603514 -0.0732668384310261461)
(0.0931844901812152182 -0.00149098934476818087 -0.0896559734059349522)
(0.0963111745678811859 -0.00147809707835463901 -0.109702868449789631)
(0.100667454654898639 -0.00220839552351168641 -0.134523231678783023)
(0.10864060794277032 -0.00344722022050596806 -0.163517239983712925)
(0.122567239779093756 -0.00536930807564513484 -0.200499170387686221)
(0.140362264005605752 -0.00788253788956059555 -0.241303851763778499)
(0.172442612906058029 -0.0109460032362079396 -0.310749765292059388)
(0.208562547368962181 -0.0189154434123255111 -0.369246300733284016)
(0.139783704880443505 -0.00370676327181973953 -0.62494660023719284)
(-0.0010358969639858084 0.00107185117514129076 -0.0302872993618584635)
(0.00886067333593108276 -0.0121367354589944111 -0.0345499212996115343)
(0.0285335680171823758 -0.0162993926973278233 -0.038154670473576395)
(0.0466676801303093358 -0.0155887532755882435 -0.0430612684617737093)
(0.0606126749626140077 -0.0118867222977958736 -0.0501057227887229603)
(0.0708090175680645972 -0.00739896723831384023 -0.0598570066846763407)
(0.0779284714005014645 -0.00439265632570148487 -0.072828681420952085)
(0.0827417556333768234 -0.00340667750468060318 -0.0894034446149939849)
(0.0868603586657870352 -0.00429012295982526565 -0.109787650929725977)
(0.0924403639825709944 -0.00709371914114480858 -0.134363135463922395)
(0.101506549539922747 -0.0114767738277816722 -0.16348176642282361)
(0.116523975547850087 -0.0177824794422985627 -0.199134474646320225)
(0.138205675631900088 -0.0259645297362234816 -0.241124099138982778)
(0.163846286893031073 -0.0348998123138270569 -0.305110646003405372)
(0.210150819690976376 -0.0599289146122653632 -0.374064375116759273)
(0.133028596111574776 -0.0121356805053934643 -0.636374033311503551)
(0.00281887037928123425 -0.00179995484486532818 -0.0298872073398240012)
(0.0158580314823367624 -0.0207222220609858537 -0.0347723925108476689)
(0.0336462843491896479 -0.0253560760868064179 -0.0385031168589861569)
(0.05004933088870131 -0.0229523784253872487 -0.0433559094559985356)
(0.0628603748227661019 -0.0176127535862058981 -0.0503646943068687611)
(0.0719676563750164672 -0.0118974933362383101 -0.0602050299368927025)
(0.078022969120006655 -0.00785015995784566455 -0.0733751704816754252)
(0.081952091701561175 -0.00642410853328951106 -0.0902200369759963566)
(0.0853016520085592145 -0.00795017718121966178 -0.110909645470259416)
(0.0901733731698936836 -0.0125423919982528866 -0.135746285199740468)
(0.098423847512041196 -0.0200201837388637172 -0.165064008280485008)
(0.112611585426291197 -0.030599663881460893 -0.200765199025686791)
(0.132802278862396816 -0.0444317746204247882 -0.242878638137514702)
(0.158196598926537896 -0.0595598458014284168 -0.305831670136108791)
(0.202660231130448093 -0.100167992049718185 -0.374895074486711055)
(0.11819319241333269 -0.0243318926633239972 -0.633133339131827788)
(0.00604679581497354936 -0.00715740372148243424 -0.0291278714526232926)
(0.0221651320420295991 -0.0295245983295725767 -0.0341316448855919358)
(0.0390298677921419035 -0.0339311822414204781 -0.037858949116565857)
(0.0536863662086796423 -0.0301041606496890921 -0.0428192492542707609)
(0.0650062059413342858 -0.0230553489611874593 -0.0500739921506233657)
(0.0728175514968815163 -0.0156587482184661064 -0.0603080714365158629)
(0.0775819812501167272 -0.0102300890272588093 -0.0739908351761146277)
(0.0802172311090772472 -0.00827654506313950204 -0.0914165142161208338)
(0.0823024685246708382 -0.010537553680537581 -0.112698035698731977)
(0.0859699842875665948 -0.0171309572618191866 -0.138021930575156382)
(0.0929599146430019202 -0.0278235551940467195 -0.167678071185434513)
(0.105831822937986042 -0.0427485345118470278 -0.203459511064222637)
(0.124165564411323745 -0.0621188535832924091 -0.245582719173702585)
(0.148276615691453145 -0.0843291695685276788 -0.30769584971677022)
(0.191357610768021935 -0.136323398855913686 -0.375104861782905863)
(0.107300794431844745 -0.0401759157790365015 -0.628830251946068564)
(0.0092287828494585708 -0.0152003761131891523 -0.0272140473946798807)
(0.0290462011322927607 -0.0383551164211764287 -0.0315714269900365108)
(0.0453975263371793614 -0.0413706133611818627 -0.0354567170985143898)
(0.0584065637232371523 -0.035855717661418457 -0.0410006932534803525)
(0.0682824928583775498 -0.0270864624595168052 -0.0490363305621832196)
(0.0747826913504291702 -0.0180848438903061723 -0.0601518238262319233)
(0.0780772129635590728 -0.0114682643831317804 -0.0747493740596939099)
(0.0790484017830088703 -0.00924022440042829296 -0.0930591776151959565)
(0.0794010498170017454 -0.0125377975651051812 -0.11513007486249173)
(0.0813655562250679976 -0.0214051465887766315 -0.141051732219950848)
(0.0865553666910276048 -0.0354768047934478428 -0.171056668059342692)
(0.097474675254690224 -0.0548066740169909777 -0.206873498077870116)
(0.113090302790287353 -0.0796103728414438855 -0.248893703334489125)
(0.135634187960667535 -0.109428048442005807 -0.310055294731425513)
(0.174845138785432508 -0.171261875494664956 -0.375497369260466618)
(0.0953984694143574785 -0.0592527494694146395 -0.621417743761122687)
(0.0134064818689898814 -0.0253567304189313558 -0.0235313579844485463)
(0.0371149421799864196 -0.0458077545895138466 -0.0274403422208597501)
(0.0528268393770321004 -0.0468957712500048945 -0.0320043071069581533)
(0.0639604583787535819 -0.0401729270316232984 -0.0385110179261821117)
(0.0723688381890595506 -0.0301247855217935886 -0.0476092629417551108)
(0.07763238998010627 -0.0196429508006240282 -0.0598921999895473886)
(0.0793730620005082266 -0.0116788880722630394 -0.0756873359651919347)
(0.0784236571348247008 -0.00892364505852481088 -0.0950969105418489336)
(0.0766400992637490119 -0.0134354998286201777 -0.118095374413548546)
(0.0764183395356990702 -0.0247897050583487655 -0.144658214737411972)
(0.0792657243789550714 -0.0424887444978443718 -0.175001022886799779)
(0.0876344230987000788 -0.066304860403762711 -0.21077928726482803)
(0.0998076256530823352 -0.0964359566521983264 -0.252628452314561214)
(0.120319824685848314 -0.13425413300726366 -0.312766083377796877)
(0.152416741825746022 -0.204763164385471874 -0.376405491279068971)
(0.0803244009639874357 -0.0837611531937445253 -0.611344399614064837)
(0.019050696114881447 -0.0342863829842003087 -0.0181107365548195363)
(0.0458344034460959754 -0.0494348352156827181 -0.0241383171933414395)
(0.060117981956747564 -0.0484050073374936857 -0.029622581599884866)
(0.0692772146241906195 -0.0411257917820182228 -0.0368969004976803447)
(0.0765837991538986934 -0.0308780301559264392 -0.0466690246873164641)
(0.0809374672744007373 -0.0199058052105342553 -0.0599132635213556475)
(0.0811871637263198165 -0.011265341174444634 -0.0768080076748752782)
(0.0780515839342932061 -0.00832060254715030062 -0.0972683713563965435)
(0.0736734930490128281 -0.0137498913646646823 -0.121193147828720371)
(0.0708156922749766105 -0.0276151375497149833 -0.148372783791298063)
(0.0709476349759926017 -0.0487142009726337921 -0.179090943716113088)
(0.0766625519965701968 -0.0769823345563129258 -0.214787712700373223)
(0.0850668951733035417 -0.112232768844092723 -0.256564679436058651)
(0.102763156878859577 -0.158118125567276058 -0.316153705285865172)
(0.123163530539752417 -0.236420334320459169 -0.378722042640266821)
(0.0619421440773729459 -0.113720729816272736 -0.598291776113127005)
(0.0255672700057742695 -0.047845093484771152 -0.0139972790347522701)
(0.0536089190460955628 -0.0556970794661985139 -0.0239433487615455277)
(0.0653250516711576107 -0.0500386367980983487 -0.0292083048975406157)
(0.0735098131990008369 -0.041106577678195616 -0.0364614920890726293)
(0.081042945302197994 -0.0295472374128374245 -0.0463166670823643295)
(0.0848009615407931266 -0.0170345065598424099 -0.0603868394812070095)
(0.0838097974024017006 -0.00782577350336293581 -0.0780288672791356469)
(0.0780712533200161041 -0.00646627388039438741 -0.0991384102021409391)
(0.070482164791981633 -0.0137338188977125294 -0.12380413777128986)
(0.0646534075571259248 -0.0306239527964290263 -0.151549663984222566)
(0.0621467823428378668 -0.0548758820134540304 -0.182710458524485198)
(0.0657158998643942588 -0.0872536525779911143 -0.218481800970062756)
(0.0697028733229484165 -0.126764785615280123 -0.260998166329978853)
(0.0824178848061706548 -0.179913019385508577 -0.321429247571886845)
(0.0865829310770432903 -0.265964822541493728 -0.384848244884821333)
(0.0457390300398339764 -0.151919844806204019 -0.58323762009067559)
(0.0279443476022369179 -0.0768629856839234821 -0.0116992101154052841)
(0.054593074769431274 -0.0785800916446963427 -0.0237771947401142873)
(0.0623656465275073471 -0.0690501218493178581 -0.0273113946616129373)
(0.0726358814971754529 -0.058420168228038527 -0.0308261404868358652)
(0.0839065398850508404 -0.0430659443071856607 -0.0409662394377387426)
(0.0888382892119231049 -0.0235830047279823422 -0.0576322633236949142)
(0.0873778113698478187 -0.00638393694003003449 -0.0772026749191282863)
(0.0783923937550136535 -0.000759568643765661834 -0.0991903084578374394)
(0.0672673563665570073 -0.011496954085517418 -0.124593345360386298)
(0.0585394874713090346 -0.0325951308012000784 -0.153135967320972066)
(0.0542129758296384032 -0.0611244805438513408 -0.18518081149375501)
(0.0554798667881186425 -0.0975217826377030583 -0.222179807357734488)
(0.0520064385260009393 -0.139223758719890012 -0.267818464237793763)
(0.0552433149822046388 -0.197247149488099849 -0.33138742828128509)
(0.0421445076265500318 -0.294676908660613468 -0.398784777254008516)
(0.0289165119861191956 -0.202629935857479987 -0.565142201994150883)
(0.00856048195016779513 -0.0991016016112681586 0.0175742965884767254)
(0.0250076498463534594 -0.0863070742433763166 0.00859019396470465935)
(0.0195933066242817561 -0.0814610785118483616 0.0172379930217417335)
(0.0331307372575433273 -0.0742944799850581705 0.0169431376513113803)
(0.055994695247470111 -0.0640680325560517017 -0.00585896909364320116)
(0.0789868697579882845 -0.0484801332094578971 -0.0340618313900093866)
(0.0813701064900033549 -0.0265138800451012943 -0.0648593656328959878)
(0.0726445333968700202 -0.00696481991221495952 -0.0938369927221353456)
(0.0593729072462020543 -0.00564024262295072763 -0.12182574140080768)
(0.0480307538735298065 -0.0285360355912063109 -0.152305338966122555)
(0.0420816561149217755 -0.0616784977802486839 -0.188439177423152082)
(0.0372159740944737749 -0.102109300100423475 -0.230444226123863172)
(0.021399023289708205 -0.144322555442791267 -0.282893619163074483)
(0.011254730021124832 -0.208327257194674487 -0.351092221537291582)
(-0.0120364974460376202 -0.326812118570858401 -0.422668346092610725)
(-0.00154718782795340137 -0.264252137700328738 -0.535754886632372029)
(-0.161764170170005994 0.0077551395362574875 0.733118517708434503)
(-0.220211912674244531 0.00265778898065421442 0.579967311711453881)
(-0.29634601775336844 -0.00425471410183195925 0.430966022610924759)
(-0.301101603984031296 -0.0195152624876985085 0.303145224384864909)
(-0.260551223925862718 -0.0272809013231948005 0.152211300007104755)
(-0.191988146110138869 -0.0238563466288544308 0.0151697884998784616)
(-0.124818180777908641 -0.00763481643140064697 -0.0587078526337835166)
(-0.0658035399277700356 -0.00516390181470200056 -0.0998736052867730678)
(-0.0256830801674445205 -0.0125191881816275712 -0.130755008534360506)
(-0.00449252787586935237 -0.0279668121835662323 -0.166311309532830853)
(-0.00737532392448527439 -0.0547216894718337288 -0.207953183810484443)
(-0.0235005157885901893 -0.0953150501278111906 -0.257355603642869635)
(-0.0467076735412922661 -0.142085107682756229 -0.316297676478331458)
(-0.0623122437880269872 -0.224118241934211787 -0.384759884362141535)
(-0.0736581729902093391 -0.369838861003027264 -0.451619162179468681)
(-0.0395613444264831526 -0.338679233115355804 -0.492242516908983518)
(-0.125545636399546329 0.171579438660224876 0.85317020579832703)
(-0.238935160537739166 0.111399779231014018 0.670091023683567544)
(-0.428789539920980067 0.0657415211714140191 0.573976093536642029)
(-0.566937435492172126 0.0369548305161749024 0.415503108932961662)
(-0.669506301182512864 0.0105318739165726847 0.151506481840732427)
(-0.723877916445529346 -0.0165324563921730172 -0.0551063874188495798)
(-0.72808671699480243 -0.0249749810051506579 -0.140380844549861133)
(-0.602836212547597006 -0.0388574727067080641 -0.165015844470551176)
(-0.458048553509603829 -0.050355041059778248 -0.20326577671152779)
(-0.319209632601516913 -0.0671168055219390769 -0.238453854123447218)
(-0.212604841673595307 -0.0774879416904230289 -0.268358863199207043)
(-0.182099061339865087 -0.105469050612840759 -0.312252906822120979)
(-0.180213694036186534 -0.160737713136295479 -0.366320955282802507)
(-0.16800853372471658 -0.263460169978011305 -0.424236370128902918)
(-0.129964651260411956 -0.4288061596720254 -0.471510047880493888)
(-0.0954813710075042149 -0.418330591584795852 -0.44062522366301482)
(-0.0779510549698922972 0.301933743956712908 0.744420806027568438)
(-0.150370499800405844 0.246190233461591884 0.576659170077128636)
(-0.317902373416483641 0.181289096134010813 0.521265203957764767)
(-0.467122174950294233 0.138162037672350968 0.474573320285017364)
(-0.595002020145224964 0.063916239390726215 0.337505533363723964)
(-0.655754153798720374 -0.0240252200819859422 0.103954295199480407)
(-0.654151057187369656 -0.0834957932104554018 -0.0713188116748922213)
(-0.637596780560512388 -0.127490023618939463 -0.108921244658606517)
(-0.661799730399778796 -0.131613925318096542 -0.157249877255863479)
(-0.603992561409831707 -0.132802128059035851 -0.227972587315390801)
(-0.513352117253182416 -0.135806460471165957 -0.283341465816029148)
(-0.441044611725628533 -0.162808856629314075 -0.332008008352737083)
(-0.387569542836607828 -0.21942389249258229 -0.390246222050570635)
(-0.305123590577025205 -0.328719469751413251 -0.44798005578341743)
(-0.175892587639100206 -0.506695823403727985 -0.476766827986711272)
(-0.172483937239471918 -0.490346402103737256 -0.375618485532078605)
(-0.069374895228858327 0.480786139840069515 0.723169589881384356)
(-0.132871069537030928 0.376404335098351583 0.54936177622342619)
(-0.256450434319854426 0.253378254945815673 0.453619343052312107)
(-0.382333008657684381 0.198639310867702451 0.381078659277563125)
(-0.53958742212046229 0.137171925396553041 0.27396227500789555)
(-0.595962296082012011 0.0219537150377424398 0.091172083586091357)
(-0.517118777155263665 -0.109230497665633211 -0.0806007129590213395)
(-0.368594951680308147 -0.169314671938113392 -0.108031696121769244)
(-0.308456942465707373 -0.132118760357372689 0.00321777077089517236)
(-0.469210431660505412 -0.146978176406462824 0.178966508573047606)
(-0.641085050819920399 -0.165053457047667523 0.108859774288919894)
(-0.680084268532289205 -0.204015775947824052 -0.118397990980347173)
(-0.642889627434940825 -0.291691776269487557 -0.271012903919443882)
(-0.448717890671807618 -0.438074118377206445 -0.39365230921563521)
(-0.208602480341499502 -0.610837701302180291 -0.434686487051731074)
(-0.294236485218853927 -0.580603673032853651 -0.279456175964494735)
(-0.0628645795635913995 0.633088742500276802 0.695084546073642118)
(-0.12197233450010854 0.415772818920445486 0.469564371462343311)
(-0.202552645730493641 0.291398568132381686 0.3680421414685488)
(-0.303360207058896492 0.262478256962176193 0.271646909773836209)
(-0.493649262517648846 0.194105941854859299 0.18315342085790004)
(-0.581224231129737978 0.0370467540448275873 0.0607634626081222165)
(-0.516473591905390883 -0.18249498957128385 -0.0961338119954327497)
(-0.38310255461309084 -0.283242406548779413 -0.145275490418948772)
(-0.28328382792450274 -0.17969886127194748 -0.0794489858624431167)
(-0.219656645474324508 -0.0101625272067662198 0.294270840830765934)
(-0.345016025127156845 -0.0190103464607332615 0.563020394647573585)
(-0.65074176508338033 -0.0639915013125627874 0.461073067010435655)
(-0.742655182980306527 -0.251493642733358613 0.106755090205849376)
(-0.5628789242067882 -0.53674025397213343 -0.165731655882781631)
(-0.308047256077040255 -0.754960060472692152 -0.357088042435669939)
(-0.467665307834755128 -0.686309759620482018 -0.234739062940771903)
(-0.0269170055452302159 0.730530388742979042 0.604961067346829307)
(-0.0611475582317033625 0.420339015120062776 0.374152357955620185)
(-0.14670368803893169 0.303730217390843715 0.319370549760289557)
(-0.178845346170202618 0.304967941945489041 0.2306744642920249)
(-0.363395430089730687 0.261966115015557721 0.15259161038056604)
(-0.523133192822837101 0.038502736693226354 0.0331769694231135726)
(-0.473788747167734725 -0.237340728474096208 -0.0511499884059530979)
(-0.383240876743051295 -0.337893842776719244 -0.115603478838253948)
(-0.306525630852769848 -0.248421078884265067 -0.111365307018281734)
(-0.280278394746035275 -0.00832518224972220687 0.236318167802901519)
(-0.306679659308993213 0.102053826279557683 0.582199801058186361)
(-0.54951899253390879 0.137445878077815359 0.617441104677762476)
(-0.692048499249602433 -0.0834670234145041545 0.362120729678226894)
(-0.645466467112911002 -0.49980964542875006 0.02778925599597196)
(-0.568347635869233536 -0.857472939055294425 -0.332817156673807346)
(-0.610225596576242646 -0.687437374497768761 -0.399318016121461228)
(-0.00543694860723706493 0.00121890986664670818 -0.028833783298962197)
(0.000323707659293138647 -0.0032878683541541125 -0.0332840830533171275)
(0.0174212393277972943 -0.00559235451739959963 -0.0364943083434519575)
(0.0416175179086735736 -0.00638190515097131553 -0.0415795974080913552)
(0.0613601607865612436 -0.00534731555638782476 -0.048678772615615068)
(0.071041424955307339 -0.00345687515470367336 -0.0581102003830180555)
(0.0754904516896716116 -0.00208043340352856692 -0.0703439531390120665)
(0.0764211374270324095 -0.00152965673248925014 -0.0858617451037544804)
(0.0759623195564059633 -0.00169378271434488816 -0.104702026571510301)
(0.0763343949094429514 -0.00253813657278622283 -0.12745581073590842)
(0.0793996263789446821 -0.00387852097761619665 -0.154222837215698821)
(0.0863421449530790142 -0.00597259670008051195 -0.18626170111503032)
(0.0987565335611012979 -0.00806104487214106755 -0.224946899210851509)
(0.110798133015951344 -0.0122520579242409965 -0.272755184332277523)
(0.134859842022916149 -0.0221621981183624146 -0.333980396676823499)
(0.153454358468827129 -0.000847602344261571107 -0.375524421562246691)
(-0.00180945801242291524 0.00104463961906036676 -0.0285253538814945543)
(0.00671746751827031162 -0.0115315291544442651 -0.0317813910231695695)
(0.0248589520390768703 -0.0153922822843365094 -0.0351262048909865912)
(0.0410408639992799473 -0.0145256238039900183 -0.040209016714862357)
(0.0527573581145024326 -0.0108626687576239798 -0.0475258039257145382)
(0.060440655177693911 -0.00671242123564971295 -0.0573532878957320191)
(0.0647662377486055152 -0.00426570284435650975 -0.0699999799568296333)
(0.0665611562759883812 -0.00388878856572088313 -0.0857098468184829265)
(0.0674016269611771301 -0.00535468245455126939 -0.104629934205899819)
(0.0693395755899314237 -0.00856789177958689092 -0.127040867751795628)
(0.0739381121075461528 -0.0132401738710108494 -0.153307421784144193)
(0.0833821710121630671 -0.0198301206300384933 -0.184396369475030963)
(0.0958746352748785086 -0.0273062550395700779 -0.221030843488578904)
(0.116991056098005294 -0.037442105502455178 -0.267788444721981989)
(0.126468397557979173 -0.0614067719670015819 -0.314090017194305571)
(0.142769282773132583 -0.00245729023180625084 -0.391831496852375782)
(0.00211427354477823626 -0.00172617826078350339 -0.0272064045275058827)
(0.0136838948014193044 -0.0195791585313249833 -0.0312356994118662308)
(0.0297833022012718752 -0.0236233383032127923 -0.0349503140127014333)
(0.0442017088901616381 -0.020986911806576105 -0.0402320146834719769)
(0.0547095914009713691 -0.0158148549254729306 -0.0477110660054172672)
(0.0612214831188489447 -0.0107334017723574003 -0.0577518214858861595)
(0.0644516035565534384 -0.00767205107832729868 -0.0706451943493195955)
(0.0653894799181806152 -0.00737068538881509219 -0.086589435785869362)
(0.0655361071257705707 -0.00993736116346533027 -0.105694908027979942)
(0.0668578052370789599 -0.015341115882405193 -0.128215360097582498)
(0.0707283304753224817 -0.0233278875730490512 -0.154543447076587209)
(0.0795001485028562771 -0.0341927346442707572 -0.185675073404128171)
(0.090633740867999385 -0.0476238157080404248 -0.222350016012405394)
(0.11168989533962928 -0.0631496587828698636 -0.268992838062656392)
(0.120044425970136523 -0.0983878584910540255 -0.316362607415252961)
(0.128800919309607381 -0.00853302320542256507 -0.389780350552396349)
(0.00536028761562005671 -0.00680073146782863951 -0.0257208109291431619)
(0.0198939967854495185 -0.0278656780825891556 -0.0309715679081774657)
(0.0350238887201998472 -0.0315018528405359016 -0.0352097731627951036)
(0.0476479004271543188 -0.0272921136568407066 -0.040687910770616037)
(0.0565413233398831677 -0.0204407646095687429 -0.0482825991720770911)
(0.0616135305224570634 -0.0139645086135338596 -0.058512873933114759)
(0.0634670832302121624 -0.0100374688018157188 -0.0716912194473307701)
(0.0631324009524225072 -0.00984159126738691145 -0.0879523238762909693)
(0.0621285916406188188 -0.0136961803542125348 -0.107317391593642758)
(0.0624059297981157043 -0.0214833002829604748 -0.130006265359005418)
(0.0651717833556735293 -0.0328068401114491384 -0.156433323845162647)
(0.0727890858988872458 -0.0479337948710081008 -0.187610885249820281)
(0.082209844140326449 -0.0668998271235753256 -0.224286050358203259)
(0.102677957922221452 -0.0891398298536782152 -0.270592707318436376)
(0.110818214690855094 -0.133732585171766644 -0.316359077141836975)
(0.117740883897131568 -0.020167778838548478 -0.389369944293811332)
(0.00840482398750159836 -0.0145405867169708068 -0.0246136508024622051)
(0.0265476620492415827 -0.0363498690102656632 -0.0309425198014373105)
(0.0412943081946940058 -0.038515557543888225 -0.0356227744275537314)
(0.0523250203186272703 -0.0324342705115510457 -0.0412867796138463167)
(0.0596652136125389448 -0.0238511986346995886 -0.0490200313475702074)
(0.0632442618802581263 -0.0160979662300084168 -0.0594740460977295007)
(0.0634916607354457097 -0.0116022517428624999 -0.0729800045951383008)
(0.0614866512348897637 -0.0118744748173332561 -0.0895943758262272433)
(0.0588479424020776909 -0.0173240013230836452 -0.109231345217503037)
(0.0575411413533675198 -0.027676411056967283 -0.132103502702826142)
(0.0585785531776349053 -0.0422782745231973442 -0.15867137925767219)
(0.0642994456630907596 -0.0615058413790737085 -0.189959204760716288)
(0.0712498237927801509 -0.0858371142797757919 -0.226599503017019671)
(0.0910041410210568752 -0.11535774397107823 -0.272454446242498316)
(0.097812190881632205 -0.168107912089731248 -0.316271689653885468)
(0.105895751036492652 -0.0346301880565969208 -0.38955600416840086)
(0.0121655176838715191 -0.0246387630936567709 -0.0242062086651295798)
(0.0341278400333783136 -0.0440450109879505225 -0.0306279695961169454)
(0.0485023133692161629 -0.0442084685445457079 -0.0353713951325027379)
(0.0579101666355325839 -0.0365957437545455372 -0.0411316348752758035)
(0.0638219081295628154 -0.0267217798806862541 -0.0490647368508950882)
(0.0660367984616161141 -0.0178765194801793897 -0.0599151000323822)
(0.0645959203248583913 -0.012757890141415696 -0.0739747162151358079)
(0.0605806517617432649 -0.013406931830355677 -0.0911481609569047141)
(0.0557610400704316445 -0.0204302072865832421 -0.111264280268080759)
(0.0521979929802554588 -0.0333795554089885774 -0.134488646455421718)
(0.0507815543813713577 -0.0511361885394128191 -0.161336878045034215)
(0.0539883047221213358 -0.0743698702064593958 -0.192712628137000269)
(0.0579255884887436706 -0.104070078349713005 -0.229210687957552423)
(0.0765863134213154995 -0.141517327183913549 -0.274521059745863771)
(0.0805350585203674779 -0.202225220480581613 -0.316733550029998145)
(0.0931761015885502336 -0.0535361634238641498 -0.388677448530314829)
(0.0169504108012245684 -0.0341076694407630443 -0.0243765335492147142)
(0.0418188542199903618 -0.0485026384997547244 -0.0297025114534490223)
(0.0550475009711883581 -0.0463341004742611681 -0.0341212016309977648)
(0.0629897199667517615 -0.0379962198001476265 -0.0398385727686178248)
(0.0680801320159442058 -0.0278978041461818392 -0.0478887166268779987)
(0.0693141069664802018 -0.0189127593555181647 -0.0593077790908695945)
(0.0662382735116719273 -0.0137807381648189873 -0.0742775034309474808)
(0.0598393776977451594 -0.0149655377108920788 -0.0924378132786270734)
(0.0521993982133632378 -0.0233977631667729377 -0.113477457602636597)
(0.0457732080716273665 -0.0385780432887259453 -0.137418568282185405)
(0.0416007232809748745 -0.0591582867853223185 -0.164671931955302386)
(0.0424323184364903128 -0.0863868145945576316 -0.195867607094225349)
(0.0430130528584559413 -0.121415500822902048 -0.232107995744097878)
(0.0595909770012139073 -0.167222752189252782 -0.277108107154323213)
(0.0572043857926689825 -0.235912529436763579 -0.319125939280712256)
(0.0776983607063248954 -0.077155641107513051 -0.386530014390836063)
(0.0219163325691045484 -0.0488751222128601531 -0.0247914576330613597)
(0.0478292137680589521 -0.0557759651560210123 -0.0285517420859670336)
(0.0586886105430630065 -0.0489209548918689979 -0.0320578378531887614)
(0.066288470287934817 -0.0388584751852143057 -0.0376566786498793576)
(0.0720987785542984705 -0.0270473868790258136 -0.0457179174386429521)
(0.0726485218269530553 -0.0166455409791252222 -0.0577722853342710757)
(0.0680648454081781845 -0.011542586122631749 -0.0738183226670621612)
(0.0588090842326259855 -0.0143353663873892426 -0.0933682686620867369)
(0.0478034044931192267 -0.0253295066095634881 -0.115851732626811421)
(0.0384617265962595364 -0.043471514081692364 -0.140907117457345882)
(0.0321723917141597815 -0.067082621953023655 -0.168578899794016607)
(0.031222619805589033 -0.0980463158285591191 -0.199346933709621227)
(0.0272799102369600845 -0.137627468095695066 -0.235744769470725979)
(0.0390308152434258246 -0.191363827354722876 -0.28124378497959801)
(0.0264675096032026581 -0.26738412568363229 -0.325515192200610648)
(0.0542369914592131241 -0.107514113901185204 -0.384548562861972754)
(0.0226792145383291829 -0.0787703561690260984 -0.024171138029670268)
(0.046302438077734008 -0.0800687482511508036 -0.0269488298344650393)
(0.0546130304560668786 -0.0696721561465459271 -0.0275974019126485164)
(0.064464976374494401 -0.0578395611198885343 -0.0309830376591143722)
(0.0731845612525719308 -0.0408615616014506508 -0.0402241949681610977)
(0.0749983442340063783 -0.0223630169186482333 -0.0538027661263380599)
(0.0696492053192252214 -0.00921908997843439056 -0.0714199869343629667)
(0.0573103709185840138 -0.00922410096285871881 -0.0926075137712556173)
(0.0430209718145772788 -0.0224820086992632735 -0.117113352375079874)
(0.0314758931733170114 -0.0460988514229431767 -0.143723913796499875)
(0.0243729887008491582 -0.07486615165784688 -0.172241103346325475)
(0.0207912176215092927 -0.109403759157121847 -0.20340764258803895)
(0.00908661066818200469 -0.151598157517348592 -0.241653035914605047)
(0.0112321794539850181 -0.211853039814136751 -0.288905615208799316)
(-0.0120974990109058954 -0.296056029560123557 -0.337704579317325837)
(0.0270694005639576379 -0.149125584509614884 -0.383150731701702274)
(0.00507448206543459172 -0.100595985261827975 0.00269397797995136199)
(0.0119289415933958951 -0.0896338498977018866 0.0202122806816741676)
(0.00637958274123823915 -0.0849916616143408243 0.0176457054262140964)
(0.0209861121058898502 -0.0760467332450559808 0.00535455443114912256)
(0.0397730237901171638 -0.0635103570673903606 -0.0161357247095872368)
(0.0589101660096428073 -0.0466629496487109274 -0.0391199498496764067)
(0.0600466469689442325 -0.0246726715499571078 -0.0630696234007606799)
(0.0483429626377343477 -0.00918411584556503256 -0.0883636681963873155)
(0.0318217091976894864 -0.0160972897213163824 -0.115335435093419494)
(0.01859585215835724 -0.0427419907537562871 -0.145550909944964696)
(0.0110312812808984369 -0.0765091395763674714 -0.177181439794592527)
(0.00115523564025935693 -0.115114692988521838 -0.211464097989818439)
(-0.0207822041328963591 -0.159363355811321022 -0.253900482964807883)
(-0.0319515197468357853 -0.228342154834649813 -0.303243694071574366)
(-0.0582686301289597683 -0.326258004921963884 -0.355845535007403457)
(-8.9852062264418847e-06 -0.211258062421560866 -0.380148230132749898)
(-0.0968316405317695694 -0.0102717282593622235 0.565482130463508592)
(-0.19446135434268802 -0.00241626269365887922 0.430873264301757319)
(-0.315829161058692909 -0.0120628566196258509 0.315673149716697354)
(-0.339955067369857644 -0.0228028247917140547 0.18656396511423054)
(-0.316931601606808944 -0.0274541536297098279 0.0590668641373470055)
(-0.262043249874138628 -0.026107901753127747 -0.0220187337387535223)