/*--------------------------------*- C++ -*----------------------------------*\
| =========                 |                                                 |
| \\      /  F ield         | OpenFOAM: The Open Source CFD Toolbox           |
|  \\    /   O peration     | Version:  2206                                  |
|   \\  /    A nd           | Website:  www.openfoam.com                      |
|    \\/     M anipulation  |                                                 |
\*---------------------------------------------------------------------------*/
FoamFile
{
    version     2.0;
    format      ascii;
    arch        "LSB;label=32;scalar=64";
    class       volVectorField;
    location    "0.239999999999999991";
    object      U;
}
// * * * * * * * * * * * * * * * * * * * * * * * * * * * * * * * * * * * * * //

dimensions      [0 1 -1 0 0 0 0];

internalField   nonuniform List<vector> 
7340
(
(-0.183600367147877613 0.135160338641122979 0.0706007425970191782)
(-0.180213324201962011 0.141804071297828599 0.0676633686543329227)
(-0.178595438122461925 0.14783305003441205 0.0658647423328350134)
(-0.179393758248335533 0.153581565473991433 0.0648922290619599468)
(-0.183016740488556318 0.160563016552842663 0.0649848515161958323)
(-0.188787713606045238 0.170522402417747077 0.0669759097240789081)
(-0.195719278464055652 0.183594408233307638 0.0714970408661574214)
(-0.202964427839080253 0.198761726991046161 0.0782550768305831784)
(-0.211902160234201581 0.216827114633975637 0.0873208037714059138)
(-0.221880071677186541 0.240090483852464898 0.0999561985011531984)
(-0.230475352987989768 0.269433913366406375 0.11752818559919545)
(-0.236972543282268105 0.303939974011841418 0.140648242787967642)
(-0.242604391849052553 0.348437430352252386 0.172374320016308064)
(-0.241918275015482853 0.424545372578577662 0.224798582982790401)
(-0.210698019636058442 0.556808854298892597 0.308359352843520729)
(-0.0832092172107946476 0.644472538969762976 0.367444118532182173)
(-0.181260473471626549 0.140915830135686482 0.069122649038828643)
(-0.177883090984093162 0.14796841972447447 0.0660732257416838387)
(-0.17617535596990444 0.154702990703426579 0.0641335180701458896)
(-0.176570960442652275 0.16147699722507794 0.0631653677345699049)
(-0.179330101890032401 0.169402234333324991 0.0633713694247482057)
(-0.183895614753919662 0.179755299050432776 0.0653241760520935633)
(-0.189324294168674467 0.192731065342237357 0.0694924357027051354)
(-0.195240831447717145 0.207927620537438101 0.0758226394876373028)
(-0.202191621144826583 0.226069428885781853 0.0845131173859383356)
(-0.209649292369703866 0.248630442988381883 0.0963947864218935302)
(-0.215978809567028529 0.276381420762592589 0.112428849898587396)
(-0.22051829586014865 0.309306181288032223 0.13334880026153445)
(-0.223605583441795208 0.351887817319879392 0.162020334100169389)
(-0.218625983796213674 0.420170954169107325 0.207065548328048993)
(-0.182370779915042552 0.527054112403113506 0.272480530628906092)
(-0.0714432545572312311 0.586934812593307709 0.311296397654074131)
(-0.177678840422172579 0.145955995071583911 0.067920149074695596)
(-0.174351896471829443 0.153367496871297221 0.0647057283518558957)
(-0.172596459632897964 0.160665271599114534 0.0625955380563080893)
(-0.172653237714946922 0.168212751327584425 0.0615550179025632499)
(-0.174620657689458031 0.176827770184819572 0.0617474784146717914)
(-0.178067034591982865 0.187434001901538916 0.0635636174672263576)
(-0.182254028306761628 0.200335940883209246 0.0673586488819799128)
(-0.186902738500109106 0.215484866956995286 0.0732097339096577371)
(-0.192074985246193097 0.233469052739143312 0.0813445160223716518)
(-0.19726082691986252 0.255320570927948576 0.0923436860906799023)
(-0.201276842819172824 0.281728107949977324 0.10690509252434037)
(-0.203436474069759093 0.313137221653044417 0.125745493870611652)
(-0.203212622067443005 0.353326591571384907 0.151200251205775765)
(-0.193499534643672089 0.413402177070897603 0.188881764289615534)
(-0.153539993546503578 0.498359799692296934 0.239114725404477674)
(-0.0588100699098970184 0.538518055538911078 0.264571645782690545)
(-0.173694352676645042 0.150393811216368939 0.0665835880251606088)
(-0.1704012811800103 0.158108747506137737 0.0632172838106067475)
(-0.168570058828158315 0.165840760962848832 0.060953575880742572)
(-0.168292390925827595 0.173940270273135078 0.0598107289151496718)
(-0.169556996027110718 0.183035088025676806 0.0599200674195860122)
(-0.172016452172837009 0.193817192210659794 0.061553121184940239)
(-0.175108563585864824 0.206637455412343185 0.064981231230301098)
(-0.178526607061094522 0.221630803200643045 0.0703357133440113969)
(-0.182085836257474598 0.239287847065527137 0.0778344972218087683)
(-0.185256924692331904 0.260378636039782119 0.0878988212772701671)
(-0.187070325897798373 0.285510917937274733 0.101041258096650946)
(-0.186721293460798354 0.315293792047305677 0.117869241932390872)
(-0.183020142446786688 0.352627365413598126 0.140067023588732908)
(-0.169070387661135052 0.404616300216326885 0.170961683084618177)
(-0.127719292476339646 0.471560628404410653 0.209166169549623221)
(-0.047503886034739623 0.498534772947368976 0.226069986861946293)
(-0.188829733420445289 0.128892267460774979 0.0809834314845939984)
(-0.180662539724486731 0.137821393307114709 0.0748972259149304487)
(-0.174300971384674902 0.14622177680625692 0.0695124598002588856)
(-0.169566058998477653 0.15428947828163872 0.0649992060805755917)
(-0.166282541328807848 0.162251029001631103 0.0615123274006960929)
(-0.164340020284879124 0.170309642510772546 0.0591245837491857218)
(-0.163728916927824653 0.178794538860300889 0.0578748000575601204)
(-0.164367500822577367 0.188207672305091472 0.0578678851013351009)
(-0.16595767668733899 0.199091501405908977 0.0592975378094519751)
(-0.168049520697455906 0.211797641538352566 0.0623710496330913411)
(-0.170300574460422544 0.226543338956738116 0.0672290059614459867)
(-0.172400166628115414 0.243748509578396971 0.0740627976573477176)
(-0.173793743186832883 0.264007585052777272 0.0831824233417013947)
(-0.173596261053313577 0.287838556695054759 0.0949581714026860313)
(-0.170861454758888809 0.315821005227297946 0.109841156442493718)
(-0.163992246927312624 0.349956268551612992 0.128899544668546528)
(-0.146858955638407673 0.394381646241478034 0.153879927424213692)
(-0.106246067216565293 0.447063434089142953 0.182860312680495046)
(-0.0383538681459365746 0.465544213320210232 0.194388471038919819)
(-0.184041385551435399 0.131710774056263386 0.0796852892400258667)
(-0.176177393494584916 0.140810843202148622 0.0733291736121789439)
(-0.170027090536588987 0.149382668746483371 0.0677873955716502274)
(-0.165391665617296235 0.157624783436787347 0.0631793709883924776)
(-0.162097049797642584 0.165782542917426279 0.059605122045450494)
(-0.160016354892814877 0.174083278629463017 0.0571229848452009248)
(-0.159076693994272766 0.18283289829612473 0.0557732366520343401)
(-0.15915055346070528 0.192445778487027097 0.0556379263487824377)
(-0.159966499507003507 0.20336209642666972 0.0568574319172838946)
(-0.161139587707158027 0.215912887579844309 0.0595891915790541724)
(-0.16230954819856766 0.230343476328525892 0.0639611215328160093)
(-0.163098914866400491 0.247009304927617551 0.0701300434073180851)
(-0.162933783364571011 0.266374309868570525 0.0783219406582127825)
(-0.160962146872475537 0.288856040882349674 0.0887920609952951717)
(-0.156135880511916764 0.314903298435481649 0.101829405798683922)
(-0.146693981967083997 0.345731916192754729 0.118006315232624018)
(-0.127548922795125724 0.383450809575526186 0.13805449970001421)
(-0.089063505440519275 0.425139152519719676 0.160076298682584606)
(-0.0313597678058318355 0.438040281226296124 0.168188388598523392)
(-0.200236830434231572 0.113801338571275334 0.0934627869291678182)
(-0.188533813006376727 0.124481205945311119 0.0854569257092393647)
(-0.179084768757083512 0.134370815167439539 0.0780531795506538145)
(-0.171519777108752075 0.143580587248947761 0.0714705297673234596)
(-0.165579179991923675 0.152264883417421032 0.065800771182495249)
(-0.161040876978979702 0.160638536967515649 0.061120522586662486)
(-0.157727805121822301 0.168949166860228678 0.0574843251312709691)
(-0.155502938481020897 0.177428519460715139 0.0549301926329002488)
(-0.154252367651182942 0.186357392275784461 0.0534907164426458512)
(-0.153818067649728413 0.196083352757576906 0.0532268492523301634)
(-0.153944005176187504 0.20696877160288199 0.0542386329064654879)
(-0.154284853017532031 0.219313723858045512 0.0566437529487785474)
(-0.154477427728074795 0.233363835930612301 0.0605474115741448105)
(-0.154108584918434405 0.249408954240451175 0.0660714195593555126)
(-0.152593803343957529 0.267802548698952758 0.0733722607368904878)
(-0.149101839743361275 0.288847031626927653 0.0826094990551854841)
(-0.142538010520250835 0.312808189450358709 0.0939258920854476598)
(-0.131152995497639036 0.340234654105232459 0.107521534139627492)
(-0.110961896798974599 0.371844975505581821 0.123480297076654214)
(-0.075384364654481506 0.404703440627320832 0.140153439036844435)
(-0.0261298734448943623 0.414213252132092757 0.146350787526791093)
(-0.183651491649962167 0.142241286431466801 0.0528485963500100256)
(-0.180987191424915539 0.147842729893703367 0.051285429113599193)
(-0.180795955132215025 0.153775843366844495 0.0505108930888490751)
(-0.182930294135485449 0.161329683288946257 0.0511266039271818171)
(-0.186436497494496811 0.171302428293615694 0.0539318631575124857)
(-0.190659624852391102 0.183302305787313463 0.0591206115562673898)
(-0.195579473869189446 0.197389915365533075 0.0664734469671176692)
(-0.201481602478968846 0.214807583111773392 0.0765566834300404342)
(-0.207116642263821038 0.236693881262871719 0.0906423046015950723)
(-0.210716318929556778 0.262750296119051208 0.109675602433622385)
(-0.212135454171144794 0.292105070521698151 0.133871511796659126)
(-0.212141527398836266 0.328712792968318956 0.165629310824921133)
(-0.205148892770761704 0.386073639094180798 0.213840786304002106)
(-0.167803623362738491 0.476887087598987347 0.284605827519045285)
(-0.065881063659733563 0.522677851537081128 0.328837293611248749)
(-0.184700490498631076 0.140836417629379429 0.0550155878429102185)
(-0.180333763476262399 0.147452316569356506 0.0526547591248832658)
(-0.177662186107213405 0.153875740275601247 0.0511334998601167406)
(-0.176989148649883105 0.160688267291248243 0.0505409380599863081)
(-0.178222642625901928 0.168809637117815853 0.0512914485404085893)
(-0.180733134590416539 0.178925042518698979 0.0539464375411393138)
(-0.183871325924946843 0.190993990143620423 0.0587497311791372323)
(-0.18752374900459165 0.205151629534640917 0.0656889527791247041)
(-0.191623664695007551 0.222223871899148828 0.0751996259834182834)
(-0.195291422507240742 0.243040990759553405 0.0881337870609717744)
(-0.197228925924032739 0.267652673990746826 0.10521474167899493)
(-0.196960164887077016 0.29589909289510774 0.126876272608858087)
(-0.194354438088148507 0.330979135403223934 0.155205024670730274)
(-0.183202293197836319 0.382475809084890039 0.196159389099352766)
(-0.143147238819291756 0.456304541265188268 0.251123989046610707)
(-0.0547995556663525146 0.487178933859347352 0.279722674868624621)
(-0.180947860749681472 0.144998319106611234 0.054862664753416189)
(-0.176661803586988853 0.152074125173269209 0.0524061950713832908)
(-0.173917865911668801 0.159112794309778371 0.0508509200856232663)
(-0.172841725494851217 0.166581602529947748 0.0503008462255735977)
(-0.173329466353557837 0.175161178775100901 0.0510540909662418468)
(-0.174919279651109899 0.185413974985505825 0.0535078614336123304)
(-0.177065838001283893 0.197488397533087529 0.0579039251172483171)
(-0.179541842029358967 0.21158122327388304 0.0643350406584335122)
(-0.182086760442856432 0.22827355159254728 0.0731409549703012501)
(-0.183975574506225897 0.248196123309193634 0.0849150685696852953)
(-0.184163434264497772 0.271561962922591493 0.100207635971636705)
(-0.181966897415121898 0.298561098938358582 0.119483381176243839)
(-0.176509891792899776 0.331621487805386639 0.144318096114054134)
(-0.161619371777996734 0.37707977159400119 0.178338293829221312)
(-0.120650240294605804 0.436473323757561704 0.220524160049405282)
(-0.0446641267851842078 0.457255120445256125 0.239218560916407974)
(-0.177078064121936857 0.148703061237756451 0.0544913048409528047)
(-0.172816257057508388 0.156152722648884412 0.0519355915439107668)
(-0.169959197024851905 0.163658943661377926 0.0503124913711590627)
(-0.168523407011069437 0.171613260663582262 0.0497276663124591248)
(-0.168375888730342066 0.180540991506412146 0.0504030270879485404)
(-0.169143781722374181 0.190905857874747981 0.052626195991907071)
(-0.17037001354818132 0.202937046860323461 0.0566119182773017551)
(-0.171748753571852042 0.216862874427191266 0.0624931842748802577)
(-0.172921970977380934 0.233126859330380354 0.0705391558011308345)
(-0.173228175910340038 0.252221601960606057 0.0811734647490960498)
(-0.171742856306973918 0.274411467802320286 0.0948052214867959042)
(-0.167615441978490626 0.299995911179435137 0.111822003956824345)
(-0.159500113777519104 0.33066336810721042 0.133261689986789694)
(-0.141790484191918142 0.370253374473969443 0.161085918519527305)
(-0.101592646781865928 0.417837694529146708 0.193328628094361632)
(-0.0363807582567372903 0.432115319219296912 0.205872386856746498)
(-0.194461195096816225 0.127613126388733344 0.0663681359700058343)
(-0.185764211532387563 0.136052873469888091 0.0615859076329303146)
(-0.178696449253865797 0.144130551720007105 0.0573614816292161711)
(-0.173095449384123662 0.151980558034629343 0.0538507665138561534)
(-0.168832406569116689 0.159733242370348666 0.0512026014712819444)
(-0.165844093596562048 0.167596449403874054 0.049498876189263484)
(-0.164077134287743454 0.175904126888412615 0.04883833902504333)
(-0.163373154399443887 0.185078922157072279 0.0493893292083443652)
(-0.163409630280744567 0.195511614174972675 0.0513639956627182648)
(-0.163786336533571886 0.207455187194310497 0.0549434131112552654)
(-0.164156172704221143 0.221143896921480176 0.0602667761652634915)
(-0.164112698160866044 0.236930809988097568 0.0675432069600050144)
(-0.163023623325690675 0.255204824561444665 0.0770776376459969687)
(-0.160022068121823319 0.27621921824427198 0.0891605890706701903)
(-0.15414064234386976 0.300240469674220967 0.104058205352520444)
(-0.1438203220688202 0.328301121296018794 0.122343380879879726)
(-0.124316864958591636 0.36244391035336726 0.144877111081526899)
(-0.0860893381637540256 0.400596430452206886 0.169534778249731316)
(-0.0300082465640395743 0.410771790778263257 0.178280812077794365)
(-0.189987881604190278 0.129778647098754751 0.0658807220628391671)
(-0.181490152328513316 0.138447884627374673 0.0609046354959446312)
(-0.174564022514869743 0.146743642786150236 0.0565513455946027588)
(-0.169033292292687126 0.154810799717927355 0.052953727190226868)
(-0.164754830738229718 0.162805870013239262 0.0502238205746911165)
(-0.161627106329035986 0.17093963990475966 0.0484381210292827574)
(-0.159551908671318576 0.179501621781288534 0.0476823947113064611)
(-0.15835207893595496 0.188842663957480089 0.0480852238302207843)
(-0.15773470014508098 0.19929631100913292 0.0498043727123398117)
(-0.157335024626243714 0.211111731581234974 0.0529868013711043417)
(-0.156790146724657381 0.224512891934765535 0.0577643527262894571)
(-0.155671267079961761 0.239785402101737655 0.0642875691556231005)
(-0.153364560289064644 0.257229909185992645 0.0727769923730355733)
(-0.149041183552970247 0.277053100749632519 0.0834225333748884607)
(-0.141683013475427694 0.299424024163667923 0.0963661476137658846)
(-0.12971153555232473 0.324848654498210876 0.111829107448441864)
(-0.109319144556005415 0.354163544791498863 0.129994056804816072)
(-0.0737112760510561793 0.384933850497683638 0.148926010845871981)
(-0.0252304622582657789 0.392401366522694084 0.155264631717894647)
(-0.207216703128134561 0.112570686461604008 0.07674693677028957)
(-0.195288235458583148 0.122472955636910935 0.070768640339705563)
(-0.185288438027873453 0.131810757412855389 0.0650875882697403152)
(-0.176998719064899057 0.140663123197598189 0.0599378439459238646)
(-0.170222413182914478 0.149133090101461058 0.0554719695166135604)
(-0.164763408261407396 0.157374707978515077 0.0517963558147240891)
(-0.160465696812632452 0.165566026855217818 0.0489933581032183929)
(-0.157204168017047868 0.173907384822761052 0.0471274214120415286)
(-0.154848440058775044 0.18265283253656811 0.0462686928761898431)
(-0.15320816460805492 0.192097112476208587 0.0465140065152438373)
(-0.152009668308679152 0.202524559382456837 0.0479800205301087607)
(-0.150913702150150014 0.214166788059263952 0.0507819510484227715)
(-0.14955526606394659 0.227227998895814715 0.0550297003248882005)
(-0.147498879343309852 0.241937691964076718 0.0608357560229440125)
(-0.14414871283458866 0.258512088781415017 0.0683450391521369799)
(-0.138712231262178104 0.277088987038977441 0.0776652235863681262)
(-0.130177032824591976 0.2977105652627417 0.0888289156284824966)
(-0.117063245276403577 0.320460279483781862 0.101806045189546987)
(-0.0964526698361231616 0.345366687089998292 0.116367090270218271)
(-0.0637501099064402277 0.370125018098016789 0.13089297815713849)
(-0.0216323694615570966 0.375930315642547919 0.135893982171830963)
(-0.185528544564474845 0.143717610283661479 0.0383356804039404475)
(-0.182115384111875833 0.149643953303934651 0.0371351248483042379)
(-0.180715234519317092 0.156217984658957226 0.0369220147090402809)
(-0.180971252961163426 0.164123456392897327 0.0383347498282511148)
(-0.182242473564124596 0.173727564133255297 0.0418717559321749172)
(-0.184166250224738315 0.185077104785224184 0.0475794755305302131)
(-0.18654116319481151 0.198517175256885309 0.0556272432595919381)
(-0.188869990728155579 0.214708763559824406 0.066754842380605306)
(-0.190023028470555244 0.233823971917747758 0.0818074104996163454)
(-0.188998987930390799 0.255354303157966422 0.101166353630619654)
(-0.185634630006450418 0.27914715749719532 0.124872578949586727)
(-0.179509547066242447 0.307715938780156462 0.154708465255953304)
(-0.165344272419034849 0.347846862593038264 0.195912272271641957)
(-0.126265408216077873 0.404778504327149902 0.250553109034575117)
(-0.0481503028105557465 0.425124384381420029 0.279805542322722478)
(-0.187139182275418953 0.141892736244255663 0.0413472954065718587)
(-0.182001949564879473 0.148412039812308993 0.0395222916087480253)
(-0.178464406461747355 0.154956379888020163 0.038461518550131954)
(-0.176603453868257126 0.162050818127221774 0.0384203887648088965)
(-0.176173467439893844 0.170250487481086288 0.0398396899142655081)
(-0.176685134936327509 0.179933548688299194 0.0431112651759651272)
(-0.17769334195141534 0.191232400917790368 0.0483861395151060705)
(-0.178933553688573332 0.204433203434198546 0.0558493045831577467)
(-0.179947600321603007 0.219995383270918193 0.0660092624939910277)
(-0.179848044264520945 0.238160513428708337 0.079473719281294708)
(-0.177694143147497124 0.258760097249732091 0.0966004494147992832)
(-0.17295908025695228 0.281831220876247679 0.117599336652557784)
(-0.164807199960885858 0.309218754313074939 0.143795439229572192)
(-0.148049345627387197 0.34562164742931778 0.178441060722627415)
(-0.108523683697997197 0.39300811806039665 0.220978680086280188)
(-0.0399348949872709372 0.407221218194719681 0.240158822012418255)
(-0.183469656655591645 0.145489089812481709 0.0422140455711701446)
(-0.178371178021521526 0.152437377130329343 0.0403744708211983619)
(-0.174700720544725796 0.159468251564250152 0.0393510651771957487)
(-0.17245224811664206 0.166992240945069398 0.039348482779010166)
(-0.171422023579759081 0.175460773859397845 0.0406841760687510073)
(-0.171213826789147761 0.18522647859401889 0.0436661019568019837)
(-0.171396768078816819 0.196473341133647117 0.0484748930807814976)
(-0.171641024344441451 0.209452706803476885 0.055295853728721478)
(-0.171480935582456251 0.224508257919845411 0.0644937461206392115)
(-0.170165010163327829 0.241890683264404827 0.0765098425155737727)
(-0.16681810567217864 0.261603754351373563 0.0916465242213444498)
(-0.160694620574957647 0.283770452101090198 0.110132526028608915)
(-0.150600915036981309 0.309650025209979307 0.132831918922006048)
(-0.131778588268191638 0.342193360064137309 0.161520273426525779)
(-0.0930645854951440699 0.381298294578473418 0.194454586658171058)
(-0.0331100159817701786 0.391417651520839738 0.207360387447408173)
(-0.17971062808581767 0.148597391810858431 0.0427451905526231579)
(-0.174614438548558237 0.155904128387678226 0.0408608348983937122)
(-0.170807251522217068 0.163324941334629159 0.039812578796830693)
(-0.168226459914457643 0.171196177481423545 0.0397672270879614043)
(-0.166675848262068216 0.179891397385507662 0.0409629364558217191)
(-0.165811905351899658 0.189726413094325419 0.0436417825821577496)
(-0.165235613362211792 0.200908134092615126 0.0479790633310159392)
(-0.164582573923859388 0.213665662783984134 0.0541468872067884383)
(-0.163381115667885157 0.228270326590328698 0.062413416808965505)
(-0.16095016328919845 0.244952868865324497 0.0731003703225139162)
(-0.15646000723969633 0.263783332278356153 0.0864411930174355941)
(-0.149035682144386061 0.28488031502106681 0.102605844819768185)
(-0.137297146357754418 0.309002084079208872 0.122059042478927141)
(-0.117151778093559755 0.337766037249861983 0.145570122289643333)
(-0.0802049175115182728 0.369946446417717345 0.171054818493743932)
(-0.0277878656778341449 0.377409980090810726 0.180038621031681334)
(-0.198941894249154427 0.127639478310676624 0.0526262859325772672)
(-0.189821362068917504 0.135758363827523876 0.048893285928548906)
(-0.182159544852709937 0.14361077737364511 0.04561422085977615)
(-0.175824034514038025 0.151291913781658183 0.0429398178249532497)
(-0.17071704702171589 0.158898557755390468 0.0409934014883977516)
(-0.166777314798619902 0.16663263016214927 0.0398841899063918648)
(-0.163903293757942381 0.174778524988049827 0.0397497388273965677)
(-0.161896193686098283 0.18365222879173182 0.0407731152695487709)
(-0.160443925842918222 0.193533265914209801 0.0431443154112253827)
(-0.159173345424576562 0.204628894111125531 0.0470191167181409353)
(-0.157710564819427301 0.217156823466924248 0.052548336409479382)
(-0.155586809090325573 0.231322381953387446 0.0599314937111460749)
(-0.152161325023997041 0.247330613505126168 0.0693977928411188549)
(-0.146639950117558759 0.265256455806579805 0.0811098251590340741)
(-0.138089326934973722 0.285159901927073467 0.0951525811699588941)
(-0.125100849345523735 0.307388545841488114 0.111681807399132096)
(-0.104333542555418671 0.332609711877022707 0.130829482857055784)
(-0.0697098104498555388 0.359119929373612146 0.150599002441640845)
(-0.023731995794254987 0.364859550965522916 0.157116418545634351)
(-0.194651995817543416 0.129225536187882267 0.0527975117708543995)
(-0.185675910788220655 0.137591950358747744 0.0489396796208935447)
(-0.178120510626071066 0.145678687121544859 0.0455702622531048221)
(-0.171840820778116299 0.153591874011688168 0.0428245046683756181)
(-0.166717941434990302 0.161445087049711444 0.0408085557410167651)
(-0.162650934969322258 0.169429257838335401 0.0396202426071217001)
(-0.159512777571254621 0.177789020635020112 0.0393730627918398926)
(-0.157100283582779776 0.186795767658640616 0.0402089927646281306)
(-0.15512221144971125 0.196697143708842948 0.0422766229000717184)
(-0.153220681987228435 0.207689222834506415 0.0457072791939020923)
(-0.15103236305098805 0.219960976011004228 0.0506264707405726933)
(-0.148097955562663391 0.233689839084222917 0.0571826089837886783)
(-0.143800583941843696 0.249027510694932092 0.0655315678836674714)
(-0.137388647017446575 0.26602733707721149 0.075769775737955819)
(-0.127929278850053618 0.284670333490153527 0.087899624997084258)
(-0.114094555164971356 0.304991986289630257 0.1018609580146798)
(-0.0932636531057980667 0.327031319558042266 0.117414855475094837)
(-0.061176551993047168 0.348985428700417322 0.132826975246254336)
(-0.0206319964115504705 0.353513505154022412 0.137732342023459964)
(-0.212479377381211726 0.112380707408201247 0.0614776937301297829)
(-0.200460990291881691 0.121728833514295268 0.0569920604042722725)
(-0.190114537046310206 0.130671568079085532 0.0526563314958052309)
(-0.181295814094112911 0.139254524310626931 0.0486801049920134177)
(-0.173858839342307697 0.147545009955542816 0.0452252445606069753)
(-0.167640253532169298 0.155652862906043937 0.0424089012049195316)
(-0.162502644381868122 0.163713945963554069 0.040320225941707713)
(-0.158321151866390286 0.171901040734803029 0.039044217176294721)
(-0.154948576731661625 0.180427363383418443 0.0386734526857059474)
(-0.152177633665397605 0.189526376389689666 0.0393173806034611481)
(-0.149732894457939608 0.199416210996994164 0.0410908992476020501)
(-0.14727662122650792 0.210275117786192761 0.0441001182290567881)
(-0.14444886681239677 0.222251189658080633 0.0484446288339221154)
(-0.1408079934804152 0.235525266210224155 0.0542333532966033996)
(-0.135770323868451503 0.250161405517641378 0.06156245512806581)
(-0.128623411913451335 0.266186877928998145 0.0704700697619351502)
(-0.118478360051194109 0.283493724164144367 0.0808881652747632102)
(-0.104146639229819468 0.301877999248777229 0.0926131603273792903)
(-0.0836455794384320106 0.320969408156460745 0.105198753208846765)
(-0.0541221710448297269 0.339110446528979481 0.117222754876602775)
(-0.0182038977394801266 0.34281821920972011 0.121214799157327524)
(-0.192559563336274192 0.14180388794133944 0.0255747781444187056)
(-0.186704164074231377 0.148085862229146159 0.0243375322027765961)
(-0.182401462790927338 0.15449556681821941 0.0239022706119013315)
(-0.179602473349293273 0.161527937869594407 0.0246128492399280176)
(-0.177960465050607919 0.169486748836345041 0.0268977274566974678)
(-0.177101914876988314 0.178526100607764304 0.0310978008577998677)
(-0.17671692327953728 0.188854028935529189 0.0373991781949820981)
(-0.1763507580569873 0.200805240131105983 0.0461253579206164013)
(-0.17528610247136267 0.214526971642231834 0.0577666702963262335)
(-0.172693326861089846 0.229937088114083088 0.0726840407915852887)
(-0.167833431799313204 0.246693888418970469 0.0909222237387360827)
(-0.160228123835756131 0.264749757986712519 0.112519051211661641)
(-0.148883861966993547 0.285225562698594559 0.138436866940931269)
(-0.129817787052132566 0.310911791404656912 0.171071677484453594)
(-0.0928164164537019359 0.343899913977119553 0.210503301517981911)
(-0.0338819231974156268 0.351951641296342155 0.226758983048219592)
(-0.18898681873202583 0.14515920170589755 0.0282022939965301117)
(-0.183140353233077646 0.151784057688912261 0.0270110582065934968)
(-0.178683048568481967 0.15852433244968292 0.0266249147969702914)
(-0.175546192620158775 0.165760722355776435 0.0273118033283481117)
(-0.173454164116580961 0.173796673656844425 0.0294018397118013704)
(-0.172051973558341398 0.182838459462223629 0.0331810043613809877)
(-0.170974362521499251 0.19307163490130852 0.0388392555398854727)
(-0.169795213509959408 0.204752278579105024 0.0466328700760101217)
(-0.167918171954988316 0.218023988357202159 0.0569113536418126564)
(-0.16459123787010918 0.232913863969106627 0.0699779595708253099)
(-0.159044761341923468 0.249259876586790941 0.0859343705162328025)
(-0.15060589919403472 0.267060820159604861 0.104855709286464913)
(-0.138143640601869649 0.287069118491979414 0.127337764592563296)
(-0.117982800380047242 0.311132657068715068 0.154697394900302987)
(-0.0817634261697146314 0.33977263033754429 0.185825997128634846)
(-0.0289129252627860142 0.346075316877286154 0.196869121115210211)
(-0.185379076561864253 0.147903285815289331 0.0301793299893163523)
(-0.179535383482238797 0.154844015459683737 0.0289766567503284937)
(-0.174944286499369633 0.161897033817326674 0.0285678650609605747)
(-0.171515108263928795 0.169368989906266587 0.0291662582299502711)
(-0.169009676520632812 0.177539520477059343 0.0310289964058315174)
(-0.167094406139808804 0.186628391904398033 0.0343928674205149151)
(-0.165390540893196158 0.196816499636306985 0.039437009909644466)
(-0.163483409114827366 0.20830551666729083 0.0463728874800695134)
(-0.160835194539956344 0.221238304745874609 0.0554519418679497306)
(-0.156757917460716489 0.23568796162314995 0.0669195526033379423)
(-0.150489533813294996 0.251588433934857081 0.080880525398832892)
(-0.141238453289275701 0.268938834542018612 0.0973888783096647642)
(-0.127783636083174584 0.288166635900851842 0.11672914398078052)
(-0.106913003209425039 0.310300586086216579 0.139439538387195805)
(-0.0721725047763278615 0.334886634257856419 0.163941108172463074)
(-0.0249278268543210169 0.339922770272607977 0.171720907983741039)
(-0.181674024220364494 0.150189361835521645 0.0315997934183142384)
(-0.175826306117076614 0.157419535061449123 0.0303513216383709955)
(-0.171117563822175051 0.16475819662679439 0.0298762282384602493)
(-0.16743383340469048 0.172462750220991917 0.030347583633809825)
(-0.164552179337918353 0.180785006375829227 0.03196898992566162)
(-0.162159038159411295 0.18993810773975775 0.0349350385257374552)
(-0.15988315689506194 0.200096539070750118 0.0394051565430932824)
(-0.157320384134667257 0.211430794127416777 0.0455508339980608135)
(-0.153965649942149563 0.224078869587168189 0.053564651856340427)
(-0.149177390847844593 0.23811761531780351 0.0636287898412870173)
(-0.142215998587717579 0.253519153284048948 0.0758263807290735364)
(-0.132237936971525055 0.270249896247291455 0.0901623778322006991)
(-0.118018282110067874 0.288464252056350012 0.106680653836757441)
(-0.0968809386152948149 0.308559471356293691 0.125406513157331895)
(-0.064058252324336179 0.329563533643077167 0.144705305862688427)
(-0.02179548107439927 0.33369232208919386 0.15041411609620689)
(-0.202456948468955455 0.128925645918648274 0.0398114749174763305)
(-0.192982750142244558 0.136861247689574528 0.0369562373896432234)
(-0.184812531663639645 0.144571010138850847 0.0344881772069124126)
(-0.177843740739222905 0.152129616905074483 0.0325436740755203208)
(-0.171992029576830935 0.159619960768367375 0.0312284191712003042)
(-0.167178586771289273 0.167212777623058889 0.0306622373249785217)