/*--------------------------------*- C++ -*----------------------------------*\
| =========                 |                                                 |
| \\      /  F ield         | OpenFOAM: The Open Source CFD Toolbox           |
|  \\    /   O peration     | Version:  2206                                  |
|   \\  /    A nd           | Website:  www.openfoam.com                      |
|    \\/     M anipulation  |                                                 |
\*---------------------------------------------------------------------------*/
FoamFile
{
    version     2.0;
    format      ascii;
    arch        "LSB;label=32;scalar=64";
    class       surfaceVectorField;
    location    "0.239999999999999991";
    object      Uf;
}
// * * * * * * * * * * * * * * * * * * * * * * * * * * * * * * * * * * * * * //

dimensions      [0 1 -1 0 0 0 0];

internalField   nonuniform List<vector> 
20856
(
(-0.181655070689987125 0.138482204969475747 0.0691320556256760643)
(-0.182430420309752095 0.138038757149994085 0.0698616958179239106)
(-0.178828192277156739 0.133987332685221699 0.0800854327684752398)
(-0.179162181725239678 0.144818560666120311 0.0667640554935839681)
(-0.179048207593027586 0.144911427354917882 0.0668682971980083807)
(-0.181932407925962075 0.1420226788646477 0.0604026765362591991)
(-0.176351053773749877 0.141182092961075534 0.0764373232627652971)
(-0.178730952851171243 0.150707307754201714 0.0653784856973974871)
(-0.177385397046183196 0.151326932112386681 0.0649991302014904515)
(-0.179791314773688732 0.147837889964057723 0.0586839735480524927)
(-0.175626006320503403 0.147890803464897053 0.0742069046151969669)
(-0.180888745173950899 0.157072291013417048 0.0649385402890778896)
(-0.177982359345493918 0.15763938968927782 0.0640287983982649328)
(-0.180094856690275279 0.153678704420417978 0.0577522820890770117)
(-0.177265916414262897 0.154156939028931655 0.0729672211468442994)
(-0.185642467333093697 0.165542709485294814 0.0659803806201373633)
(-0.181173421189294359 0.165149462335275388 0.064178110470472019)
(-0.182973517312020884 0.16094634992089446 0.0580116661623932828)
(-0.181745484929617424 0.161362030568556525 0.0727699473342644093)
(-0.192126528486106646 0.177058405325527302 0.0692364752951181439)
(-0.186341664179982464 0.1753538719026769 0.0661500428880862357)
(-0.187612105550271024 0.170912415355681385 0.0603239296121198393)
(-0.188456579588369977 0.171429924854132443 0.0742223078930741714)
(-0.199299425926478452 0.1911780676121769 0.0748760588483702999)
(-0.192521786316365073 0.188415496638071722 0.0704947382844312853)
(-0.193189451658223377 0.183448357010310564 0.0651409170550208833)
(-0.196549643582111494 0.184938363384593268 0.0780533691852024203)
(-0.207499887915097908 0.207794420812510816 0.0827879403009945114)
(-0.199102629643398699 0.203631846992582022 0.0770388581591102406)
(-0.199271950854134849 0.198075821178289618 0.0721487411291277664)
(-0.205191626205086741 0.200778566770664829 0.0841975054422106906)
(-0.217140846290662937 0.228458799243220267 0.0936385011362795561)
(-0.207046890689514096 0.221758138656345777 0.0859169605786721247)
(-0.206691881356585228 0.215817348872874515 0.0816542911068889876)
(-0.215658434489628542 0.219309150247518181 0.0926852064026853495)
(-0.226726243264182836 0.254762198609435386 0.108742192050174172)
(-0.215764682023445231 0.244672442865213308 0.0981754924615233782)
(-0.21449835697050379 0.238392182557668308 0.0949592241168090573)
(-0.22767654820194233 0.243145711828120004 0.104572985859905626)
(-0.234412975634703175 0.286686943689124063 0.129088214193581657)
(-0.223227081277509148 0.273197418684257898 0.114978517748891423)
(-0.220595835958773301 0.266092104742728819 0.113274286386473536)
(-0.238531013294015021 0.273772718972677631 0.121136538445475089)
(-0.240444603008524216 0.326188702182046875 0.156511281402137853)
(-0.228745419571208392 0.306878672087189497 0.13699852152475106)
(-0.22455399872670645 0.298022522266769785 0.137046019488335891)
(-0.247421651757405936 0.310432263958156929 0.143147434726510286)
(-0.244132065505249435 0.386491401465415052 0.198586451499549232)
(-0.233104987645423867 0.350381633397925274 0.167197327058238726)
(-0.22737295962394441 0.338575111660285644 0.168981057406077578)
(-0.255381457987761906 0.358681844113485915 0.174050268000350089)
(-0.230474869683122946 0.490677113438736268 0.266578967913156328)
(-0.230272129405848264 0.422669593541281752 0.215932065655419697)
(-0.223533583893122334 0.405309505836379258 0.219550651944741188)
(-0.25609549106223628 0.444214263547567656 0.226828933945266847)
(-0.15391492468302731 0.600640696634327509 0.337901735687851146)
(-0.196534399775550511 0.54245881546084207 0.290419941736213438)
(-0.189250821499398481 0.516847970948939972 0.29701365263135876)
(-0.228535814293213513 0.598385613617618439 0.313504595382351536)
(-0.0773262358840129255 0.615735003254757829 0.339370258093128041)
(-0.07454514043526414 0.583575195253422274 0.348974834535253631)
(-0.0893987026338277924 0.713857036467794082 0.378809592133556583)
(-0.179347055799583183 0.144442124930080462 0.0675979373902562408)
(-0.179469656946899564 0.143451095834865372 0.0685213990567621195)
(-0.182980481985128812 0.140876123882532955 0.0621503267037510909)
(-0.178475978556110471 0.141145115430282103 0.0772121326020629301)
(-0.176809551391124808 0.151335705213950567 0.0651033719059148502)
(-0.176117493727961316 0.150704155508922993 0.0653894770467698672)
(-0.17910842723017778 0.147710368146915488 0.0594135019242407192)
(-0.175779351731031985 0.148565159485796516 0.0735362716609857525)
(-0.176145468395653371 0.158089993964252384 0.0636494429023578834)
(-0.174385907801401202 0.157749054056356613 0.0633645280632269825)
(-0.176918771038558936 0.154289365489513913 0.0576481804335170142)
(-0.174727731771093825 0.15574742771680905 0.0711580757601299185)
(-0.177711420998475422 0.165439615779201382 0.0632683685796590484)
(-0.174612099078799599 0.164947922438839018 0.0623601928185665774)
(-0.17678005454626769 0.161082632258163105 0.056818702798807609)
(-0.175791171343461783 0.162857569628801047 0.0698739108961415889)
(-0.18142217556902368 0.17457876669187869 0.0643477727384208498)
(-0.176975379789745202 0.173264043059039113 0.0625594239197099916)
(-0.178776372257967164 0.169105935725570422 0.0572319301857614343)
(-0.179272712336319251 0.170945608127324983 0.0697550389853982961)
(-0.186518104197015838 0.186243182196334955 0.0674083058773993077)
(-0.180981324672951277 0.183779185791848043 0.0644438967596599604)
(-0.1823143746721681 0.179340170784565878 0.0594786800707031438)
(-0.184730235577353519 0.18142872230930665 0.0712378893203071406)
(-0.192278693874266438 0.200329342939837673 0.0726575375951711844)
(-0.185789161237718076 0.196745259538123857 0.068425542292342531)
(-0.186597810046810642 0.19186252774292889 0.0639378506147913889)
(-0.191257579103826486 0.194797273156608469 0.0748416891580200166)
(-0.198825577819118166 0.216998524711609825 0.0801678784367877428)
(-0.191071784973913111 0.211948003947124181 0.074516186698647513)
(-0.191382290226154411 0.206539625036039509 0.0705484473070201734)
(-0.198370126891594278 0.210576228998464343 0.0806396588136694681)
(-0.206197026038372699 0.237349935937081563 0.0904539519039157802)
(-0.19713330319550984 0.230032602470032183 0.0829288167041550006)
(-0.196907642919917053 0.224146650392465341 0.0796201023766300309)
(-0.20668065695813026 0.229272977738181866 0.0888040225606889361)
(-0.213325920454126544 0.262505931875487375 0.104411818160240533)
(-0.20345505964478322 0.252248867458413129 0.0943692362562867232)
(-0.202470357438472304 0.245835716873967658 0.0920167813739241752)
(-0.215918707135309945 0.252550306799661617 0.100047239683504888)
(-0.218908308714982652 0.292843801025312378 0.122888825080060923)
(-0.208627826193100746 0.279318668469687614 0.109666971211463904)
(-0.206603867745530634 0.272017047376669707 0.108613299672842528)
(-0.224280492222069 0.281541824435578791 0.115279371413090942)
(-0.222776219109505902 0.330596999303956196 0.147684567180852183)
(-0.211977384964953858 0.311472954874172481 0.129547147066073037)
(-0.208739230373612861 0.302602637091569981 0.130013840985711643)
(-0.231083592736974375 0.316403246102634705 0.135339500561122511)
(-0.223012764231281774 0.386029385744494247 0.184542941214109801)
(-0.213409102754619051 0.352866727113239242 0.156610292652972549)
(-0.208980010764971885 0.341433476361551691 0.158687787503111716)
(-0.236638360396001973 0.362418336509587158 0.163425315765594298)
(-0.204815688532933915 0.473612533286111859 0.239773039478478417)
(-0.206062759219942854 0.41712154787259903 0.197973656308832235)
(-0.200914138497024997 0.401323381626998654 0.201911146615711246)
(-0.233735758836553925 0.439127663124093071 0.209015067523532161)
(-0.130977449317888045 0.556994462498210607 0.291888464141490112)
(-0.167955386730773093 0.513095126809884561 0.255797628016691925)
(-0.162759009367167196 0.491679326834150943 0.262332521728170398)
(-0.200325658698440323 0.564027485689954533 0.277445741103773569)
(-0.0651266622335640727 0.562677675908443642 0.287934021718382116)
(-0.0631214051117918867 0.537056873226327558 0.296199611912102589)
(-0.078859597270034193 0.644665494627908342 0.321064223121739323)
(-0.175814748878514282 0.149661745971440496 0.0663129387132757736)
(-0.175686596549408797 0.148194185143646934 0.0672518685499280955)
(-0.179313350585927012 0.145477157089097586 0.0613978061064292188)
(-0.175453539748926912 0.147069920624179312 0.075027906524657309)
(-0.173278319626015559 0.157016384235205919 0.0636506332040819856)
(-0.172376588825919858 0.155775739121167101 0.0639615060812313146)
(-0.175506850029409162 0.152720811022283215 0.0585360635327474982)
(-0.172717470250868477 0.154727582057333946 0.0712182831089572393)
(-0.172431363457186543 0.164439011463349521 0.0620752779794356627)
(-0.170583259230528139 0.163314056499889532 0.0617745569685253307)
(-0.173257162772283396 0.159889032954446453 0.0566746024723644645)
(-0.171560384436974661 0.162324379314295497 0.0686552311188605713)
(-0.173453565566431267 0.172520260756202082 0.0616512481586175207)
(-0.170472814320387245 0.171165627877395532 0.0606828734088564609)
(-0.172747481604899056 0.1673971769287661 0.0558432484301744775)
(-0.172230738552468871 0.170111466252064886 0.0672615461838392131)
(-0.176209784367804378 0.18213088604317923 0.0626555479409490745)
(-0.172088826858284361 0.180055399542145805 0.0608337729171288949)
(-0.17397506202150792 0.175994474479960222 0.0562740664445371686)
(-0.174889182073284771 0.178875440327088381 0.0671058204362230265)
(-0.180104802186316387 0.193884971392373956 0.0654611331746031005)
(-0.175041743382409909 0.19078325814881128 0.0625583693260832879)
(-0.176493157121546396 0.18642398844352237 0.0583756708175205002)
(-0.179195689072450814 0.189648280013729686 0.0684937615265487909)
(-0.184606483509309804 0.207910403920102071 0.0702841913958187486)
(-0.178681295946313212 0.203668777257866335 0.0661699400561405054)
(-0.179659933154022761 0.198912169208148387 0.0624560240106744394)
(-0.184395405561027015 0.202909348588487581 0.0718065752029480864)
(-0.18963145160930564 0.22447695984806923 0.0772771249660146597)
(-0.182714672780601828 0.218759933482250229 0.071772723626834567)
(-0.183222290264734022 0.213533045115439163 0.0685876998828790357)
(-0.190133841629804956 0.218577365113666766 0.0771924978277241519)
(-0.194961884724613982 0.24439481183354575 0.0868441010565256799)
(-0.187080410751833848 0.236597583229005565 0.0795895066220902031)
(-0.187080872844524737 0.230871302165845282 0.0770541554785199034)
(-0.1965624739925243 0.237163746783318502 0.0848601981670675104)
(-0.199760783313257029 0.268524339438962922 0.0996243893075101361)
(-0.191258875806097212 0.258077315068256652 0.0901212536839750278)
(-0.190618200713044195 0.251758347118571091 0.088454724720000516)
(-0.203322830240031116 0.259817581625029381 0.095319349881016549)
(-0.203008050600793633 0.297432664801511149 0.116325293197476171)
(-0.194173584358485612 0.283842546961007525 0.103973175310495658)
(-0.192720138541835284 0.276645035436284381 0.103432772017882868)
(-0.209173497923607593 0.287453254395053759 0.109239461270376426)
(-0.204105900425942677 0.33323190661221469 0.138472872538193709)
(-0.19507888376527871 0.314433175045306379 0.121807367901501262)
(-0.192701685742440482 0.305849160295701472 0.122591416039106449)
(-0.213451627439985053 0.32070057580144351 0.127419410874047817)
(-0.200175600863610026 0.383364384321141782 0.170041007747695982)
(-0.193116382257114805 0.353209914983882267 0.145633637397254323)
(-0.189861256930171418 0.342474039688385801 0.147881241132113428)
(-0.215700582089143222 0.364137429923013622 0.152502389685315209)
(-0.177572825042185273 0.455880988381597296 0.213998244847046604)
(-0.181284961152403556 0.409291696603809707 0.179921723687116841)
(-0.177559453210834356 0.395240974332449313 0.183912512631659031)
(-0.208378310447941639 0.431637154583933313 0.190859258788421554)
(-0.108507593617572243 0.518438927615604506 0.251843185593584318)
(-0.140629643011421585 0.485248283214097909 0.22414044747705042)
(-0.137095116920554677 0.467416561724929291 0.230333677165238698)
(-0.170470177275223206 0.530951222995986627 0.243708378678058696)
(-0.0531569779723183172 0.518467514112789241 0.245320816322318419)
(-0.0517370983475406027 0.497886587992083574 0.252497879945613013)
(-0.0659983513138348021 0.585877901217202623 0.272587735233531858)
(-0.171868510085984388 0.154251279361253407 0.0649004359178836504)
(-0.171630205837561362 0.152363288368718403 0.0657913970528681002)
(-0.175386208399290949 0.149548436227062681 0.0604951001297115848)
(-0.171525866340966837 0.152099187953819326 0.0728992566341260528)
(-0.16931320409481268 0.161974754234493257 0.0620854298456746667)
(-0.16834191125440906 0.16021831733050268 0.0623648056056514202)
(-0.171608769118759358 0.157130735077511074 0.0575131410253636663)
(-0.168800912439700218 0.159980373502268458 0.0689579313819503187)
(-0.168270189649249585 0.169890515617992038 0.060382152397946115)
(-0.166455039556518719 0.168133888575377505 0.0600390798149641539)
(-0.169264627926505096 0.164749852312113365 0.0555484799379444699)
(-0.167561984432953365 0.16791369526500885 0.066236067576073851)
(-0.168784922103179802 0.178487679149405915 0.059865398167367842)
(-0.166010653926826124 0.176449656722500042 0.0588427644863548996)
(-0.168407898968448516 0.172776765468358684 0.0546609496615444307)
(-0.167891763546182404 0.176192008449879645 0.0647197510799630976)
(-0.170695907801435759 0.188426140118168356 0.060736594302263136)
(-0.166962248424844029 0.185730703863099006 0.0588939762604605566)
(-0.168966442378726406 0.18178803976604449 0.0550283114982499308)
(-0.169838294887842911 0.18543002013804552 0.0644731585253251333)
(-0.173538896534471271 0.200227323811501379 0.0632671762076206373)
(-0.168987064430088013 0.196589982894440879 0.0604253294971961105)
(-0.170580116947605609 0.192361525042703901 0.0569387976429609893)
(-0.173113482310351008 0.19639601844522514 0.0657140244829217401)
(-0.176874785647299693 0.214134129306493115 0.0676584722871562405)
(-0.171579042141660337 0.209375098250943553 0.0636761404316962126)
(-0.172739288567023086 0.204787251136333337 0.0606403017771132008)
(-0.177138928737436946 0.209551052966220064 0.0687218999063188701)
(-0.18047357656150062 0.230459325133085091 0.0740851052829100826)
(-0.174413590760758547 0.224260794290159521 0.0687823596527286918)
(-0.175137680316473254 0.219246838813917155 0.0662592510626452275)
(-0.181572798991149004 0.225030165950524441 0.0736676205877832418)
(-0.1839770079313299 0.249833241552654822 0.082866659249539551)
(-0.177243001442794978 0.241703618498330552 0.0759486474395782291)
(-0.177503903617427766 0.236207353197953746 0.0740419478344789966)
(-0.186295434670959936 0.243308333469819671 0.080756641483512262)
(-0.186644610299194519 0.272944776988528648 0.0944700396869606746)
(-0.179525333939582393 0.262383176914732452 0.0855406223094857809)
(-0.179242550301335984 0.256300119000194115 0.0844184574464463683)
(-0.190863926812044837 0.265243035531668281 0.0903688776583648767)
(-0.187546156017370569 0.300402354992290344 0.109455250014520986)
(-0.180333293475555961 0.286861804262298403 0.0979997147496684817)
(-0.179406591102386131 0.279961192869797482 0.0978610173194847388)
(-0.194309329867450004 0.291600214419100723 0.103004073065650195)
(-0.18569971403976207 0.333960578730451763 0.128968132760561793)
(-0.178791374109843609 0.315741170441372343 0.113855199187442302)
(-0.177168367719644504 0.307644851613370407 0.114873362091526821)
(-0.195874588295835955 0.323178363195256835 0.119341347451263402)
(-0.177722092440304069 0.378621832814962755 0.155514353336675681)
(-0.173506194687049642 0.351481154228378445 0.134483284128639718)
(-0.171260128112152854 0.341645366760404245 0.136811252498768743)
(-0.194443015987270124 0.363610946941078983 0.141336232404297435)
(-0.151951229717467468 0.438088464310368519 0.190063926317120546)
(-0.157964671649771349 0.399702734285515504 0.162420805254415906)
(-0.155430435926526611 0.387434837345148164 0.166315058024283341)
(-0.182631488292055694 0.422010137727910406 0.172912265899603373)
(-0.0889460255684153267 0.485047700675890259 0.217618078205785048)
(-0.116982679846452498 0.459500244705629501 0.196013241115059161)
(-0.114655969629102794 0.444699161466778681 0.201713585023224035)
(-0.142023240940185008 0.499996833398263452 0.213226572587968094)
(-0.0429288770903381092 0.48196695445911808 0.210229228950433084)
(-0.0419423221457384462 0.465325046083332861 0.216485593230553081)
(-0.0536712491626867433 0.537085972880711915 0.232433730981831205)
(-0.184545724096938452 0.133356830383944858 0.0779403286997622236)
(-0.186435559485940344 0.130299120960638393 0.0803343603623099395)
(-0.191645464258630743 0.128252696924754162 0.0736381415427509733)
(-0.185375199545389863 0.130381560177018213 0.0888579851163552592)
(-0.17730345456100427 0.142021585056685884 0.0722048428575946255)
(-0.178419966609535824 0.139325693967557812 0.0741131997635546963)
(-0.183213375628437147 0.136937133388501414 0.068196631477698888)
(-0.17751785577299159 0.139634937569429296 0.0819210412947645183)
(-0.171766224741774831 0.150255627543947862 0.0672558329404172178)
(-0.172164030960631959 0.147821695669893588 0.0686499276859545565)
(-0.176498710319270363 0.145176164263132013 0.0633801669725537753)
(-0.171559957677164199 0.148220661538907644 0.0757856222847935052)
(-0.167763845713842563 0.158270253641634884 0.0632557667406358631)
(-0.167478862307886944 0.155992677517780787 0.0640892885344840346)
(-0.171330754191300672 0.153135018158134018 0.0593527443859656265)
(-0.167328023799486525 0.156399476523704284 0.0706188911493734334)
(-0.165161547131027014 0.166280335756201825 0.0603184555749409074)
(-0.164189795563225216 0.164068535354607525 0.06055872472307329)
(-0.167557473948962254 0.160992135685989884 0.0562704228645203378)
(-0.164612530633649667 0.164470395310195527 0.0665782493638163025)
(-0.163902755365327307 0.174552090685536843 0.0584996919033729038)
(-0.162178187588846973 0.172265712302060947 0.0581237842971933164)
(-0.1650920569407206 0.1689530459573233 0.0542104885726148247)
(-0.16326340307098744 0.172662087468228947 0.0637383600731570438)
(-0.16394383347478933 0.183501105582696139 0.0578713425794476141)
(-0.16140280546104871 0.180902728069297358 0.0568240183547972372)
(-0.163903025607784053 0.177349332874356752 0.0532408908865749653)
(-0.163262841738582909 0.181280906693507854 0.0621114127436303842)
(-0.165105839950106609 0.193649586855500211 0.058582711455393538)
(-0.161759027141641309 0.19043696777247987 0.0567529057250587693)
(-0.163870327611010613 0.186643297231081862 0.0534995181381535678)
(-0.164571764801926312 0.190828898127511748 0.0617549045811053646)
(-0.167010541908637178 0.205444571472130827 0.060834293721271672)
(-0.162962088097171248 0.20135660282884485 0.0580774848633679383)
(-0.164683653484041792 0.19730155779044084 0.0551944233508958673)
(-0.166930691791227215 0.201901416412810203 0.062827215579128709)
(-0.169258050016015432 0.219170490247545341 0.0648000277972686639)
(-0.164594554202306981 0.214001659048829868 0.0609801206060727602)
(-0.16591792861551391 0.209626414366331532 0.0585228850212652293)
(-0.169885551461928436 0.21492485967386224 0.065532740496681105)
(-0.17153645110522206 0.235145924267567252 0.0706459018093967273)
(-0.166305061329495102 0.228602899813969446 0.065595063747131005)
(-0.167228373582321843 0.223843617939109146 0.0636222195184345946)
(-0.173081247966220764 0.230135434288941704 0.0700328429912060596)
(-0.173410620384362696 0.253878047315587052 0.0786226104995245145)
(-0.167749540747257952 0.245546011021232496 0.0720964205323329083)
(-0.168256432394490729 0.240339659783247256 0.0706960069102746669)
(-0.176246347904280842 0.247964815364033031 0.0765121416153446837)
(-0.174167643408405431 0.27592307087391621 0.089070297372193824)
(-0.168363763275701933 0.265359428202410763 0.0807521819999570817)
(-0.168408683256261793 0.259606204807110996 0.0800565782272962545)
(-0.17887558627764838 0.269079496177638933 0.0852580110752176601)
(-0.172874264469842137 0.301829780961176242 0.102399663922589812)
(-0.167279203962894585 0.288511230206814073 0.0918751161989906084)
(-0.166809164587568448 0.28202888746966337 0.0920409868438878398)
(-0.180101649913220169 0.294121323413623958 0.0966392101639711315)
(-0.168274666014007673 0.332888636889455247 0.119370350555520033)
(-0.1634986676354028 0.315518560760090883 0.105835281120588834)
(-0.162501048551379257 0.308030737450759429 0.107010778156663711)
(-0.179021793266913976 0.323855277754063697 0.111170877778626317)
(-0.156934063380845118 0.372168957396545708 0.141389736046380221)
(-0.155343114447198227 0.347988283880890703 0.123452929950585225)
(-0.153906284498066398 0.339128694923815865 0.125782073225505747)
(-0.174054287142071301 0.360894566144453088 0.130142211957802678)
(-0.129519705743964875 0.420722540165310743 0.168370120052354494)
(-0.137203939216766629 0.389028525549526605 0.145967213562113896)
(-0.135587910298499648 0.378412778297422647 0.149655983496290501)
(-0.158490297909340383 0.410718500150264842 0.155726751175315009)
(-0.0731098971555682042 0.456303823704676592 0.188624391859707419)
(-0.0976547863285422285 0.436144756718385374 0.171468305681539757)
(-0.0961677026901596455 0.423829932270674892 0.176602102537834121)
(-0.117555172050316153 0.471707980407138072 0.186305445051118096)
(-0.0348568179758841912 0.451685754268065787 0.181288429818721536)
(-0.0341810573549880675 0.438158002049236717 0.186768286103677211)
(-0.0432509957404526926 0.496983594045865784 0.199319574618969847)
(-0.179916311341068696 0.136260808629205893 0.0765072314261024955)
(-0.181563077154259456 0.132989826722092863 0.0788692343953398406)
(-0.187014633577812839 0.130744710577509055 0.0727113023507575812)
(-0.180321345545068734 0.133607404908697019 0.0869000309741396471)
(-0.17293551196900675 0.145096755974315955 0.0705582845919146134)
(-0.173848585301668496 0.14214988975303694 0.0723998516897512018)
(-0.178833772911549116 0.139629363914761662 0.0670450324455488661)
(-0.172867603338559772 0.142972219339080692 0.0796777791712921096)
(-0.167557646231853152 0.15350372609163529 0.0654833832800213872)
(-0.167803135264256331 0.150784996090551043 0.0667940833770727382)
(-0.172295556525729365 0.14806315576631679 0.0620910560226277108)
(-0.167188786041838622 0.151686771046825486 0.0733996831299933289)
(-0.163602120650451488 0.161703663177106882 0.0613922465169214546)
(-0.163216271298137983 0.159105642595681385 0.0621499467875274852)
(-0.167212478954991695 0.156217791577357351 0.0579783767602128908)
(-0.163084211619152319 0.160005097051109907 0.0681648052451126196)
(-0.160928946147979618 0.169932910773444718 0.0583640534453256851)
(-0.15991242745973247 0.167352224059178323 0.058544723588360742)
(-0.163425940267936137 0.164294206465332771 0.0548169260443089751)
(-0.160361445708879252 0.168229227291161521 0.0640628283953322969)
(-0.15944077397230752 0.17845808846279404 0.0564481107486176081)
(-0.157759646686917887 0.175753943451935318 0.0560265887390505868)
(-0.160821730610925417 0.172511459267111339 0.0526745504447126214)
(-0.158871998103385897 0.176614893137698598 0.0611448000761984495)
(-0.159038389416552073 0.187639338391575955 0.0557055815004083854)
(-0.156664530822727854 0.184605823100810168 0.0546319765473400956)
(-0.159314301332795671 0.181167260038706646 0.0516141062111061671)
(-0.158539840125753728 0.185465023946613572 0.0594279935445181165)
(-0.159529724167295578 0.197903937456848367 0.0562476791330331627)
(-0.15648431055521686 0.194289213090717561 0.0544323878005563005)
(-0.158751316198330106 0.190644221222253607 0.0517422765267718521)
(-0.159265463216858777 0.195202291951486251 0.0589599020737744325)
(-0.160584531666966179 0.209637492003256959 0.0582233117481690196)
(-0.156955252341595519 0.205204513609888423 0.0555480324118746913)
(-0.158850599826042244 0.201329203717901334 0.0532113766599432644)
(-0.160804497398040369 0.206306069012558158 0.0598561198822235227)
(-0.161828360746292005 0.223128181954185156 0.0617751565559351082)
(-0.157712220362345029 0.217666801379888558 0.0581164722639163633)
(-0.15923730616670087 0.213512309580539628 0.056176243193523212)
(-0.162775516657221564 0.219160229683929147 0.0622663533636773486)
(-0.162904343615699554 0.238676390628071639 0.0670455824700670194)
(-0.158393487963321256 0.231921046467303243 0.0622542665534804168)
(-0.159549847461612521 0.2274281841316457 0.0607637051640862388)
(-0.164815065331379407 0.234036990995034111 0.0663282573004710524)
(-0.163334435517785009 0.256691807398094107 0.0742259920327654754)
(-0.158603749892417434 0.248289351131837782 0.0681007314833367988)
(-0.159385090973181126 0.243397353514677589 0.0671333825897296177)
(-0.166567835925166885 0.251317017664792808 0.0721950377845641811)
(-0.162411263805023937 0.277615175375460321 0.0835570008267540743)
(-0.15776379335426427 0.267181092642050699 0.0758471006975516282)
(-0.158149171826817841 0.261802109527281612 0.0755097722558786683)
(-0.167487372963806058 0.271526497648378218 0.0800819744045552506)
(-0.15918068329779167 0.301879669658915772 0.0953107333969896026)
(-0.155031993307918392 0.288958092835371272 0.085700780025240314)
(-0.155001665212722906 0.282954570815991124 0.0861195517175627617)
(-0.166734498612499449 0.295185376344652195 0.0902498298913706615)
(-0.15225196898312654 0.330317607314118133 0.109917860515653901)
(-0.149336945516083786 0.313982949876988549 0.097877648942065798)
(-0.148909446993672229 0.307163661299574786 0.0991794408454365339)
(-0.163280869554647295 0.322910511271478518 0.103042848207915552)
(-0.138457646313467214 0.364591362884140791 0.128030407466319301)
(-0.138923488732361489 0.343147030798402142 0.112763924686125741)
(-0.138202758759704364 0.33529028534548283 0.115082824904121334)
(-0.155311356268681117 0.356384310843178065 0.119200285752562946)
(-0.11069636102101682 0.404294981047623292 0.149065399191299602)
(-0.119255409797050155 0.377873382643189037 0.130767398388334205)
(-0.118434033675565556 0.368807177183512525 0.134283494259665293)
(-0.137144030081266605 0.398560292767212387 0.139739817566665564)
(-0.060769851349809223 0.431589716873007845 0.164132343640553957)
(-0.0822239350475004321 0.415211822610894843 0.15011486885971459)
(-0.0813873907457877133 0.40503650150870163 0.154851652670031203)
(-0.0977590808364628 0.446478676874128511 0.162917361595218607)
(-0.0287448206253630885 0.42622843519949849 0.157269588062657201)
(-0.0282951150320488037 0.415220823874495104 0.162101098068390626)
(-0.0350665323334645035 0.463893571554802597 0.171960547980184481)
(-0.194136496744045511 0.119141272258293185 0.0894598563192036261)
(-0.203726766781183066 0.113186012516439671 0.084956711513897179)
(-0.195677861590068058 0.115236919675043334 0.102459993257392218)
(-0.197659869702653729 0.114729037307009077 0.0928609738228632908)
(-0.183581647736617004 0.129426010556375232 0.081755052629946659)
(-0.191911024232479938 0.123477080791111027 0.0779984087804774656)
(-0.184175776219167309 0.126385695879341564 0.0931227240340146978)
(-0.18613439758996414 0.125436474780288937 0.0846623964146706598)
(-0.175118000646248939 0.138975701208193692 0.0747618546589886024)
(-0.182186603392478497 0.133090786290147478 0.0714763517923795166)
(-0.175151996361862322 0.136610481712158671 0.0846339575797683263)
(-0.176845540353740865 0.135335891029020244 0.0771350529749228325)
(-0.16839375506297749 0.147922735333184396 0.0686356504749093543)
(-0.17425924808682558 0.142121855223272975 0.0656156654301229547)
(-0.168084836896270157 0.146025340051678998 0.0771791212883425198)
(-0.169412633871249524 0.144567865665805234 0.070483518084063404)
(-0.16317079517442043 0.156451710192468313 0.0634606468845788918)
(-0.167900796587419077 0.150698986759441045 0.0605475541137135351)
(-0.162672929699439361 0.154807654454314825 0.070790577983533845)
(-0.163559258298046822 0.153293084079521746 0.0647838367203063537)
(-0.159259113193711499 0.164793851913872247 0.0593024238589666963)
(-0.162902142620193563 0.159006622473015363 0.0563643104353032109)
(-0.158690736644068298 0.163221197919313998 0.0655134158779443893)
(-0.159055514222485817 0.161722045703816292 0.0600921863464960321)
(-0.156508238063587296 0.173188843160471839 0.0562072588820856298)
(-0.159096750967227363 0.167257596857723262 0.0531396052070247024)
(-0.155952149822483344 0.171561150047251448 0.0613804382174068311)
(-0.155721547143054584 0.170094574909968294 0.0564469471284558544)
(-0.154794842390009874 0.181892955868249773 0.0542104545377730535)
(-0.156353553249034383 0.175667952141738082 0.0509254517213700436)
(-0.154312302735512358 0.180087915800743931 0.0584149689490461588)
(-0.153414205414749011 0.178639255192330565 0.0538749098017169206)
(-0.153984470627829384 0.191220372516680781 0.0533587828474880038)
(-0.154550403854978979 0.184505112406176286 0.0497735779608071138)
(-0.15365889748560374 0.189090038954901812 0.0566287645211381099)
(-0.152009101361817611 0.187625719955742898 0.0524011210162794241)