/*--------------------------------*- C++ -*----------------------------------*\
| =========                 |                                                 |
| \\      /  F ield         | OpenFOAM: The Open Source CFD Toolbox           |
|  \\    /   O peration     | Version:  2206                                  |
|   \\  /    A nd           | Website:  www.openfoam.com                      |
|    \\/     M anipulation  |                                                 |
\*---------------------------------------------------------------------------*/
FoamFile
{
    version     2.0;
    format      ascii;
    arch        "LSB;label=32;scalar=64";
    class       surfaceScalarField;
    location    "0.0599999999999999978";
    object      phi;
}
// * * * * * * * * * * * * * * * * * * * * * * * * * * * * * * * * * * * * * //

dimensions      [0 3 -1 0 0 0 0];

oriented        oriented;

internalField   nonuniform List<scalar> 
20856
(
2.42777087480441317e-05
2.44103154736396111e-05
-3.37165806234292379e-06
2.22188313067591919e-05
2.27915392891096924e-05
2.68248418373935817e-06
-2.73764624324516266e-06
2.02557713514135469e-05
2.14126829238062415e-05
2.17801984002950398e-06
-2.22269882857315406e-06
1.83840173968520276e-05
2.0214170507301671e-05
1.76992912606135036e-06
-1.80547963525262487e-06
1.65926985587564161e-05
1.91738813591688892e-05
1.4400798067537634e-06
-1.46848165854570538e-06
1.4872303623267925e-05
1.82727394143133374e-05
1.17351205089306596e-06
-1.19654643621692555e-06
1.32144644508913081e-05
1.74939055731699115e-05
9.58537036613286477e-07
-9.77441629426813843e-07
1.16128365121074668e-05
1.68245366506037568e-05
7.85739888889630669e-07
-8.01301785564199195e-07
1.00607767580805944e-05
1.62527731140269629e-05
6.47669431413604841e-07
-6.60348460827048349e-07
8.55030436371627219e-06
1.57681129580162915e-05
5.38293538576987363e-07
-5.48547288579771958e-07
7.07427144101188496e-06
1.53634793494339882e-05
4.52667449786905361e-07
-4.61035984456208234e-07
5.62686717747903452e-06
1.50336158577671677e-05
3.86706615490886089e-07
-3.93693771343830997e-07
4.20193834660674784e-06
1.47729922268116391e-05
3.37066866484390561e-07
-3.43146280640710019e-07
2.79248482250092401e-06
1.45768702010666589e-05
3.01278265073493358e-07
-3.06965976839796867e-07
1.39211462052537649e-06
1.44433340293146185e-05
2.7790920929623423e-07
-2.83675573165072102e-07
1.43447226650975769e-05
2.65978379213430068e-07
-2.72039203730910196e-07
2.38951580329632964e-05
2.65843567395994815e-05
3.20700585824664819e-06
-3.27495041954081298e-06
2.18873073871253586e-05
2.48562013133313179e-05
2.60816925304035776e-06
-2.66397078049197042e-06
1.99700114962685438e-05
2.33757838588770708e-05
2.12062034170353504e-06
-2.16494952444997046e-06
1.81367575853499698e-05
2.20837285103333493e-05
1.72630468003581078e-06
-1.76112350760386694e-06
1.637892025871786e-05
2.09606786366374481e-05
1.40635825136361606e-06
-1.43430592538531399e-06
1.46879799775816172e-05
1.99865302499509638e-05
1.14738883010068506e-06
-1.17004171619231157e-06
1.30564574987445344e-05
1.91435059610944218e-05
9.38276773933043745e-07
-9.5679637634501947e-07
1.14782290319034153e-05
1.84176448896206034e-05
7.69992421262939537e-07
-7.85184438393463744e-07
9.94699349510151565e-06
1.77967601499254138e-05
6.35338782710021397e-07
-6.47762319706899148e-07
8.45562864434854148e-06
1.72705218173319953e-05
5.28499043506227147e-07
-5.38655911711550634e-07
6.9974346721034385e-06
1.68312723960188968e-05
4.44720036270257031e-07
-4.53072183893297302e-07
5.56652081655244347e-06
1.64728766614063922e-05
3.80072149493447674e-07
-3.87038436356203554e-07
4.15692151801793707e-06
1.61895959646216605e-05
3.31367826658470321e-07
-3.37409919072895999e-07
2.76233367282429093e-06
1.59769366041502828e-05
2.96284204325349491e-07
-3.0192217884256279e-07
1.37695081378098205e-06
1.5832908175977062e-05
2.73457682416171557e-07
-2.79116214840449759e-07
1.5725879009705548e-05
2.61876000658889521e-07
-2.67715913925110977e-07
2.34844576234888137e-05
2.86915588002717548e-05
3.10611061770555904e-06
-3.17290095236593327e-06
2.15295257750025389e-05
2.68675779643664385e-05
2.52903032066881439e-06
-2.5836165718005175e-06
1.96597080451523307e-05
2.52905728560430686e-05
2.06092324630042467e-06
-2.10364704345580043e-06
1.78680903738697739e-05
2.39113071110813932e-05
1.68019845066654157e-06
-1.71402067381017658e-06
1.61464593382665342e-05
2.27109250884449897e-05
1.37064947220444215e-06
-1.39789710469069086e-06
1.448735887600949e-05
2.16679141507100461e-05
1.11968782581894601e-06
-1.14179782180518174e-06
1.28841935897527139e-05
2.07640036104346201e-05
9.1671336711116052e-07
-9.34803448708542048e-07
1.13312834184243635e-05
1.99846506833054716e-05
7.53141605543742509e-07
-7.68010120425133636e-07
9.82281036990716469e-06
1.93174147555898663e-05
6.22089496199898457e-07
-6.34298852289573116e-07
8.35233378649550751e-06
1.8751809769811898e-05
5.17973882107391891e-07
-5.27991607607876276e-07
6.9135322745012249e-06
1.82795494653919131e-05
4.36207686056231113e-07
-4.44455543690259566e-07
5.5006014427648744e-06
1.78938446161657404e-05
3.73003217653891636e-07
-3.79896024960493735e-07
4.10787552792962707e-06
1.75888686015691614e-05
3.2533502407767475e-07
-3.31335696431433325e-07
2.72966555519110755e-06
1.73603420447516969e-05
2.91027211242594392e-07
-2.96614688085124977e-07
1.36066159293084597e-06
1.72062034050013562e-05
2.6877611609828001e-07
-2.7430708044014894e-07
1.70909382403586396e-05
2.57533483336072696e-07
-2.63147544578891547e-07
2.30432970745486252e-05
3.07330085286978407e-05
3.000789901037124e-06
-3.06490677844294476e-06
2.11446623756174283e-05
2.88198554231829546e-05
2.44912626710827376e-06
-2.5002922011444945e-06
1.93267066362955297e-05
2.71521256805871874e-05
1.99886175733010707e-06
-2.03964182268462815e-06
1.75795505992210649e-05
2.56936630616973714e-05
1.63189945568910898e-06
-1.66455258848080648e-06
1.58964358898860532e-05
2.44219401852143217e-05
1.33318083432374694e-06
-1.35957047981765428e-06
1.42713042010834746e-05
2.33145931984737985e-05
1.09053659803920954e-06
-1.11202300644442328e-06
1.2698434017689724e-05
2.23534949814734193e-05
8.93949477650534687e-07
-9.11588423826941666e-07
1.11726892105022823e-05
2.15238742969502911e-05
7.35295043451430859e-07
-7.49835709017510972e-07
9.68876771954952596e-06
2.08130650251322942e-05
6.08020657777349362e-07
-6.19982359592269529e-07
8.24080008918660194e-06
2.0210256502270031e-05
5.06777972854135521e-07
-5.16590256251344081e-07
6.82284304434362941e-06
1.97065948850416388e-05
4.2714753903152019e-07
-4.35229471343055067e-07
5.42932223607289272e-06
1.92948754465828296e-05
3.65495797758754575e-07
-3.72282453891890436e-07
4.05494566574553709e-06
1.89692960494480967e-05
3.18963136108096054e-07
-3.24903960650910326e-07
2.69456416609180591e-06
1.87257300298267758e-05
2.8550660765421092e-07
-2.91014816737362254e-07
1.34328290870553732e-06
1.85619711608306622e-05
2.63866530993410569e-07
-2.69231102840493122e-07
1.84388442447115631e-05
2.52962643820932913e-07
-2.58317952171357394e-07
2.84877526629095574e-05
4.06549638350810701e-05
5.25922519774398737e-06
-5.3767566746346319e-06
2.64540784814160862e-05
3.76203303013642921e-05
4.315968490021804e-06
-4.40992480382323745e-06
2.44829565719174207e-05
3.49998203928604992e-05
3.53656798237668641e-06
-3.61204479224438484e-06
2.25759589596242059e-05
3.27027519016814672e-05
2.89397643114968036e-06
-2.95450404959828861e-06
2.07392706697993984e-05
3.07078833674782355e-05
2.36642000501219341e-06
-2.4149711384236434e-06
1.8974502975734838e-05
2.8959030270556493e-05
1.9344898142808511e-06
-1.97356011102938006e-06
1.72731212890156848e-05
2.74292198099269887e-05
1.58180855483691614e-06
-1.61333723281723754e-06
1.56302891524261725e-05
2.60918468855429061e-05
1.29419378824447038e-06
-1.31979076492610009e-06
1.40409351461764284e-05
2.49248640153337636e-05
1.06011609123192932e-06
-1.08104814452307085e-06
1.25001131500988424e-05
2.39105046714972021e-05
8.70137757355084997e-07
-8.87380846090609173e-07
1.10032339455382731e-05
2.30339300197330608e-05
7.16587031406035424e-07
-7.30822454796671846e-07
9.54547996872597891e-06
2.22822677889589401e-05
5.93240155806948771e-07
-6.04943181585941567e-07
8.12148745725053944e-06
2.16443594814158581e-05
4.94984616742988626e-07
-5.04572511415858582e-07
6.72573040910175271e-06
2.11109332905892029e-05
4.17583991109053622e-07
-4.25495237126299679e-07
5.35297907571087816e-06
2.06745738283130275e-05
3.57576675432707905e-07
-3.64261462161879448e-07
3.9983490940434078e-06
2.0329548872342963e-05
3.12266830025888839e-07
-3.18144133963281839e-07
2.65715512504208007e-06
2.0071791265746872e-05
2.79725192525387386e-07
-2.85140239110523338e-07
1.32490726878378025e-06
1.98988270439986492e-05
2.58722239288199624e-07
-2.6391195648117214e-07
1.97684633966999773e-05
2.48151097376999718e-07
-2.5325843945562451e-07
2.77550736157373474e-05
4.27424936923212007e-05
5.02495086104289937e-06
-5.13654957666449917e-06
2.58115044602570828e-05
3.96556039433184436e-05
4.13437271942267495e-06
-4.22489206125833477e-06
2.39253533967025287e-05
3.696015164154734e-05
3.39531742390923366e-06
-3.46800326091568163e-06
2.20895328601898118e-05
3.45986477327134298e-05
2.78463671909516361e-06
-2.84254142839307224e-06
2.03162899404195161e-05
3.25302597673105014e-05
2.28144380163997812e-06
-2.32782695293365892e-06
1.86044473328138948e-05
3.07113105312973225e-05
1.86840339408347002e-06
-1.90590312896293898e-06
1.69501067537109926e-05
2.91164437283695459e-05
1.53029700033603587e-06
-1.56073088550168391e-06
1.53491371644776909e-05
2.77189879118839525e-05
1.253988760829776e-06
-1.2788117499173821e-06
1.37971817966802168e-05
2.64972452049294376e-05
1.02866902737460919e-06
-1.04905263787524324e-06
1.22900172369567732e-05
2.54336843133356845e-05
8.45472426447939529e-07
-8.62303732980011691e-07
1.08235594486111566e-05
2.45134894741590098e-05
6.97169199050838753e-07
-7.11062836951642079e-07
9.39343677191093418e-06
2.37236372136692436e-05
5.77858620273017709e-07
-5.89263131700001474e-07
7.99477270821369348e-06
2.30527137468204345e-05
4.82670616269112722e-07
-4.92012095331158488e-07
6.62251113820230204e-06
2.24912161575600302e-05
4.07571275824780871e-07
-4.15308344898003743e-07
5.27183863662286826e-06
2.20316636711536708e-05
3.4928375065660693e-07
-3.55863800418762215e-07
3.93827626357494058e-06
2.16683793856734878e-05
3.05267275070664565e-07
-3.11067954959254895e-07
2.61751816254198457e-06
2.13972728162394365e-05
2.73687044029321245e-07
-2.78995558202756477e-07
1.30491014497271479e-06
2.1216022611363321e-05
2.53335572336510674e-07
-2.58355530532797571e-07
2.10779944730800109e-05
2.43086719676418804e-07
-2.47977640809118895e-07
3.07670461659310349e-05
7.00488336018522857e-06
-7.1705580398802963e-06
5.23089478210620753e-05
2.88731946801041225e-05
5.80050739871200714e-06
-5.9315041030055642e-06
4.8310821822513162e-05
2.69995838174073414e-05
4.79389779942095263e-06
-4.90027837852982634e-06
4.47232584997125262e-05
2.51515114829978256e-05
3.95398136108835423e-06
-4.04028919529009012e-06
4.15907313261257159e-05
2.33461737779952758e-05
3.25421385042958309e-06
-3.32347795153080567e-06
3.88359369515358849e-05
2.15821764049875661e-05
2.67451404478236674e-06
-2.72970161623504003e-06
3.64196231136821441e-05
1.9872144901406143e-05
2.19563513023694386e-06
-2.24010923821987176e-06
3.42870263231355037e-05
1.82153536323372577e-05
1.80151917371699223e-06
-1.83763985257742673e-06
3.24065364347491069e-05
1.66097204792234175e-05
1.47807124424522362e-06
-1.50750601608056022e-06
3.07533807908805392e-05
1.50521590407086703e-05
1.21315276332995231e-06
-1.23725119467431635e-06
2.93016981772721769e-05
1.35392144776864319e-05
9.96680880432615319e-07
-1.0165208760759734e-06
2.80301912106763861e-05
1.20673331402289479e-05
8.20353352138239582e-07
-8.36741595102039282e-07
2.69215901613673447e-05
1.06328838162870553e-05
6.77368775447168373e-07
-6.90874289243127188e-07
2.59611369101576978e-05
9.23191018278777659e-06
5.6214449876843013e-07
-5.73213462443079858e-07
2.51357224921097818e-05
7.86002488880106001e-06
4.70061446106698536e-07
-4.7913979781499503e-07
2.44338554493536621e-05
6.51268100328715787e-06
3.97303010815077786e-07
-4.04859156619634667e-07
2.38460299735380644e-05
5.18551260184702704e-06
3.40781345862002633e-07
-3.47243842107375023e-07
2.33648016797242616e-05
3.87442944378416774e-06
2.98098963882285293e-07
-3.03803636971387351e-07
2.29844669979207777e-05
2.57553570834911912e-06
2.67501009095477382e-07
-2.72693375131635328e-07
2.27007355971651939e-05
1.28514128238958076e-06
2.47800314739465543e-07
-2.52667163193043975e-07
2.25108295698125694e-05
2.37847614027129118e-07
-2.42565753435855501e-07
2.23674809139134296e-05
2.17033584045918515e-05
2.2507031880441822e-05
2.52250278252192616e-06
1.98384293689993959e-05
2.11909205260020752e-05
2.04992859986079357e-06
1.80463586555213481e-05
2.00453258724422732e-05
1.66659861769708294e-06
1.63205129829473764e-05
1.90435608425382371e-05
1.3561236434814435e-06
1.46531796372822088e-05
1.81719462294188641e-05
1.10509544850723532e-06
1.3038552953033157e-05
1.74158850046980236e-05
9.02652397753572562e-07
1.14724149385272037e-05
1.67640550651708043e-05
7.40141731917578074e-07
9.94961022704100776e-06
1.62055820264364237e-05
6.10441250839678624e-07
8.46330100161728591e-06
1.57307881911816812e-05
5.07659432218474399e-07
7.00724133515392296e-06
1.53333373337348934e-05
4.2708724383259077e-07
5.57638945029910527e-06
1.50085780777708827e-05
3.648769624948941e-07
4.16548672082749896e-06
1.47515963620179364e-05
3.17829191320864403e-07
2.76858125908059682e-06
1.45582332939930938e-05
2.83630464884192225e-07
1.38017778555131736e-06
1.4426841725296482e-05
2.61112938374808324e-07
1.43296526920786522e-05
2.49622746800238443e-07
2.32785025119900302e-05
2.61909281328789206e-05
3.015202825174321e-06
2.13892232823788241e-05
2.45519992969994266e-05
2.45372121323250725e-06
1.95642603205547762e-05
2.31415662349917669e-05
1.99667719401437833e-06
1.7808985086383426e-05
2.19031558931553083e-05
1.62549943761563362e-06
1.61143996785902373e-05
2.08212182499749292e-05
1.32442058235629328e-06
1.44747318366369107e-05
1.98785204700204637e-05
1.08059027188077688e-06
1.28850722081620836e-05
1.90595938079514303e-05
8.83656849182149e-07
1.13412333692912516e-05
1.83522384565872801e-05
7.25303370818715801e-07
9.83836889235648899e-06
1.77455057890441384e-05
5.98718425054362053e-07
8.37047682924678841e-06
1.72299780303254931e-05
4.98287500195862321e-07
6.93172213941630569e-06
1.67986418991645294e-05
4.19449089902907626e-07
5.51698474956634859e-06
1.64459194286319968e-05
3.58475583521551309e-07
4.12118290918784329e-06
1.6166717304033832e-05
3.12365714230833684e-07
2.73898176085339359e-06
1.59571271237896137e-05
2.78982841411897415e-07
1.36537066554304943e-06
1.58153965539337978e-05
2.57165335547927016e-07
1.57097497983533679e-05
2.4611542478902115e-07
2.28924189365639948e-05
2.82796695264069361e-05
2.92101743410083207e-06
2.10483239825413486e-05
2.65463589258778934e-05
2.3808590670780399e-06
1.92685146476796827e-05
2.50444484471532075e-05
1.94036701710900486e-06
1.75511586834691037e-05
2.37210450413130208e-05
1.58198498378850774e-06
1.58900715320632947e-05
2.25635625191041668e-05
1.29073752002262333e-06
1.42803359487896785e-05
2.15534488769960167e-05
1.05445721170326448e-06
1.27175865974046602e-05
2.06747967288554455e-05
8.63312154522037309e-07
1.11979377977220852e-05
1.99148920813562808e-05
7.0936851519859531e-07
9.71694628347749148e-06
1.92626054383625433e-05
5.86133769508741099e-07
8.26922247298842281e-06
1.8708372013702139e-05
4.8824176524409587e-07
6.84928469350188996e-06
1.82445607866256393e-05
4.11286902806980793e-07
5.45211918991842418e-06
1.7864994541045354e-05
3.51684214503508647e-07
4.07292784023467787e-06
1.75645133402793183e-05
3.06614069752007558e-07
2.70690185261117601e-06
1.73393730920559929e-05
2.7408289578907969e-07
1.34942785613522011e-06
1.71876891495185689e-05
2.52936584211540692e-07
1.7073803072748601e-05
2.42266251374966098e-07
2.24769829115615461e-05
3.03045184376043766e-05
2.8227917205095021e-06
2.0682191407641418e-05
2.84880011922836873e-05
2.30494104658335644e-06
1.89502054657246715e-05
2.68966795026340998e-05
1.88162672803513078e-06
1.72737430131697983e-05
2.54955552678378595e-05
1.53645707239194433e-06
1.5648521230807559e-05
2.42679688866513764e-05
1.25538276912674106e-06
1.40707797464736736e-05
2.31946301386539794e-05
1.02693938631982504e-06
1.25368253242598739e-05
2.22597581800223365e-05
8.41825176867638704e-07
1.10431817948185356e-05
2.14503990582871063e-05
6.92505960951038701e-07
9.58582166137740601e-06
2.07551896459109309e-05
5.728031525135017e-07
8.1598580652353348e-06
2.01642471026507923e-05
4.77588678122628241e-07
6.76017362453677338e-06
1.96694409337651378e-05
4.02630624904529424e-07
5.38199558902807859e-06
1.92642534561244665e-05
3.44506259256003944e-07
4.02086552921249909e-06
1.89435400523965554e-05
3.00564003152482449e-07
2.67242459995939484e-06
1.87036309476348576e-05
2.68924635429011263e-07
1.33239087651044057e-06
1.85424413340102338e-05
2.4843707293348424e-07
1.84206792077791985e-05
2.38113859775312208e-07
2.7505688370103149e-05
3.97187763963205065e-05
4.93541132581844358e-06
2.56458411175616914e-05
3.68963664417067315e-05
4.05389683079311336e-06
2.38199053882028526e-05
3.44388636737133014e-05
3.32434432931065765e-06
2.20334511272402028e-05
3.22649938821177205e-05
2.72213713497284611e-06
2.02955631222910269e-05
3.03685049894790472e-05
2.22670115405142078e-06
1.86127462751188539e-05
2.86962293406523356e-05
1.82089377915833988e-06
1.69786824876628832e-05
2.722479496924275e-05
1.48923657087368014e-06
1.53911073160540896e-05
2.59324775982831484e-05
1.2186059892745402e-06
1.38471369178886341e-05
2.48003531203830926e-05
9.98245006215226014e-07
1.23436949222661666e-05
2.38129891018889364e-05
8.19377120398883648e-07
1.0877719295508514e-05
2.29573170149372746e-05
6.74864196538285861e-07
9.44556992385836465e-06
2.22217427511895185e-05
5.5883447595571179e-07
8.04281184173904256e-06
2.15960643081002416e-05
4.66401287882581071e-07
6.66473341533749826e-06
2.10718144925998425e-05
3.93527978746178986e-07
5.30689726033473024e-06
2.0642318028492284e-05
3.36967300222029178e-07
3.96520143563481983e-06
2.03024657802288903e-05
2.9422120776269984e-07
2.63566662617880683e-06
2.00485704789229564e-05
2.63502297331006624e-07
1.31435141658019281e-06
1.98782456706309823e-05
2.43662230420727024e-07
1.97492210578095257e-05
2.33661577989080127e-07
2.68273988398703701e-05
4.18119535746260438e-05
4.71737820917679523e-06
2.50453423902724638e-05
3.89290223290564025e-05
3.88488688719420034e-06
2.32945146743885577e-05
3.63938692014414966e-05
3.19248950333182946e-06
2.15714816354540982e-05
3.41555928102393134e-05
2.61920049659648013e-06
1.98919239016164022e-05
3.21856229412519177e-05
2.14664587451030356e-06
1.82576640279648685e-05
3.04432126006570461e-05
1.75858251476277718e-06
1.66672296846419671e-05
2.89072651721645671e-05
1.44063746806684952e-06
1.51188832923225342e-05
2.75554520142307899e-05
1.18066136863073104e-06
1.36102887203812213e-05
2.63691529058116672e-05
9.68581853976730903e-07
1.21389392715946957e-05
2.53331302834853512e-05
7.96134509385526431e-07
1.07021516975478171e-05
2.44342845467391578e-05
6.56568090468716549e-07
9.2966479924690484e-06
2.36608547612885642e-05
5.44315311615105245e-07
7.91843951122209726e-06
2.30024235793449129e-05
4.54741877494037089e-07
6.56326589786857106e-06
2.24503561394421559e-05
3.84024386924233643e-07
5.22707528288671582e-06
2.19979299758170979e-05
3.29095109687583648e-07
3.90610982798510687e-06
2.16400437014912947e-05
2.87593777912668722e-07
2.59669642419184598e-06
2.13729284074117073e-05
2.57809351675568311e-07
1.29468379101466535e-06
2.11943431147666648e-05
2.38602071573453191e-07
2.10576234678671113e-05
2.28904165208855864e-07
2.95089499692249872e-05
6.56466021342403359e-06
5.0814165797560114e-05
2.78225171181810284e-05
5.44215920853221664e-06
4.71352720131576599e-05
2.61247167683259253e-05
4.50221560207915387e-06
4.38020847912434964e-05
2.44262212062297925e-05
3.71584161899607353e-06
4.08662658343359128e-05
2.2747385564610354e-05
3.05984747097751451e-06
3.82680781998571734e-05
2.10890729111627785e-05
2.51557856067099096e-06
3.59744434765940687e-05
1.94672041264186372e-05
2.06584900941351978e-06
3.39392916970917145e-05
1.78835908574477716e-05
1.69549118562661317e-06
3.21348896829332491e-05
1.63384791330858798e-05
1.39132345998959155e-06
3.05407847248297966e-05
1.48309279123634307e-05
1.1420977132311986e-06
2.91350769795262704e-05
1.33593221915761212e-05
9.38401598789895346e-07
2.78994251751597195e-05
1.19216758123722266e-05
7.72466205192122457e-07
2.68187402570788607e-05
1.05156418667947073e-05
6.37916880866924982e-07
2.58798946089829937e-05
9.13828824355578834e-06
5.29491706229842979e-07
2.50710675101397796e-05
7.78608086561510032e-06
4.42819318637084825e-07
2.43818610672269699e-05
6.45523931635321056e-06
3.74299010556570439e-07
2.3803690344808278e-05
5.14211264912582919e-06
3.21038861525226091e-07
2.33298226760346829e-05
3.84326798339089863e-06
2.80802270686653031e-07
2.29550406113938725e-05
2.55538157060112952e-06
2.5194657587293219e-07
2.26753352794051868e-05
1.27523393904504083e-06
2.33350563537567752e-07
2.24880525205714309e-05
2.23928187517391873e-07
2.23459783768008166e-05
2.12174468288941165e-05
2.22350511802725035e-05
2.26629386516383723e-06
1.9445305337486087e-05
2.09821728591774961e-05
1.8430571274081748e-06
1.77286062279002027e-05
1.98846188218675224e-05
1.49914144005676407e-06
1.60640607442662597e-05
1.89197474249963314e-05
1.22015188613585089e-06
1.44466918070550967e-05
1.8076410940448175e-05
9.94511732894955701e-07
1.28730092714505509e-05
1.73419882356110791e-05
8.12505903818918629e-07
1.1340421500133829e-05
1.67064867594609909e-05
6.6645278890582163e-07
9.84508120316862105e-06
1.61602565937552744e-05
5.49883365287175643e-07
8.38138825565045543e-06
1.56947057312276913e-05
4.57412183283587791e-07
6.9439967931521928e-06
1.53040730486432667e-05
3.84795951989041178e-07
5.52853927041619306e-06
1.49841762384305647e-05
3.28612470956272129e-07
4.1306599381915593e-06
1.4730884126087535e-05
2.86037016726418911e-07
2.7455624338802375e-06
1.45407424809044884e-05
2.5504529734084853e-07
1.36868495130273514e-06
1.44121354299203844e-05
2.34636139224561734e-07
1.43167362335065055e-05
2.24252723152066122e-07
2.26994685188687115e-05
2.58177602815282078e-05
2.70844244295334383e-06
2.09195549691300594e-05
2.42652617655092444e-05
2.2046497363264766e-06
1.91836482631543208e-05
2.29206761563359529e-05
1.7957099412752878e-06
1.75008017722052567e-05
2.17325322809868189e-05
1.4620402621676315e-06
1.58652638110805364e-05
2.06892358577173912e-05
1.19152728467757619e-06
1.42738396061803337e-05
1.97762356876815617e-05
9.72370709567031538e-07
1.27237495645148339e-05
1.89800972429659629e-05
7.95301237815119679e-07
1.12124040278102572e-05
1.82901209020971134e-05
6.52954191068596847e-07
9.73622809143414038e-06
1.76966016728033441e-05
5.39175852577950938e-07
8.29032684135578551e-06
1.71910914224049301e-05
4.48846095490203505e-07
6.86973700101483867e-06
1.67671873231386636e-05
3.77837117732573886e-07
5.47009002559195667e-06
1.64198750235202348e-05
3.22821851046861111e-07
4.08718527518162808e-06
1.61447827445161523e-05
2.81150233030433045e-07
2.71667281756560343e-06
1.59385724799053071e-05
2.50948587991355573e-07
1.35432396306510898e-06
1.57995250069610846e-05
2.31206389551825495e-07
1.56954294594787497e-05
2.21223558828847131e-07
2.23355756771316144e-05
2.78914334126542508e-05
2.62395027382654801e-06
2.05956967437590573e-05
2.62471690126892924e-05
2.14085909270245963e-06
1.89009174467970289e-05
2.48130787953700169e-05
1.745104125105033e-06
1.72529632730558338e-05
2.35417142251041661e-05
1.42287790386640709e-06
1.56486016682917775e-05
2.24243536954115016e-05
1.16118804999178786e-06
1.40853195270571822e-05
2.14451929876138204e-05
9.48788566915198718e-07
1.25607415391579216e-05
2.05903991277634064e-05
7.76915555434308117e-07
1.10725110208729903e-05
1.98488142074541376e-05
6.38521243350236251e-07
9.6173843780856633e-06
1.92105302155416117e-05
5.27747055866025922e-07
8.19098662872188065e-06
1.86669119524180312e-05
4.39707690982262442e-07
6.78869389944075942e-06
1.82110126341458681e-05
3.70417096453483551e-07
5.40628210850105908e-06
1.78373030456845265e-05
3.16676177825446157e-07
4.03979528706838034e-06
1.7541298161214177e-05
2.75994132525953176e-07
2.68527417713874841e-06
1.73197138076444432e-05
2.46613357964934491e-07
1.33876789327895219e-06
1.71706791926773499e-05
2.27512152599110561e-07
1.70582127342565394e-05
2.17877359979915415e-07
2.19430589961799165e-05
2.99042854637762613e-05
2.53686177183716855e-06
2.02470921955517279e-05
2.81784883101734857e-05
2.07214761060573925e-06
1.85960349802084368e-05
2.66565212233150853e-05
1.69206619944718508e-06
1.6985885022460168e-05
2.53087802481765295e-05
1.38193561233645934e-06
1.54150144371970101e-05
2.41225242050659384e-05
1.12934213522093689e-06
1.3881891534733467e-05
2.30812172661151718e-05
9.23969575233027897e-07
1.23846809195927597e-05
2.21711448850670938e-05
7.57521387318832649e-07
1.09213466068526986e-05
2.13808995902759304e-05
6.23281243102021587e-07
9.4889832446242454e-06
2.07003132052166805e-05
5.15674355110889139e-07
8.08365389280132898e-06
2.012044765813389e-05
4.3004164707880106e-07
6.70108736954304502e-06
1.96339442779404164e-05
3.62562021975041977e-07
5.3373059875779555e-06
1.92349864197996216e-05
3.10183604256417612e-07
3.98863935323684073e-06
1.89190464760918074e-05
2.70559880896177955e-07
2.65146682637280089e-06
1.86828251317574574e-05
2.42023306508444094e-07
1.32208097528291317e-06
1.8524250546371367e-05
2.23540877448882523e-07
1.84038220079221688e-05
2.14220429590263687e-07
2.65854934506237224e-05
3.88460499246205226e-05
4.42496368582365512e-06
2.48871062153202855e-05
3.62199087852606408e-05
3.63771291920397642e-06
2.31965115931023264e-05
3.39126573844733374e-05
2.98546801201206011e-06
2.15228667540323081e-05
3.1856475969739216e-05
2.44570569397242638e-06
1.98782747839675204e-05
3.0051059427296916e-05
2.00150381853036492e-06
1.82722995303252362e-05
2.84489776060035746e-05
1.63738804730080653e-06
1.67014403909740049e-05
2.70318922632102801e-05
1.33944194336449145e-06
1.5165816053635834e-05
2.57818459258300718e-05
1.09621612165937419e-06
1.36645997308342843e-05
2.46826287917238809e-05
8.98107743310315343e-07
1.2196439943802847e-05
2.37208309804791226e-05
7.37283282932929648e-07
1.07596229903647993e-05
2.28848947959031403e-05
6.07363153929864468e-07
9.35156407138522822e-06
2.21644121478059926e-05
5.0304945841423028e-07
7.96873164190763428e-06
2.15501699033854471e-05
4.19913250497082757e-07
6.60724034030769174e-06
2.10345448108073237e-05
3.54318498043407385e-07
5.26342565590992501e-06
2.06115791204531506e-05
3.03370268572782276e-07
3.93391178019282927e-06
2.0276718301891495e-05
2.64851727002215584e-07
2.61536859152262999e-06
2.00265841697678645e-05
2.37167940631459294e-07
1.30436808718719949e-06
1.98588265566233727e-05
2.19280762512017017e-07
1.97310729783173772e-05
2.1024934633102527e-07
2.59573538874260863e-05
4.09423470567853035e-05
4.23087468607603421e-06
2.43259396370725213e-05
3.82504902835881436e-05
3.48687931658424686e-06
2.27014855736416676e-05
3.58635837124899427e-05
2.86737047532275471e-06
2.10842310105055856e-05
3.37416441329449951e-05
2.35337655629670661e-06
1.94926157999555859e-05
3.18623691591442943e-05
1.92963174116002228e-06
1.79311584906909573e-05
3.01905118512966283e-05
1.58133657199245029e-06
1.6400818607971169e-05
2.87095327830199038e-05
1.2957015482950392e-06
1.49020096847770051e-05
2.74006650334775146e-05
1.06204618664641594e-06
1.34342803413480162e-05
2.62479281448931508e-05
8.71388227672639025e-07
1.19967179668297196e-05
2.52380429752483138e-05
7.1634534197478634e-07
1.05879024038439923e-05
2.43593854218472274e-05
5.90871370270726278e-07
9.20555734449322714e-06
2.360139072147518e-05
4.89945174192483718e-07
7.84655801012985387e-06
2.29546782028730531e-05
4.09376515352457068e-07
6.50743656096917193e-06
2.24114982912774138e-05
3.4572716025728608e-07
5.18487233574871892e-06
2.19658326792175057e-05
2.96260062611567046e-07
3.8757722265202062e-06
2.16130784875973838e-05
2.58874847821698928e-07
2.5770445443715246e-06
2.13497445679988411e-05
2.32040010960351624e-07
1.28501123584409795e-06
2.11736680405366211e-05
2.14723862539836716e-07
2.10381768505243415e-05
2.05963522865544896e-07
2.83326800453836993e-05
5.8776876525072162e-06
4.94258592175039172e-05
2.68380968181097423e-05
4.87839611308218204e-06
4.60365700617309585e-05
2.53039401040540838e-05
4.03914627689417006e-06
4.29402465173969622e-05
2.37451839976077457e-05
3.33620373853132528e-06
4.01895424752888285e-05
2.21842161050369107e-05
2.74884783820890452e-06
3.77365737175588926e-05
2.06249858688983359e-05
2.26070416837279031e-06
3.55573211319166706e-05
1.90858873306656579e-05
1.85716444371849364e-06
3.36121392094212624e-05
1.75710923967387704e-05
1.52462482614276427e-06
3.18782520867778526e-05
1.60829921980129247e-05
1.25133618132374917e-06
3.03394102764974633e-05
1.46225729423128134e-05
1.02733457786024355e-06
2.89770744671939068e-05
1.31899344171290357e-05
8.4421778908926176e-07
2.77754221190080972e-05
1.17845607326462532e-05
6.95035640887304515e-07
2.67212428891013696e-05
1.04052934431412201e-05
5.74070739666316336e-07
2.58028737596985609e-05
9.05015784242996614e-06
4.76580191457695472e-07
2.50097309042666662e-05
7.71644300996490265e-06
3.98618010416489581e-07
2.43324900893851784e-05
6.40111439529027419e-06
3.36947827174759059e-07
2.37634459192570682e-05
5.10120053795534655e-06
2.88985970801496021e-07
2.32965249052911029e-05
3.81387817467791842e-06
2.5273844962098284e-07
2.29269629290211103e-05
2.5363552679022053e-06
2.26734749135256485e-07
2.26510281165515205e-05
1.2658578327802219e-06
2.09963603749360575e-07
2.24662008080220471e-05
2.01455013153080659e-07
2.2325344346303032e-05
2.2498284108618881e-05
2.33602590758571894e-05
2.36850545761233543e-06
2.07794144057690611e-05
2.1989594233065341e-05
1.92480731968714082e-06
1.90915236333114792e-05
2.07962809045699418e-05
1.56563391709896055e-06