/*--------------------------------*- C++ -*----------------------------------*\
| =========                 |                                                 |
| \\      /  F ield         | OpenFOAM: The Open Source CFD Toolbox           |
|  \\    /   O peration     | Version:  2206                                  |
|   \\  /    A nd           | Website:  www.openfoam.com                      |
|    \\/     M anipulation  |                                                 |
\*---------------------------------------------------------------------------*/
FoamFile
{
    version     2.0;
    format      ascii;
    arch        "LSB;label=32;scalar=64";
    class       volScalarField;
    location    "0.0599999999999999978";
    object      rAU;
}
// * * * * * * * * * * * * * * * * * * * * * * * * * * * * * * * * * * * * * //

dimensions      [-1 3 1 0 0 0 0];

internalField   nonuniform List<scalar> 
7340
(
0.0245749649140360737
0.0249215134272575654
0.0252413383802546701
0.0255391649113852377
0.0258172243571200624
0.0260776738623288741
0.026322424600062528
0.0265531659700125773
0.0267713736717197989
0.0269783408474187428
0.0271752024688887359
0.0273629537297851375
0.0275424648872712521
0.0277144931622933036
0.0278796925327752555
0.028022566401527383
0.0244364891003206672
0.0247820997194330393
0.0251013933298245631
0.0253994176870424963
0.0256778294545153551
0.0259385752834773824
0.0261835115706696916
0.0264142590507933268
0.026632237137619471
0.0268386934637628582
0.0270347234128822389
0.0272212862905211704
0.027399218099805122
0.0275692410547964083
0.0277319710314624726
0.027872379273421035
0.0243073930814225042
0.0246510281436092375
0.0249694189302215354
0.0252670170098108944
0.0255450949163268451
0.0258055714506444517
0.026050211888128727
0.0262805516436202605
0.0264979431235983394
0.0267035807781204962
0.0268985152830679836
0.027083666044502009
0.0272598315104767459
0.0274276966433225494
0.0275878379236172144
0.0277256791460540677
0.0241875887888551057
0.0245283875701937798
0.0248455275777347828
0.0251418479142945135
0.0254189308998540829
0.0256786005847887723
0.0259224840019728238
0.0261520178361805203
0.0263684791191245056
0.0265730019674852713
0.0267665872821892699
0.026950111102400115
0.0271243316866819559
0.0272898946330280105
0.0274473359192600672
0.0275825086166350507
0.0229050230658625099
0.0233244276432395675
0.0237130635826341488
0.0240765629489083262
0.0244140411671437199
0.0247291693172560917
0.025023579348380183
0.0252991454553453884
0.0255575327999666944
0.0258002358274436669
0.0260285919343558984
0.026243799039333375
0.026446926817421338
0.0266389228175189612
0.0268206170335765146
0.0269927255995259727
0.0271558532659326377
0.0273104952958595389
0.0274428965201076978
0.0228231695675628239
0.0232336318118507128
0.0236160946678451236
0.0239737775878876534
0.0243075462057260813
0.0246199163316095856
0.0249119951972004879
0.0251855835921616922
0.0254422510635148001
0.0256833798268512568
0.0259102092710238943
0.0261238561257873675
0.026325323252034797
0.0265155024714498165
0.0266951757077914728
0.0268650155149310864
0.0270255847606300538
0.0271773442431636481
0.0273069200379029882
0.0218887321624595677
0.0223427331332331017
0.022774870914644748
0.0231767773526996013
0.023553518909566612
0.0239057799819786011
0.0242361765665915219
0.0245458250149274207
0.0248357620169349716
0.0251075932708941692
0.025362769831059874
0.0256025620582627372
0.0258281119613807605
0.0260404559645849853
0.0262405309126418421
0.0264291733270358466
0.0266071173575100177
0.0267749924132979107
0.0269333179040945163
0.0270824740768747553
0.0272094733439565625
0.0249883200254337086
0.0252960477062319916
0.0255834614322469657
0.0258532731671332408
0.0261069480252123856
0.0263461781630834335
0.0265724200423661759
0.0267869531743306771
0.0269909127876673989
0.0271853045325558505
0.0273710167480409015
0.0275488316538575924
0.0277194336847169098
0.0278834159925573401
0.028025225138916296
0.0245172764681452042
0.0248480176923867244
0.0251552200664025873
0.0254432227223475964
0.0257134286008704194
0.025967495792132686
0.0262069956809471982
0.0264333100907401218
0.0266476663030400067
0.0268511572924642339
0.0270447518929596981
0.0272293049521707929
0.0274055664282770728
0.0275741876296047329
0.0277357255576124243
0.0278750959021970487
0.0243864160254172527
0.0247158865755670969
0.0250221919927075993
0.0253100554684218236
0.0255801198327514703
0.0258340577186670084
0.0260733663501388907
0.0262993532324478294
0.0265131857849720681
0.026715908067238444
0.026908447578946882
0.0270916222261647077
0.0272661468412125317
0.0274326375847282755
0.0275916139551398328
0.0277284458973364664
0.0242647045328857405
0.0245916709825637139
0.0248970963133769915
0.0251839555461431594
0.0254532591171825508
0.0257065610911290654
0.0259452392143200254
0.0261705165493560758
0.0263834938403305005
0.0265851603861289032
0.0267763980581972628
0.0269579847929612981
0.027130597992708845
0.0272948167799242254
0.0274511221493021554
0.0275853154489934804
0.0230389476096037327
0.0234348370732427522
0.0238038577230997167
0.0241515239685499844
0.0244755408423924063
0.0247794000252344708
0.0250646421643049531
0.0253326797081469858
0.0255848899559832539
0.0258225311711323194
0.026046740524537107
0.026258548848340748
0.0264588872963858572
0.0266485890491179218
0.0268283897564832174
0.0269989278249969378
0.0271607441299735464
0.0273142810355265185
0.0274457336109004031
0.0229509026522178652
0.0233396051891625288
0.0237036377645493748
0.0240462499999742028
0.0243670622414156775
0.0246686600826011883
0.0249519132123122711
0.0252182415738658114
0.025468938037491215
0.0257051623743878958
0.0259279662753499132
0.0261383085276581523
0.0263370601233073702
0.0265250036256272949
0.0267028308012775863
0.0268711399584528714
0.02703043287629079
0.0271811195928636888
0.0273097784030422938
0.0220627023478035533
0.0224886437777652229
0.0228967977078941287
0.0232785233072143986
0.0236378861587174076
0.0239756540800715873
0.0242937046457543555
0.0245930760423661091
0.0248745385714753894
0.0251393768006586728
0.0253887873169678438
0.0256238328166733878
0.025845479148976943
0.0260546132629660941
0.0262520465327309299
0.0264385113985747544
0.0266146562552995423
0.0267810398940611163
0.0269381233701304901
0.0270862382316151978
0.0272123510258249282
0.0250594738842543942
0.0253538033286758308
0.0256304588372115068
0.0258915253533073299
0.0261380603364582582
0.0263714748575558898
0.0265929773985036297
0.0268036440961526672
0.0270044453539911196
0.0271962522251961332
0.0273798427124853118
0.027555908655020004
0.0277250602565179832
0.0278878296023694558
0.0280286049973723361
0.0246025175491534909
0.0249176193917333005
0.0252117996511608787
0.0254893955949142478
0.0257510484901384458
0.0259981273398395135
0.0262319262737031982
0.0264535890485885286
0.0266641470477349332
0.026864533343456596
0.0270555860970272677
0.0272380529502394657
0.0274125959039657578
0.0275797940706785823
0.0277401452507169202
0.0278785082621178931
0.0244694273935098065
0.0247835635826402119
0.0250775136035260512
0.0253552641302171138
0.0256170070323459356
0.0258641318437698858
0.0260978708351771796
0.0263193062858336768
0.0265294185809369643
0.0267290975836839036
0.0269191443305122
0.027100272917372218
0.0272731129525435947
0.027438210708977475
0.0275960284993408619
0.0277318808661663925
0.0243451822691061887
0.024657582987672972
0.0249510457006183357
0.0252280985738620143
0.0254893330309079492
0.0257360136039071173
0.0259692670220910138
0.0261901038134222351
0.0263994469026715382
0.0265981378622021682
0.026786936773645121
0.0269665214095932797
0.0271374868898604585
0.0273003449029031175
0.0274555213290727622
0.0275887640175248132
0.0231775691588626646
0.0235495086988403157
0.0238984751405094085
0.0242294532440671673
0.0245395012142660338
0.0248318533468292503
0.0251076290735993066
0.0253678656776626654
0.0256136597503945074
0.0258460332374542447
0.0260659229771998818
0.0262741911455178084
0.0264716279296972577
0.0266589497637347538
0.0268367960897314475
0.0270057262144046024
0.0271662161411333133
0.0273186552240083855
0.02744918701239734
0.0230832403865240225
0.0234494376271869483
0.0237945858055702286
0.0241213871954844145
0.0244289292123992113
0.0247195167310616803
0.0249936679928268388
0.0252524764922150771
0.0254969728772427538
0.0257280960237558538
0.0259467094852139611
0.0261536124456971629
0.0263495417178465328
0.0265351683531270845
0.026711092103569159
0.0268778355686803104
0.0270358383461797545
0.0271854596530222113
0.0273132282145742075
0.0222419699153603607
0.0226396480262336733
0.0230230303352698326
0.0233836905270835768
0.0237252768477805541
0.0240480769310667634
0.0243535219598911869
0.0246423702993867171
0.0249150915116312377
0.0251726845245805533
0.0254161056327507316
0.0256462126746770831
0.025863795151292418
0.0260695889166587605
0.0262642775575746001
0.0264484870675494102
0.0266227779898751439
0.0267876367949773098
0.0269434650260633561
0.0270905456526470724
0.0272157977848633999
0.0248330761845913378
0.0251317966069139892
0.0254122859513281341
0.0256782326802693153
0.0259303929463903619
0.0261697281030064989
0.0263972790491954282
0.0266140013130904338
0.0268207705280448933
0.0270183930669371797
0.0272076061600515819
0.0273890787560794532
0.0275634137266241516
0.027731148691320831
0.0278927569274898604
0.0280325692096756486
0.0246889263723572422
0.0249880912666254271
0.0252690382274788593
0.0255360856520589381
0.0257891688843151778
0.0260292369960863669
0.0262573035654273361
0.026474284970860594
0.0266810218785435115
0.0268782892577097664
0.027066795803071305
0.027247183394257371
0.0274200276171521103
0.0275858371170154687
0.0277450527808767444
0.0278824773505521283
0.0245532791421601664
0.02485177408827614
0.0251333660894117253
0.0254008888016400217
0.0256543085787847222
0.0258946122482396554
0.0261227631932514741
0.0263396279315300345
0.0265460050055909245
0.0267426325039538358
0.0269301865893912147
0.0271092791383417756
0.0272804561893067211
0.0274441959247029091
0.0276009057795795314
0.0277358456537215789
0.0244259439893572093
0.0247237077669224294
0.0250053527871862205
0.0252725715606476435
0.0255257425764849194
0.0257658030373415746
0.0259936244874418645
0.0262100112382737949
0.0264157129589545937
0.0266114261390124028
0.0267977909233929959
0.0269753866284553126
0.027144727822027117
0.0273062606186479095
0.0274603581116814773
0.0275927152924473375
0.0233154425516683417
0.0236638133118946062
0.0239930934621637761
0.0243071894259108759
0.0246034978910883335
0.0248845212043681645
0.0251508588889616143
0.0254033131265216996
0.0256427016953152329
0.0258698100750772778
0.0260853795233373584
0.0262901075431097517
0.0264846460805085657
0.0266695968501822582
0.0268455048721775828
0.0270128521205888726
0.0271720516372900324
0.0273234421172427154
0.0274531161267131223
0.0232146780636309606
0.0235588173201338007
0.0238853879290295799
0.0241962627328830768
0.0244907353669521072
0.0247704724278747304
0.0250355796683836528
0.0252869008928880493
0.0255252180186093941
0.0257512521709386093
0.0259656828230921018
0.0261691532137394607
0.026362268827330608
0.0265455914042168374
0.026719630531695137
0.0268848348718196475
0.0270415837792987654
0.0271901880096439633
0.0273171270351315158
0.0224191627769088943
0.0227891621129019811
0.0231483032293214978
0.0234882813105491868
0.0238123558546219603
0.0241201828658435015
0.0244131891226318613
0.0246916593208405463
0.0249557150222885771
0.0252061096598629845
0.0254435737512793796
0.0256687646624323453
0.0258822992663656978
0.0260847659638653584
0.0262767237044156804
0.026458694499771427
0.0266311529787744312
0.0267945150562682657
0.0269491247107597684
0.0270952186055552213
0.0272196684928087788
0.024918367140493055
0.0252012298039967567
0.0254691857502725508
0.0257247648164580546
0.0259683854279896473
0.0262007476318404445
0.0264226090307046885
0.0266346918017434445
0.026837680640942628
0.0270322248602674273
0.0272189338412039544
0.0273983729471771187
0.0275710609108372265
0.0277374671977426539
0.0278980107963151258
0.0280369678868415684
0.0247717212229877949
0.0250558854073611378
0.0253247250460090778
0.0255815972400081464
0.0258263670939877371
0.0260596440275924802
0.0262821593402470625
0.0264946073799697708
0.0266976462109492566
0.0268918996533382589
0.0270779529270590777
0.0272563476724987583
0.0274275779949319301
0.02759208652565295
0.027750261690681375
0.0278868529885696013
0.0246336748146035317
0.0249179634342664158
0.0251876368493737755
0.0254452801556331321
0.0256906366838602386
0.0259243445341806739
0.0261470950052880569
0.0263595426727361686
0.0265623119140232511
0.0267559961853696161
0.0269411528880475551
0.0271182971724143948
0.0272878964420562413
0.0274503652495810477
0.0276060605110170221
0.0277401902600211241
0.0245038401765360764
0.0247878523177197524
0.0250580286488999819
0.0253157484025603903
0.0255611320177611678
0.0257948059066027309
0.0260173885259994582
0.0262294832679324554
0.0264316743202170322
0.0266245204207448301
0.0268085480292804441
0.0269842434640790094
0.0271520455985207187
0.0273123393884297828
0.0274654494131410451
0.0275970205579070191
0.023447261959221425
0.0237733528291262999
0.0240839327980693838
0.0243822471651671223
0.0246654179979772341
0.0249354961463561994
0.0251927409869651293
0.0254377020467281591
0.0256709257903804285
0.025892966490492754
0.0261043767951692797
0.0263056976628717049
0.026497450277422771
0.026680127967659617
0.02685418674540287
0.0270200360110872707
0.0271780301847708156
0.0273284614722402765
0.027457374166255908
0.0233402120061054832
0.0236635006459811163
0.0239724668607801394
0.0242683809267475355
0.0245503660933960727
0.0248196794891756521
0.02507610320655939
0.0253202363186089061
0.0255526201754699908
0.0257737657583655931
0.0259841767576500585
0.0261843489886852063
0.0263747642314851143
0.0265558812748695749
0.0267281248637329487
0.0268918743560893833
0.0270474531095007131
0.0271951274789511872
0.0273213303295141638
0.0225875623814423554
0.0229315315157641378
0.023267832780465833
0.0235882642463948709
0.0238957639638292495
0.0241894567043361396
0.0244706089204766719
0.0247391525213522638
0.0249949151064681498
0.0252384178110555274
0.0254701750569774031
0.0256906527975122347
0.0259003044100175814
0.0260995797035577168
0.0262889207542201242
0.0264687519334654044
0.0266394671397520051
0.0268014162151036794
0.0269548897172386427
0.0271000819633983245
0.0272238201289205332
0.0249979363152999963
0.0252663876379162246
0.0255224658915714879
0.0257683551611710242
0.0260040438376057288
0.0262299214694348727
0.026446487019812337
0.0266542506873987742
0.0268537224722202421
0.0270454077258330018
0.0272297990328408644
0.0274073676169326597
0.0275785561060802181
0.0277437728562517083
0.0279033891205724069
0.0280416318674701487
0.0248488925984294805
0.0251191403591969793
0.0253766294721660506
0.0256241216757246877
0.025861195835557408
0.0260881724862710995
0.026305533870684232
0.0265137723496220029
0.0267133792345590586
0.0269048401787506872
0.027088627900226335
0.0272651932024248235
0.0274349567288529536
0.0275983020818497196
0.0277555716476806658
0.0278914669811079589
0.0247082477253543278
0.024979323594668236
0.0252380703488773554
0.025486659481568856
0.0257245739086594573
0.0259521781774668461
0.0261699268882804696
0.0263782825513443966
0.0265777110522408856
0.0267686741455425252
0.0269516213365844602
0.0271269803323669727
0.027295147856459645
0.0274564817219948576
0.0276112945339309808
0.0277447477684568573
0.0245758007045495767
0.0248471995028529402
0.0251068906372201549
0.0253559096155248909
0.0255941221285245941
0.0258219004426448254
0.0260396422102973889
0.0262477695182188157
0.0264467165281307912
0.0266369170789244603
0.0268187946947246077
0.0269927518041990881
0.0271591593912610119
0.0273183480127422579
0.0274705997622637227
0.0276015146688274038
0.0235681001615134569
0.0238740013492773802
0.0241675603185977084
0.0244514907370825263
0.0247226479005506691
0.0249827106590639648
0.0252316259920402942
0.0254696992364738493
0.0256972442802814588
0.025914611899110606
0.0261221850149229197
0.0263203631979593879
0.0265095495517419268
0.026690139611332004
0.0268625092876487448
0.0270270030017512909
0.0271839231306859781
0.0273335212369798311
0.0274617984720898455
0.0234551449475625708
0.0237595497104542801
0.024052518141760227
0.0243348425857549573
0.0246054171436182537
0.0248651943837005403
0.0251136671042603739
0.0253512031394453399
0.0255781317497798151
0.0257947773958682493
0.0260014859509924597
0.0261986206464135292
0.0263865520107898766
0.026565646233885961
0.0267362518611224849
0.0268986862891838902
0.0270532232530724913
0.0272000903727413479
0.0273256788847329006
0.022740989209868584
0.0230614794691467798
0.0233771724339809431
0.0236798962465884638
0.0239723517817482905
0.0242532154867712534
0.0245235527643256207
0.0247830250547494621
0.0250312015363148566
0.0252683886393412355
0.0254949074982690066
0.0257110533343767843
0.0259171332307564888
0.0261134729858506082
0.0263004100114804205
0.0264782810903885293
0.0266474077162211324
0.0268080807221224918
0.0269605434121877111
0.0271049532831924463
0.0272280978689380601
0.0250685464800327329
0.0253243555268728299
0.0255700057713006759
0.0258073286913280756
0.0260359965625440413
0.0262561268196123063
0.0264679944620304572
0.0266719260776461693
0.0268682796383147363
0.0270574353335911143
0.0272397845898046005
0.0274157174896508017
0.0275856115424653568
0.0277498235013912374
0.0279086851112151507
0.0280463812758212673
0.0249171336008440422
0.0251752756509066866
0.0254227578472684054
0.0256620007422250392
0.0258922961169887299
0.0261137121744343809
0.0263265197472700441
0.0265310375126872819
0.0267276124740292928
0.0269166109684400683
0.0270984089010407846
0.0272733791580122495
0.0274418797662722182
0.0276042446393839486
0.0277607782225258344
0.0278961412889154534
0.0247740508240759452
0.0250335632541161465
0.0252827263415508
0.0255233933809134172
0.0257547802378826005
0.0259770183891200532
0.0261903639910972229
0.0263951154772115518
0.0265916024195084373
0.0267801734871626722
0.0269611858152656973
0.0271349924705722445
0.0273019302008639282
0.0274623092166984308
0.0276164056156591835
0.0277493414053264671
0.0246391209707629566
0.0248994987667308654
0.0251500368834444814
0.0253914671209978238
0.0256234085071476575
0.0258460190687450665
0.0260595118029692055
0.0262641544373690902
0.0264602527067765297
0.0266481336763172913
0.0268281330699267281
0.0270005819820971008
0.027165794035996893
0.0273240543179827967
0.0274756099105937963
0.0276060228748396426
0.0236735279878447016
0.02396200379507267
0.0242408114067343347
0.0245122670974959288
0.0247729703375118189
0.0250243192307010136
0.0252659840216828378
0.0254980461154716946
0.0257206246386755613
0.0259338996387003945
0.0261381097137259252
0.0263335338292786277
0.0265204745332360443
0.0266992442289915588
0.0268701509198941146
0.0270334842785939396
0.0271895033037955793
0.0273384260991803851
0.0274662173326338903
0.0235552555355542405
0.0238433461174426785
0.0241224879904307909
0.0243930646199560751
0.0246537503481557563
0.0249052499375144905
0.0251468096683069124
0.0253785967883708372
0.0256007622070269017
0.0258134731392663484
0.0260169415010675677
0.0262114179137981837
0.0263971785477029874
0.0265745111207553245
0.0267436997210388668
0.0269050096222311491
0.0270586732763184942
0.0272048864904441204
0.0273300052727819091
0.0228738977582713908
0.0231742750411507228
0.0234722697892413186
0.0237597123315585364
0.0240392026928829515
0.0243090134443618572
0.0245700026061910874
0.024821610465558714
0.0250631964807164972
0.0252948852185652627
0.0255168342881984325
0.0257291947267708487
0.0259321500787384612
0.0261259215053026989
0.0263107580749791028
0.0264869225429597878
0.0266546752159731691
0.0268142572838230495
0.0269658727590865628
0.0271096490491204538
0.0272323401379747435
0.0251028563718755753
0.0253477733797875943
0.0255843437579880359
0.0258141287649458484
0.0260365211014820831
0.0262514272342326896
0.0264589435730932555
0.0266592505392421082
0.0268525856465963719
0.0270392295705554966
0.0272194924942735159
0.027393699183349822
0.0275621753958339433
0.0277252378979463004
0.0278831887382221186
0.028020212745110698
0.0249495348812051321
0.0251973083638511418
0.0254360739690363477
0.0256680707819568442
0.0258923157570667695
0.0261086807112568473
0.0263172708968319249
0.0265182684690721017
0.026711906981968396
0.0268984585025064567
0.0270782217212649015
0.0272515073015905801
0.0274186238389763429
0.0275798669266643162
0.0277355125499302649
0.0278702215109487422
0.0248044826557727686
0.0250541292079031336
0.025294956431626308
0.0255286761775135422
0.0257542444397659727
0.0259716116930968147
0.0261808802872537487
0.0263822212045921115
0.0265758578151702729
0.0267620501193472221
0.0269410821991351961
0.0271132480044914172
0.0272788372388807036
0.0274381235533634887
0.0275913555378596749
0.0277236554585483658
0.0246675527065429376
0.0249185395776336041
0.0251611367868542282
0.0253959225668420434
0.0256222807718494081
0.0258402046265139747
0.0260497645748326845
0.0262511096658251328
0.0264444465750316854
0.0266300193580197575
0.0268080949090473419
0.0269789483245207601
0.0271428485755714488
0.0273000460094429652
0.0274507612920922815
0.0275805571448617948
0.0237373795796830822
0.0240113450515124539
0.0242776930192337148
0.024538672628092336
0.0247904496319435834
0.0250342581007145307
0.0252695739226189361
0.0254962913687171999
0.0257143711869862422
0.0259238612569850577
0.0261248901423899241
0.0263176446946882039
0.0265023500477804749
0.0266792541093808615
0.0268486121052634794
0.0270106714392254199
0.0271656581728311197
0.0273137652819972071
0.0274409582958182047
0.0236147877456916004
0.0238893149067949256
0.0241567767649573002
0.0244174361251391428
0.0246696549453624299
0.0249140027867513943
0.0251495159889581869
0.02537619723022266
0.0255940520778701955
0.0258031263807570327
0.026003530638683315
0.0261954301770003055
0.0263790291939638537
0.0265545551489271975
0.0267222425255410692
0.0268823166716903386
0.0270349789051903509
0.0271804014001492018
0.027304940984534485
0.0229605677893202909
0.0232442275860221294
0.0235277922368455177
0.023802500678023409
0.0240710063888456699
0.0243314163956098277
0.0245843933322784508
0.0248292095891917003
0.0250650333863255345
0.0252918384553965023
0.025509650754192429
0.0257185107275449479
0.0259185090359001814
0.0261097881727344015
0.0262925303538602134
0.0264669419604130277
0.0266332365526781439
0.026791617480195408
0.0269422592856724263
0.0270852675313325575
0.0272073972432577138
0.0247373490124433333
0.0250932052073562263
0.0254189614277796488
0.025719590783110282
0.025997911888436559
0.0262569084743519317
0.0264990887350675906
0.0267265709284644284
0.0269411662192163733
0.0271444323898626105
0.0273377183812701513
0.0275222010082176588
0.0276989151854902318
0.0278687810494203589
0.0280169350681747226
0.0242067287153856989
0.0245973271609457519
0.0249520385067229095
0.0252783196658199517
0.0255793043348989738
0.02585804056803373
0.0261173562878692991
0.026359661262001944
0.0265870111257056028
0.0268011690631537493
0.0270036523742152278
0.0271957727092201652
0.0273786702544760799
0.0275533415124153899
0.0277206656100209524
0.0278662170546223678
0.024078615140170314
0.0244664617912144743
0.0248198365067802129
0.0251456327500989008
0.0254462277396033075
0.0257247024245548482
0.0259837543504569737
0.0262256886213960323
0.0264524860585305804
0.0266658507864917411
0.0268672509593492898
0.0270579547326502239
0.0272390608881055082
0.0274115238568584489
0.0275761782952200669
0.027719018016806686
0.0239610872407265696
0.0243450972549960412
0.0246967245023024182
0.0250208555405844087
0.0253202422591101012
0.0255977992327847542
0.0258560321425499381
0.0260971221742705983
0.0263229644428716048
0.0265351947046814883
0.0267352244239675227
0.0269242721877311908
0.0271033908072448003
0.0272734896381177233
0.02743535693909906
0.027575380101817832
0.0224937958992567771
0.0229884609794795483
0.0234386363875975987
0.0238536646327307325
0.0242329780429071349
0.0245818874451816868
0.024903599595387918
0.0252011271720460756
0.0254771724280424515
0.0257340744628463819
0.0259738787625536267
0.0261983872720621402
0.0264091608032210705
0.0266075483448265128
0.0267947139800523981
0.0269716609302646862
0.0271392516944692318
0.0272982293239015794
0.0274353321894358175
0.02242480736955791
0.0229065675858670104
0.0233480853859268159
0.023755309055708964
0.024129486633128517
0.0244747828025327942
0.0247935700913232242
0.0250886888563462696
0.0253626820359375872
0.0256177724449293473
0.0258558757371164238
0.0260786930258173587
0.0262877047846720169
0.0264841926934275725
0.0266692622641348659
0.0268438643154328346
0.0270088137566864249
0.0271648196559681962
0.0272989425397908887
0.0213339670104104803
0.0218780495650470995
0.022390612769891096
0.0228597166358614663
0.0232928023717916821
0.0236923852839960869
0.0240617842389908368
0.0244034268769370601
0.0247194032454799498
0.0250122738910422866
0.0252843736397192279
0.0255378131338657305
0.0257743983039679658
0.0259957297146855663
0.0262032062495774591
0.026398040655928167
0.0265812783629180704
0.0267538168964045996
0.0269164232350164873
0.0270697541303571987
0.0272012289179110224
0.0247225493480402285
0.0250828150161720304
0.0254123643463376354
0.0257161488474729437
0.0259972105515930904
0.0262585891918568799
0.0265028341949127139
0.0267320999706702235
0.0269482273110714064
0.0271527985899499419
0.0273471791869223935
0.0275325471246212865
0.0277099257867761926
0.0278802685344168057
0.0280282732351042202
0.0241879836412232721
0.024583430051707364
0.0249423156486939454
0.0252721566543346043
0.0255761282813571182
0.0258574722972651494
0.0261190619464722225
0.026363345299826809
0.0265924092401115045
0.0268080425605272468
0.0270117851215251545
0.0272049631673075692
0.0273887163244191552
0.0275640290218943547
0.0277318112270529306
0.0278772225965521689
0.0240610909718570569
0.0244534574889806039
0.0248107491308651208
0.0251398766151945362
0.0254433199183662466
0.0257242768349965206
0.025985498755075314
0.0262293274429853465
0.0264577708949294971
0.0266725555919579763
0.0268751697939397377
0.0270668942444488615
0.027248825857979362
0.0274219066416955433
0.0275869998145747766
0.0277297100197433227
0.0239446954978307855
0.0243329757074216002
0.0246881783473105812
0.0250154798832964986
0.0253176031175094199
0.0255975277904525837
0.0258578315908666347
0.0261007354478734362
0.0263281577974601097
0.0265417542137229255
0.0267429536191207892
0.0269329852712223775
0.027112899235090946
0.0272835918331045604
0.0274458768813233764
0.0275857810407852018
0.0224621334111438885
0.0229629827278995703
0.023418595988008141
0.0238383589796864921
0.0242216578467695197
0.0245739056356210142
0.0248986017718718887
0.0251987527194931435
0.0254770675841019464
0.0257359484090268452
0.025977490864237944
0.0262035170217146327
0.0264156054130361383
0.0266151201330952734
0.0268032341336821613
0.0269809469415846076
0.0271491066367880209
0.0273084770398056391
0.0274454698867774918
0.0223952214522158063
0.0228828966613927737
0.0233293921870296912
0.0237410569306896191
0.0241189207976754486
0.0244673483501293421
0.0247889186595460775
0.0250865176370936131
0.0253626906252324875
0.0256196800663391448
0.0258594534864538261
0.0260837318492103259
0.0262940118021130868
0.0264915882287400928
0.026677573920453921
0.0268529146487406847
0.0270184078035449922
0.0271747733395515771
0.0273088114779011966
0.0212919054782147073
0.0218433759200257552
0.0223623981412676663
0.0228373942350591358
0.0232751282114685397
0.0236788378998398046
0.0240516974300467208
0.0243963097947940688
0.0247149192968475935
0.0250101430334306284
0.0252843580794318984
0.0255396544496472727
0.0257778747682071742
0.0260006397092176454
0.0262093635502003534
0.0264052711097636401
0.0265894141334442405
0.0267626837591976481
0.0269258234854043363
0.0270794591370338115
0.0272107318919679528
0.0243160564886343231
0.0247138749980672888
0.0250745673321388293
0.0254052925367204696
0.0257099094973564923
0.0259917655087485502
0.0262538403400403263
0.0264986705670121926
0.0267284122677531079
0.0269449089574230159
0.0271497453628985162
0.0273442894108915507
0.0275297247898697341
0.0277070817844664238
0.0278772727592432358
0.0280249961908389661
0.024179425498889788
0.0245754330430648718
0.0249348792398151851
0.0252656028427467143
0.0255703947911633221
0.0258524571210882424
0.0261146678947817845
0.0263594751028062499
0.0265889666365215424
0.0268049319510899504
0.0270089112577695696
0.0272022321413979903
0.0273860390748605596
0.0275613225344862149
0.027728951569770191
0.0278740870491900883
0.0240534273495039037
0.0244459795409954946
0.0248040927994127476
0.0251339230531594168
0.0254380707621603003
0.025719660228349428
0.0259814337537234812
0.0262257307388126179
0.026454557920506161
0.0266696406098311557
0.026872466012286756
0.0270643150249628185
0.0272462882600099064
0.0274193328482022179
0.0275842716544891405
0.0277267116214264288
0.0239376396758712029
0.0243262661780399847
0.0246821919168974425
0.0250100943546481339
0.0253128094405584564
0.0255932832776508447
0.0258540741399167044
0.02609739541493096
0.0263251613251321084
0.0265390245293073146
0.0267404117908583219
0.0269305514133040581
0.0271104959136349404
0.027281145672628928
0.0274432747469596748
0.0275829132109052903
0.0224554663475792712
0.0229562436239081451
0.0234121641050085462
0.0238319584336352114
0.0242156971369717755
0.0245685218055901287
0.0248937280140283587
0.025194375964635838
0.0254731651433892647
0.0257324743626986784
0.0259743878060207725
0.0262007207903022718
0.026413047316520423
0.0266127282735062753
0.0268009347503145312
0.0269786677013917064
0.0271467781668695458
0.0273059903762734764
0.0274427197482893168
0.0223896819359565187
0.0228771662629024437
0.0233237720753788347
0.0237354437673712344
0.0241136726876788089
0.0244625550412447962
0.0247845579218010023
0.0250825822345457188
0.0253591644546047289
0.0256165276501626217
0.0258566277917872955
0.0260811775917926328
0.0262916678342450319
0.0264893892675961452
0.0266754520702468211
0.0268508026281602703
0.0270162402876120041
0.0271724449425268834