/*--------------------------------*- C++ -*----------------------------------*\
| =========                 |                                                 |
| \\      /  F ield         | OpenFOAM: The Open Source CFD Toolbox           |
|  \\    /   O peration     | Version:  2206                                  |
|   \\  /    A nd           | Website:  www.openfoam.com                      |
|    \\/     M anipulation  |                                                 |
\*---------------------------------------------------------------------------*/
FoamFile
{
    version     2.0;
    format      ascii;
    arch        "LSB;label=32;scalar=64";
    class       volVectorField;
    location    "0.0599999999999999978";
    object      U;
}
// * * * * * * * * * * * * * * * * * * * * * * * * * * * * * * * * * * * * * //

dimensions      [0 1 -1 0 0 0 0];

internalField   nonuniform List<vector> 
7340
(
(0.0810980405611245181 0.0372852608211268269 0.0106991559514241791)
(0.0743190741317691222 0.0347765641520685481 0.00868962016249550523)
(0.0678929079489096199 0.032649443690224586 0.00705472568630648167)
(0.0617829835909404629 0.030812519248146833 0.0057302178713745152)
(0.0559305898820633765 0.0292192806513816433 0.00466076120552633231)
(0.0503173269163036813 0.0278400528983194333 0.00379740523506320263)
(0.0449167208356026221 0.0266486941416417891 0.00310157403331620587)
(0.0397050367403678425 0.0256243779530526128 0.00254230671205612612)
(0.0346618194751364198 0.0247491282880151556 0.00209514634613261475)
(0.0297639792179354087 0.0240077315996390719 0.00174072075862232714)
(0.0249874743737629364 0.0233891006283021979 0.001463297450824891)
(0.0203116126119377675 0.0228846838297921407 0.00124971744967319431)
(0.0157172747497463933 0.0224865652786542178 0.00108920461278453088)
(0.0111830907985724891 0.0221882675005700102 0.000973905958576815316)
(0.00668912371692885303 0.0219863988016603881 0.00089915531690967776)
(0.00222501867897434511 0.0218381225016911588 0.000861383033349139276)
(0.0797630579474308266 0.0407864370334170903 0.0103943902990984126)
(0.0731726200301564406 0.0380997184921194748 0.00845578603677658858)
(0.0669145745430276828 0.0358181269955061971 0.00687001677889543562)
(0.0609324385466341878 0.0338293127064221572 0.00558905899899054051)
(0.0551935469551452507 0.0321008426848519643 0.00455189153153090324)
(0.0496806618551879769 0.0306021659048013178 0.00371303171876717934)
(0.0443690472168506433 0.0293056850869837099 0.0030360170942732613)
(0.0392368242212255969 0.0281901369105733782 0.00249125635099672416)
(0.0342643694823806105 0.0272364673271189989 0.00205523855284492699)
(0.0294304383107899317 0.0264281042890100008 0.00170919950279856169)
(0.0247130555890878525 0.0257532649684569584 0.00143782635473816344)
(0.0200921295134024076 0.0252028223561813515 0.00122844667208679963)
(0.0155487273574853209 0.0247677809480857103 0.00107090538463323849)
(0.0110628789184982861 0.0244407885906487779 0.000957845214963221623)
(0.00661669103631310623 0.0242187314185801465 0.00088473539232862314)
(0.00220080934922766477 0.0240541865410616798 0.00084789613915421864)
(0.0783354800057224632 0.0442259249718438691 0.0100727183578145415)
(0.0719491476328975449 0.0413785939646223108 0.00819880691771833134)
(0.0658531684237819298 0.03893071665844932 0.00667601858478097249)
(0.0600082001914200996 0.0367937060370832347 0.00543997070577051899)
(0.0543924829900643905 0.0349352022987442015 0.00443654013240973952)
(0.048988060726447652 0.0333216427719741359 0.00362355945287759365)
(0.0437725037590410981 0.0319241686214718351 0.00296637531511004335)
(0.0387260841386029564 0.030720018014400087 0.00243686794991731983)
(0.0338305689968801532 0.0296895275526418423 0.00201254794563585169)
(0.0290664997661426588 0.0288160590278896296 0.00167534196953553162)
(0.0244135720911422167 0.028086853791282354 0.00141046063459700287)
(0.0198524501720280869 0.027491564796650679 0.0012057437624039258)
(0.0153648357249500725 0.0270209348324378235 0.00105156445725866285)
(0.0109322153589904089 0.0266679422865635229 0.000940967643108633748)
(0.00653842900983490904 0.0264293419615742944 0.000869571564379425328)
(0.00217478408415899133 0.026251405448939974 0.00083366217940422779)
(0.0768159948043657947 0.0475633652649091535 0.00972969410834374424)
(0.0706330203103987669 0.0445561437504660499 0.00793637833654338258)
(0.064713317181753105 0.0419575526975398683 0.00647415917106363478)
(0.0590160482131670966 0.0396862680365659137 0.00528355761638208375)
(0.0535316011300393663 0.0377076830748112671 0.00431530605283596269)
(0.0482427422379903964 0.0359867307710844755 0.00352932984634335509)
(0.0431297520642307114 0.0344942155086235547 0.00289286583030650205)
(0.0381751817121844944 0.0332066486502008915 0.0023792904523805068)
(0.0333624006559250161 0.0321039054594884563 0.00196718396172332246)
(0.0286736329926542237 0.0311689204623691596 0.00163923452490173844)
(0.0240900750800259848 0.0303879722545383375 0.00138124584380269473)
(0.0195933658107802153 0.0297498629399281511 0.00118158809777535673)
(0.0151661785182174852 0.029245279375556224 0.00103111178978476051)
(0.0107914607948793109 0.0288674820352695545 0.000923203342368636957)
(0.00645454052785642777 0.0286130490627673935 0.000853619856107447643)
(0.00214701745036751735 0.0284222369703502099 0.00081864922510243329)
(0.0944454643941950445 0.0633352424404709374 0.017067221267631584)
(0.0878343371480980462 0.0585024936607548146 0.0139991225199640433)
(0.0814154841011777985 0.0543597864790827529 0.0114672878229416242)
(0.0752122914675705939 0.0507376596778868899 0.00937963100526695813)
(0.0692481053197062241 0.0476221772084984979 0.00766699497588315543)
(0.0635066306128446029 0.0448915724731194926 0.00626531139183956164)
(0.0579634328308081606 0.0425004163587283518 0.00512144071623351314)
(0.0526162782564214976 0.0404125545974164738 0.00418929930647245208)
(0.0474487615248325584 0.0385925627279260358 0.00343113701407887295)
(0.0424440532099014112 0.0370117431400691782 0.00281608224611139876)
(0.0375868537405481401 0.0356464139756743487 0.00231898523588874124)
(0.0328621012739056667 0.0344761311710450324 0.00191952003192143801)
(0.0282535583249012012 0.0334833043298563837 0.00160118169130074898)
(0.0237438802537472127 0.0326534218194784731 0.00135041056601345791)
(0.019315923868264584 0.0319747797327811639 0.00115612076737245059)
(0.0149535699996380007 0.0314381435202798695 0.00100961403114111902)
(0.0106411603937719146 0.0310369505640397912 0.000904580808156284721)
(0.00636536331911973473 0.0307674499125049489 0.000836902811751084148)
(0.00211771008163590298 0.0305643719554802643 0.000802883903227867503)
(0.0919188371200086035 0.0667135746946571906 0.0163054107597491171)
(0.0856310031922939696 0.0617809711342482137 0.0134102199151087779)
(0.0795063572479192127 0.0575310832957435098 0.0110089433907753637)
(0.0735536669029829143 0.0538251113424650096 0.00902510368238550881)
(0.0678033170111814604 0.0505905799899618869 0.00739137200219107653)
(0.0622375940755693011 0.0477377490540928234 0.00605120515318015133)
(0.0568553085050730739 0.0452378677134274501 0.00495484450442150795)
(0.0516504667291552491 0.0430498125774799734 0.00405944379306992682)
(0.0466093845936744258 0.0411385711006029831 0.00332968552571741121)
(0.041718148707838007 0.0394759929631290155 0.00273655618475286515)
(0.0369633778461383247 0.0380383744110423666 0.00225636250638372926)
(0.0323314751600850547 0.0368049967234007347 0.00186987949565317699)
(0.027807657807010281 0.0357577960965135833 0.00156143600922453414)
(0.0233760937976893179 0.0348817464705558009 0.00131813908346696193)
(0.0190210548556125625 0.0341649251787931041 0.00112945767176316197)
(0.0147277405895791264 0.0335981995900124786 0.000987127912223888845)
(0.0104817515198155665 0.0331750372588136833 0.000885117121962792665)
(0.00627113407820146206 0.0328915764982308928 0.000819420356940185265)
(0.00208249630668875044 0.0326807300254572525 0.00078636313803576185)
(0.101439792019898098 0.0821843175825168332 0.0227554933115172858)
(0.095383624354711205 0.0757334448300832352 0.0188299050733956516)
(0.0893251990827114151 0.0699818194049028341 0.0155552405521211107)
(0.083379458924297406 0.0650164653990699531 0.0128259673073870019)
(0.0775397816150993208 0.0606628366855868281 0.0105519325114576852)
(0.0718277762191075753 0.0568546622544616187 0.00866824943511858292)
(0.0662835699422643781 0.0534931525086506932 0.00711351105143919957)
(0.0609050483494630798 0.050534760982215543 0.00583488649116864228)
(0.0556893454191216206 0.047937971689810184 0.0047861430624719873)
(0.0506315658106804706 0.0456598090083755875 0.00392767514695744474)
(0.045722003828727896 0.0436659120801126191 0.00322653618315281616)
(0.0409494283385883132 0.0419284879276575206 0.00265554976933344688)
(0.0363022150826284445 0.0404239482143535916 0.00219245762930050589)
(0.0317681191622093892 0.039131491835316265 0.00181912634877755123)
(0.0273337699364535128 0.0380329049241733552 0.00152072534657569751)
(0.0229849119191731649 0.0371130695197399718 0.00128504183048366145)
(0.0187073411900748124 0.0363601052871144609 0.00110210362906318165)
(0.0144875972956351844 0.0357649464471804651 0.000964068437929210798)
(0.0103125799469934026 0.0353209180668367789 0.000865161614682293054)
(0.00617305658904653259 0.0350239860732537225 0.000801486178989157063)
(0.00204899349745539267 0.0347850616810709765 0.000769350270041458078)
(0.0724857467571055208 0.0343603273405511944 0.00834180893821663549)
(0.0664025021628727452 0.0323099810951580843 0.00677726669309197064)
(0.0605774720625987806 0.0305522883782119344 0.00550719732232235644)
(0.0549583620743778201 0.0290189431240583107 0.00448051372822939366)
(0.0495334549827394499 0.0276851881133964237 0.00365083397501815739)
(0.0442861939232769286 0.0265288417491139419 0.00298177398844221876)
(0.0392000365767984638 0.0255313268127261642 0.00244436997613400051)
(0.0342601316409346449 0.0246763622670134256 0.00201524475643522459)
(0.0294475600281102132 0.0239501448762311706 0.0016752701405653137)
(0.0247415215453410803 0.0233427255657243267 0.00140896225501958893)
(0.0201239768746304219 0.0228464109595938915 0.00120359725466694578)
(0.0155784603637722646 0.022454070990530952 0.00104867884710551132)
(0.0110867136041610838 0.0221599474946321019 0.000936538372562517292)
(0.00663190023094224496 0.021961061233056911 0.000863007956582905605)
(0.00220594814269057258 0.021814635119683564 0.000825449795353773853)
(0.0775815793167059925 0.0401946948236072826 0.00997392299248088879)
(0.0713961947374010114 0.0376298650236965293 0.00812147885573407356)
(0.0654661039344015816 0.0354516867569051874 0.00660110293446704039)
(0.059764771627649052 0.0335498647804356523 0.00537213547133093966)
(0.054249421731625759 0.0318851838743252139 0.00437632193639616186)
(0.0489183336487974962 0.0304352482581563694 0.00357019357828788821)
(0.043755146032462236 0.0291762633349191627 0.00291925374014422468)
(0.0387445315649269789 0.0280895452225147779 0.00239566392536692775)
(0.0338722212732494588 0.0271578217703459732 0.00197694412453460616)
(0.029121044520093009 0.0263659105356799581 0.00164475221735948911)
(0.0244721710228754559 0.0257031320852866701 0.00138414433740030748)
(0.0199081076266599093 0.0251612917332977373 0.00118283648168097119)
(0.0154125613833137054 0.0247324117319172795 0.00103090156519941188)
(0.0109685269973838952 0.0244100764304556114 0.000921188026166622881)
(0.00656092463257787126 0.0241915750776903887 0.000849643031344835442)
(0.00218230952850880216 0.0240292698523451656 0.000813345956787892227)
(0.0762347551789619993 0.0435770260547603955 0.00966785674827755001)
(0.0702321886232444847 0.0408644749701311261 0.00787482917815694392)
(0.0644612121653500014 0.0385447481155422322 0.00641451927369852699)
(0.0588801472599951858 0.0364967661415416603 0.00522871016781377863)
(0.0534781770877505794 0.0347054603435920511 0.00426530104018383281)
(0.0482486411834550308 0.0331434849431436543 0.00348408451393076093)
(0.0431761672054605736 0.0317855529794122404 0.00285223962421414338)
(0.0382472464840636489 0.0306117992947252601 0.00234324900123029792)
(0.0334486601726318583 0.0296046127823331867 0.00193565101794643669)
(0.0287647781292897087 0.0287488257576090159 0.00161187775059128645)
(0.0241782900934994459 0.0280327210788566018 0.00135750058343543471)
(0.0196724541927289845 0.0274468886129588981 0.00116069198749999534)
(0.0152316201290859446 0.0269831220855352334 0.001012077502578871)
(0.010840071775680811 0.0266352975541376512 0.000904970030451442424)
(0.0064841614765806261 0.026400502382858626 0.000835422421432982206)
(0.00215683775959225454 0.0262247738338956295 0.000800272318665360143)
(0.0748048043488277192 0.0468784462760857695 0.0093375895856961065)
(0.06899019793777178 0.0440334583776272048 0.00762263815073042396)
(0.0633749064408765383 0.0415564579154952957 0.00622067508727088513)
(0.0579281730875336187 0.0393753608828907795 0.00507841580315553792)
(0.0526484065795118222 0.0374665243809551088 0.00414870051804345705)
(0.0475271909484089594 0.0357991514390533713 0.00339338208595785619)
(0.0425517517907541831 0.0343478376755156078 0.00278143364588053377)
(0.0377104448821975677 0.0330920428793852403 0.00228772556636343358)
(0.0329912771692371029 0.0320137388531260281 0.00189183133924342292)
(0.028380035635936867 0.0310973420638916628 0.00157694182664429002)
(0.0238607801353812946 0.0303302376531457349 0.00132917668454709441)
(0.0194177393350739511 0.0297022680381922796 0.00113721705337727855)
(0.0150361983837849385 0.0292051770359355728 0.000992224501940928809)
(0.0107017048057278519 0.028833016362284157 0.000887907643714947402)
(0.00640181905348592619 0.0285826026038849754 0.000820393269694466186)
(0.00212961715100599145 0.0283939898849980207 0.000786338907491152244)
(0.0909886869850296404 0.0618307610422691584 0.0163474335634805658)
(0.0849849081179458177 0.0573506096426355805 0.0134199539926442811)
(0.0790733487752027508 0.053471553604348479 0.0109988762573213147)
(0.0732913479588110928 0.0500473159907133189 0.00900495308952647955)
(0.0676738856616615203 0.0470864323391899167 0.00736399176045032973)
(0.0622218062564374313 0.0444768132421807932 0.00602002216587609745)
(0.0569169854630678165 0.0421782673056817145 0.00492251036012014698)
(0.0517650611465698476 0.0401618475909890082 0.00402737126215599837)
(0.0467578468790227839 0.0383969825265161047 0.00329874532130355023)
(0.0418850563451774738 0.0368587508598558836 0.00270739761422729907)
(0.0371367671195446392 0.0355263523319049451 0.002229565745400423)
(0.0325021938390041565 0.0343814147212972154 0.00184584345499103964)
(0.027968424592758185 0.0334078588966785772 0.0015401877160127783)
(0.0235208749211168501 0.0325923978061081615 0.00129932670949436664)
(0.0191449583871860438 0.0319244701559350808 0.00111250060132095201)
(0.0148270711180596183 0.0313958653312234048 0.000971380076852369724)
(0.0105539386346115045 0.0310006888289180577 0.00087000206391895079)
(0.006314221487936038 0.0307353560021433533 0.000804544528832881701)
(0.0021008463249075275 0.0305344424180607754 0.000771535594505251836)
(0.0886634231146106594 0.0652216187425972982 0.0156242057928476369)
(0.0829354821955226307 0.0606226132862076605 0.0128601709788946569)
(0.0772798087634152531 0.0566302777016579328 0.0105630432277888063)
(0.0717218334478277597 0.0531202332090843915 0.00866411673150296532)
(0.0662999449978619454 0.0500430119902291887 0.00709896658614705186)
(0.0610076569295512836 0.0473126529404568411 0.00581411334146920977)
(0.0558510610103134381 0.0449067073002695077 0.00476206430862474283)
(0.0508318751916863945 0.0427913078237563069 0.00390215790757208764)
(0.0459437109035622654 0.0409363810738708617 0.00320085799599827397)
(0.0411786808893524481 0.0393174788077787149 0.00263067825720393915)
(0.0365283601311452849 0.0379136899469619121 0.00216918719497794996)
(0.0319830981279692547 0.0367063346631738702 0.00179798490434841113)
(0.0275312412130506966 0.0356789178950682392 0.00150182330787895432)
(0.0231596231030597038 0.0348177564681775714 0.00126809986950394797)
(0.0188549928773361006 0.0341121290229930013 0.00108664074624766592)
(0.0146049175112940195 0.0335538625462010465 0.000949586182943677336)
(0.0103971664317656434 0.0331369854830645683 0.000851245825997115147)
(0.00622158503568611722 0.0328577704473716758 0.000787845119498520579)
(0.00206615836148524041 0.0326490419339054566 0.000755831568617753354)
(0.0970429075196056062 0.0797675137008124757 0.021769240266957153)
(0.0917060292690572015 0.073844427525895262 0.0180335886993341285)
(0.0862616872566603632 0.068506491848838405 0.0149104065943551425)
(0.0808302447660743661 0.0638560202285838596 0.0122991924058689431)
(0.075428781311100479 0.0597544654767526925 0.0101234280309882626)
(0.0700867941348466139 0.0561442823824117726 0.00832062447573802058)
(0.0648513195560281031 0.052939419077296615 0.00683145740306799996)
(0.059730045698767914 0.0501028948220218276 0.00560554867217026055)
(0.0547275420190564826 0.0476004367435224063 0.00459916202194001617)
(0.0498458922870795851 0.0453956032030384676 0.0037747853399835306)
(0.0450818791444013156 0.0434587999782158341 0.00310113968050454176)
(0.0404297699564630519 0.0417657940656865345 0.00255243880413795043)
(0.0358824845558436273 0.0402956621530081993 0.00210753869649077906)
(0.0314314334686580307 0.0390296382446977258 0.00174903734956026111)
(0.0270662118391645362 0.0379511807547945751 0.00146251219466436147)
(0.0227751279944420001 0.0370466070985479776 0.00123606899603950749)
(0.0185463330929338081 0.0363052186243587177 0.00106012069613888472)
(0.0143685566757001931 0.0357188039308517502 0.000927235840408051088)
(0.0102306689006373842 0.0352811742959080257 0.000831961411291198892)
(0.00612508292659663233 0.0349884607441402831 0.000770583638912866221)
(0.00203316212429496867 0.0347516050115978872 0.000739477908454236961)
(0.0707533546163020138 0.0339385480242119716 0.0076752455376570116)
(0.0650008976742972311 0.0319875501225735659 0.00623678455692298211)
(0.0594439406967190581 0.0303045742625855201 0.00507214486137275503)
(0.0540423910253484685 0.0288281800894572213 0.00412755733656741154)
(0.0487947162139578464 0.0275379509165404116 0.00336361966747172371)
(0.0436923597889123591 0.0264148405723575591 0.00274752062258111062)
(0.0387250286670118571 0.025442514524796643 0.00225305843354000473)
(0.0338824984834233678 0.0246065824996338257 0.00185844252037162174)
(0.0291498719455470685 0.0238947977168910697 0.00154559388260561018)
(0.024509743229482555 0.0232981524378758423 0.00130016084063972002)
(0.0199465790160647249 0.0228096551155924088 0.00111048667171170659)
(0.0154464327744511121 0.0224230538441842417 0.000966912387826331056)
(0.0109943388440187917 0.0221333856413052713 0.000862482875380318932)
(0.00657679851078581991 0.0219379012436749059 0.00079371612194167971)
(0.00218758534894105718 0.0217935212976935362 0.000758659555371192463)
(0.0755228661628351977 0.0396111303578993296 0.00917405363364358697)
(0.069723915583349283 0.0371826547628788875 0.00745864659363448639)
(0.064110417950165699 0.0351080059393789126 0.00607545930557165745)
(0.0586662663576492383 0.03328482495522362 0.00494698242014904657)
(0.0533603408065527057 0.0316805553304720031 0.00403091554324706315)
(0.0482002027251903498 0.0302770042460429323 0.00328892166790592565)
(0.0431769929896112376 0.0290535805096170212 0.00268956335570053658)
(0.0382813232266709449 0.027993845774827858 0.00220769990298823153)
(0.0335034596453977623 0.0270824940696052716 0.00182254672198344804)
(0.0288299901095170237 0.0263059861429934712 0.00151689388062127908)
(0.0242452238297791375 0.0256545947862693302 0.00127681090904049974)
(0.0197342521421715877 0.0251209592723323459 0.0010909870468599034)
(0.0152833899366991988 0.0246983111399344604 0.000950361264765796029)
(0.010878616821598467 0.0243812554902409079 0.00084850252842076754)
(0.00650767466851008732 0.0241671309225725064 0.000781923497556143328)
(0.00216465949079470196 0.0240074917339603289 0.000748211878806815224)
(0.0742579355555210707 0.0429665930636233748 0.0088813439857502105)
(0.0686225739083327207 0.0403955983330765295 0.00724282600244761064)
(0.0631531451146145201 0.0381828111845567558 0.00590510068330954777)
(0.0578182168393028273 0.0362166949201436911 0.00481463348451432061)
(0.0526172399757191198 0.0344884529599961409 0.00392843958762460581)
(0.0475521235304600595 0.032975034817759083 0.00320935918770412325)
(0.042614547511412082 0.0316544416726296449 0.0026275916480974033)
(0.0377966227162960314 0.0305092579523450202 0.00215912040827225199)
(0.0330894503148077002 0.0295238472621964405 0.0017841411474823674)
(0.0284808989181485894 0.0286845635848965615 0.00148621744806980583)
(0.023956627554013895 0.0279807288686678354 0.00125189681708778281)
(0.0195025175588676505 0.0274039050049595563 0.00107030397778023968)
(0.0151055244639356941 0.0269470041309969183 0.000932924760773521343)
(0.0107526375481403098 0.0266047268444369704 0.000833742561783065326)
(0.00643262307185129677 0.0263741979142047139 0.000769263624895909605)
(0.00213980619712402734 0.0262008442524140628 0.000736716589369321249)
(0.0729120815687183399 0.0462472360049969722 0.00858806519634637382)
(0.0674448048780501158 0.0435462329409651364 0.00701354415917375407)
(0.0621159707126986704 0.041179019226890233 0.00572643395872684483)
(0.0569040930738692677 0.0390823556931503488 0.00467622237976979705)
(0.0518166535731694466 0.0372387511916719635 0.00382086147790512698)
(0.0468531579874365625 0.0356218002291216404 0.00312557640389458848)
(0.0420074177692796175 0.0342094238934840394 0.00256215733825519449)
(0.0372730583209092622 0.03298357647118276 0.00210774771690544873)
(0.0326421476091074622 0.0319281698331813149 0.0017434971398288192)
(0.0281037475303076295 0.0310291240498531198 0.00145371315152097386)
(0.0236447648712961381 0.0302749912544614773 0.00122548715337443092)
(0.019252040625926177 0.0296566923772743386 0.00104844091941899958)
(0.014913387385856831 0.0291670028234150072 0.000914560948288143999)
(0.0106167932174295616 0.0288006374924715328 0.000818157569406989787)
(0.00635191290268033795 0.0285544345543187299 0.000755723404903337666)
(0.00211314527978981532 0.0283680287682817889 0.000724235588605105784)
(0.0877530832649039694 0.0604328422422233044 0.0150093008840057572)
(0.0823124870524674784 0.0562734153298907053 0.0123312549691004837)
(0.076872742880731551 0.0526370724356733516 0.0101147958167910629)
(0.0714836048578676164 0.0494003978235945801 0.00828228794947873104)
(0.066193841776479051 0.0465845889034727997 0.00677583562314799069)
(0.0610131209182746409 0.0440866689478094792 0.00554178920106451582)
(0.055931710611703489 0.0418744048806103802 0.00453257453390276503)
(0.0509633456716029193 0.039924932072173458 0.00370890811207905558)
(0.0461070590046285603 0.0382120574056642806 0.00303820057936838445)
(0.0413586632621506592 0.0367141360292021074 0.00249380121242930497)
(0.0367131511574138453 0.0354128215233852767 0.00205401643889940085)
(0.0321635505009607511 0.0342916533387001982 0.00170092762426878171)
(0.0277000461271734444 0.0333361041522694732 0.00141959807649132803)
(0.0233107937820413828 0.0325341823098699023 0.00119772986944935217)
(0.0189837506045307317 0.031876461996919514 0.00102547827812193978)
(0.0147077047851716415 0.031355669136069346 0.000895283630084223484)
(0.0104715807175513112 0.0309664519974064585 0.00080171942286291634)
(0.00626589244933465923 0.0307052653205585335 0.0007412745423993071)
(0.00208489585536465738 0.0305064373178653668 0.000710766411438097071)
(0.0856115087028154476 0.0638268455195703938 0.0143487920776033777)
(0.0804060033686102849 0.059540293666788438 0.0118186504511723928)
(0.075188554926114981 0.0557858064965099376 0.00971425250337420998)
(0.0699991875937229086 0.052462111467201672 0.00797016307827649005)
(0.0648858134484560367 0.0495301887731490961 0.00653290748571829644)
(0.0598499241191765702 0.0469125024658070058 0.00535231693402621334)
(0.0549052970941292934 0.0445940856966754312 0.00438466395399369525)
(0.050060872671910922 0.042546917901562134 0.00359336692215395017)
(0.0453167794182703157 0.0407452060031445393 0.00294786149664685903)
(0.0406707440376876117 0.0391676883563546116 0.00242301977599013131)
(0.0361189166047581126 0.0377958472488065661 0.00199829250082857873)
(0.0316552434021875884 0.03661291385546106 0.00165668868998362548)
(0.0272710211997220994 0.0356040181777779463 0.00138405830116735979)
(0.0229557059787356584 0.0347568634144070146 0.00116876278572480082)
(0.0186984680121144997 0.0340618667359759153 0.00100149857619292754)
(0.0144891002792970434 0.0335116975612824511 0.000875113562199817145)
(0.010317364182939024 0.0331008534782016722 0.000784405412130156129)
(0.00617478433021599691 0.032825698947958816 0.000725887640455394161)
(0.00205070344642092374 0.0326189669148859232 0.000696298799338342621)
(0.092939980073183992 0.0775262390612191654 0.0199593048831929604)
(0.0882617726469175495 0.0720796644657143437 0.0165531061249670243)
(0.0833881438388000135 0.0671276247868639181 0.0136966028993796389)
(0.0784386332865280589 0.0627741345827506625 0.011306829674731813)
(0.0734451879386704143 0.0589056445374266102 0.00931226751788970589)
(0.0684486044105036967 0.055479550022744073 0.00765614273378480842)
(0.0635028831703151053 0.0524189895440015236 0.00628758484427134091)
(0.0586233597819849489 0.0496951696186893749 0.00516039772850694287)
(0.0538215476965367701 0.0472808489541609381 0.00423451576472906772)
(0.0491059152911511865 0.0451450875075431954 0.00347589070199649016)
(0.0444791125622319705 0.0432623904268957249 0.00285590642935549827)
(0.039940550853412006 0.041611570982634398 0.00235090494295063339)
(0.035487412946101568 0.0401740396206750824 0.00194145837513604058)
(0.0311145219051495656 0.038932965547933622 0.0016115070492377084)
(0.0268142899855337916 0.0378734909550324447 0.00134771253816176216)
(0.0225775074583950755 0.0369833462690882173 0.00113911649864086332)
(0.0183945876128371218 0.0362529281753330226 0.000976943092022636338)
(0.0142563138723478949 0.0356747923651209997 0.000854409350441156113)
(0.0101533803723066075 0.0352431984124400161 0.000766520977478052736)
(0.00607975196214130889 0.0349544491667885954 0.000709854850847867419)
(0.00201817738933992262 0.0347195558805619003 0.00068111142727391512)
(0.0747616444860226825 0.0356542895710981189 0.00827060566036305969)
(0.0691887012849052574 0.0335355721573114135 0.00671585030183988706)
(0.063742081509726059 0.0316982755680719139 0.00546155012535428329)
(0.0584253667338242716 0.0300813034880702546 0.00444383343765548857)
(0.0532178947733951135 0.0286559712412377543 0.00361749421447662024)
(0.04812960972358514 0.0274050053200772595 0.00294870286994002983)
(0.0431578141199295412 0.0263116594641595938 0.00240916220906786877)
(0.0382975637422480475 0.0253618396182620706 0.00197622866300743542)
(0.0335425347935739554 0.0245430141494042964 0.00163064986204060542)
(0.028881552015471039 0.023844378308351729 0.00135636951951300473)
(0.0243004675102436035 0.0232576798445553665 0.00114080826561798474)
(0.019786101509797701 0.0227764867752616208 0.000973895759159133139)
(0.0153268062596526606 0.0223953191303507791 0.000847358156657521686)
(0.0109105771629287012 0.0221099050373964115 0.000755263040239837662)
(0.006526880584229941 0.0219176458127352293 0.000694655973244336219)
(0.00217099911785459789 0.021775117195430415 0.000663850377631636148)
(0.0736647925134870929 0.0390629671045934143 0.00802459304369626363)
(0.068220552949587232 0.0367813203585311277 0.00652806662385515581)
(0.0628973924560745495 0.034802423315267117 0.00532124807543796902)
(0.0576779986006938361 0.0330461795911999243 0.00433425460481776277)
(0.0525600090650994028 0.031496073010790146 0.00353260889808383865)
(0.0475535993230222775 0.0301341762935591478 0.0028829359544726707)
(0.042656434496827933 0.0289426171624894424 0.0023580040621092738)
(0.0378643777647357585 0.027906987390659152 0.00193605063650558362)
(0.0331714866238041611 0.0270138840771326945 0.0015987707036092748)
(0.028567745214700388 0.026251329418481479 0.0013308943233346917)
(0.0240404480612905827 0.0256104007561122685 0.00112016878417039523)
(0.0195771353393434516 0.025084442731436344 0.000956793969749610094)
(0.0151665085720443238 0.0246677518242850516 0.000833002963315483159)
(0.0107972131766930976 0.024355789426135907 0.000743299207510190237)
(0.00645948219745551624 0.0241458357836669621 0.000684691836122615013)
(0.00214871906503467849 0.0239886289156979807 0.000655067001889863545)
(0.0724802172893495855 0.0424194592475518883 0.00777063635519032597)
(0.0671808992646176772 0.0399887034301879829 0.00634137615858908557)
(0.061977374382623053 0.0378587118026573397 0.00517248368344508554)
(0.056862175582026199 0.035964793295860914 0.00421835137338666313)
(0.0518421633310470614 0.0342930305722715656 0.00344266633828651646)
(0.0469248771392189595 0.0328230792514505806 0.00281296369476382105)
(0.042108804809837766 0.0315360177393759766 0.0023034132804077281)
(0.0373909488981891899 0.0304164594597895258 0.00189317159905318458)
(0.0327660594478124886 0.0294505682019525691 0.00156480505179407581)
(0.0282251541513397625 0.0286261401015042924 0.00130374449074009647)
(0.0237567060648676415 0.0279334630990653796 0.00109815772063762097)
(0.0193490733403139242 0.0273649743321058292 0.000938618974579930434)
(0.0149915781807571126 0.0269145567916857301 0.000817820885836617736)
(0.0106736024975196582 0.026577573832818429 0.000730595546189516474)
(0.00638603495963450084 0.0263510830679833177 0.00067390728146923427)
(0.00212443063930576855 0.0261798920066294502 0.000645307086693848084)
(0.0712104665237841133 0.0456941833038012196 0.00751606347690271688)
(0.0660561214392699908 0.043111861575165035 0.00614123022193403291)
(0.0609835770494809443 0.0408396423823750923 0.0050161052760542349)
(0.0559822387070424352 0.0388190210793342705 0.00409712925181489156)
(0.0510676860023047199 0.0370337276231669024 0.0033482983925273678)
(0.0462460786076960284 0.0354619793938010935 0.00273937464113946979)
(0.0415171967619351601 0.0340846093026818675 0.00224588723003888921)