/*--------------------------------*- C++ -*----------------------------------*\
| =========                 |                                                 |
| \\      /  F ield         | OpenFOAM: The Open Source CFD Toolbox           |
|  \\    /   O peration     | Version:  2206                                  |
|   \\  /    A nd           | Website:  www.openfoam.com                      |
|    \\/     M anipulation  |                                                 |
\*---------------------------------------------------------------------------*/
FoamFile
{
    version     2.0;
    format      ascii;
    arch        "LSB;label=32;scalar=64";
    class       volVectorField;
    location    "0.0299999999999999989";
    object      faceForces;
}
// * * * * * * * * * * * * * * * * * * * * * * * * * * * * * * * * * * * * * //

dimensions      [1 1 -2 0 0 0 0];

internalField   uniform (0 0 0);

boundaryField
{
    inlet
    {
        type            calculated;
        value           nonuniform List<vector> 0();
    }
    outlet
    {
        type            calculated;
        value           uniform (0 0 0);
    }
    top
    {
        type            calculated;
        value           nonuniform List<vector> 0();
    }
    bottom
    {
        type            calculated;
        value           uniform (0 0 0);
    }
    left
    {
        type            calculated;
        value           uniform (0 0 0);
    }
    symmetry
    {
        type            symmetryPlane;
    }
    interface
    {
        type            calculated;
        value           nonuniform List<vector> 
104
(
(-0.000799834612103447491 1.08432105025466765e-08 5.88595414366632603e-09)
(-0.000754907516243632777 -2.68722907231217684e-09 5.15405622046167721e-09)
(-0.000723988281448318814 -2.52507507893304592e-09 7.44857734969959149e-09)
(-0.000693090031157419465 -4.66693053031701533e-10 8.60205187877855056e-09)
(-0.000656700853828008266 6.20289006460259933e-10 8.85324759473415443e-09)
(-0.00061482562081755952 1.4128988703195627e-09 8.87175076251893761e-09)
(-0.000568015551817761572 2.46657548600965337e-09 8.49339284302999981e-09)
(-0.000516557634263180559 3.51580215119213028e-09 7.97282730472496736e-09)
(-0.000462102605696027013 4.09164656489928407e-09 7.63900272411732821e-09)
(-0.000405946257783036581 4.51278010668554403e-09 7.38342409779380032e-09)
(-0.000348697044386624393 4.69102817767621788e-09 7.08685457607198595e-09)
(-0.000290147966022367173 4.82447503278842942e-09 6.84082179873544776e-09)
(-0.000230253664351256956 4.93138317522615507e-09 6.41748524715883443e-09)
(-0.00076378337732612041 1.20520161076762849e-10 6.4482003546665347e-09)
(-0.000722921026836434617 1.11061880834703744e-10 5.95761544775293093e-09)
(-0.00068237385871960086 2.52072372107513202e-10 7.12990182354436284e-09)
(-0.000640056521528080771 7.66269841010592396e-10 7.69434681221417273e-09)
(-0.000595712039348898575 1.39374857597569555e-09 7.89857876037923304e-09)
(-0.000549233630057945586 2.00613872378617559e-09 7.81035160012411319e-09)
(-0.000500217217821504064 2.62611776133969549e-09 7.47681348883945235e-09)
(-0.000448885327184839059 3.12397012850531553e-09 7.05387857303339092e-09)
(-0.000395642221774790566 3.46698421990331141e-09 6.63803266641855505e-09)
(-0.000340838259344196229 3.75489413717469088e-09 6.24531743744205508e-09)
(-0.000284817633041091153 3.96205553204755244e-09 5.94110062818425522e-09)
(-0.00022775700893209246 4.10265827990761733e-09 5.70205301154044164e-09)
(-0.000169972512590345473 4.15063569558445025e-09 5.4311121276401278e-09)
(-0.000712130443005850483 1.78148811777660352e-10 5.5304016381443325e-09)
(-0.000671826597279141552 4.82999994994057395e-10 5.42489009203783022e-09)
(-0.00063009851857213407 8.98048247930314053e-10 5.62989651444931656e-09)
(-0.000586598421572682061 1.31733402980020817e-09 5.79207599146721434e-09)
(-0.000541074573078992034 1.75390500956166779e-09 5.83589507127471949e-09)
(-0.000493485650137583955 2.1921198968472789e-09 5.81442421023389794e-09)
(-0.000443989875294408508 2.57798813042740448e-09 5.7248533667666197e-09)
(-0.000392890290096740643 2.89229900376600829e-09 5.54957281148058981e-09)
(-0.000340327202037440295 3.16362153991977187e-09 5.33202460971973179e-09)
(-0.000286407744431859226 3.38823480519495509e-09 5.12444099131534642e-09)
(-0.000231361198429096365 3.56939490845447255e-09 4.94495403729127153e-09)
(-0.000175357597915609068 3.69241090954042361e-09 4.77180630318735266e-09)
(-0.00011865245038617451 3.73794582022690546e-09 4.60555424148615193e-09)
(-0.000660419124360106611 3.28885459679115008e-10 4.7844047292119619e-09)
(-0.000620317408905443146 5.63623736353459859e-10 4.79754011707250491e-09)
(-0.000578621705677641188 9.30553324012158457e-10 4.76863249693450574e-09)
(-0.000535273794802578634 1.27863040496002257e-09 4.7379439744287895e-09)
(-0.00049016294018413805 1.63327357159780592e-09 4.6868196173895397e-09)
(-0.00044332038460876376 1.98435746316649062e-09 4.60360517805931064e-09)
(-0.000394810258564365769 2.30007308798061039e-09 4.49312697758107528e-09)
(-0.000344725263930579693 2.59189865564286659e-09 4.36806852630227897e-09)
(-0.000293164843619946578 2.85130211561418438e-09 4.22941727110793367e-09)
(-0.000240211955394395888 3.07861928129825704e-09 4.08628572097740811e-09)
(-0.000185976492595435927 3.27914889641614058e-09 3.95216007068003907e-09)
(-0.000130659994822797447 3.48004229914478481e-09 3.85603978988991999e-09)
(-7.46254761458307962e-05 3.65107192767509474e-09 3.78922640146353587e-09)
(-0.000620085041586720866 3.85669135093709168e-10 3.59623818922473736e-09)
(-0.000580147528088780645 5.05080264221206474e-10 3.61777669296458495e-09)
(-0.000538625283445916519 8.39546983716655203e-10 3.58131912561021768e-09)
(-0.000495524497228546322 1.16146534733409893e-09 3.53955930293283205e-09)
(-0.000450821608372700049 1.47890624874948909e-09 3.48504830076043246e-09)
(-0.000404513851272085816 1.7911896678902782e-09 3.41576999085474914e-09)
(-0.000356617745225773389 2.09131843596418977e-09 3.33372763280995675e-09)
(-0.000307151925133426003 2.37869544165609088e-09 3.24384802164466004e-09)
(-0.000256182776575616077 2.66768394954097065e-09 3.16009811880302517e-09)
(-0.000203824331222473215 2.9527135917652269e-09 3.08524404546707675e-09)
(-0.000150210289707191654 3.22758834352789436e-09 3.01772784403114185e-09)
(-9.55700104508670545e-05 3.48969479377795245e-09 2.96399062112376507e-09)
(-4.03537468997556173e-05 3.71224691812416014e-09 2.91211538429599246e-09)
(-0.000590944156616190976 3.72221125730890668e-10 2.44328948136816863e-09)
(-0.000551094973687723784 4.66279706159866757e-10 2.45733843436637042e-09)
(-0.000509705585668604054 7.7688374896377861e-10 2.43488000445186762e-09)
(-0.000466778523691877727 1.08290209551540216e-09 2.40732388404748638e-09)
(-0.00042230226842836612 1.38673530978674592e-09 2.37277995224223201e-09)
(-0.000376280536558699268 1.69083702922514407e-09 2.33335584570198258e-09)
(-0.000328735078765493832 1.99284058105406428e-09 2.28968610733255844e-09)
(-0.000279701890672688473 2.29210125384193627e-09 2.24103411752443642e-09)
(-0.000229241811218427051 2.58912054621485917e-09 2.18824182982111347e-09)
(-0.000177429611018223158 2.88709167945696611e-09 2.13482954965240425e-09)
(-0.000124371771751547995 3.18947886252112069e-09 2.0861859535176428e-09)
(-7.02690714914608913e-05 3.48309921024455315e-09 2.04529908265628539e-09)
(-1.56214822739863222e-05 3.71348726696775957e-09 1.98991870656078023e-09)
(-0.000571925605113714382 3.43544588948165415e-10 1.41835299795822656e-09)
(-0.000532114351152572821 4.45203809504114568e-10 1.4254434852389941e-09)
(-0.000490797684488640529 7.43144216222456354e-10 1.41536440755840061e-09)
(-0.000447979929759436909 1.04040784706173418e-09 1.40266823488456795e-09)
(-0.000403666028206979186 1.33686644413977305e-09 1.38577473956739621e-09)
(-0.000357870249255658201 1.63212800388670416e-09 1.36416271196236073e-09)
(-0.000310614400564875341 1.92670612359001219e-09 1.33802195246102827e-09)
(-0.000261929248981817415 2.22160545527769059e-09 1.30826590455583971e-09)
(-0.000211860731461663233 2.51811582958701542e-09 1.27570520955656222e-09)
(-0.000160477916643103153 2.81903871613612842e-09 1.24037010381662206e-09)
(-0.00010789072774679284 3.13193194691242735e-09 1.20124686091998183e-09)
(-5.4224726796651279e-05 3.43513656588147974e-09 1.15989722864755304e-09)
(1.13351668182795303e-07 3.70293451547305726e-09 1.07599092771482705e-09)
(-0.000562597455417071751 3.25655043503778123e-10 4.67762099869351468e-10)
(-0.000522804316652143827 4.32529972131366429e-10 4.70386129378055505e-10)
(-0.000481526330709937975 7.22044416618845545e-10 4.67343260440840124e-10)
(-0.00043877038839814866 1.01181667476438701e-09 4.63050212082815836e-10)
(-0.000394545764169005795 1.30163095108445557e-09 4.5723532502072855e-10)
(-0.000348868104732817695 1.59154869932851272e-09 4.49931467179573949e-10)
(-0.000301761115485813132 1.88159076686265844e-09 4.411893363256111e-10)
(-0.000253259769584571073 2.17177533295799932e-09 4.30958266713141407e-10)
(-0.000203418071371002718 2.4626732549104406e-09 4.19016693186522703e-10)
(-0.000152322125966576589 2.75456867766456457e-09 4.04759124203137301e-10)
(-0.000100109344407992143 3.05838639971749953e-09 3.87165503596754009e-10)
(-4.68367940102279521e-05 3.32150106953813519e-09 3.6684702296610268e-10)
(7.13918355996365705e-06 3.5666790966049216e-09 3.23718744039372808e-10)
)
;
    }
    procBoundary3to0
    {
        type            processor;
        value           uniform (0 0 0);
    }
    procBoundary3to1
    {
        type            processor;
        value           uniform (0 0 0);
    }
    procBoundary3to2
    {
        type            processor;
        value           uniform (0 0 0);
    }
}


// ************************************************************************* //
