/*--------------------------------*- C++ -*----------------------------------*\
| =========                 |                                                 |
| \\      /  F ield         | OpenFOAM: The Open Source CFD Toolbox           |
|  \\    /   O peration     | Version:  2206                                  |
|   \\  /    A nd           | Website:  www.openfoam.com                      |
|    \\/     M anipulation  |                                                 |
\*---------------------------------------------------------------------------*/
FoamFile
{
    version     2.0;
    format      ascii;
    arch        "LSB;label=32;scalar=64";
    class       volVectorField;
    location    "0.0299999999999999989";
    object      faceTraction;
}
// * * * * * * * * * * * * * * * * * * * * * * * * * * * * * * * * * * * * * //

dimensions      [1 -1 -2 0 0 0 0];

internalField   uniform (0 0 0);

boundaryField
{
    inlet
    {
        type            calculated;
        value           nonuniform List<vector> 0();
    }
    outlet
    {
        type            calculated;
        value           uniform (0 0 0);
    }
    top
    {
        type            calculated;
        value           nonuniform List<vector> 0();
    }
    bottom
    {
        type            calculated;
        value           uniform (0 0 0);
    }
    left
    {
        type            calculated;
        value           uniform (0 0 0);
    }
    symmetry
    {
        type            symmetryPlane;
    }
    interface
    {
        type            calculated;
        value           nonuniform List<vector> 
104
(
(-2.55947075873103325 3.46982736081493805e-05 1.88350532597322518e-05)
(-2.41570405197962534 -8.59913303139896653e-06 1.64929799054773689e-05)
(-2.31676250063462064 -8.08024025258574875e-06 2.38354475190386973e-05)
(-2.21788809970374245 -1.49341776970144487e-06 2.75265660120913601e-05)
(-2.10144273224962586 1.98492482067283139e-06 2.83303923031492874e-05)
(-1.96744198661618697 4.5212763850225925e-06 2.83896024400605506e-05)
(-1.81764976581683579 7.89304155523088566e-06 2.71788570976959812e-05)
(-1.65298442964217696 1.12505668838148115e-05 2.55130473751198805e-05)
(-1.47872833822728955 1.3093269007677736e-05 2.44448087171755005e-05)
(-1.29902802490571689 1.44408963413937376e-05 2.36269571129401561e-05)
(-1.11583054203719612 1.50112901685638703e-05 2.26779346434303145e-05)
(-0.928473491271573304 1.54383201049229459e-05 2.18906297559533946e-05)
(-0.736811725924023442 1.57804261607237191e-05 2.05359527909083001e-05)
(-2.44410680744358544 3.85664515445641127e-07 2.06342411349329095e-05)
(-2.31334728587659066 3.55398018671051982e-07 1.9064369432809379e-05)
(-2.18359634790272317 8.06631590744042385e-07 2.28156858353419662e-05)
(-2.04818086888985862 2.45206349123389546e-06 2.46219097990853532e-05)
(-1.9062785259164774 4.45999544312223041e-06 2.52754520332135722e-05)
(-1.75754761618542465 6.41964391611575719e-06 2.49931251203971459e-05)
(-1.60069509702881385 8.40357683628702954e-06 2.39258031642862604e-05)
(-1.43643304699148389 9.99670441121700259e-06 2.25724114337068333e-05)
(-1.2660551096793311 1.10943495036906075e-05 2.12417045325393967e-05)
(-1.09068242990142772 1.20156612389590084e-05 1.99850157998145707e-05)
(-0.911416425731491064 1.26785777025521586e-05 1.90115220101896024e-05)
(-0.728822428582695303 1.31285064957043665e-05 1.82465696369294004e-05)
(-0.543912040289106335 1.3282034225870262e-05 1.73795588084484354e-05)
(-2.27881741761871925 5.70076197688512533e-07 1.76972852420618465e-05)
(-2.14984511129325062 1.54559998398098201e-06 1.73596482945210369e-05)
(-2.01631525943082712 2.87375439337700247e-06 1.80156688462377969e-05)
(-1.87711494903258025 4.21546889536066076e-06 1.85346431726950641e-05)
(-1.73143863385277408 5.61249603059733552e-06 1.86748642280790993e-05)
(-1.57915408044026595 7.0147836699112805e-06 1.86061574727484414e-05)
(-1.42076760094210619 8.24956201736768804e-06 1.83195307736531702e-05)
(-1.2572489283095678 9.25535681205121074e-06 1.77586329967378559e-05)
(-1.0890470465198101 1.01235889277432808e-05 1.70624787511031604e-05)
(-0.916504782181948419 1.08423513766238427e-05 1.63982111722090878e-05)
(-0.740355834973107085 1.14220637070542923e-05 1.58238529193320422e-05)
(-0.561144313329948075 1.18157149105293349e-05 1.52697801701995031e-05)
(-0.379687841235758994 1.1961426624726116e-05 1.47377735727557093e-05)
(-2.11334119795234132 1.05243347097316795e-06 1.53100951334782782e-05)
(-1.98501570849741804 1.80359595633107143e-06 1.53521283746320151e-05)
(-1.851589458168452 2.97777063683890767e-06 1.5259623990190421e-05)
(-1.71287614336825134 4.09161729587207175e-06 1.51614207181721241e-05)
(-1.56852140858924427 5.22647542911298697e-06 1.49978227756465495e-05)
(-1.41862523074804381 6.34994388213276872e-06 1.47315365697897916e-05)
(-1.26339282740597159 7.36023388153795977e-06 1.43780063282594533e-05)
(-1.1031208445778542 8.29407569805716759e-06 1.39778192841672825e-05)
(-0.938127499583831015 9.12416676996540906e-06 1.35341352675454162e-05)
(-0.768678257262067177 9.8515817001544276e-06 1.30761143071277126e-05)
(-0.595124776305394843 1.04932764685316476e-05 1.26469122261761219e-05)
(-0.41811198343295175 1.11361353572633089e-05 1.23393273276477408e-05)
(-0.238801523666659216 1.16834301685603351e-05 1.21255244846833486e-05)
(-1.98427213307750705 1.2341412322998696e-06 1.15079622055191615e-05)
(-1.85647208988409806 1.61625684550786077e-06 1.15768854174866713e-05)
(-1.7236009070269338 2.68655034789329812e-06 1.14602212019527021e-05)
(-1.58567839113134745 3.71668911146911471e-06 1.13265897693850567e-05)
(-1.44262914679264087 4.73249999599836734e-06 1.11521545624333893e-05)
(-1.29444432407067378 5.73180693724888621e-06 1.09304639707351892e-05)
(-1.1411767847224743 6.69221899508540341e-06 1.06679284249918558e-05)
(-0.982886160426962641 7.61182541329948658e-06 1.03803136692629071e-05)
(-0.819784885041972666 8.53658863853111952e-06 1.01123139801696963e-05)
(-0.652237859911914186 9.44868349364872475e-06 9.87278094549464391e-06)
(-0.480672927063012678 1.03282826992892489e-05 9.65672910089964165e-06)
(-0.305824033442774534 1.11670233400894453e-05 9.4847699875960468e-06)
(-0.129131990079218051 1.18791901379973176e-05 9.31876922974718016e-06)
(-1.89102130117180933 1.19110760233884914e-06 7.81852634037813247e-06)
(-1.76350391580071464 1.49209505971157231e-06 7.86348298997237878e-06)
(-1.63105787413953229 2.48602799668409082e-06 7.79161601424597322e-06)
(-1.49369127581400707 3.46528670564928341e-06 7.70343642895194837e-06)
(-1.35136725897077192 4.43755299131758815e-06 7.59289584717514486e-06)
(-1.20409771698783641 5.41067849352045552e-06 7.46673870624633627e-06)
(-1.05195225204957943 6.37708985937300034e-06 7.32699554346418076e-06)
(-0.895046050152601746 7.33472401229418441e-06 7.17130917607818505e-06)
(-0.733573795898967096 8.28518574788755496e-06 7.00237385542756762e-06)
(-0.567774755258313779 9.23869337426228635e-06 6.83145455888768995e-06)
(-0.397989669604952967 1.020633236006757e-05 6.67579505125644647e-06)
(-0.224861028772674776 1.11459174727825654e-05 6.54495706450011124e-06)
(-0.0499887432767562104 1.18831592542968255e-05 6.36773986099449397e-06)
(-1.83016193636388591 1.09934268463412935e-06 4.53872959346632503e-06)
(-1.7027659236882331 1.42465219041316668e-06 4.56141915276478105e-06)
(-1.57055259036364991 2.37806149191186052e-06 4.52916610418688305e-06)
(-1.4335357752301976 3.32930511059754802e-06 4.48853835163061538e-06)
(-1.29173129026233435 4.27797262124727693e-06 4.43447916661567064e-06)
(-1.14518479761810532 5.22280961243744839e-06 4.36532067827955072e-06)
(-0.993966081807601376 6.16545959548804064e-06 4.28167024787529185e-06)
(-0.838173596741815019 7.10913745688860339e-06 4.18645089457868319e-06)
(-0.677954340677323186 8.05797065467845924e-06 4.08225667058100406e-06)
(-0.513529333257930265 9.02092389163561337e-06 3.9691843322131918e-06)
(-0.345250328789736771 1.00221822301197591e-05 3.84398995494393832e-06)
(-0.173519125749283937 1.09924370108207252e-05 3.71167113167216635e-06)
(0.000362725338184945482 1.18493904495138e-05 3.44317096868745115e-06)
(-1.80031185733462928 1.04209613921208987e-06 1.49683871958192451e-06)
(-1.67297381328686012 1.38409591082037258e-06 1.50523561400977754e-06)
(-1.54088425827180142 2.31054213318030578e-06 1.49549843341068842e-06)
(-1.40406524287407519 3.23781335924603725e-06 1.48176067866501004e-06)
(-1.2625464453408195 4.16521904347026093e-06 1.46315304006633235e-06)
(-1.1163779351450156 5.0929558378512359e-06 1.43978069497463531e-06)
(-0.965635569554602391 6.02109045396050893e-06 1.41180587624195592e-06)
(-0.810431262670626706 6.94968106546559194e-06 1.37906645348205134e-06)
(-0.650937828387209594 7.88055441571342103e-06 1.34085341819687455e-06)
(-0.487430803093045262 8.81461976852660884e-06 1.29522919745003986e-06)
(-0.320349902105574569 9.78683647909598993e-06 1.23892961150961172e-06)
(-0.149877740832729311 1.06288034225220236e-05 1.17391047349152758e-06)
(0.0228453873918837355 1.14133731091357646e-05 1.03589998092599446e-06)
)
;
    }
    procBoundary3to0
    {
        type            processor;
        value           uniform (0 0 0);
    }
    procBoundary3to1
    {
        type            processor;
        value           uniform (0 0 0);
    }
    procBoundary3to2
    {
        type            processor;
        value           uniform (0 0 0);
    }
}


// ************************************************************************* //
