/*--------------------------------*- C++ -*----------------------------------*\
| =========                 |                                                 |
| \\      /  F ield         | OpenFOAM: The Open Source CFD Toolbox           |
|  \\    /   O peration     | Version:  2206                                  |
|   \\  /    A nd           | Website:  www.openfoam.com                      |
|    \\/     M anipulation  |                                                 |
\*---------------------------------------------------------------------------*/
FoamFile
{
    version     2.0;
    format      ascii;
    arch        "LSB;label=32;scalar=64";
    class       volVectorField;
    location    "0.0899999999999999967";
    object      U;
}
// * * * * * * * * * * * * * * * * * * * * * * * * * * * * * * * * * * * * * //

dimensions      [0 1 -1 0 0 0 0];

internalField   nonuniform List<vector> 
7236
(
(0.188351702807992599 -0.0105429909631809572 -0.04718502366287812)
(0.519607654995771773 -0.0295742728921329565 0.0316547338910873055)
(0.815259117615068862 -0.0240523873041315825 0.160834208337178264)
(0.9927976196649001 -0.0192551918860655105 0.263969736760127582)
(1.14215046558482247 -0.016126157949427733 0.350209092908096653)
(1.23631158048884338 -0.013959477328359976 0.391861354033122)
(1.28873822171971852 -0.0117229452162373078 0.411305891172471072)
(1.3099024428555468 -0.0066436277335606567 0.422730976945880632)
(1.27644230906903777 0.00306213365018453846 0.432595383976053849)
(1.1726476688065588 0.022277994021941569 0.4450628250562223)
(0.999472122659314066 0.0426958228492202163 0.458755347801645619)
(0.772134322170888732 0.0569670190848124841 0.461424070624996074)
(0.541632453038560446 0.0562081517177164883 0.439318791231448458)
(0.378402918160783364 0.0426657928827365168 0.390665649090875866)
(0.282963211415155014 0.0287210694262191556 0.324649093707158831)
(0.234770869188111297 0.0184081105386317487 0.254340607998115364)
(0.208597858027269101 0.0122395758107664322 0.192626384049174426)
(0.188535690237637277 0.00906704815418983914 0.145542260448125238)
(0.170076480204773006 0.00716961436684079943 0.11155970547345033)
(0.15335917789205003 0.00579561237572433219 0.0866160634671968299)
(0.138381956066534362 0.00477623860551842829 0.0677617135423146111)
(0.124960280084913708 0.00402598331500820476 0.053288351715558159)
(0.112861828886884952 0.00346559099611153023 0.0420848518477550809)
(0.101855211037182661 0.00303551720663212867 0.0333570020646492965)
(0.0917873510639208023 0.00269969150018300758 0.0265237830649994594)
(0.0825166032480682127 0.0024341643643263763 0.0211541383003236577)
(0.0739214088773133826 0.00222161392170648966 0.0169224055574310021)
(0.0658997719751086009 0.00204964561406571592 0.0135805800088602945)
(0.058365131410504284 0.00190945528383619023 0.0109387806050199425)
(0.0512433560232920526 0.00179472778492866924 0.00885095088455207547)
(0.0444702513718016543 0.0017008416613899758 0.00720432658642732298)
(0.0379893938600494238 0.00162432539062171491 0.0059117278556444202)
(0.0317504467474273022 0.00156252279967724651 0.0049059208495185443)
(0.0257080499729342854 0.00151340233235986018 0.00413537031008389191)
(0.0198210251165864375 0.00147542249444245562 0.0035610324138272754)
(0.0140535170428661375 0.00144262702058594737 0.00315405218479224494)
(0.0083776704824630073 0.00141360034858357617 0.00289393490528553829)
(0.00277616736529873002 0.00140202086235503235 0.00276224758181434302)
(-0.0309411620969243448 -0.0292561318888927765 -0.337278246880423849)
(-0.0793210408123718874 -0.0887844534507787192 -0.148280781784758259)
(-0.0319272623496464625 -0.0848941819372965589 -0.00241490439283925662)
(0.0605633006360662141 -0.0837968488913171106 0.143302416019220114)
(0.18310692508231402 -0.0778341905716999211 0.23384452151180718)
(0.296671955374184448 -0.061459870215403653 0.278140822908544416)
(0.383119227771129389 -0.0369528527278577823 0.306742254778556545)
(0.42946372647542691 -0.00687946286759719139 0.321743032832721432)
(0.513888844377940246 0.0366793858993353789 0.338236495448058949)
(0.589141702119493793 0.0826954825801970161 0.362586797872813948)
(0.620987776176110562 0.123345011562004434 0.392112108956822691)
(0.593163788932646208 0.148294339810627063 0.4134038128187289)
(0.511173382302463897 0.144952157877548893 0.412655593771087237)
(0.410029358459181481 0.121338500110853259 0.382989452359746685)
(0.321436880472102449 0.0910198581823485897 0.328144843563722421)
(0.259634764127834927 0.0629597801066344998 0.261714789895882483)
(0.219952678398960211 0.0424206620030538051 0.199155060291974356)
(0.19342436494053436 0.0299674119000714403 0.149749180391311854)
(0.172848555630887357 0.0225986224070064065 0.113869572892495094)
(0.15538128587088143 0.0178441376543080482 0.0878769331682471566)
(0.140060511633378765 0.014565130779118713 0.0685316058501927311)
(0.126431208752734531 0.0122145809420938396 0.0538125706458784797)
(0.114199375498304875 0.0104784233619039518 0.0424646719693643065)
(0.103098844014021057 0.00916281187377247439 0.0336419867074918277)
(0.092941254817356822 0.00814315058500333401 0.0267424066492443109)
(0.0835804291355228685 0.00733883644914394475 0.0213243575715181023)
(0.074896055137562853 0.00669553113280434153 0.0170564371656555386)
(0.066787117855657871 0.0061755345722446283 0.0136870633336214007)
(0.0591676077444484028 0.00575212325212096781 0.0110239942872585352)
(0.0519636423429075192 0.00540598613330102278 0.00891953963871418287)
(0.0451110437332668812 0.00512288876529248816 0.00725979186775230299)
(0.0385532446207601381 0.00489215530995820366 0.00595678730103964098)
(0.0322397162754273492 0.0047057245167457934 0.00494272197172823842)
(0.0261249707805274491 0.00455754696902800627 0.0041656128946907546)
(0.0201677930862488412 0.00444313657768137006 0.00358608685586579712)
(0.0143316082982261304 0.00435906954427386743 0.00317504346200795035)
(0.00856677689294407449 0.00430153822104160661 0.00291189492386287069)
(0.0028401473574182377 0.00425620060907004778 0.00277803552481889395)
(-0.0393343144442071802 -0.00887971123466434198 -0.475364473102728502)
(-0.144066779785854887 -0.078159456608906136 -0.173404113411508826)
(-0.118250134467121307 -0.0890454230092241339 -0.0286072555967160913)
(-0.0676751782497186649 -0.0944898898343200094 0.0918493649743888363)
(-0.0225578763643859009 -0.0890359987985612639 0.168289727636769193)
(0.00644697207266095584 -0.0638020338326188985 0.210343887901983662)
(0.0216879528979720404 -0.0339218146070946192 0.231002252267649921)
(0.0398420557257247177 -0.00761284966269087926 0.250895273558273346)
(0.0555790402121076887 0.0255386970479068443 0.27648819392377777)
(0.0940325023344504851 0.0729208100071546406 0.31104943160488524)
(0.163016436603694859 0.125113752416608853 0.337757423290348191)
(0.227352973498897881 0.163844714981590756 0.354716590003261278)
(0.263654668755411103 0.178654016741168764 0.352325161973296941)
(0.264446576026656499 0.164697920023654937 0.32832691016334159)
(0.245993961295245173 0.13440012139562954 0.286296818891452587)
(0.223711937125788962 0.0998101439431511861 0.234625804359881285)
(0.203256461689072909 0.0705245525998913769 0.183906546147566852)
(0.184721315038798711 0.050382455294286102 0.14165268107405532)
(0.167668246364248763 0.0377167069994246706 0.109405511261972621)
(0.152060216919224139 0.0296294358670635832 0.0852263077103911498)
(0.137838448411879311 0.0241679247575759815 0.0668601215450959074)
(0.12488715205624229 0.02028563237600986 0.052714167838079598)
(0.113068457300398134 0.0174207819289106079 0.0417212114087860825)
(0.102241788204581685 0.0152479918707344661 0.03312743891025903)
(0.0922764494196181284 0.0135631661809173069 0.0263799419295430854)
(0.0830545558720239135 0.0122323953885944518 0.0210650364404588869)
(0.0744730721446857924 0.0111664508782274383 0.0168683447111840253)
(0.0664419982333747661 0.0103040050107175984 0.0135490022700285734)
(0.0588825001498153658 0.00960137293198356535 0.0109215817280654184)
(0.0517255200580985924 0.00902674883381920749 0.00884280752048577715)
(0.0449101965045039728 0.00855655676534001694 0.00720172429081853555)
(0.0383823311528478928 0.00817309025388965674 0.00591239541994626177)
(0.0320931793156102596 0.00786303034406273665 0.00490841589780984661)
(0.0259986414866292571 0.00761644032942712136 0.00413876705142438277)
(0.0200587049773467696 0.00742602724893438003 0.00356474366694398571)
(0.0142371566230292262 0.0072868889767069454 0.00315770023167248615)
(0.00850206779304095266 0.00719378245742601646 0.00289739071202134999)
(0.00282360925916520051 0.00712907238610931138 0.00276523672435116837)
(-0.0509999548862833385 -0.0139860172610231578 -0.49897593820709607)
(-0.20939150429816511 -0.0781296633269663865 -0.147151449122066014)
(-0.201417305472046893 -0.0857197881722447375 -0.00846625776451470635)
(-0.177489886978801276 -0.0747126968928944479 0.0811946704199549008)
(-0.142728633278651929 -0.0535694751606103636 0.149015426359269065)
(-0.121736632131833319 -0.0299897689809646498 0.186177869380526884)
(-0.107665851494886278 -0.00396614374100665024 0.209864437712694307)
(-0.0875207658791741783 0.020837098880827562 0.229300690907172283)
(-0.0657684423689498671 0.0495750714001168755 0.2530718690979189)
(-0.0330048207325792237 0.086168745523695453 0.282166196459967766)
(0.0134264589067364798 0.127373620777420732 0.302959440639473443)
(0.0713839145816235338 0.163393440332946033 0.311600369998867088)
(0.126788580555195235 0.180782318387710417 0.30371009843363278)
(0.165399143842742263 0.175221512962771053 0.281117980633996511)
(0.185181021579760796 0.150902666497149507 0.247552629505170291)
(0.190252450188905325 0.118615021498524237 0.207850560457532751)
(0.185438150972638355 0.0885210980712702461 0.167999622815265676)
(0.174773712531046732 0.0658815766039190093 0.132943746776684968)
(0.161645913602094626 0.0505465220025886203 0.104574798299763183)
(0.148139129876383058 0.0402716563633136321 0.082363041261193759)
(0.135148626151477297 0.0331363562067922626 0.0650523555871784231)
(0.122968133605624474 0.0279778597509894103 0.0515222139716753486)
(0.111654522074216916 0.0241264442058496884 0.0409114836248699182)
(0.101173352467389108 0.0211786433433827845 0.0325649700630079586)
(0.0914526764126683406 0.0188782675671128539 0.025982204991371112)
(0.0824089907407095923 0.0170525168531588875 0.020779576619400577)
(0.0739609758177144916 0.0155849006133899175 0.0166607776475935325)
(0.0660322015121559414 0.0143943780580569683 0.0133963231740467231)
(0.0585526218017244082 0.0134224180258620089 0.010808081554692121)
(0.0514591974222727844 0.0126260922550474747 0.00875754553240292236)
(0.044695288440971731 0.0119734886064021932 0.00713696491371024026)
(0.0382097536597970355 0.0114405897898974557 0.00586259663428196492)
(0.0319561469985585392 0.0110092635221683902 0.00486954490828702888)
(0.0258921218206340231 0.0106658841900988972 0.00410783842456330199)
(0.0199790331395806944 0.0104003031387271318 0.00353950112817856891)
(0.0141813653629807683 0.0102051234489914898 0.00313637623368634693)
(0.00846827016387222999 0.0100738236602662592 0.00287854304932967913)
(0.00281452052953916169 0.00998772011556531975 0.00274769712182751022)
(-0.0682193333402942859 -0.0328322132636396646 -0.496790356336456462)
(-0.24900251988205041 -0.0714545966022364781 -0.128972506111602714)
(-0.241865479455899174 -0.0767416140712932071 0.00519192357969142093)
(-0.214252749886640226 -0.0637552283340251102 0.0874041829312592056)
(-0.186805474861983428 -0.0423669734041824883 0.14395333071280661)
(-0.158217235968347497 -0.0118919718715221612 0.185686124731270219)
(-0.131198050823378431 0.0154507134319355893 0.208756398685641609)
(-0.105638852359499963 0.0405365642406607732 0.225460877576865448)
(-0.0796334343381314425 0.0688258365219413248 0.243601137291551445)
(-0.0500067812848938309 0.102229069780684134 0.26204289492212246)
(-0.0140711000012476162 0.135898776291521306 0.276083542713193131)
(0.0332431388317281917 0.163933226868820614 0.279010186050160702)
(0.0823171703432935276 0.177713345922490773 0.268240633799982253)
(0.124498720785909803 0.173755505662877313 0.246916758872507552)
(0.153637249180587382 0.154118355551068675 0.218550516217698221)
(0.168300356396214629 0.126607125136938892 0.186366028676980433)
(0.170740952606369095 0.0994202082080981875 0.153873323237246618)
(0.165000035646069687 0.0773898874506874779 0.124293144939604069)
(0.155059449757937229 0.061261052495761012 0.0993088251967199354)
(0.143578233025172641 0.0497523601606186944 0.0790484978257144366)
(0.131895204165504237 0.0414209708290971326 0.0628863474242590398)
(0.120583161627142083 0.0352413559598556067 0.0500642258393075926)
(0.109863534751875047 0.0305498000471272346 0.0399072237327308815)
(0.0998010518131864088 0.0269160351085901001 0.0318602968594985381)
(0.0903831912034946255 0.0240567566536856944 0.0254800030766448513)
(0.0815635359025331796 0.0217729744383932562 0.0204170190463584256)
(0.0732855937068711827 0.0199288145798089122 0.0163959584259665003)
(0.0654885815499290369 0.0184277560546763711 0.0132008425370582251)
(0.0581128505181807628 0.0171988337261547893 0.0106623634143879521)
(0.0511027190921497926 0.0161896190292737316 0.008647855804285072)
(0.0444067847230961016 0.0153609892990095448 0.0070535277833478436)
(0.0379777085152581267 0.0146833767899811861 0.0057983618732585342)
(0.0317718964081668553 0.0141343264389559367 0.00481935685247621148)
(0.0257491741455133753 0.0136968281326409584 0.00406786990895431112)
(0.0198725535909668981 0.0133580868808461806 0.00350685132334944364)
(0.0141075409117367313 0.0131085817914396389 0.0031087663679109671)
(0.00842381659716500038 0.0129406372852901123 0.00285409934426093109)
(0.00279934498055655397 0.0128272115158970003 0.00272480232711026478)
(-0.0825489382220202517 -0.0508209168640204254 -0.490322151369346537)
(-0.266346767667534179 -0.0670161686408798501 -0.113828021859776626)
(-0.249762938632793613 -0.0665793573904165936 0.0191221595970588187)
(-0.223369302439951622 -0.0495282265779538877 0.0946680580722544102)
(-0.194758665485444959 -0.0231691564882559597 0.151917563269764161)
(-0.163727502210632814 0.00633041566035702497 0.189244646199938554)
(-0.132724028133675148 0.0331199668871004285 0.210266493935847704)
(-0.104071412991350531 0.0582993558606642037 0.22378425481446737)
(-0.0764834025829359276 0.0855663183226913066 0.236212234908646762)
(-0.0460181583859779059 0.11540010082424558 0.247438987953437356)
(-0.0100089280331010777 0.14381551707718665 0.254700952110719359)
(0.0312009037734214956 0.165397706823188856 0.252757006800538031)
(0.0729756209447293136 0.17494523042379001 0.24055753912958186)
(0.110131399827351678 0.170350996197172172 0.220701836035241405)
(0.137779306869156931 0.153701829123891714 0.19598033860103925)
(0.153648975935032239 0.130493802493454297 0.168747194746367596)
(0.158637050041905259 0.106707017102114748 0.141307598129784245)
(0.155716960622371142 0.0862376881879991786 0.115857863165478303)
(0.148204923383917969 0.0702141626288931009 0.0937646103089292138)
(0.138553039157024271 0.0581098682713306891 0.0753774603509105023)
(0.128175069254270996 0.0489843042808226561 0.0604125441163540361)
(0.117784978071535346 0.0420294066226726756 0.0483663019352812973)
(0.107722440255382218 0.0366500024827120796 0.0387220678542615909)
(0.0981373689917013209 0.0324271961061109518 0.0310207233128385815)
(0.0890724916879652995 0.0290728257420660857 0.0248773344951033204)
(0.0805183001645147778 0.0263735933549663001 0.019979579690643838)
(0.0724447609445566798 0.0241824456068499907 0.0160750727934093618)
(0.0648077354862631738 0.0223917164642882804 0.0129631805272581307)
(0.0575591342009081283 0.0209206733260323442 0.0104847464152944513)
(0.0506517685864781644 0.0197092641799713787 0.00851389276034253059)
(0.0440403393145179997 0.0187124245983112635 0.00695147425758540008)
(0.0376819451469151273 0.01789586982680803 0.00571970341751637003)
(0.0315363263996382426 0.0172333739853494997 0.00475784459628859988)
(0.0255658673030112332 0.0167049148271855401 0.00401885309880896033)
(0.0197355606571183347 0.0162953272189273607 0.00346679397210800794)
(0.0140123303654898761 0.0159933003900951873 0.00307488237747484405)
(0.00836715311095984418 0.0157902867384946827 0.00282409074102716933)
(0.00278034547036064197 0.0156509942768620555 0.00269669258008885249)
(-0.0862380847527645239 -0.0640737879999746934 -0.469254126044312825)
(-0.272816644185050527 -0.0636373710430505196 -0.098822618197934517)
(-0.249612823938927142 -0.0544962465494070111 0.0340401297999186059)
(-0.226939939490249903 -0.034160700986417547 0.108933196535365109)
(-0.19489887400627498 -0.00726591379023493883 0.160907976443840001)
(-0.158638236507064989 0.0219125368790294567 0.193420888669555507)
(-0.123857964114535438 0.0483238497926473873 0.21135121173736407)
(-0.0934951263011461475 0.0731148134584690412 0.221910484545989162)
(-0.0649864616336033318 0.0986904701106793569 0.2295086061546808)
(-0.034468423920355179 0.124971559759971249 0.234995169487688144)
(-0.000481820667020974036 0.148805921835374444 0.236398357045301044)
(0.0361039503935399325 0.165678651217387563 0.230716792609183569)
(0.0721202485793134423 0.17208616221786438 0.217717852222134134)
(0.103832534791545819 0.167058900936711663 0.199225147578655865)
(0.127879934101877285 0.152614400373042969 0.17727877165051531)
(0.142536959221394199 0.132801977610889299 0.15363490496591703)
(0.148234723383880856 0.111972974508614237 0.129938834396388314)
(0.1470075611787382 0.093192066989773642 0.107753754484459702)
(0.14134498373641538 0.0776898875442090103 0.088146532510626277)
(0.133280371237594619 0.0654149864102877288 0.0715059055526586218)
(0.124135652982131556 0.0558202024527734014 0.0577292954440444331)
(0.114669588503352349 0.0483140392729371343 0.0464876890359749093)
(0.105293673720998432 0.0423960287365048732 0.0373918068325092834)
(0.0962235656513942966 0.0376849350486527651 0.0300682641699986375)
(0.087548323010689294 0.0339035613984761883 0.0241880533044691107)
(0.0792923765704769273 0.0308352592286447562 0.01947612856240458)
(0.0714520053120336479 0.0283301584118989674 0.0157038785813452923)
(0.0639993407989857682 0.0262734073074522394 0.0126871692098783333)
(0.0568984701158292208 0.0245772464056692834 0.0102778330762598631)
(0.0501114856087390773 0.0231760420081372938 0.00835744641691003876)
(0.043599780785247802 0.0220201596388073864 0.00683204943510132105)
(0.0373253426292518287 0.0210714790089580155 0.00562750179966942359)
(0.0312516137919902487 0.0203005987066977658 0.0046856451055275793)
(0.0253438544818628923 0.01968492196747312 0.00396126053562646796)
(0.0195693329216331223 0.0192072440640553878 0.003419688969563189)
(0.0138967383813441894 0.0188547263258292165 0.0030350067344264587)
(0.00829871827249264657 0.0186180151314247894 0.00278875027009280359)
(0.00275763058527867064 0.0184527532105862035 0.00266358059045916206)
(-0.0896105798261498804 -0.0739816804508027781 -0.436877246651262541)
(-0.273539481289645225 -0.0582745130347692084 -0.0816387890381516101)
(-0.248999915110321629 -0.0437096700440916669 0.051635680973268927)
(-0.22161537962898048 -0.0208387279823606109 0.123286809410419113)
(-0.184429842709384839 0.00688897451443933051 0.168874483665534508)
(-0.146897572699561108 0.03521078657803247 0.196416316101703181)
(-0.111678384350218915 0.0610601419763282804 0.211157738222854663)
(-0.0806521924490174319 0.0851445193753164048 0.218620173291486197)
(-0.0519724014399489745 0.108884464042583493 0.222245894899272767)
(-0.0226578122767745332 0.131919215150921643 0.223030496636177578)
(0.00860128726140882427 0.15173124358293652 0.219993622293328139)
(0.041021011910482616 0.16492880522633091 0.211693233982304774)
(0.0722374049199871748 0.169158299790256567 0.198255524249420445)
(0.099394346363628483 0.164068466195008034 0.180938504713560822)
(0.120124995487008987 0.151416932223353923 0.161195898553940287)
(0.133250467570588227 0.134276621351390429 0.140337663981265126)
(0.139039780738796304 0.115900106081857607 0.119580034706620958)
(0.138893663192227235 0.0987204800622673434 0.100061808710626504)
(0.134644342341233375 0.0839372114750212561 0.0826006383716797465)
(0.127922892020375295 0.0717718655476266287 0.0675566426033743922)
(0.119902225220411676 0.0619582180051161807 0.0549214435893482511)
(0.111325814133562601 0.0540921439729643572 0.0444833130794314996)
(0.102638977147375465 0.0477735662190730409 0.0359515993297666037)
(0.094102612289451229 0.0426639053792491202 0.0290248782860720832)
(0.0858401004994981537 0.0385241781272415845 0.0234263742384267643)
(0.0779064424076487683 0.0351371336703460851 0.0189160210524241187)
(0.070322274782899763 0.0323550665791947564 0.0152885577991464239)
(0.0630741960889952685 0.0300590251744043482 0.0123769828099624252)
(0.0561387174143366113 0.0281572014052903705 0.0100444788603368026)
(0.0494876713301813237 0.0265805826398793701 0.00818048365781592381)
(0.0430894338742362909 0.0252763385937768911 0.00669662306346163229)
(0.03691112712773853 0.0242034623305082824 0.00552272822176004367)
(0.0309201550785294446 0.0233301132264384474 0.00460346226559017746)
(0.0250849098554174824 0.0226316348013925334 0.00389561617962242519)
(0.0193751731459686945 0.0220891224905875212 0.00336594045909147533)
(0.0137616612357192719 0.0216884547914718145 0.00298946532868943349)
(0.00821890034628863959 0.0214195388299363645 0.00274835522635227467)
(0.00273121595105870743 0.0212286956455136032 0.00262571781979472436)
(-0.0929608824531800021 -0.0790270096907774305 -0.39744536007943021)
(-0.267930540137298723 -0.0556482906527391713 -0.0573505875602364212)
(-0.242515401375786394 -0.0338064217155258223 0.0711118403985366437)
(-0.210265567398808362 -0.00822399200372719158 0.136728037799359325)
(-0.17175312134525425 0.0193670320203754992 0.175993503661096756)
(-0.134154318924256222 0.0468487564020014929 0.198713683732655744)
(-0.0996531785808841414 0.0720169421961552592 0.209684616846777555)
(-0.0687501356244618611 0.0952075925989618044 0.213897573621786796)
(-0.0403061992784376627 0.117145619154606404 0.21405689121185989)
(-0.0123099663408674093 0.137206966787310647 0.21115023361871027)
(0.0162432191672525206 0.153569941103476687 0.204957391256436749)
(0.0449298495403348333 0.163837175842023119 0.194915053273080674)
(0.072036163336348269 0.166473413958423078 0.181305841643580656)
(0.0954377610447646463 0.161455317847917085 0.165019042968723995)
(0.113420913691151676 0.150252158505902206 0.147088813840972221)
(0.125149758322501553 0.135228796486308173 0.128486588123519402)
(0.130801288073119804 0.118876889141656589 0.110118505337959402)
(0.13136228237571379 0.103154361907593778 0.0928218930180575996)
(0.128192752948945943 0.0891715480338977767 0.0772183655892165755)
(0.12259140817108867 0.0772944468284848529 0.0636175631728232716)
(0.115572209709006501 0.0674477117828166939 0.0520564847878210862)
(0.107829688443885921 0.059378662446985267 0.0424006524011635508)
(0.0998106899970986894 0.052771860315454111 0.0344328265856471277)
(0.091811174284195024 0.0473646472679628422 0.0279156288396928756)
(0.0839780350475209658 0.0429338524245464967 0.0226067618155780595)
(0.0763836019753361406 0.0392767295484837409 0.0183082369480868472)
(0.0690726004386736231 0.0362526762961118132 0.0148351904423573815)
(0.0620446868542543981 0.0337429734974906276 0.0120368183387407259)
(0.0552890020462148968 0.0316551245971737963 0.00978758479374000623)
(0.0487870975952763991 0.0299181193503274892 0.00798501910920514785)
(0.0425143003357216775 0.0284766798627121981 0.00654661303796138724)
(0.0364430027651588412 0.0272876548288793555 0.00540640463855263792)
(0.0305447158171501601 0.0263174591446691426 0.00451205414116291094)
(0.0247910805710449961 0.0255399996310958048 0.00382249803934656043)
(0.0191545552861612754 0.0249352296332842373 0.00330599938349249948)
(0.0136080944424540832 0.0244881965035010293 0.00293861848542575042)
(0.008128248606312935 0.0241882818660331331 0.00270320521885457051)
(0.00270123076013410908 0.0239723480656421281 0.00258338950920623985)
(-0.0924839933589803459 -0.0778236026332259356 -0.352450855357332449)
(-0.258701590918203161 -0.0491327739024305793 -0.0299790822247229805)
(-0.23288197018706655 -0.0231147370148122103 0.089583950275263044)
(-0.197426218023849021 0.00356891583227465781 0.148799087138891506)
(-0.158562589242756846 0.0311084647950467322 0.182050149239686904)
(-0.122108879146517205 0.0578780805211603216 0.199690219244459122)
(-0.0880483873647072979 0.0819357529041019883 0.207004393546658477)
(-0.0576304953707748521 0.103916743563895242 0.208024681216252949)
(-0.0299542048055030097 0.123927317871448922 0.205119152411100181)
(-0.00354359216033271751 0.141334817101991361 0.199396067540875632)
(0.0224733497367777674 0.15481223532784022 0.191012813119948222)
(0.0478883375186218846 0.162731917626560196 0.17987383151822911)
(0.0714991308833504702 0.164145502238999819 0.166308138253468296)
(0.0917770611152198545 0.15922011312241896 0.150959540434487449)
(0.107472128376054854 0.149168805024795126 0.134566797207347988)
(0.117964855245165326 0.135833005013563685 0.117844205445297473)
(0.123365245493605002 0.121158866866986806 0.101464233937608769)
(0.124381181146863737 0.106738863495135283 0.0860442408172345796)
(0.122034850084180455 0.0935729497651246467 0.0720544903660539082)
(0.117359679756737098 0.0820928684919878665 0.0597504205438438019)
(0.111219872604745432 0.0723472922988620953 0.0491869500731377807)
(0.104239417302638554 0.0641976731472048562 0.0402791399221877483)
(-0.0916068468250183093 -0.0729976387459636417 -0.299203603402846019)
(-0.249004506616128052 -0.040692614424423415 -0.000880476520279754871)
(-0.221323969880534044 -0.0123992497132409188 0.108050957013991714)
(-0.184195336007938415 0.0152851193004664432 0.159400509926423545)
(-0.146361092091855105 0.0426723117251348733 0.186506220171970355)
(-0.109802289422206517 0.0681082147951637129 0.19926190013334627)
(-0.0766286882481574394 0.0909775487646881792 0.203148305979916538)
(-0.047231432641534267 0.111514503915338944 0.201206093724881574)
(-0.0208131115725712357 0.129580314161473642 0.195733610191008461)
(0.00384379481601138107 0.144625367523474602 0.187882574665660773)
(0.0274981511434028991 0.155680368930557922 0.178008845779152519)
(0.0500631115574558319 0.161702343126280929 0.166239005195749801)
(0.070718345265547683 0.162157094155585713 0.152885969530348109)
(0.0883816402752543584 0.157313844525358987 0.138417780746027896)
(0.102141588784333145 0.148176592448291067 0.123361566743809922)
(0.111531437918479678 0.136198380308238498 0.108236880387405379)
(0.116615927231231417 0.122924042707768105 0.0935388114646250324)
(0.117909698341361335 0.109658774378263879 0.0797218899277659099)
(0.116188890571022455 0.0972896772405037191 0.0671399506987108985)
(0.112275799112388344 0.086266472461065502 0.0559976674820750545)
(0.106899420935681277 0.0767182129870791901 0.0463525992041714241)
(0.100613780378696144 0.068585093297624522 0.0381523226297962453)
(-0.0903241225126847763 -0.0623623357616057 -0.240490404627775212)
(-0.238488002041111147 -0.02966747290800055 0.0313054215410683012)
(-0.208271077107380381 -0.00115881768109929451 0.126619573910635996)
(-0.171748587160123534 0.0266463341401681625 0.168627191303348911)
(-0.133387404790875325 0.0531457391414655658 0.189348618614393227)
(-0.0977309763494556838 0.0773410530253526018 0.197767466306633694)
(-0.0657410706663050237 0.0990819502895723542 0.198267389038888214)
(-0.037709512279740752 0.11812269349914653 0.19367860143809823)
(-0.0127960673495013666 0.134316019885771659 0.186117007197150686)
(0.0100566641083886521 0.147259672762064781 0.176695612550761161)
(0.0315189969343221896 0.156300150451201741 0.165849980413496356)
(0.0515997536590904193 0.160778709464899555 0.153788190901144262)
(0.0697503757132505731 0.160462911028380922 0.140774619393474715)
(0.0852111875798169244 0.155682778926708287 0.127145461999943088)
(0.0973186786188119934 0.147275178959455549 0.113272487329269894)
(0.105721543980600491 0.136400553466915042 0.0995278551540657724)
(0.110457014251780741 0.124302118151207827 0.0862720672020422241)
(0.111903985961820884 0.112055956924269048 0.0738379658269314731)
(0.110656361040189791 0.100442399920374112 0.0624897485854669643)
(0.107369781634154365 0.0899045684581305932 0.0523872942522110863)
(0.102653877381327058 0.0805972519773739543 0.0435833677116352555)
(0.096996049937270859 0.0725536878963492504 0.0360433609439730074)
(-0.0840016735016290705 -0.0440259204640212828 -0.179618444852110065)
(-0.22634100329095827 -0.0147889781444422025 0.065193902953654459)
(-0.195406309702910147 0.0109669406000643954 0.144669734115243143)
(-0.158436614829702505 0.0374273392494965176 0.176835417502210351)
(-0.120711815049834706 0.0626182387441822641 0.191183383463740197)
(-0.0861629413228986035 0.0858348346550037722 0.195213693108428316)
(-0.0555861455904231444 0.106358593007337382 0.19249773654492891)
(-0.0290822732906603487 0.123894441876491374 0.185621807832662161)
(-0.0057725259123822259 0.13831870023574358 0.176417793376077381)
(0.0152997514832715342 0.14940802784853055 0.165888756351983191)
(0.0347315975417647055 0.156711433365543606 0.154464167675434277)
(0.052615869412287665 0.159928069302106374 0.142358480401498233)
(0.0686259724170035224 0.159008955938759355 0.129776841984683006)
(0.08222099007996575 0.154282975342002859 0.11695263382048629)
(0.092910017506951062 0.146460560184908217 0.10414183349328382)
(0.100430998968222801 0.136491000589258338 0.0916050753358732817)
(0.104806605045488568 0.12538676415389069 0.079600767233260164)
(0.1063196812224044 0.11403681767536894 0.0683700889477674989)
(0.105429329013131595 0.103129862109945472 0.0581081335787309861)
(0.102648177102066626 0.0930624529877331769 0.0489368777322804344)
(0.0984995404098532312 0.0840604882204866455 0.0408993997647621038)
(0.09340956322684206 0.0761551005828803723 0.0339738711789825676)
(0.0196893998306119436 0.1512090671092709 0.155499785707735427)
(0.0372423652953686318 0.157010302699759408 0.143794875466736111)