/*--------------------------------*- C++ -*----------------------------------*\
| =========                 |                                                 |
| \\      /  F ield         | OpenFOAM: The Open Source CFD Toolbox           |
|  \\    /   O peration     | Version:  2206                                  |
|   \\  /    A nd           | Website:  www.openfoam.com                      |
|    \\/     M anipulation  |                                                 |
\*---------------------------------------------------------------------------*/
FoamFile
{
    version     2.0;
    format      ascii;
    arch        "LSB;label=32;scalar=64";
    class       surfaceScalarField;
    location    "0.330000000000000071";
    object      alphaPhi0.water;
}
// * * * * * * * * * * * * * * * * * * * * * * * * * * * * * * * * * * * * * //

dimensions      [0 3 -1 0 0 0 0];

oriented        oriented;

internalField   nonuniform List<scalar> 
20536
(
9.91041560064196206e-05
2.7847698806384865e-05
-4.46481746794876071e-05
2.21305131941156076e-05
0.000455298471641821874
-0.000505467344434692902
0.000546320162989677514
0.000198593517033318476
3.26996255162126384e-05
3.03097853567114066e-06
-4.34704497773960127e-06
-9.84661218775106723e-07
0.000271852339086465285
-0.000333189993533879257
0.000335339121880043854
0.000179624812898643039
-2.87593265260922605e-08
-2.51441340499315094e-07
1.62327410560938576e-08
1.80023793353799986e-07
-3.21853602946271728e-07
1.00226381880551317e-08
-2.1442910021201946e-08
1.38895445493495749e-08
1.6055699602936442e-07
-2.43417111563395277e-07
-1.35287381416859586e-06
6.4489314942269611e-07
5.11837822933588043e-06
-4.43060707651589646e-07
-4.18283198624160152e-06
3.04448618794188476e-06
1.2328180172895122e-05
-0.000170707181777902061
0.000195853082777903086
0.000184678649480787344
-3.33307878428723863e-07
-2.45776191227711224e-07
7.74556592192743136e-08
-1.61365709872826444e-07
-2.99496846790126464e-07
1.1738235789656528e-08
8.22989983479154287e-08
-2.99186498090528416e-07
-1.36762586498463827e-09
-1.13335756515924954e-07
7.30369162632509914e-08
-5.17222479717538565e-07
1.86778417979786102e-07
-4.02593094298212515e-07
1.72813101966089168e-07
-6.5035369610793276e-07
-7.45072749038544797e-08
-2.18410320908612554e-05
8.54669038602812182e-06
3.35245690294021833e-05
-6.41322761504069556e-08
-1.16053012356058857e-08
6.2024783459216247e-08
-9.07514687343685326e-08
-9.37476495188872325e-08
-5.85718309021685341e-09
2.20579423845257366e-08
-9.03738174158930947e-08
-2.62679809434095719e-07
-4.62680443829606571e-08
3.15982235969388903e-08
-1.59964909147916071e-07
1.80827510567200432e-08
-6.04127025060144427e-08
2.11025569000268997e-08
-3.85977847376317248e-07
-1.20587566128524718e-08
-1.41158515742656691e-07
3.31356674545095865e-09
2.25062166164813607e-07
-6.58738388868974654e-09
-1.05738398259837559e-09
2.93095092143160031e-09
-8.88088138282373569e-09
-5.86808777912394065e-09
-3.34193286992179216e-09
2.68830353506015717e-09
-3.81285907683513174e-09
2.52680011063820321e-09
-1.06218472085203855e-08
5.43873281584492625e-10
-1.72958362708376124e-08
7.98872040261674432e-09
-9.01996782156652957e-09
2.21966259726227967e-09
-2.93568304946224426e-08
-2.66209706915613238e-09
-2.37689911088767578e-08
8.38282242409593932e-09
8.00850428202847442e-08
-2.61632084665424403e-10
-2.88237748373405094e-10
1.97385061990708806e-10
-4.60131965020920802e-10
-2.99783137173301538e-12
-1.09260104352442635e-09
7.33740669211048654e-10
-8.48802468130987109e-10
2.06590066079010815e-09
-3.12331955077680385e-09
2.15465161695603199e-09
-2.16798850772106557e-09
7.86827450521279911e-09
-4.08100506350383458e-09
2.38392086017980495e-09
-2.64478771049796093e-09
-1.34565549264246583e-08
-3.95158025868331669e-09
6.64408799521663263e-09
3.83165516553597582e-08
3.33871799842493481e-12
-9.05932669883389502e-11
4.40799357043370853e-11
-3.23818176293124032e-11
2.42083895926321297e-10
-4.4075939386663748e-10
3.91167954131574243e-10
-2.68142473445584092e-10
2.35159638515904569e-09
-1.89373485438604758e-09
1.09468430112834582e-09
-8.47842238270603558e-10
1.22603686331930212e-08
-7.65414306549775687e-09
4.05499567974597319e-09
-1.93584978648612868e-09
-1.37054544701910083e-08
-3.90824191522573272e-09
8.43390197410330252e-09
9.20470062355316315e-08
7.83270008647450969e-12
-2.51593272949557973e-11
2.52740316398503707e-11
-1.42317517117557749e-11
2.59733493429147051e-10
-1.93981754720571769e-10
1.18991632427237681e-10
-1.44285409312438686e-10
3.54813266727032914e-09
-1.34728967227286256e-09
7.72833485301302422e-10
-1.09669538202790239e-09
1.74696019008180857e-08
-1.0220626177596537e-08
3.43355799564561255e-09
-4.66827415717147861e-09
-1.37878036848220193e-08
4.80209131377374825e-10
-2.61454422954704828e-09
4.78572797919503973e-08
2.21655036959901839e-12
-6.16077001190949262e-12
3.0332350114975448e-12
-4.57985927511972856e-12
7.5078757590045173e-11
-7.16702887136441875e-11
3.27199545078847574e-11
-6.3328213207120686e-11
8.50957283767065613e-10
-6.1745118487485727e-10
3.10109791107876415e-10
-4.18088809324632335e-10
5.18352053643150296e-09
-2.07299152220257191e-09
1.446218225612275e-09
-2.0875327991736538e-09
-7.8782528461136125e-09
7.28734421578635805e-10
-2.26495409496907943e-09
2.09361314941744219e-08
8.25105773888551848e-14
-1.8357461536981952e-12
6.86933608666555495e-13
-1.35680916370401558e-12
7.55742402577962845e-12
-1.95066882725470292e-11
1.01910140022368576e-11
-1.34800488215829361e-11
6.32985398857015152e-11
-1.17950419639875754e-10
7.74283964581386247e-11
-9.02468981678732595e-11
3.72341767318027806e-10
-7.06420992103970276e-10
1.79262699621902092e-10
-3.66172179082768039e-10
-8.01935782277975215e-09
1.17455511143858047e-09
-1.11602334991536109e-09
1.27819773301724825e-08
-2.10393557650682423e-14
-1.40619883122522834e-13
1.88636827423034235e-13
-1.88791812098069722e-13
2.72684440801354658e-14
-1.59468080663165024e-12
1.63750461283139153e-12
-1.50187627541446831e-12
4.44883118681634413e-13
-1.11503320926753765e-11
6.34350505645244808e-12
-1.14382674919347948e-11
-4.15533890000427415e-13
-1.34896792292847945e-10
1.31752335085536777e-10
-1.21689159862521653e-10
-1.30453139454534778e-09
1.70389265999449703e-09
-1.20007898665677761e-09
2.1965579870113616e-10
-9.06357809223161285e-17
-1.00419556597990929e-19
-5.45575151560368534e-18
-5.25042365692567432e-16
-1.04120656248339296e-17
-3.299199403090019e-16
-3.79273577847106041e-16
-1.28292480701402685e-15
7.09762123944403935e-15
-5.15353084067823558e-15
-5.06286095785817565e-14
-1.79455326362442757e-14
4.17611184606641711e-14
-5.97528895023867632e-14
3.30560407804865483e-13
-1.87057047613801811e-13
7.40187744530492779e-13
-8.24705900552313688e-13
1.77978102859338052e-11
-7.88513801005668672e-12
1.47127875536583761e-11
-1.1804581869631803e-11
-1.20942443379745481e-10
1.23574139536126785e-10
-2.01074538475866698e-10
-6.5078680488226337e-10
-1.34436744610660898e-19
9.50348740698627007e-23
-3.82728426489440424e-21
-3.82045690918967601e-18
-5.56167699293269574e-24
-2.10653891486014488e-19
-7.69794729842902436e-17
-6.32295999453436661e-22
3.55581216337039761e-17
-2.57538015275240943e-17
-1.47667602693818933e-15
-7.01923219400686459e-20
6.33058423585006452e-16
-1.6049576773426417e-16
-4.23352754478130278e-14
-7.82122654440869181e-18
8.12044734995886655e-15
-3.88256934224276668e-15
-3.3826440198270852e-12
-1.8052076071225723e-15
4.16990124955854228e-13
-2.96498220491956926e-13
-2.20717478047681686e-13
1.19208016368822871e-11
-1.04592839114673685e-11
-1.19154227386479294e-10
-7.69462558816100696e-26
5.9786485716590056e-23
3.96300452817609231e-25
-4.56724536800449518e-24
9.07407555658972657e-32
-1.21414016598768373e-24
-5.12871044248101509e-22
-4.39265697609813252e-29
9.96867483554916835e-24
-1.33891349214735114e-22
-5.80948661322307114e-20
-8.5522586691084728e-27
1.35000602123605014e-21
-1.39485266267759912e-20
-7.95198628028919413e-18
-1.31520471747704067e-24
1.84311463258275368e-19
-1.34073793100430532e-18
-1.6190966050235499e-15
-3.31018113247647794e-22
5.00214111773231405e-17
-2.43884422299817201e-16
-3.8520594224629443e-20
7.26550389412788697e-15
-2.04539039294778023e-14
-2.09124547147156024e-13
9.49085437976388226e-34
2.08710326994357232e-32
-2.43515691807948246e-31
3.2486170724978766e-31
-2.54143764869485974e-29
2.62807827327763051e-31
-2.3081705990192997e-29
-3.67554123096560572e-27
5.8908023535051772e-29
-4.96230975096319199e-27
-4.63813077878882825e-25
1.1387578733158457e-26
-9.48023670089204976e-25
-2.82465936401410276e-23
3.57900985076523453e-24
-3.06610847484306975e-22
5.31419574370742143e-22
-3.90229981131499998e-20
8.83929472507811203e-23
0.000134194655970875081
4.67629436486152796e-05
-5.16407708304047146e-05
0.000539599371406218045
-0.000445912897565494391
0.000215129606908458432
5.13222517586271233e-05
4.72835449212632988e-06
-8.73462235014805136e-06
0.000344964197662038497
-0.000308668788845623703
0.000183941306739660926
-1.94867160758207294e-07
-3.51019428523177912e-07
6.3058953119337834e-08
-4.33644708908182945e-07
-9.59808019410486517e-08
-5.73063788109695982e-08
1.00214130663357156e-07
-2.35245815911888783e-07
-4.58947737092312523e-07
-1.97950301437467815e-05
3.76289437797260933e-07
-4.92846265540879744e-07
6.51208086488410851e-05
-0.000200471414682149132
0.000165990090962595232
-1.62378188170554816e-07
-2.0535104182156853e-07
2.48612264385437506e-08
-1.55578416667747246e-07
-1.98327101915533278e-08
1.47093003486489777e-08
-1.83230735643080225e-07
-6.60510085064726467e-08
2.40843715436692502e-09
-9.5047202020682277e-09
-6.53602404251854144e-08
-3.22997620629049246e-07
-4.14012029490723867e-07
-3.00800642590014368e-05
5.92806637603192523e-05
-3.82987848496096364e-08
-4.45229397895981674e-09
1.85991501169727832e-08
-3.40926229750865527e-08
-4.21604120185315529e-09
6.52000904878424904e-09
-3.7515992295576257e-08
-1.35029823897009078e-08
-4.25238314808875734e-09
9.53648361668030298e-08
-3.3934023916302728e-08
-3.0006665567218367e-08
-8.90931044507167058e-09
-1.64438840291802018e-06
1.26367805987586171e-06
-2.68624091026787225e-09
-5.28529350086504412e-10
8.98749819003535787e-10
-1.31566459463112737e-09
-2.22130587741864301e-09
9.42187778440226739e-10
1.32134176808952953e-09
-5.77106456264224377e-09
1.33121278064824736e-09
1.71694958034766457e-08
-1.23687212906596356e-08
-9.04453777862766819e-10
-3.5190884570899341e-10
-7.38947972110885571e-08
7.72785316699023101e-08
-1.92413216884751795e-10
-1.22284750279372321e-10
7.7839279471361392e-11
1.39970719277394311e-10
-1.1713496095837435e-09
6.36172167823730548e-10
4.26662841002831349e-09
-2.99110518893957296e-09
1.22770642143082297e-09
1.69783587711268042e-08
-1.18782218044677763e-08
1.04193518372570115e-09
-6.35701094269114506e-09
-4.36630946273632098e-09
3.39862358693049403e-08
5.80915537564882061e-12
-5.59754724503099332e-11
1.51743530816980732e-11
4.16517891934761788e-10
-4.25911001572566389e-10
2.30038134930781039e-10
4.10177355964576707e-09
-2.10816556849580606e-09
8.45900534557997022e-10
1.52579245946353259e-08
-1.2725190437973292e-08
2.02269339481033751e-09
-8.69399303098723069e-09
-4.18454258014525046e-09
3.51930641342256882e-08
1.48055083521009857e-11
-2.13860149017030422e-11
7.10150332797074756e-12
2.71217529347365125e-10
-1.53557333352209591e-10
5.63583236341594006e-11
2.63360709861398555e-09
-1.33839606106834768e-09
4.83211177378046645e-10
1.12059142267832781e-08
-6.70262788124833601e-09
1.37602035921932836e-09
-1.0809743967595762e-08
-5.22433881439239403e-10
2.62836212386724578e-08
5.72312019871782529e-12
-6.44419070677910845e-12
2.37057427437242044e-12
8.22903939060020021e-11
-6.62495022893851185e-11
2.30654347727798663e-11
6.31968357031508077e-10
-5.31960162603837369e-10
1.78934548807519393e-10
3.60305694974097048e-09
-1.76723181548915845e-09
3.75193504338535019e-10
-7.81216223342999276e-09
3.02239760752707421e-10
1.79995183558863332e-08
1.02549975073719552e-12
-1.61944740194482607e-12
6.38605247682006195e-13
1.16146221096006621e-11
-1.82917592452726288e-11
8.16145620039238378e-12
8.00763164473448482e-11
-9.95198295951414135e-11
3.46928446592814811e-11
6.13084599261905328e-10
-6.94794691665798489e-10
2.00929029751638317e-10
-8.30162686052522627e-09
8.15346360858768675e-10
1.39111131031358526e-08
3.21294826453238293e-14
-1.70865756965064249e-13
1.176338134382618e-13
6.09230641798629729e-13
-1.97412418152269683e-12
9.81369207815278391e-13
6.25152628009869201e-12
-1.62846927400606274e-11
6.38405802520822397e-12
2.70867430335771358e-11
-1.5624128795435182e-10
9.95611944485896049e-11
-1.34738459563434522e-09
1.10860495816289912e-09
5.74522053258139662e-10
1.47487667219062258e-16
-1.7673744257181239e-15
9.03986965169127831e-15
4.25046278148199782e-15
-2.97318656210362209e-14
6.33942557115664766e-14
2.46500737895434774e-13
-5.27768511134015456e-13
1.29100758399908285e-12
1.49116657467161483e-11
-1.25903834098450942e-11
1.25632849763060037e-11
-1.95603705513852004e-10
8.24855756394404202e-11
-7.26601767909812798e-10
-5.66069212611959666e-17
-3.15436056118804649e-23
3.5167866580904053e-17
-1.55290950628034661e-15
-2.69100752643351337e-21
8.35271112204302746e-16
-4.21298791383367648e-14
-3.33824327328909779e-19
1.28144605065827818e-14
-4.65055914886863769e-12
-8.51242335970929265e-17
5.9527730664672249e-13
-1.53873805882708779e-14
1.38188473219912112e-11
-1.96566398493739456e-10
-1.22662776025703493e-23
-3.58571436248439613e-31
4.35955074344393933e-25
-1.39826807728641781e-21
-7.59260905390861463e-29
4.4462228963734257e-23
-1.82963705926511922e-19
-1.2207860412864319e-26
6.65678525469728659e-21
-3.72831141538668983e-17
-3.5382745510623716e-24
2.00143128115434097e-18
-5.23667771175277368e-22
3.37662891601578661e-16
-8.49663641306412647e-15
-1.46378447849485536e-31
1.78410381649352634e-33
-1.77039730318811357e-29
4.58566491915637008e-31
-1.11460507410026491e-27
9.16809967473218422e-29
6.73356971717660626e-27
3.36065890709642593e-26
4.98826171948651878e-24
2.52268392126334125e-24
0.000159702501432847647
5.51519765326821451e-05
-6.36208836108448567e-05
0.000613719738185702435
-0.000359706031054698853
0.000222130312653980901
5.80711363615733732e-05
9.65405895696721359e-06
-1.15319823877559689e-05
0.000403941712446165269
-0.000260515479516191682
0.000181369669470187529
-6.10572524453600799e-08
-1.34762740564826276e-07
1.50066289411672496e-08
-2.27562316405874066e-07
-1.27960737279845355e-07
-5.13207969625984445e-08
6.23008052787400047e-08
-1.63143580694412149e-07
-2.39281703598533061e-07
9.24420122583662719e-06
6.18289127338018896e-07
-1.65937483568283458e-06
0.000131624826262901359
-0.000177634733123699742
0.000175033759083141128
-3.27603820899711708e-08
-9.56906126831114802e-08
5.79963260980418898e-09
-7.85196944725503567e-08
-1.97211981083431458e-08
-9.26476937192210835e-09
9.52701786649276689e-08
-3.48167069517256163e-08
-1.62549919691589491e-07
-1.11625646131807606e-06
7.70573957387904725e-07
-6.56739949430839461e-07
-1.77710337764065524e-06
-3.75919476613361086e-05
8.86529720289624382e-05
-1.47216982640473251e-08
-2.46462428555042963e-09
8.87286710013416383e-09
-1.91996254981330877e-08
-5.18810259503431681e-09
4.01581207968557931e-10
-1.70571610245002297e-08
-9.5217497233155038e-09
-2.48094679519320293e-08
9.63717643142769233e-07
-2.6467410939874928e-08
-1.72653734560577092e-07
-5.71628426345247849e-08
-8.04699890126899599e-06
7.51880906118218626e-06
-1.54713773243441251e-09
-3.10414568875308634e-10
1.60167884153029726e-10
-4.7557461125950098e-10
-1.7644923791918758e-09
4.78802692096061228e-10
1.06847298313617792e-09
-3.9560698395466381e-09
6.9392726393482207e-11
1.39238120784329141e-08
-1.01530503411292989e-08
-1.36926322681897066e-08
-2.8172899651865086e-10
-2.99714279617200231e-07
1.94199342526832153e-07
-1.22780877877939385e-10
-6.79998872267729386e-11
3.19017313717192365e-11
1.58096996896552916e-10
-8.04830977973353239e-10
2.30716468279847152e-10
2.24922713722436917e-09
-2.47631893679553976e-09
2.10050393398515122e-10
9.56700741302076379e-09
-1.08640117980818502e-08
-1.73863565583667834e-10
-4.00356928970541782e-09
-3.56502094198840179e-09
1.80296500261757244e-08
4.26580663328520787e-12
-4.93282428940701517e-11
9.09016186919437954e-12
4.1401671614213173e-10
-2.96027612861905192e-10
6.99321506553386465e-11
3.62861657454878618e-09
-1.78028848334741187e-09
4.24071488520421505e-10
1.17729479545618346e-08
-9.2930028499235e-09
3.04394064750008166e-10
-5.81453467357525959e-09
-3.20666760736023666e-09
1.88320437659102758e-08
1.54728179852123928e-11
-1.7082387939157295e-11
2.87174942530193206e-12
2.20286529200169077e-10
-1.36588413562819529e-10
3.44896913864804807e-11
1.43962697848776051e-09
-1.18901789464843844e-09
2.84515327594714595e-10
6.42375982928038763e-09
-3.06164089772119689e-09
1.17338317526085793e-09
-9.82894252744595669e-09
-1.11051892135805495e-09
2.39454741978299373e-08
7.08867626906535626e-12
-6.09110392538520607e-12
1.69106757362302478e-12
7.71363335354209962e-11
-6.28410385796774113e-11
1.89548954556623196e-11
4.79482551455549056e-10
-3.89399677512184195e-10
1.38453285860462018e-10
2.62852536909266153e-09
-1.65766320879780576e-09
2.91603277730043454e-10
-7.10261818163166689e-09
-2.15688825475722337e-11
1.94754563186753846e-08
1.53925487244032142e-12
-1.51186330159342256e-12
5.45864168807890366e-13
1.36988533537345499e-11
-1.66369955390360531e-11
6.12448621834148176e-12
1.04889591693435694e-10
-8.1257251756108694e-11
2.65509396488601962e-11
6.98827025224098984e-10
-7.3853491230895855e-10
1.86420518905675415e-10
-6.39743933319986372e-09
2.87370650305561151e-10
1.4103248065677461e-08
9.65506658579688846e-14
-2.14696980949180435e-13
9.43104734104773359e-14
1.1542823116468229e-12
-2.05298386139684299e-12
7.34168565413964911e-13
1.18363251425508972e-11
-1.91632188292747443e-11
5.48933368773163128e-12
1.04271180331442045e-10
-1.72320593514685664e-10
6.59703590160498499e-11
-1.47784193508158273e-09
8.0238652775871464e-10
1.13509009139633944e-09
1.34935431825274817e-15
-1.47943537282121359e-15
8.7654359245649186e-15
1.25453545001744355e-14
-3.02798842877738141e-14
5.82150625724004226e-14
2.00153101815701716e-13
-8.27415044347972105e-13
1.17222628459154554e-12
1.48440006996490296e-11
-1.50603066654101827e-11
1.07587816972841218e-11
-2.59843669811991841e-10
6.12807522201009883e-11
-5.4883438704795511e-10
-3.12137146043111565e-17
-5.47736561128799029e-25
2.0097132606692021e-17
-7.29283232749802962e-16
-5.46501461269530564e-23
6.78052656541143966e-16
-3.43316605086346551e-14
-6.94430472277353818e-21
1.23572839907993657e-14
-5.21027141741884585e-12
-1.96066102389616343e-18
6.19854159836811349e-13
-3.30337825041552022e-16
1.25533547888110469e-11
-1.66151891073557581e-10
-1.27186930721314337e-25
-2.18396406129936543e-33
1.24669423632098485e-26
-1.11230276951477291e-23
-4.75090978950674372e-31
7.60730045769778728e-25
-4.8458666980587535e-22
-9.08057761631527186e-29
1.16568047371419328e-22
2.69500032151919391e-21
-3.32308210645350649e-26
3.7487231784228406e-20
-4.35952013104190353e-24
5.99256576994558624e-18
1.3348790591571043e-18
-4.32453326967286392e-34
1.744264134717353e-35
-2.59108976838479944e-32
4.78999123417170823e-33
2.0464193057703317e-31
5.92576457754518071e-31
1.10624108897433952e-28
2.66180335154054727e-28
5.13217199064674701e-26
5.7744200946002198e-25
0.000200393864868499941
7.33368382492821517e-05
-6.60181669498853573e-05
0.000634324935184219689
-0.000272519968225315174
0.00023784291101529241
7.14811669089514653e-05
1.56293685597159552e-05
-1.30504938790733515e-05
0.000447176507384921108
-0.000210040398178168756
0.000188063596295571166
-2.66543233012750828e-08
-5.89511617906181025e-08
1.57392684465130167e-09
-3.51740041846296533e-09
-2.03538738177064677e-07
-3.37720083306532825e-08
9.21552632647282258e-07
-2.8147722673929872e-08
-3.5909911165717849e-07
1.72581734635086833e-05
7.89665061182190891e-07
-3.25597732149317862e-06
0.00019415430927572112
-0.000153529932829008387
0.000177399597171921464
-1.28639960732655679e-08
-1.39656083124295898e-08
3.97865754463408664e-10
5.55278896184074922e-08
-6.2986101293182642e-08
-6.31441052586176313e-08
1.07328565709023147e-07
-1.21121102022829248e-07
-2.35198468354011269e-07
-1.64991679062392785e-06
7.66053672932140952e-07
-2.65594622199536209e-07
2.24538726682226441e-05
-5.04690355208586687e-05
0.00011542260141460683
-8.80838509149249756e-09
-9.38708352858344578e-10
1.12815349963199738e-10
-2.30259713073812135e-08
-2.35150787508023365e-09
-1.95108366341378458e-08
3.33923857689407438e-08
-1.5168945174218581e-08
-1.20043711659086788e-07
1.34381444200955922e-06
-4.62979939553057045e-08
-1.77602473133253582e-07
5.33956389244710653e-07
-1.14250144102942129e-05
2.91300480383856242e-05
-2.12168362071559395e-10
-3.73652436454278992e-10
2.70594742323314222e-11
-6.65653680430456133e-10
-8.11462783871483804e-10
6.80440240814126812e-11
5.54190214641433492e-10
-3.07316715241450667e-09
-7.38079900383496036e-09
1.64332858281494785e-07
-2.86621103150205205e-09
-1.00911461342786916e-08
1.99193846186868849e-08
-4.55763052211862613e-08
4.34273792839740445e-07
-5.97947896744207709e-14
-1.54949059495751518e-10
2.42705711060359376e-11
1.95421157652381062e-10
-3.62718997014858256e-10
1.39655824930560565e-10
1.1044913032813535e-09
-1.82971304813431649e-09
2.8510472101091083e-10
3.39701860481626976e-09
-2.9150006113681468e-09
-9.27678110717675861e-10
-1.81307996828810938e-09
-4.38612965753938766e-09
2.90140990571533457e-08
3.34813450917616895e-11
-4.66079649705654654e-11
1.64752111738501219e-11
3.57219905282203547e-10
-2.17860779812735042e-10
3.31399161602454266e-11
1.54887079118172413e-09
-1.54927390812723374e-09
1.38530043122268039e-10
5.40487692706151804e-09
-7.30205723901609184e-09
-1.47741094156110563e-10
-4.27094673759017015e-09
-3.36173851775373525e-09
1.06269227878706818e-08
1.91310658368274452e-11
-1.34075424325091224e-11
1.64834484924602527e-12
2.59272455365726278e-10
-1.42074633031961263e-10
2.44997787452908956e-11
2.7095239772178991e-09
-1.00456458861974954e-09
2.10403165289998101e-10
9.9012968466478439e-09
-5.76934304661155429e-09
5.25858551879291108e-10
-6.18384709913801432e-09
-1.11910453352287549e-09
1.76495644496777273e-08
8.62536645118587569e-12
-6.95654099380631102e-12
1.20628257166134684e-12
8.69837847283381967e-11
-7.13417261127322166e-11
2.00240020809816983e-11
4.02836200471367481e-10
-4.43640175734372896e-10
1.50967644097132879e-10
2.0409848252737331e-09
-1.63525428994889181e-09
2.82556870463943085e-10
-5.52900049318822348e-09
5.0442584915176055e-11
2.08844700447497047e-08
2.23377775184266004e-12
-2.20051636236595788e-12
6.86161718168449074e-13
1.56741477812653989e-11
-1.89986664075518728e-11
5.6773155268182453e-12
8.6051174765072217e-11
-9.92482034553792346e-11
2.24522633405540823e-11
5.22028005873473476e-10
-6.94185526871464991e-10
7.91093116074173306e-11
-7.25255307097939174e-09
7.37252890529473801e-11
1.7569586414195e-08
1.88271691136412775e-13
-2.24753883131301281e-13
1.19531602584124463e-13
1.71071579760637297e-12
-2.11786980576814693e-12
6.62785172808527227e-13
1.82282175338442303e-11
-2.11771228107072405e-11
4.82872354964331802e-12
2.01074982265211789e-10
-1.8976487943203282e-10
6.42960425900009602e-11
-1.84515307562129467e-09
5.42745817307870183e-10
2.6382386213565566e-09
4.21147848023717007e-15
-6.20840168133447829e-15
4.62795146279457794e-15
6.65874357146201433e-14
-9.1351031586117172e-14
4.63885580201259426e-14
1.27537758366772502e-13
-1.12233170033017017e-12
1.0227105453729733e-12
1.21161486954579148e-11
-1.71945300473259483e-11
1.02570251423871648e-11
-2.52153589379634051e-10
6.10810276649055242e-11
-2.98125215603735315e-10
1.29052441623883699e-17
-1.29864741037201692e-26
1.81874801476541435e-16
1.90645720282671797e-17
-7.43096746031835678e-25
2.04526686976662257e-15
-1.61145164457289616e-14
-1.13118858225485632e-22
1.60891001372058565e-14
-5.16778345320891066e-12
-3.70187756084524352e-20
2.87737623704256998e-13
-5.73666303639978246e-18
1.15470551895949027e-11
-1.57498154462477178e-10
-6.51268547218233807e-28
1.26694844414240464e-34
1.18213493162545894e-28
4.53753172774372509e-28
1.51749259325501127e-30
1.63991412663076464e-26
5.11689461280776338e-25
-5.79270833518474981e-31
2.92722393859065161e-24
1.21432358295789346e-22
-2.6302820847319293e-28
3.4327207566706534e-22
-4.14268254070790812e-26
1.04625198940368923e-19
1.50689701805097752e-19
5.29866206393863657e-34
-1.6815147767224817e-36
-4.53383365787822803e-33
-2.52988110115413505e-32
2.91827161508317552e-33
5.84246421170993703e-33
1.20415910357213542e-30
1.98982805629541051e-30
4.8097551924036477e-28
9.41486429054654692e-27
0.000203506689486903497
9.4186238271222491e-05
-6.30332171497022091e-05
0.000674260465129498596
-0.000193769985509633394
0.000253605512327120352
8.4145319526144694e-05
2.46904979499160037e-05
-1.22906121859772509e-05
0.000499390111334969402
-0.00015975799451912109
0.00019533558054817877
3.67825814774884068e-10
-4.16359718491515326e-08
-2.94124382728778848e-09
7.89779566125617139e-08
-1.1360646272619712e-07
-1.48661302815101698e-08
3.32843887122313712e-06
2.3586986166829746e-07
-5.05484713796680327e-07
2.66206040194122247e-05
1.70050317855539797e-06
-3.13118883246054359e-06
0.000248727207463262517
-0.000120765105502783796
0.000183015635310116765
1.56035909757455993e-09
-1.1631036053157379e-08
-3.07143427842112278e-09
8.43488583319181562e-09
-1.05418859157983176e-07
-1.87467454897694954e-08
4.14542787877229172e-08
6.42511874362545529e-09
-8.2075728504815112e-08
1.89103973693369471e-06
4.71099085423855491e-07
-5.69946576880427233e-07
4.17497318938521607e-05
-4.89051047845010699e-05
0.000131345351240961633
-3.09784867502992409e-09
-1.38840728104075704e-09
-6.53527767108792527e-10
-3.65417279008990145e-08
-1.50400603690051425e-08
-1.14000277552690471e-08
1.3706483871373871e-09
-1.22211972565400144e-07
-3.54331791134180007e-08
6.65537500815440312e-07
1.35428486064484988e-08
-1.85863107241419682e-07
-1.36459936231127311e-07
-9.52373620049891596e-06
4.11501525611711723e-05
-3.50706563952047749e-11
-6.20593640637304101e-10
-5.22848933253744794e-13
-1.06677425927355681e-08
-3.25429635164285173e-09
4.25650000879092527e-10
5.01676056306241408e-10
-3.45794643897326527e-09
-2.97024482675712402e-08
5.41323938821832206e-08
-1.49367490128730808e-09
-3.93463440615572567e-08
2.65537722129171078e-09
-5.60945692069669036e-07
5.28014236400911217e-07
9.83051024740075499e-11
-2.5600253933470529e-10
2.31177818893774782e-11
4.305560549366036e-10
-6.35022314967630891e-10
2.79000694456029964e-10
7.13356312933740911e-10
-2.07826955108687723e-09
1.12548715003862458e-10
1.03625565510016164e-08
-3.01127387107596941e-09
-5.24858094633925262e-09
-9.98550806244647499e-10
-1.44650736036931773e-08
3.13161943810342538e-08
4.21702336931548194e-11
-4.11374231577240575e-11
2.16344066480272548e-11
2.2819510995200603e-10
-2.42577103209593343e-10
2.11815674632019027e-11
1.71786893086197097e-09
-1.88098625147548939e-09
1.13617373346138671e-10
1.07428334787302604e-08
-1.07799653667438256e-08
-1.19725882437815115e-09
-4.47889743309284386e-09
-5.08599793505249828e-09
1.86698767429148612e-08
1.16378194532970364e-11
-1.67863526852288086e-11
1.56524747105465501e-12
3.2878943569213875e-10
-1.9140865941295022e-10
1.65988618872456554e-11
8.37262761116946171e-10
-1.49504693157971551e-09
2.00915400764465016e-10
1.45645371210068966e-08
-2.97537686135984914e-09
4.45290704212175666e-10
-5.43798807167800498e-09
-1.17317535260334836e-09
2.62188822295917084e-08
1.51859572835915515e-11
-9.49200790187014234e-12
1.15752672165250966e-12
1.38444984111731031e-10
-9.20372799981036171e-11
2.2266379889294304e-11
5.74731855171251855e-10
-5.61209083901576863e-10
2.09711972479783205e-10
2.39567662660917307e-09
-1.70601712356053263e-09
2.92620862262898743e-10
-6.58085639437056697e-09
2.16033050723532264e-10
1.52658133311851401e-08
2.97016979181322944e-12
-2.99931506230677635e-12
7.23983661105046538e-13
1.59470785997448381e-11
-2.49277315758051098e-11
5.18564952562916653e-12
7.24579452096456795e-11
-1.18880840202232762e-10
2.07320112943247851e-11
4.04419943102888871e-10
-6.46759851320384366e-10
5.64522635447261283e-11
-7.99416359310205271e-09
2.92812568361381694e-10
1.4648464776490239e-08
2.75359522624257792e-13
-2.53312878007996255e-13
1.06245551531369462e-13
1.93102960655889791e-12
-2.43644657991522415e-12
5.11481406868815474e-13
1.70490901875965819e-11
-2.37917478950097489e-11
3.46765927169485908e-12
1.48770106623700842e-10
-2.30433857073831863e-10
5.0397529504490777e-11
-2.38816917972402701e-09
4.77639752927242923e-10
5.31240640467554779e-09
6.59170531309082569e-15
-1.10323281832780913e-14
3.28264810308652139e-15
1.15635025991297362e-13
-1.80328462679866492e-13
4.66255128315231524e-14
3.68876211279122284e-13
-2.24744209808905483e-12
1.0126294309684102e-12
3.65100190959384655e-11
-2.8525468855999254e-11
1.25893418186803603e-11
-2.65109754747238391e-10
1.03434509297180245e-10
-4.94978677406865598e-10
1.0650663183591964e-16
2.66191718013294548e-23
2.4062436463997937e-16
1.84375412941826565e-15
4.07104737468150553e-26
3.11370072947045262e-15
1.33078888102114041e-14
-2.88725925896137355e-24
4.14388087620363572e-14
4.5708745494259628e-13
-3.25910901603017921e-22
5.28753155960953537e-13
-7.55561911573968913e-14
8.24496165410803598e-12
-1.39581137470647624e-10
-1.17561335983345203e-25
1.06735507345012588e-22
-7.26354743097919167e-25
-3.95854038996949473e-28
6.25459300026070012e-26
-1.35851510606897597e-27
7.77540627708411511e-27
1.07024338991672668e-28
2.9544712740894366e-26
2.91713997369504219e-24
-1.04915680134345477e-31
7.63943932471325001e-24
-4.51924029905997344e-28
1.10501520632214294e-15
2.29870884884366012e-15
-2.51006919148403961e-25
-1.07111858904240374e-24
-4.31133470927098595e-28
-7.97503815163683752e-28
-1.88314140673648377e-30
-1.77016194332853276e-30
1.10085305559324667e-33
6.5483068434990572e-34
9.06001906181727427e-30
1.9991612580844382e-29
0.000211080027585864953
0.000109029990159021549
-4.99102007539892938e-05
0.000694779201215139572
-0.000125767854215119609
0.000268731463950839958
9.62404616060623884e-05
3.24158776310613309e-05
-1.05906879327532757e-05
0.000518063910873771296