/*--------------------------------*- C++ -*----------------------------------*\
| =========                 |                                                 |
| \\      /  F ield         | OpenFOAM: The Open Source CFD Toolbox           |
|  \\    /   O peration     | Version:  2206                                  |
|   \\  /    A nd           | Website:  www.openfoam.com                      |
|    \\/     M anipulation  |                                                 |
\*---------------------------------------------------------------------------*/
FoamFile
{
    version     2.0;
    format      ascii;
    arch        "LSB;label=32;scalar=64";
    class       volVectorField;
    location    "0.330000000000000071";
    object      faceForces;
}
// * * * * * * * * * * * * * * * * * * * * * * * * * * * * * * * * * * * * * //

dimensions      [1 1 -2 0 0 0 0];

internalField   uniform (0 0 0);

boundaryField
{
    inlet
    {
        type            calculated;
        value           nonuniform List<vector> 0();
    }
    outlet
    {
        type            calculated;
        value           nonuniform List<vector> 0();
    }
    top
    {
        type            calculated;
        value           uniform (0 0 0);
    }
    bottom
    {
        type            calculated;
        value           nonuniform List<vector> 0();
    }
    left
    {
        type            calculated;
        value           uniform (0 0 0);
    }
    symmetry
    {
        type            symmetryPlane;
    }
    interface
    {
        type            calculated;
        value           nonuniform List<vector> 
67
(
(1.43607670486824359e-06 3.00245586403348283e-06 -0.00158306137223099947)
(-3.86683557464222049e-08 -1.4532431782152992e-08 -0.000698890861194050614)
(-4.77534962147265613e-08 -1.29906175052033259e-08 -0.000758926616786692186)
(-3.07135647399763004e-08 -1.22706132035656401e-08 -0.000854541740154126685)
(-2.50980602260019793e-08 -5.6459029056916927e-09 -0.000858807130183468666)
(-2.21480839778581232e-08 -8.82226998933310521e-09 -0.000819302833612085227)
(-2.30817383552290384e-08 -1.13922371925306268e-08 -0.000804358367637880993)
(-2.97387795723084763e-08 -6.28884818541831675e-09 -0.000839086826127857267)
(-2.76059786031252892e-08 -4.76721021744559955e-09 -0.000818661421060743063)
(-2.66258730436087722e-08 -3.04371176170238486e-09 -0.00080630713346262347)
(-2.48569441376097742e-08 -2.94278289033310222e-09 -0.000796908808298386266)
(0.000561276790887922628 2.74781439248363518e-09 -1.30104749463997977e-08)
(0.000594108133437462127 3.7099361922101537e-09 -1.19872479856128738e-08)
(0.000628367779687402325 5.77319169083943517e-09 -1.05675986618365668e-08)
(0.000535378622359097725 4.65144646398749492e-09 -7.40483880173349746e-09)
(0.000572353196864545119 5.79447915435074272e-09 -6.74749510098885865e-09)
(0.00061289603781946179 7.8133110516187024e-09 -5.86824003369975463e-09)
(0.000521716886094902724 5.84303947728149767e-09 -5.9358425482090593e-09)
(0.000560308084667646947 6.84865294585368856e-09 -5.37384768673781334e-09)
(0.000602767977116547651 8.90060075129291875e-09 -4.84322032971238534e-09)
(0.000514913108397717107 6.58151203834632362e-09 -3.87238727651658816e-09)
(0.000554195210396437525 7.58501088214397299e-09 -3.56479638879201044e-09)
(0.00059722785485395041 9.55684455828204006e-09 -3.29023499229841172e-09)
(0.000508693223713606074 7.11969039467065892e-09 -2.9511817871058353e-09)
(0.000548353859813590673 8.12571682689503827e-09 -2.72218008515447688e-09)
(0.000591625879428499452 1.00403531395825239e-08 -2.51429843210480711e-09)
(0.000504420217320068081 7.46938268510950339e-09 -1.94954672741400869e-09)
(0.000544230589848074286 8.4703526294871796e-09 -1.80942701433966344e-09)
(0.000587502924255618058 1.03311833253123857e-08 -1.69446061491883219e-09)
(0.000501207174319935156 7.69027850063124384e-09 -1.15489126793799879e-09)
(0.000541063659282772736 8.67720483980245007e-09 -1.07685875119665588e-09)
(0.000584267728841810548 1.05293020686785098e-08 -1.01977770837211383e-09)
(0.000499613440948968625 7.77410933027809178e-09 -3.82083689545617887e-10)
(0.000539449458412190916 8.76159253160484416e-09 -3.58292136780436691e-10)
(0.00058254993742041356 1.05538789825287502e-08 -3.45305087016349776e-10)
(7.9255072265372077e-07 -0.0160432724582728475 -3.13954045614467744e-06)
(2.16158578089504729e-06 -0.0187645477263747064 -3.41502104314267689e-06)
(1.24120962580632322e-06 -0.0191271299141675157 -2.2571203232099965e-06)
(1.57861547113148166e-06 -0.0196898100740609122 -2.35625740095727031e-06)
(2.27607808347841471e-06 -0.0198483680951900728 -1.15800018167799576e-06)
(-1.47963795454923037e-06 -0.0233087401733146557 -9.55514479288139757e-07)
(2.48269941864654932e-06 -0.0207527977300269173 -4.49048965119340608e-07)
(-2.13946810715349004e-06 -0.0259221467966478103 -2.13600046957633972e-06)
(-6.38279076490390762e-08 0.00139710992663897335 1.80502135444338166e-09)
(-5.93282582979465687e-08 0.00142868488602003853 -3.14074814661774263e-11)
(-5.43216220671913719e-08 0.00140929864249619906 -5.77193712912518377e-10)
(-5.3400869504398873e-08 0.00140695486856256061 -4.29811153692320317e-10)
(-5.48521120175119394e-08 0.00138457931248573232 -1.45104956718167904e-09)
(-4.85797387376349874e-08 0.00130303224963289549 -9.42317781415080099e-11)
(-5.89744930476711508e-08 0.00137083179474650437 -1.67379639827278923e-09)
(-4.37908524592697184e-08 0.00124360588257674612 -3.55069222266642439e-09)
(-2.61851130339118165e-08 0.00144161082061399523 1.03521127707949316e-09)
(-2.50378375230771067e-08 0.0014534820801091928 -2.05096921515310898e-09)
(-2.49425054060625142e-08 0.00144751743320354286 -2.34465502783810353e-09)
(-2.50636196848091836e-08 0.00143782658685951141 -1.88027794545397481e-09)
(-2.4496278285579748e-08 0.00141861398180917996 -1.7201042049779239e-09)
(-2.48898742464681045e-08 0.00138974876948800012 -1.34916202425948925e-09)
(-2.456399584350338e-08 0.00139471236482989068 -1.7066217045976247e-09)
(-2.42912313829812419e-08 0.00134844643444848836 -9.0743347310159755e-10)
(-3.20254361107323299e-08 0.00143902252418406668 -2.88341875831990913e-09)
(-3.16045636418193506e-08 0.00145116890481731577 -2.74631234203527033e-09)
(-3.16341158083113167e-08 0.00145185726911726859 -3.41196871143151587e-09)
(-3.19133861050489797e-08 0.00144632462706640479 -2.61758965957356688e-09)
(-3.16834741707409431e-08 0.00143340091059972392 -2.16005742016679163e-09)
(-3.12839556933862061e-08 0.00142173941902490092 -1.61747070791309534e-09)
(-3.16829963454474572e-08 0.00141003497148920452 -1.20056049378601244e-09)
(-3.02832313480361482e-08 0.00139904662821948287 -4.73437363775435326e-10)
)
;
    }
    procBoundary1to0
    {
        type            processor;
        value           uniform (0 0 0);
    }
    procBoundary1to2
    {
        type            processor;
        value           uniform (0 0 0);
    }
    procBoundary1to3
    {
        type            processor;
        value           uniform (0 0 0);
    }
}


// ************************************************************************* //
