/*--------------------------------*- C++ -*----------------------------------*\
| =========                 |                                                 |
| \\      /  F ield         | OpenFOAM: The Open Source CFD Toolbox           |
|  \\    /   O peration     | Version:  2206                                  |
|   \\  /    A nd           | Website:  www.openfoam.com                      |
|    \\/     M anipulation  |                                                 |
\*---------------------------------------------------------------------------*/
FoamFile
{
    version     2.0;
    format      ascii;
    arch        "LSB;label=32;scalar=64";
    class       volScalarField;
    location    "0.330000000000000071";
    object      rAU;
}
// * * * * * * * * * * * * * * * * * * * * * * * * * * * * * * * * * * * * * //

dimensions      [-1 3 1 0 0 0 0];

internalField   nonuniform List<scalar> 
7248
(
0.000155021847838744746
1.35252172744595902e-05
0.000671686430409162961
1.84786655144398878e-05
0.0108696542808742313
0.0115345942569494517
0.0058046113737184081
0.00234049855681147138
3.32732551039686549e-05
0.00756834202717343325
0.00983430360295218207
0.00978023544488375481
0.00772881332001551687
0.000504528613632859984
0.0106701129818171318
0.0155805677776292874
0.0111079263094364077
0.00789229783460659168
0.0179695344508891512
0.0154546816102039773
0.0185055740800836033
0.0191630445516658039
0.0212888421091577545
0.0192554581905243598
0.0169369275504750831
0.01834338619606617
0.0189948997566312672
0.0204148656221153184
0.0194302856238777986
0.0186591549249557481
0.018700848485289856
0.0182269798219658677
0.0185437102120532202
0.0173032206062793299
0.0198610124744520791
0.0192587138953197873
0.0182310082580800711
0.017128490104032796
0.0167217130476494426
0.0204636940769423528
0.019823233791813364
0.0188829927740257197
0.0178415634706449201
0.0179056999104825337
0.0209456202861642883
0.0205205189082198099
0.019802604073830752
0.0192480837384085973
0.0192482074142125148
0.0212638199198319049
0.0210494799975340756
0.0206657212230949433
0.0201351012231575262
0.019661141812392733
0.0218007920190698042
0.0216929398377249151
0.0215653703180429257
0.0213932613400775982
0.0211173638750194077
0.0206979984636514042
0.0202927164905216222
0.0220254043232496095
0.0219686945330732492
0.0218948306081534066
0.0217952808831587894
0.0216573710832619788
0.0214446244795817968
0.0211202139199268106
0.0222750423130137695
0.0222593335867193806
0.0222394147983532749
0.0222139184240263028
0.0221843661914882112
0.0221572811716078399
0.0221191340034416033
0.0161051642195322309
0.0161679706567498492
0.016235832076886305
0.0163095172824902629
0.0163888097381702201
0.0164697347446124964
0.0164981703020085496
9.27137747376655596e-05
1.29046681454076179e-05
0.000388400400219971105
1.70203027042471659e-05
0.00946626509097599385
0.011539189062006381
0.00640566182294116659
0.000958307353359478436
3.02298574755013004e-05
0.00841030311123128725
0.0141859863819319976
0.0144142187018218917
0.00782747809074748474
0.000235226063351652728
0.0111161520234208284
0.0164816731906029662
0.0175422627250586133
0.0173886813278167698
0.0084442164823353219
0.0156150303646373726
0.017976037162087375
0.0202659437996021742
0.0213405188124036888
0.0186085687375034878
0.0174593520063893448
0.0188115701751580648
0.0192483778047649289
0.0190253821801264524
0.0178720821409537912
0.0192233435147144312
0.0192116641319300258
0.0185049303948649282
0.0177265159090649535
0.0168339926677887677
0.0201168706680286032
0.0193920859496151468
0.0184203363023342885
0.017314592405448772
0.017234906786136598
0.0204630572156538487
0.0197815125239190794
0.0189468730561191401
0.0181318258525679718
0.018209953566395494
0.020943584039759218
0.0204538303286337757
0.0198194740399203276
0.0193042729166151908
0.0192329308865608964
0.0214004888490595124
0.0210844970344320794
0.0206613261941773763
0.0202351995181464794
0.0198383034544591524
0.0216819102385482111
0.0215166434644472673
0.0212470505156786837
0.0208134372561455706
0.0203819105158130828
0.0219437626847722306
0.0218502475842434589
0.0217183325864227436
0.0214972577608487335
0.0211375775164804741
0.0222282797025766879
0.0222025882336469617
0.0221798664039307633
0.0221717626338469587
0.0221652829393455542
0.0161006806841076724
0.0161441219263891954
0.0161888663407984169
0.0162075425333996007
0.01614055012625858
5.87765600842434096e-05
1.27048661098599967e-05
0.000313528601375909503
1.66064322859964987e-05
0.0120205930601719035
0.012497272176322731
0.0101586337753545586
0.00197454338293486745
2.59447362058513248e-05
0.0119025555921725666
0.0148560806754084659
0.0152179911662094994
0.00695430332355277507
0.000125395658476146481
0.0128396856075690246
0.0167338707666659404
0.0182028721328984615
0.0114917802903012536
0.00212054625768767378
0.0162209099122184938
0.0179081755887459948
0.0207656075414763518
0.0204283106473225756
0.016296363846439503
0.0184979736805409682
0.0193167472063603372
0.0194989504111383501
0.0187545159629390022
0.0173557565123663056
0.0203878561774280369
0.0197925076110676869
0.0188094202313007948
0.0180097580675993227
0.016623227620263293
0.020433088021045983
0.0196093701361920308
0.0187375674646066831
0.0179904115948589655
0.0175377688845275957
0.0205083145585046242
0.0199200358603240958
0.0191678351969338662
0.0184781476096082566
0.0184663035675186188
0.0209195441513486645
0.0204846404006496577
0.0199220667498490253
0.0193872584953784267
0.0194455782686775505
0.021378897730247412
0.02106051423109798
0.0206805112091369356
0.0202762998643457523
0.0198641614589501643
0.0217601797706741644
0.021598289933632886
0.0213698114507143676
0.0209645879331849978
0.0204848402944884031
0.022003780755196347
0.0219151598879725844
0.0217865384995625487
0.0215608070816796019
0.0211934028978218864
0.0222287810296713309
0.0222041234757339272
0.022188766956727491
0.0221572297336356631
0.0220740225691511034
0.0159865353163897786
0.0160055449467539912
0.0160094057262254973
0.0159670508424398852
0.0158269759714201458
4.42840646086745148e-05
1.28729518700522343e-05
0.000244589508654674396
1.66043456063232863e-05
0.0146553826733955405
0.0112630880901122762
0.0095274982581929693
0.00114763571541450491
2.41564170238798319e-05
0.0154321660933264739
0.0132710344467715392
0.0107716692491282174
0.00575937137499322061
7.93245360788895733e-05
0.0166311526078934575
0.0163505780242463386
0.0147551800801889454
0.00934052076816615368
0.00063874853325868175
0.0182614877740006273
0.0193662599927827035
0.0219124487051123445
0.0180012105173619277
0.0138143485489014613
0.0206604404707337007
0.0203858769403941348
0.019999016377590214
0.0189487079165920336
0.017334470967770358
0.0209769096213408904
0.0200332961534165181
0.0192227430963789296
0.0189121043136778293
0.0168805702897102707
0.0205249333967454962
0.0198998787856321038
0.0191283929404977571
0.0183630256323195212
0.0180315648829807718
0.0206524100676540971
0.0201521513400901818
0.0194453833296674566
0.0187173671959410433
0.0191051319751095738
0.0210055960054291758
0.0205936007155094573
0.0200718913349771481
0.0196172072591856393
0.0200186132336271881
0.0213717022228610241
0.0210906177534764538
0.0207576272943516098
0.0204130748526653166
0.019919317072431518
0.021735016631271916
0.0215929596976389415
0.0214349467657948718
0.0210831188694132893
0.0205772815552806368
0.0220421008739802547
0.0219677793515812153
0.0218633471702063889
0.0216447236127679105
0.0212975047463813232
0.0222394076476452283
0.022205486475570628
0.022146896007337085
0.0220633339855250757
0.021954140163479012
0.0158938037015260922
0.01588461599981408
0.0158488063373184995
0.0157618015734730318
0.0155562265952377664
3.78775743416724303e-05
1.30584050137172333e-05
0.000195584121258463018
1.64157785665300952e-05
0.0176235712775503622
0.0174441524835874176
0.00478072536926060863
0.00073550685058703508
2.25100097859700821e-05
0.0179466988600967582
0.0139940730041446595
0.0134601071738300448
0.00600375647718253726
6.10663176813765131e-05
0.0194319860049772149
0.0151591014020871738
0.0128280154890879818
0.0126856228318433292
0.000435876448002559826
0.0212617147316851371
0.021306126440248617
0.0184983078417876277
0.0217802765937448913
0.0143136488902916286
0.0217182397852146089
0.0208856780543551709
0.0209545315195182567
0.0202868068083978115
0.0185884127675844946
0.0211206321079175259
0.0205981225554993479
0.0200643663018684332
0.0195113331307831053
0.0176062864466074616
0.0207397225912799715
0.0202795599870646791
0.0195727154378825818
0.0188722101602026258
0.0183574460880038329
0.0207974903800166415
0.0203206532090622234
0.0196635800999932532
0.0189508691962099358
0.0193446552680186304
0.0210892544542241253
0.0207064040934758671
0.0202241415454460297
0.0197833871399532533
0.0204792149861465489
0.0213904323640160578
0.0211447419100623257
0.0208585014304438106
0.0205907968344245067
0.020280908724090628
0.0217433772669322657
0.0216205520518445368
0.0214825371310078776
0.0210895724751228621
0.0205365373924731795
0.0220217928087432027
0.021955192457134929
0.0218987021488228593
0.021722955797210175
0.0213934995274376698
0.0222292153066655888
0.0221662009067353297
0.0220888420483035045
0.0219888019886094778
0.0218590806532702187
0.0158143427039754252
0.0157801186733213701
0.0157167534186340996
0.0155893835124009707
0.0153282828685460878
3.35094605129383641e-05
1.33551385593014413e-05
0.000168841474929278391
1.65991102144991565e-05
0.0165759699178669763
0.0173510532774825907
0.00405354774609800565
0.00058847354990123734
2.23759907415634301e-05
0.0181785036521074778
0.0195715046775843185
0.0154825752123822612
0.00277525659192552881
5.66638306807635509e-05
0.0200150290119039224
0.0172619485588114928
0.018177853580009902
0.00857657157493386425
0.000375642207810073924
0.0217509339988824664
0.0177676030756101777
0.0144308083120224268
0.0163243024336960536
0.00424728761220041946
0.02194426639010328
0.0213718380668810846
0.0174314535744110773
0.0201914030258304039
0.0181757723276744186
0.0213995402862889282
0.0211335028320522172
0.020535342354118212
0.0195529128949647399
0.0183434057324300681
0.0209823222052845856
0.0205867702832219397
0.0199152649338832297
0.0193708943649150908
0.0186082097688040973
0.0209232977996642866
0.0204639332521033973
0.0197555590716876096
0.0191443355882776403
0.019053967219152073
0.0211511043311867833
0.0207838214968356499
0.0203016146357315706
0.0198516340362000394
0.0196401278743727654
0.0214418564307878347
0.0212056853422999264
0.0209081634109782623
0.0205992799132461574
0.0203251305069028845
0.0217611692615584038
0.0216470802456869317
0.0215386822720691762
0.0211089760191144858
0.0205323396163433827
0.022022861703779803
0.0219609465282139885
0.0219398465647787436
0.0217828647991920102
0.0214553831299444352
0.0222073372936275257
0.0221405020054762439
0.0220560355663057574
0.0219506479648319611
0.0218293057215167806
0.0157523661270369437
0.0157025722337117077
0.0156178229555883081
0.015457265821774209
0.0151503967489073285
3.17077928814314564e-05
1.38502506768164521e-05
0.000163490293209937932
1.73709103273318614e-05
0.0169318082694303769
0.0189449153015411771
0.00356755368794531768
0.000552512232524696558
2.32560496469147317e-05
0.0190683983637430221
0.0228659825070426335
0.0119760096255269646
0.00220864119146780506
5.55572623134702583e-05
0.0200955356985073851
0.0205035380125284245
0.0202184921646134629
0.00733155646510775041
0.000309559689221887023
0.0209927194526254093
0.0191190269835022561
0.0177416162401978321
0.0145232921437377007
0.00182637973264297509
0.0219823661574503268
0.0221328299769956507
0.0203836073462792707
0.0194618277551790279
0.0164996487438824023
0.0217197499745783798
0.0216923817039616912
0.0211307256282571611
0.0200909011049389408
0.0188278070282115635
0.0211598006357158787
0.0208067790691287453
0.0200988705465182001
0.0192235270205940445
0.0185069736437624768
0.0210262864698837516
0.0205844673208538213
0.0198464404105804688
0.0192042090005000998
0.0186768185652422328
0.0212266215527839065
0.0208713908808712684
0.0203783126740681025
0.0198152973739505606
0.018987407766483725
0.0215022989619107624
0.0212682443706171953
0.0209388219562850024
0.0205496227119992859
0.0198374061056558471
0.0218049716676574808
0.0216860287720558355
0.0215896524077890291
0.0211784114179862717
0.0206934211066500812
0.0220407997653986575
0.0219804440146568851
0.0219677223122330435
0.0218080675100530454
0.0214930517020864437
0.0222060808634475734
0.0221377257319679208
0.0220499554348537428
0.0219331356819331968
0.0218015098785997487
0.015713327372066703
0.0156544500299255346
0.0155537120483781061
0.015367831535618777
0.0150234397926823863
3.19189199266524271e-05
1.40008790257929165e-05
0.000155966769956105198
1.71652960592594945e-05
0.0159380447322745346
0.0170180973292666342
0.0028309202336159584
0.000493535182546655875
2.22979454075608515e-05
0.0167331786343008979
0.0188446647158932688
0.0104773592230755826
0.00186639358816439072
4.96127499245348433e-05
0.0204876043704077075
0.021892147227989555
0.0215598647113827528
0.00657781283928133512
0.000255136732766636423
0.0212260188216374865
0.0213372740492012471
0.024410801353928209
0.0185995887141786644
0.00117189202391918966
0.0219783377685396943
0.02276609863692464
0.0225174987317519684
0.0217448021986186013
0.0157805170127356467
0.0220313295351996716
0.0219200301225056828
0.021196240413879585
0.0199216985917923632
0.0199976766349745441
0.021338878487354225
0.021005121778137209
0.0202254676162224971
0.0194402033552786846
0.019271999490008896
0.0211193607367830306
0.0207268953103918983
0.020033732435417128
0.0193053078415422082
0.0186416894312452786
0.0212914508819219209
0.0209646434682022563
0.0204483754242334378
0.0197584804774686359
0.018828666086058321
0.0215661938363090715
0.0213281599926964417
0.0209619833535041392
0.0204354595169904812
0.0194308283785836408
0.021854299202376172
0.0217395406684893211
0.0215985172551555783
0.0213815219538598562
0.0209809102099410144
0.0220728063174012237
0.0220124471216137964
0.0219877603616773325
0.0219039448489515981
0.0216432734130954339
0.0222096098441522116
0.0221451720055864283
0.0220592112347120367
0.0219335722838816492
0.0217793919513621127
0.0156886127171833936
0.0156255100310449847
0.0155176140930721532
0.0153197110624445649
0.0149528559115474202
0.00323135899264744356
0.00230420209083235421
0.00231513380401692078
0.001573514696074578
0.010300273690216603
0.00578227331119139046
0.00343810779187077482
0.00266919802428005866
0.0020760499052261943
0.0196466507622128153
0.0097530622462923041
0.00509114591290745887
0.00327467181567625857
0.00272467244476964866
0.0201168739449387249
0.0161467321278345316
0.0111055492675803044
0.00618803624754999185
0.00407378570632722752
0.0154401343648110454
0.0109024228756315518
0.0111077018260717954
0.0107792747957397763
0.00715766380835709815
0.017674038110736822
0.0161523919122341791
0.0143777090042582992
0.0138203647118065806
0.0122419854609024797
0.0194591634631400834
0.0200722675464999889
0.0215080231691192128
0.0209647266929051841
0.0170724285225190842
0.0201253243630192535
0.0202014767276301604
0.0208407864573412066
0.0203909106805982496
0.0177775347535876482
0.0210474723683722366
0.0211724951497142613
0.021285901734395915
0.0203271833397479715
0.0180616947680035389
0.0211700961127357298
0.0211484171691703089
0.0211257007834714343
0.0205971819471042032
0.0191355539979739843
0.0215916925194083696
0.0215013738867768124
0.0213392765105252478
0.0209592945581266142
0.0202549492304508506
0.0219786396490772168
0.021982997530935789
0.021972474413940013
0.0219252258520066523
0.0218163397924950216
0.0216235370022180504
0.0213948798193711182
0.0224047351076650317
0.0224758522609820252
0.022533911310247734
0.0225587610542262763
0.0225346597932682344
0.0224680039335709673
0.0224296459677613275
0.0227074565959496447
0.0228165659440538598
0.0229434958167637516
0.0230807744477019988
0.0232162709703565423
0.0233519375902195916
0.02353262850613657
0.0168560938324550103
0.0171341361306723249
0.0174763719389883602
0.0179018359071518793
0.018438686601467115
0.0191376295254707326
0.0200914513296377335
0.00698063223501763259
0.00498179660035847835
0.00572117451373191799
0.00432687058061427716
0.0104916387796487199
0.00692141370432020932
0.00518987577226283185
0.00502195612349254274
0.00433957930668961694
0.0145031826615401802
0.00764118622803074479
0.0043137372768133472
0.00411945836944546933
0.00446409721069378554
0.0180507717520794232
0.0116409421035583386
0.00681888018454005276
0.00484005472307186095
0.00359788426914671531
0.0201701172172356752
0.014302053250584007
0.00921938254205989169
0.00644641048738502434
0.00628560513630899327
0.0202068436352765626
0.0182589352635542344
0.0155102302748922893
0.0137486133648531423
0.0139328189976200192
0.0183813765961198528
0.0197016946803029828
0.0208867616046178178
0.0193345138401882395
0.0166529081872270127
0.0195394630095572196
0.0195106668612142833
0.0195050996411803394
0.0187711776740808536
0.0169397372157908468
0.0201354121394901053
0.019797780643413327
0.0192111088689909636
0.0181782710003483249
0.01675009985308272
0.0207186236683636928
0.020396349793222416
0.019791098837753273
0.0187364823591060874
0.0172745937969418784
0.0211712422791127605
0.0209157487297659019
0.0204732757245647407
0.0197184327484658563
0.0185374395820926997
0.0218263063568274809
0.0217863774316922679
0.0216975885851340387
0.0215251584629319141
0.0212292856484594152
0.0207492095116766466
0.0200347352962374423
0.0222223479536304835
0.0222387099885215309
0.0222351575751830489
0.0221866494505890931
0.0220661191281919869
0.0218507870650829321
0.0215510166547028537
0.0226040217709418123
0.0226848766360411395
0.02277406112986817
0.0228632679841510762
0.0229385877783671518
0.0229879992940083475
0.0230265470670645844
0.0167844742953430458
0.0170455265347261298
0.0173661556846611276
0.0177645293305700135
0.0182676107365638551
0.0189162196499603752
0.0197758719695651577
0.0145058796216805987
0.0101081448973974735
0.0121946584359232078
0.0133401751937599466
0.0124847167752542842
0.0112889543099624658
0.0113979467532491861
0.00753919649518803008
0.0041064814437681554
0.0133327833509375385
0.00930487119694995563
0.00795032622796070475
0.00808565033939901909
0.00733113554889158227
0.0152119742525281213
0.00926137972130757804
0.00605480744262782387
0.00596819441466904955
0.00713231894717402184
0.0155947129099284539
0.0117220457783730261
0.0079606905627858382
0.00558815456676278136
0.00573598006011978665
0.0190640249648645274
0.0155609600329766305
0.0128913766314112388
0.0117249508044668226
0.0127312919141864874
0.0198204808883153255
0.0197997313138496556
0.0196658822385980987
0.0198470053985750766
0.0181371801121875398
0.0197680593563351777
0.0197555630443794275
0.0194363742897154246
0.0188903473749595201
0.0181059564627286326
0.0201371563861946525
0.0197328882259890544
0.0190592374391421009
0.018277916087356412
0.0176198708644122078
0.0206124368487295012
0.0202488933284992734
0.0195861709650127329
0.0186468691593835063
0.0176371375697880368
0.0210515825581142589
0.0207570672101015617
0.0202473057961858327
0.0194259859465220758
0.0183464242214504622
0.0217432645324659446
0.0216841780838023003
0.0215714014141644012
0.0213686251197120446
0.0210300754582044766
0.0204916345053456142
0.0196843494010147321
0.0221391601809975275
0.0221367264320772514
0.022109650355311785
0.0220322835923465535
0.0218741630195019715
0.0216084707452275024
0.0212070231828238934
0.022533626938778719
0.0225958985925294557
0.022660945705832259
0.0227193165485721459
0.0227564667456028394
0.0227569698176932067
0.022717195592781559
0.0167185428103685495
0.0169592349797537921
0.0172523172745157431
0.0176128714759223558
0.0180629169633457418
0.0186363174289797713
0.0193853567864906047
0.0118469065537579674
0.00607679502112300207
0.00789352442138952469
0.00576075244469105401
0.0126651432557344165
0.0138872928266056458
0.0122655546201514525
0.0045380562734227475
0.00167110745217186464
0.0138430888578245145
0.0122576909039051381
0.0101094569274523122
0.00679226635970654139
0.00834003513320858737
0.0136655825881981871
0.00998746023996754592
0.00886998755019129635
0.00931443514032200513
0.00947722348676671017
0.0138542535680716769
0.0113037003280939442
0.00870338417523757943
0.00714384793148247627
0.00749915111064923274
0.0165831049647951617
0.0137563146869988644
0.0125456113672247037
0.0123878144052514544
0.00978369983507285969
0.0190489620880044362
0.0184255372170647504
0.0189352678765045065
0.0194909722504799932
0.0145024823414213102
0.0195022636635622214
0.0196144177692460647
0.0194782075170838939
0.0192233988785474284
0.0181412185718578152
0.0200385040521906012
0.0197033438644622604
0.0191575564486108421
0.0186646626451705336
0.0185608471837939507
0.020477331375882972
0.0201228192232038652
0.0195047508274751209
0.0187226562682915147
0.0179905860955415324
0.0209342609608681104
0.0206284375090378322
0.0201099243401238539
0.0193243291683231656
0.0184533241216805512
0.0216601928046747765
0.02158047329585909
0.0214466959814153327
0.0212237615037255412
0.0208639107984875602
0.0202938574814010043
0.0194574124319343289
0.0220630533070123869
0.0220407218224013927
0.0219895670104722565
0.0218842501997682792
0.0216937955598034311
0.0213900938144716071
0.0209265670400623945
0.0224627342625337012
0.0225052155804509532
0.0225456031282974083
0.0225732385093536866
0.0225720958320451935
0.0225235875664138961
0.0224076393125553636
0.0166302598562211856
0.0168437659815384132
0.0171005020437784705
0.0174116539829651494
0.017793252443795874
0.0182699763361957694
0.0188782395471844104
0.0088645224541194223
0.00074145978699334742
0.00513690070905141981
0.000671430453517883282
0.0117504233863425598
0.0122629267300086199
0.0087261577986991138
0.00282139570216903513
0.000535847782641025875
0.0139371493115668984
0.0130871009654502275
0.0107430015611241925
0.00454125240963883063
0.00486784189658673663
0.0140508928897277469
0.0116999489418115783
0.00891053986102277942
0.00752495985428084432
0.00730720460211740225
0.0146328579683709034
0.0126631789910443583
0.0122406341184562849
0.0118092082326381152
0.00866585043277329388
0.0158022730684277482
0.014554861107591497
0.0149759489513583612
0.0143780506615759831
0.0116391836395396981
0.0179586183090164955
0.0182698932554889969
0.0192115507144848957
0.0194262437408859838
0.0130268286113960855
0.0191649180461390019
0.0191836179469541089
0.0192881661959257399
0.0193157879604113902
0.01601237408164893
0.0198920367784516799
0.0196058158046371715
0.0192419803153386637
0.0191390074482456589
0.0184015458399154133
0.0203853088349181047
0.0200388867744058334
0.0194868218720277431
0.0188973548880793998
0.0184506461848246844
0.0208685386809473912
0.0205568577652071628
0.0200402876177945659
0.0193049061114948135
0.0186222504211085438
0.0216127957112638332
0.0215174792340110076
0.0213719867707739056
0.0211443810466228344
0.0207853230062140897
0.0202118893962290706
0.0194058359402331793
0.0220073404445647602
0.0219700281545202013
0.0219029494158266419
0.021782531228365376
0.0215800208995322873
0.021259341133352868
0.020746774185285654
0.0224003412079955659
0.0224254905505899826
0.0224455112467389778
0.0224496491877889358
0.0224215359604545868
0.0223421152498294133
0.0221810847788766301
0.0165278977129527452
0.0167105909647330825
0.0169267758061496312
0.0171839658905623624
0.017492396771128526
0.0178674190291374033
0.0183280623393158419
0.00489126647738593115
0.000140544939769212226
0.00298675553542277232
0.000169077967008502875
0.0159051554254912957
0.007001912594775438
0.00426619498930394872
0.00124303656799998785
0.000192937679080067446
0.013503160766036925
0.0130755930694120767
0.0104823768070853359
0.00410437846528388054
0.00106522358917431168
0.0168110713367578303
0.0129998158315169244
0.00834722941156107977
0.00599768147007188283
0.00423412542668880672
0.0158989669286867738
0.0132080881434981281
0.0121673055198922696
0.0149597753553490677
0.0106847777579513609
0.0155804176084834729
0.0161042010872814549
0.0170325586795831117
0.0152640248899780662
0.0112364954344299495
0.0173372052223715808
0.0179026254602011811
0.01905344378582189
0.0178930997535961603
0.0127548819635962749
0.0190452245941784559
0.0189894968157352968
0.0190537554540758068
0.0187581734970124203
0.015129469668981944
0.0198582723873667877
0.0196026833744978105
0.0193529024775261453
0.0192664203705495696
0.0175787691841290915
0.020396757453464056
0.020079476389403144
0.0196179525461405296
0.0192399852785162355
0.0188888325680472424
0.0208749139285782682
0.0205730104685437377
0.0200765454199157665
0.0194002970418599985
0.0187561378505277931
0.0216025383426691059
0.0215014476056578641
0.0213562352811699843
0.0211383870033074357
0.0208001699721137301
0.0202724847453791754
0.0196041875595677588
0.0219769795906677619
0.0219297342647114431
0.0218548908815913087
0.0217331475398347823
0.0215419215049379581
0.0212426432885210736
0.0207477669589566475
0.0223495476281499322
0.0223604870910331689
0.0223650458209613962
0.0223536074298921923
0.022311545802560475
0.0222228315091619923
0.0220576955051820928
0.0164184607761425801
0.0165688901374078934
0.0167436216797112632
0.0169471137162903601
0.0171849005103135236
0.0174642656497604534
0.0177884883740815
0.00167860041988504203
3.02868780568250445e-05
0.00249730892474987623
4.56686437078152179e-05
0.00408116199199615518
0.00326651277858783012
0.00397794951964854614
0.000710232906850471221
6.06798949945656614e-05
0.00905840123241697694
0.00789233823043903986
0.00273638340338354727
0.00139454617093456227
0.00173213858127083814
0.0119902233194916479
0.00719040911782583853
0.00758273701221723589
0.00475080358660738035
0.00512932766330516637
0.0149208764670524206
0.0119775263422262548
0.00967624356139076824
0.0127935961759542607
0.00885312167685195321
0.0155322552580344671
0.0161546584238010278
0.017279268444701016
0.0165754719749980246
0.00566244402076176902
0.01744376168690593
0.0178397499124319583
0.0185206730712812254
0.0174310338967608412
0.0132625995705983046
0.019220023323251699
0.0191800349251511036
0.0187401552344321556
0.0176005303797238735
0.0160610228887795269
0.019981483190576927
0.0197675866837759943
0.0192366077665928198
0.0185752210951198524
0.0178754908238264107
0.0205135522691044583
0.0202386765308223207
0.0198510019704677583
0.0194048486276632189
0.0189714074452202001
0.0209541308821366776
0.0206806591504550413
0.0202325785921969696
0.0196483070828840124
0.019133365388209915
0.0216328833295044987
0.0215302307987934316
0.0213910353705500829
0.0211894828165538097
0.020877528522366913
0.0204135840499674245
0.0199127131527019607
0.0219727108377714662
0.0219191067334961152
0.0218420477386981546
0.0217265355130416386
0.0215567942929477049
0.0213006419363750213
0.0208883752471982348
0.0223119413577148769
0.0223115475137526248
0.0223049558649677238
0.0222850224789259803
0.022241324879850876
0.0221637844084492178
0.0220269991880370081
0.0163082152215524682
0.0164269261070447668
0.0165619741068413831
0.0167157339181905201
0.0168905566503551527
0.0170877105205121671
0.0173007190998587246
0.000360552581349752124
1.57668494157978387e-05
0.0021723504449003804
2.20473780076239215e-05
0.00529651597840826403
0.00597289876258363765
0.00639304111328995329
0.00309794028038770305
3.50955323655875081e-05
0.00914645136226527496
0.00564999910902725527
0.00370371055620389742
0.00387748120837644143
0.00107016451020342093
0.0104626616152309528
0.0085299744319925902
0.00755048128957301785
0.00515947907460208039
0.00599295377972750964
0.0149500016170659895
0.0157368193480196088
0.0132966204836480993
0.0166523643005889663
0.0120892931253797024
0.0161572243613723604
0.0173216116481801838
0.0189378663810976441
0.0211050538162632396
0.00684692182299683275
0.0180029885637696362
0.0182728344081759982
0.0183056049993143635
0.0185270103977741123
0.0120979097955390292
0.0195775377453384462
0.0191837255283192828
0.0183229303410237417
0.0173991862060819992
0.0154279894557569595
0.0202489177563385976
0.0198459481806789254
0.0190023922265770417
0.018068977925568646
0.0172321646558537302
0.020711902860586523
0.020477653393839397
0.019907928057098432
0.0192530893517917703
0.0192074319512991719
0.021090098800031553
0.0208520068830374515
0.0204494226302002029
0.0199136629904063805
0.0195471410331056125
0.0217014528736778831
0.0215963809770409153
0.0214638861181783575
0.0212789210873837766
0.0209896678649505279
0.0205652464261670311
0.020159743717827687
0.0219903692705439233
0.021934069251448883
0.0218581235778962102
0.0217514164114602677
0.0216013262035150977
0.0213775789555452692
0.0210291992716640473
0.0222875699970262117
0.0222784821627951893
0.0222641666404990481
0.0222404044873050037
0.0222026144333516522
0.0221495669670204939
0.0220619736919640715
0.0162024212617260556
0.0162915697518502753
0.0163906355019553633
0.0165009143163740504
0.0166230598041341993
0.0167547215347930538
0.0168844558810916784
0.000525974591931667218
0.000336141347659277268
0.000959119777221421692
0.000544584839181401427
0.0014211470787183053
0.000738482585982339307
0.000483991660093480765
0.00221179672468594692
0.00100592494701734784
0.000597042708462989331
0.000442501290965328692
0.000215974147020206789
0.000145183420145365231
0.000326398248742123512
0.000187619705412720838
0.00124744052825051239
0.000448155947115964101
0.000221000763307057079
0.00348102434302656775
0.0015249609013926399
0.000574246101626652667
0.000263728213621712679
9.304219012573862e-05
5.52233312221007752e-05
0.000115695711309220505
6.05669518836267533e-05
0.000323875136555629812
0.00013487463614698914
6.62311851424237275e-05
0.00207558210019432709
0.00039840225432119942
0.000153527893995365511
7.37218275897352749e-05
2.74379702326590782e-05
1.84940142334152509e-05
3.07914724386555629e-05
2.28984039838914782e-05
7.75772496261591593e-05
3.45903180020980827e-05
2.7957708478502546e-05
0.000304973157464667765
8.19015276157941815e-05
3.87872237461851942e-05
3.53199086959930567e-05
1.39157098321789396e-05
1.51833989345108446e-05
1.67521424993678844e-05
2.12518983132248931e-05
2.06180665042825207e-05
2.00595036444823464e-05
2.734072451060505e-05
5.64749444745226198e-05
2.43293479897443951e-05
2.51535210869085041e-05