/*--------------------------------*- C++ -*----------------------------------*\
| =========                 |                                                 |
| \\      /  F ield         | OpenFOAM: The Open Source CFD Toolbox           |
|  \\    /   O peration     | Version:  2206                                  |
|   \\  /    A nd           | Website:  www.openfoam.com                      |
|    \\/     M anipulation  |                                                 |
\*---------------------------------------------------------------------------*/
FoamFile
{
    version     2.0;
    format      ascii;
    arch        "LSB;label=32;scalar=64";
    class       surfaceScalarField;
    location    "0.149999999999999994";
    object      phi;
}
// * * * * * * * * * * * * * * * * * * * * * * * * * * * * * * * * * * * * * //

dimensions      [0 3 -1 0 0 0 0];

oriented        oriented;

internalField   nonuniform List<scalar> 
20789
(
1.9451441414161527e-05
-1.95032841123524691e-05
-2.83670371967242126e-06
2.88854640349231105e-06
4.18157470166527376e-05
-2.24216356923714918e-05
-3.11778540233082292e-06
3.17513272375761391e-06
6.42242917057614751e-05
-2.24704064116103623e-05
-3.54942995533215569e-06
3.6113120697286945e-06
8.7308498224756683e-05
-2.31518567076389991e-05
-4.25746134758297294e-06
4.32514786500675825e-06
0.000111362815092209543
-2.41280872836354551e-05
-5.29468291431860462e-06
5.36850005348483278e-06
0.000137029698701946877
-2.5749875766941307e-05
-6.76755863331176867e-06
6.85058744083660626e-06
0.000164857087905247884
-2.79101908075809734e-05
-8.83961346483592979e-06
8.92244400897391921e-06
0.000195092229173212561
-3.035950686661171e-05
-1.17481523143912768e-05
1.18725610825802867e-05
0.000227839003018945064
-3.28125080858980786e-05
-1.57349603387703816e-05
1.58007481565313742e-05
0.000263920087633902204
-3.63780966318704297e-05
-2.17421370873389709e-05
2.20391893422718352e-05
0.000301093531953567674
-3.71626141091544869e-05
-2.95058103760013866e-05
2.9495004782749461e-05
0.000338150951495403904
-3.83798390692176975e-05
-4.21644101277741067e-05
4.34868603156688262e-05
0.000375241844615894268
-3.77305397467333914e-05
-6.03956471937849263e-05
6.1035344373944035e-05
0.000389861573375659804
-2.81652559224847446e-05
-9.09609648103296885e-05
0.000104506544394448146
0.000337277315173053756
2.55908984480192805e-05
-0.000141023596497409458
0.000168016998915949278
0.000135707685385862289
-0.000313199711250123421
0.000514769382210505748
1.97434489555277536e-05
-3.93029127452374142e-05
-2.85007603807253285e-06
2.90630313121938159e-06
4.14268703890229739e-05
-4.4165188285057367e-05
-3.10158050100505888e-06
3.16178089436504187e-06
6.28715118357809136e-05
-4.39794425615825825e-05
-3.52623304007382126e-06
3.59073389964218949e-06
8.50389403856265005e-05
-4.53891271756679411e-05
-4.21936936155377143e-06
4.28934391756250835e-06
0.000108634910475749444
-4.78003727172562315e-05
-5.24018908125265799e-06
5.31662111342715944e-06
0.000133922713767286374
-5.11212106216852748e-05
-6.68956703758703115e-06
6.7732019069132969e-06
0.000161127091338114376
-5.52067716853702536e-05
-8.72342017310665289e-06
8.81575810420041732e-06
0.000190774161689971308
-6.01102923038003851e-05
-1.15616991867234906e-05
1.16655720223837018e-05
0.000222677660116653108
-6.48385515353233036e-05
-1.55625575106684031e-05
1.56852316395456216e-05
0.00025763439351042522
-7.14933635182029539e-05
-2.12222212865724717e-05
2.13808512088331541e-05
0.000294666973265124378
-7.44674219713477466e-05
-2.93090467323969677e-05
2.95813833617759689e-05
0.000332257088578087384
-7.6451660654417827e-05
-4.163815302471044e-05
4.21200024434640881e-05
0.000371841293461056216
-7.88436831805510889e-05
-6.00333812266241274e-05
6.15624610243762315e-05
0.000398483467977370275
-6.35776833982578288e-05
-8.96202464068569132e-05
9.83906173193526166e-05
0.000369139062239071634
1.98011048359070273e-05
-0.000147257900839393291
0.000182392224655358333
0.000325173289642740726
-0.00035155020274480099
0.0005312237133401292
1.9972717912641137e-05
-5.93362801038732648e-05
-2.83958534654571483e-06
2.90026575624753508e-06
4.10764089834548071e-05
-6.53326411241622948e-05
-3.09131799504809845e-06
3.15512976454938181e-06
6.24211110393762251e-05
-6.53921250585027381e-05
-3.50785068405148282e-06
3.57591064965944386e-06
8.45467098119986475e-05
-6.75881676126491331e-05
-4.18756954831645703e-06
4.26110423538827224e-06
0.000108023254905464377
-7.13570934837425583e-05
-5.19012839067994505e-06
5.27038574907089692e-06
0.000133183253732516865
-7.6368791293349148e-05
-6.61281188276495136e-06
6.70048133340401565e-06
0.000160312017396749371
-8.24306014937552977e-05
-8.60570701040110764e-06
8.70088918963135089e-06
0.000189828493631627611
-8.97372329771231467e-05
-1.13813920832860313e-05
1.14919746114696389e-05
0.00022179986736040844
-9.69254827060104553e-05
-1.52872551678585541e-05
1.54029042361143055e-05
0.000256819844178024341
-0.000106693630677553221
-2.07785849289076339e-05
2.09589550025014651e-05
0.000293861921532143208
-0.00011172327086088632
-2.8657950069512476e-05
2.88718179753184623e-05
0.000332998765261634103
-0.000116001602271530746
-4.05862709053102499e-05
4.09994771620122525e-05
0.00037586256206593229
-0.000123007313453264277
-5.79615738100654448e-05
5.92614993645836335e-05
0.000401722101488764902
-9.56319443101441514e-05
-8.99786522012217653e-05
9.61734547033270899e-05
0.000362790850523483986
2.29930076161201859e-05
-0.000149326904942316096
0.000185066330441368475
0.000511763623942806532
-0.000363189065961125703
0.000539389612676704003
2.00084973378608141e-05
-7.94105771098429467e-05
-2.8127211729857921e-06
2.87854384380570744e-06
4.06294805726119921e-05
-8.60214058599904267e-05
-3.06055326116888285e-06
3.12837568672165945e-06
6.17587328520336973e-05
-8.65936320877386251e-05
-3.46626356262138921e-06
3.5385807868115489e-06
8.37268761789458074e-05
-8.96337861639513625e-05
-4.12780543729736259e-06
4.20535079959380688e-06
0.000107006792992110072
-9.47213607956927909e-05
-5.10347949193193674e-06
5.18790122048510816e-06
0.000131954313826243412
-0.000101407226564256098
-6.48713058655582122e-06
6.57813492492039512e-06
0.000158907724046920444
-0.000109481680066171025
-8.41916662862286173e-06
8.51694119944770073e-06
0.000188224489621215282
-0.000119165426314953162
-1.11081583671162071e-05
1.12196823503182083e-05
0.000220188161400807175
-0.000129003652972590371
-1.48677700002483786e-05
1.49823504928562142e-05
0.000255407630804912024
-0.00014208904050288398
-2.01554744999526346e-05
2.03314933374881289e-05
0.000292539296345626233
-0.000149034484089645414
-2.7706156911160401e-05
2.78857821425127147e-05
0.000333432471166170467
-0.000157397340086515059
-3.8945742618250897e-05
3.94483769391993215e-05
0.000378886523008798966
-0.000169446177557001725
-5.50304974761985885e-05
5.60153765247273564e-05
0.000406790302134724167
-0.000128997566991648942
-8.78718501471666938e-05
9.33337520045066755e-05
0.000362506044807940847
3.28192238666520078e-05
-0.000153109202463552312
0.000187567293971871777
0.000699441761073570567
-0.000372786848379283171
0.000547614789565027921
1.98762542296084861e-05
-9.93591266623474758e-05
-2.77039510758044872e-06
2.84270970952299147e-06
4.00936267463689324e-05
-0.000106311279041412704
-3.01148436607839303e-06
3.08401880276600943e-06
6.09287899926407654e-05
-0.00010750638979387724
-3.40374602468333218e-06
3.48138571734336217e-06
8.26536889464405018e-05
-0.000111440826740883872
-4.04284687548802773e-06
4.12504126444178874e-06
0.000105667854882634561
-0.000117824855263811462
-4.98391737306199356e-06
5.07331530387439668e-06
0.000130335268654144102
-0.000126168597067411289
-6.31739596206131103e-06
6.41144405887156777e-06
0.000157030189104571662
-0.000136276431858899262
-8.17124784547006901e-06
8.27117064541631312e-06
0.000186112193673370523
-0.000148355509666407817
-1.07519409355458207e-05
1.0860101187196425e-05
0.00021803409711998456
-0.000161042660658856202
-1.43201302873695823e-05
1.44373172372237484e-05
0.00025333758125047469
-0.000177542434039568652
-1.93745734911189341e-05
1.9524555812466691e-05
0.000290610700570725032
-0.000186494335760396042
-2.64937507364489947e-05
2.66805307183979687e-05
0.000333830541858749243
-0.000201146649563040131
-3.67838482549135657e-05
3.73133533951783687e-05
0.000382120182552212232
-0.000218496566204467389
-5.21048507176758303e-05
5.2865643604308875e-05
0.000412751750293561051
-0.000165301431924768218
-8.64707280240888397e-05
9.21430633398948138e-05
0.000363926929105966735
4.94288910423266894e-05
-0.000160719814364778687
0.000192935022364519316
0.00088922038067252825
-0.000385935038306771448
0.000560083373048500467
1.96310951651624043e-05
-0.000119071308160881292
-2.7134413437920985e-06
2.79454591707842393e-06
3.94502436747833305e-05
-0.000126208662270546856
-2.94593335500757079e-06
3.02419431224723738e-06
5.99269380235436275e-05
-0.000128067630040904504
-3.3220751004325681e-06
3.40664988370727286e-06
8.13277568780132557e-05
-0.000132929363628297043
-3.9347914335400222e-06
4.02255176767244282e-06
0.000104003398536975313
-0.000140596350722436194
-4.83423616000794528e-06
4.93016124471761929e-06
0.000128316777448456317
-0.000150578968305389139
-6.10764627037774377e-06
6.20472418679791894e-06
0.000154668415161050561
-0.00016272924931529922
-7.86940056132280787e-06
7.97065314143170637e-06
0.0001834672019718351
-0.000177255934859035883
-1.03183106130053365e-05
1.0420022440221158e-05
0.000215208648801469787
-0.0001929009746181134
-1.36700461332472666e-05
1.37869962479759708e-05
0.000250491644002299389
-0.00021293179987342975
-1.8454717518302223e-05
1.85611469401528933e-05
0.000288153364267495539
-0.000224375251432360818
-2.50517145390817468e-05
2.52709327207301431e-05
0.000333814363599737869
-0.00024726294160582721
-3.43926419728382367e-05
3.48479520964529473e-05
0.000384764533464296613
-0.000269783621991284868
-4.94340844772385332e-05
4.97709910556782035e-05
0.000416799312591286004
-0.000202560101648823187
-8.73459529698276276e-05
9.25698725777194989e-05
0.000361906395886637221
6.90220084647316732e-05
-0.000173865654703935559
0.000209165510762506407
0.00106886724500694467
-0.000409562706895620198
0.000591822253757493303
1.92997277447738797e-05
-0.000138464470450198418
-2.64285724904058639e-06
2.73630913817815715e-06
3.86933461097373435e-05
-0.000145687655694250092
-2.86562286952664526e-06
2.95101546625992115e-06
5.87531096072663493e-05
-0.0001482213296982949
-3.2229546917428864e-06
3.31690784066337505e-06
7.97535092308009665e-05
-0.00015402455135021169
-3.80582800174897605e-06
3.90065592486545208e-06
0.000102015858190882173
-0.000162963974466836424
-4.65732940036503244e-06
4.76267586418330286e-06
0.00012589496341834701
-0.000174558270598409245
-5.86281809595072768e-06
5.96308623602202219e-06
0.000151818890206679411
-0.000188754427750988888
-7.52089269846348949e-06
7.62219996081117837e-06
0.000180239065983262697
-0.000205767220959644879
-9.81651896285417504e-06
9.90769869210140503e-06
0.000211728202092802294
-0.000224497557025813701
-1.29394878577842939e-05
1.30470082771491964e-05
0.000247011976208746757
-0.000248269749029188301
-1.74010542033816969e-05
1.74552703165123464e-05
0.000285123274885888494
-0.000262769543544107338
-2.34360871374611707e-05
2.37190953920448367e-05
0.000332606202638737706
-0.000295078614802191845
-3.19083649935428834e-05
3.22411221844697547e-05
0.00038462864979179679
-0.000321636430159141578
-4.70531505265561498e-05
4.68835211545902994e-05
0.000415867616505857427
-0.000238078163350276061
-8.85120703182467857e-05
9.27912028664813987e-05
0.000356831246391426738
8.86866086246432348e-05
-0.000185183819200703372
0.000224555617431067029
0.00122764093264109684
-0.000436052321388530784
0.000634109909496720662
1.88988685247261556e-05
-0.000157474114237643193
-2.55971799724154181e-06
2.67050750990695896e-06
3.78228595878321591e-05
-0.000164706021528340557
-2.77231853527760628e-06
2.86670199116827721e-06
5.74067640074630198e-05
-0.000167912285894041366
-3.10802584986091899e-06
3.21509000146850068e-06
7.79339416973405091e-05
-0.000174656230252071183
-3.6582625276432473e-06
3.76280647830966063e-06
9.97081919708835948e-05
-0.000184857920629861484
-4.45629884259439927e-06
4.57606053515882439e-06
0.000123068683842266798
-0.00019802202597820156
-5.5888359071981122e-06
5.69215078812186274e-06
0.000148470618199351403
-0.000214254935999254786
-7.13300996359568775e-06
7.23162848936378947e-06
0.000176413233525098855
-0.000233784149319877707
-9.25945958362321006e-06
9.33383717324442444e-06
0.000207519053260371377
-0.00025568306505761992
-1.21464104187233142e-05
1.22261548390417902e-05
0.000242680101666130729
-0.000283437622737383894
-1.62281974217776438e-05
1.62350511713937685e-05
0.000281344278831503888
-0.000301758156462849573
-2.17271286633078594e-05
2.20515790777514073e-05
0.000329999317924728464
-0.000343796919199103497
-2.93184058596322785e-05
2.93816791880448408e-05
0.000381293037339870504
-0.000372930204693642348
-4.43023925677417927e-05
4.43024610350027334e-05
0.000408122736774623102
-0.000268329656920232714
-8.94088917058852327e-05
9.28307171660116258e-05
0.000345547965709933113
0.000111116242551719023
-0.000199371989755115349
0.000239517161433225339
0.00136662534619048557
-0.000459482125725243953
0.000666045687997312208
1.8437972447217779e-05
-0.000176046465118950151
-2.46515794669537577e-06
2.59954480393895704e-06
3.68391646011516962e-05
-0.000183213068610609513
-2.66784616726632365e-06
2.77370318953058e-06
5.58867155974231077e-05
-0.000187085602330724985
-2.97893810907921244e-06
3.1047182491844225e-06
7.58719742849027202e-05
-0.000194760282904580417
-3.49469138746141269e-06
3.61353048276257067e-06
9.70857250958920574e-05
-0.00020621338041623146
-4.23480553058404027e-06
4.37656653950906131e-06
0.000119838675272489835
-0.00022087950298781741
-5.2928653904692933e-06
5.39742578100475399e-06
0.000144621741863702708
-0.000239128777634486879
-6.71357677784200614e-06
6.80439360239079125e-06
0.000171958789176942649
-0.000261169247553444059
-8.66190823789025635e-06
8.71001608462458509e-06
0.000202539273699362389
-0.000286288397191615637
-1.13018489028009227e-05
1.13267364252081573e-05
0.000237434506975652232
-0.000318308870991117719
-1.49759354600980944e-05
1.49519762158682706e-05
0.000276749742356061947
-0.00034133758317816883
-1.9966876419547824e-05
2.02310749878947253e-05
0.000326788758040291727
-0.000393440787534573742
-2.67454658501155281e-05
2.63503223798052547e-05
0.000375499921056259641
-0.000421607589982618699
-4.14753419434947174e-05
4.14415845250489673e-05
0.000393356539452746016
-0.000289682681095392253
-8.8657969371625398e-05
9.21543761982145603e-05
0.000326951321306638055
0.000131298715910157452
-0.000210611713795275145
0.000256834555008344026
0.00148289677431244537
-0.000467853625670054728
0.000678533507309489275
1.79170083278382407e-05
-0.000194128623307731338
-2.36004401361258625e-06
2.52519551331115174e-06
3.57376115783830496e-05
-0.000201154318895635205
-2.55410831549962452e-06
2.67475522687990947e-06
5.4189409858481273e-05
-0.000205689067175622651
-2.83807829298047453e-06
2.98976451600208558e-06
7.35720120218620686e-05
-0.000214282995851680056
-3.31859700372235744e-06
3.45874889806430859e-06
9.41574305109841615e-05
-0.000226971550268347401
-3.99795117396985897e-06
4.1707364815627198e-06
0.000116211969410641918
-0.000243034432424075271
-4.98353608651135257e-06
5.08395113229927804e-06
0.000140276344912808462
-0.000263268883269224621
-6.27141685107601955e-06
6.34719213031173948e-06
0.000166860139605949805
-0.000287759001875683589
-8.04083778573727305e-06
8.04684685094427243e-06
0.000196743481560929245
-0.000316108460018589684
-1.04172904510303115e-05
1.03540486335573011e-05
0.00023119944050543941
-0.000352717461887863356
-1.37045372080362896e-05
1.36571985556060659e-05
0.00027101145345172304
-0.000381279605258103991
-1.80478997699483728e-05
1.81779109919907556e-05
0.000323569119713710684
-0.00044524648337297538
-2.38425863633741895e-05
2.30906337758388547e-05
0.000369020387898570754
-0.000466265025861211063
-3.81357894305821903e-05
3.73419858074904964e-05
0.000372749291846161135
-0.000300253244589071165
-8.54103446731389177e-05
9.22520101098268453e-05
0.000302598145168973094
0.000145492875048984927
-0.000215249180937757058
0.00027120616893546698
0.00159379372975382511
-0.000465466439446264742
0.000657167700869597661
1.73232332250942834e-05
-0.00021165405825848059
-2.24493777367409e-06
2.44713642882621398e-06
3.45058317857540665e-05
-0.000218476040250468892
-2.43340839612140971e-06
2.57253321914332713e-06
5.23102884204892796e-05
-0.000223677640009121119
-2.69012248410912719e-06
2.87425994601896372e-06
7.1043867006583366e-05
-0.00023318704168141696
-3.135169357181405e-06
3.30566575204995104e-06
9.09392480570819599e-05
-0.000247077689387120041
-3.75311897699942849e-06
3.96389585560266158e-06
0.000112205302733849396
-0.000264386212222983083
-4.6709446372739013e-06
4.75669609171338812e-06
0.000135449799915110682
-0.000286565557242913615
-5.8177598815352783e-06
5.86998697414095061e-06
0.00016111203117164278
-0.000313360447038423255
-7.41248319042913059e-06
7.35174280783268359e-06
0.000190086396335809992
-0.000344893265895866393
-9.5219582014936084e-06
9.33244293021077513e-06
0.000223865818039504339
-0.000386418925252213143
-1.24519983943810897e-05
1.23740664055547513e-05
0.000264027600269879387
-0.000421407574748608623
-1.58518797117730366e-05
1.58180792598221417e-05
0.000319095358942097216
-0.000499088486709239171
-2.09011311356782562e-05
1.96754165659751589e-05
0.000361563005990800975
-0.000508448789167994727
-3.41564569799805115e-05
3.38725733535104925e-05
0.000350573120161597218
-0.000296846496441209779
-8.22665035778934433e-05
8.98496577382863347e-05
0.000277460048748610878
0.000171974027470378894
-0.000211159491645131252
0.000257791365461221614
0.00169888210583513241
-0.000460318157871933442
0.000632689867615885576
1.66348324562185823e-05
-0.000228530772933417935
-2.12535835200753407e-06
2.36723703240500292e-06
3.31262327098258907e-05
-0.00023512697616736306
-2.30774741421201763e-06
2.46728894237801131e-06
5.02487175481292016e-05
-0.000241019611921331427
-2.54286085645614982e-06
2.76236380558792886e-06
6.83066352716087751e-05
-0.000251454646991514043
-2.9505513204805673e-06
3.16025268217228198e-06
8.7458690618023925e-05
-0.000266480138063845875
-3.50904145622778857e-06
3.75944723173448924e-06
0.000107849089532509055
-0.000284830429192602108
-4.36775355765008245e-06
4.42160641745305509e-06
0.000130170641511538453
-0.000308909043462484378
-5.36607500052344192e-06
5.38806285201961268e-06
0.000154712416632293734
-0.000337739189461575484
-6.79690061332554323e-06
6.633912565683857e-06
0.000182543321484395789
-0.000372359135880857026
-8.66625701776186524e-06
8.30126305910612516e-06
0.000215329157508217811
-0.000419089087991541284
-1.12026196910419083e-05
1.10869574586164938e-05
0.000255263821600036579
-0.000461197844956173872
-1.34838539402804729e-05
1.33394873785285491e-05
0.000309531394921234537
-0.00055186575169866687
-1.81083904664565042e-05
1.66181104841953966e-05
0.00034650176811159948
-0.000546252528917468526
-3.13647981872000576e-05
3.21981353889148609e-05
0.000329430192723840002
-0.000287825190463041297
-8.21284233148577056e-05
9.01786186689915279e-05
0.000253603863439705508
0.000209349863345113286
-0.000205833841521781857
0.000244284379248024201
0.00179661346042701408
-0.000453554920025034186
0.000609427490228885323
1.58265954589573569e-05
-0.000244631756676472222
-2.01361626469715703e-06
2.28800465683519725e-06
3.15803607905559386e-05
-0.000251060708415568989
-2.17647588215458458e-06
2.35645059283446863e-06
4.80129961167711947e-05
-0.000257701684927646492
-2.40696576155563052e-06
2.65640860331739771e-06
6.53921016225999157e-05
-0.000269087066537021709
-2.76867431367178919e-06
3.02199109749484155e-06
8.37581353602709317e-05
-0.000285130848153700893
-3.27669570050625632e-06
3.56138703208952532e-06
0.000103190409980111444
-0.000304264434093777525
-4.09038384675454023e-06
4.09215739715401506e-06
0.000124482713627906068
-0.000330194958802685484
-4.93295809470090183e-06
4.92662401273809842e-06
0.000147679858087368772
-0.000360620567845004335
-6.22568035319691541e-06
5.90995531229608191e-06
0.000174139571776815206
-0.000398205367079796464
-7.9061280897173642e-06
7.29266791899408671e-06
0.000205390059744425861
-0.000450216332149885965
-9.92568681769336469e-06
9.8024455247858161e-06
0.000243473753266116845
-0.000499239186392018853
-1.12457801325925558e-05
1.12034676977523961e-05
0.000293374010171077143
-0.000600026154770412772
-1.58070088861968351e-05
1.40671328103498413e-05
0.000323654923582817147
-0.000574890394803725079
-3.05605376564962208e-05
2.89174872855834194e-05
0.00031044751222419648
-0.000280105106924180233
-8.15588188614335696e-05
8.70461867479079563e-05
0.000234009454060071174
0.000257189348642399191
-0.000201594213675238834
0.000230192862494716131
0.00189111759492447459
-0.000445969200874560148
0.000585474440570954717
1.48714785632276902e-05
-0.000259786205803828917
-1.92962440359097089e-06
2.21260035287810022e-06
2.98714945184461331e-05
-0.000266266377901514797
-2.02471773028779513e-06
2.23037736471460306e-06
4.56258021849428728e-05
-0.000273694131471400497
-2.30397634380995253e-06
2.54211058254738004e-06
6.23586671640933546e-05
-0.000286121468654330804
-2.58694042376558644e-06
2.88847822969194934e-06
7.98840694077921726e-05
-0.000302948948735959789
-3.08223738651955412e-06
3.37495677261125093e-06
9.82933681169259279e-05
-0.000322640320675045072
-3.84739395807164724e-06
3.81402916165771562e-06
0.000118437654999238595
-0.000350306089812596911
-4.54868039215285661e-06
4.51557473829960409e-06
0.000140095432527427821
-0.000381734794502600809
-5.74413787974010061e-06
5.20061850636710305e-06
0.000164912156009158197
-0.000422077234077663751
-7.2720383239607287e-06
6.32719243758337928e-06
0.00019378040722102958
-0.000479055161385012545
-8.629822802205626e-06
8.60041606275966985e-06
0.000229366439965997851
-0.000534658564014136748
-9.58655965449547215e-06
9.4199347667325678e-06
0.000273456843044205997
-0.000641662989527634403
-1.39922856310335865e-05
1.15387038849444954e-05
0.000301388467801856424
-0.000598472977973988859
-2.8388768770306454e-05
2.40397653368077512e-05
0.000289528718844452872
-0.000269125870361484757
-7.56751576832526954e-05
7.65556144882348333e-05
0.000214593991152450597
0.000305022152852533752
-0.000193753943475901043
0.000220855956221595583
0.00197503273102422449
-0.00043695776151686153
0.000567636585218519096
1.37815637686579449e-05
-0.000273811631881291267
-1.90018159159441708e-06
2.14405301698958369e-06
2.80961477611091514e-05
-0.000280838415349860026
-1.81240902316152285e-06
2.069864200408657e-06
4.31371627649415501e-05
-0.000288824720155340334
-2.27887506793254705e-06
2.36844091951416249e-06
5.93076795877575281e-05
-0.000302682175800683608
-2.38842563323830255e-06
2.77862171656327136e-06
7.58420255361760484e-05
-0.000319700665842545615
-2.97532132265486337e-06
3.19271781883755633e-06
9.32132471519489346e-05
-0.000340091074766057813
-3.60919159848869048e-06
3.68876918058001402e-06
0.000112028774350517063
-0.000368993929041908314
-4.27999480347302766e-06
4.15234364822105863e-06
0.000132036505835440057
-0.000400885530058670914
-5.39194008670467713e-06
4.53496557151402145e-06
0.000154841882220126234
-0.000443571398350420113
-6.73612747801095861e-06
5.42493827401972408e-06
0.000180313469003117247
-0.000504744501998497679
-7.36533753636297164e-06
7.58312574665512353e-06
0.000212101220262190073
-0.000565781135718333608
-8.58762241261127248e-06
7.92244308574402195e-06
0.000251200803577660394
-0.000678055655362162215
-1.1446339897266625e-05
8.73943235106476569e-06
0.000280058134520943071
-0.000622274956004881946
-2.40507895244970481e-05
1.89954736560357497e-05
0.00026510346678305989
-0.000254015993596931849
-6.86229136940614995e-05
6.84676625571429594e-05
0.000195471685677690746
0.000342431017718207464
-0.000177496148160338242
0.000209719247833729398
0.00204051681699434894
-0.000422378246174265055
0.000552365716832124015
1.27578319023047048e-05
-1.93181679960528628e-06
2.09308048821211089e-06
-0.000286730717958778381
2.64761507155830449e-05
-1.53836592570555168e-06
1.83294727199702735e-06
-0.000294851319636186551
4.06525613892933451e-05
-2.33502838120365046e-06
2.10539690519397339e-06
-0.000302771501672196154
5.62939779485282675e-05
-2.1584163007273707e-06
2.70660351708950852e-06
-0.000318871764797885426
7.15397497396577751e-05
-2.95639041322565088e-06
3.0104056335784693e-06
-0.000335000425898645681
8.78548459294994661e-05
-3.34623898830382332e-06
3.78424103205512225e-06
-0.000356844139882948094
0.000105065403234250838
-4.20546486398228032e-06
3.79013097696614194e-06
-0.00038578913564669932
0.000123307610945185572
-5.15375676593678231e-06
3.98223249797285737e-06
-0.000417956186215140619
0.000143715324594458722
-6.17799949941020785e-06
4.57477150010340766e-06
-0.000462375855366812215
0.000164917099868749006
-6.2089752163472463e-06
6.79610230911574435e-06
-0.000526533372212187756
0.000192975870849151974
-7.69375065002508684e-06
6.65557953359119728e-06
-0.000592801725453365029
0.000226463873205692341
-8.51394224494139099e-06
5.93237528250684933e-06
-0.000708962096169262162
0.000254966027348195565
-1.85978709047262704e-05
1.40612357235841828e-05
-0.00064624054844560617
0.000236610363715370701
-6.40705479632991675e-05
6.46795923838513315e-05
-0.000236269512546010947
0.000170258225069253093
-0.000161391261445251286
0.000206445027446213142
-0.00040170663651550707
0.00053186042899436162
1.92969395754571775e-05
-1.94598028596679091e-05
-2.67381773065899954e-06
4.14786957901054615e-05
-2.23595035785714245e-05
-2.93999518265749102e-06
6.36678209474850394e-05
-2.23916367832659313e-05
-3.34685257643234934e-06
8.64742169073919899e-05
-2.30483522764210096e-05
-4.01541599144520285e-06
0.000110166518170986088
-2.39910794022695947e-05
-4.99582302916127432e-06
0.000135342779705731775
-2.55578791702886766e-05
-6.38587277492433894e-06
0.000162475320450127349
-2.76308604145835665e-05
-8.34120553636233236e-06
0.000191717449425864058
-2.99406016805173714e-05
-1.10495676399203166e-05
0.000223000847002588753
-3.22143845437789609e-05
-1.48038788005793621e-05
0.000256821968764910048
-3.53389230186449682e-05
-2.02242727658923465e-05
0.000290546376489362289
-3.57896529089564793e-05
-2.74404986928624312e-05
0.00032224470855199541
-3.56511546299174194e-05
-3.82114868413842675e-05
0.000349893047745251159
-3.32708419187769077e-05
-5.47730349277176723e-05
0.00035384166230990633
-1.80040735611240965e-05
-7.69054237490886033e-05
0.000296333662117516871
3.55745978802986501e-05
-0.000119090124226607259
0.000174359151716984342
-0.000191225138536216894
1.95868454341518498e-05
-3.92138663032345504e-05
-2.68280896707260384e-06
4.10888975780319366e-05
-4.40409595776013977e-05
-2.92210187811715247e-06
6.23228111426552179e-05
-4.38287773775649227e-05
-3.32289649845789393e-06
8.42277341812451417e-05
-4.51947788303323065e-05
-3.97774320355679305e-06
0.000107476575636596589
-4.75374841691082845e-05
-4.9425127271957525e-06
0.000132291888684175576
-5.07522896722852138e-05
-6.31033999246542912e-06
0.0001588381157468378
-5.46760602111365015e-05
-8.22428320223378366e-06
0.000187542186188451065
-5.93270503715863335e-05
-1.08791647258516711e-05
0.000218076338326624546
-6.37086986330044283e-05
-1.46022796043195492e-05
0.000250971259347635171
-6.96772199380585598e-05
-1.97787415362991745e-05
0.000284901950557768892
-7.19665580521485133e-05
-2.70627034218055204e-05
0.00031750994989984937
-7.18116303958418175e-05
-3.80855372439999778e-05
0.000349331746000641449
-7.14192087715340791e-05
-5.37067027622413891e-05
0.000361577665996368105
-4.35749003170923693e-05
-7.62952621343242709e-05
0.000316063730974669736
5.35179164824290603e-05
-0.000119687247417787654
0.000375385661022230982
-0.000236512954880623602
1.98150713265739629e-05
-5.91988875257818694e-05
-2.6696010804623753e-06
4.07422170594567637e-05
-6.51495481867656436e-05
-2.90981731492015687e-06
6.18794702458980969e-05
-6.51703440190052057e-05
-3.30345614615423598e-06
8.37461749753803025e-05
-6.73034461449453038e-05
-3.94551960690881377e-06
0.000106881692198169113
-7.09702766842034414e-05
-4.89276275529487215e-06
0.000131579425036839866
-7.58280062597828191e-05
-6.23471331978510756e-06
0.000158063520296126639
-8.16549681833916413e-05
-8.11076321867450557e-06
0.000186664310325441275
-8.86064729087438201e-05
-1.07026458620148726e-05
0.000217303355658455638
-9.52832502316894433e-05
-1.43516522686290001e-05
0.000250321960396021408
-0.000104148682249129905
-1.93256274605868136e-05
0.000284353690901803752
-0.000108106830869890506
-2.65493061290423556e-05
0.000318915267440078186
-0.000109863155892513147
-3.70962414601167515e-05
0.000353924724946115923
-0.000112797074919786261
-5.15931034426959429e-05
0.000366523600543973492
-6.97115696019679794e-05
-7.64408052636851262e-05
0.000315809635152623921
7.59302330498043214e-05
-0.000121025227400205139
0.000571927053410310532
-0.00024392078864846024
1.98516866189085296e-05
-7.92225024691707038e-05
-2.64076220264706592e-06
4.03016582762808352e-05
-8.57819888697947895e-05
-2.87803379030348617e-06
6.12287032514978924e-05
-8.63014816474165161e-05
-3.26210872734378195e-06
8.29447435021085779e-05
-8.92607796175311728e-05
-3.88644406609895732e-06
0.0001058935295558928
-9.42146211017417639e-05
-4.80783603411888192e-06
0.000130394415877547825
-0.000100703357887110316
-6.11255755027262697e-06
0.000156726189112168108
-0.000108474542213412439
-7.93126072083838941e-06
0.000185166201356683967
-0.00011771290337052323
-1.0441647185880293e-05
0.000215851495465045298
-0.000126879807236730845
-1.39564082303738231e-05
0.00024916650911624411
-0.00013888842108795372
-1.8730652190418677e-05
0.000283483774537563978
-0.000144457775704872341
-2.56724077412995329e-05
0.000320155988958411935
-0.000150015284016938121
-3.54657853482977464e-05
0.000358315821412911811
-0.000157048703377091507
-4.89386621510932312e-05
0.000374091802705594275
-9.8575389360530048e-05
-7.4783982546705393e-05
0.000320401254633618225
0.000102052453017640631