/*--------------------------------*- C++ -*----------------------------------*\
| =========                 |                                                 |
| \\      /  F ield         | OpenFOAM: The Open Source CFD Toolbox           |
|  \\    /   O peration     | Version:  2206                                  |
|   \\  /    A nd           | Website:  www.openfoam.com                      |
|    \\/     M anipulation  |                                                 |
\*---------------------------------------------------------------------------*/
FoamFile
{
    version     2.0;
    format      ascii;
    arch        "LSB;label=32;scalar=64";
    class       volVectorField;
    location    "0.840000000000000524";
    object      faceTraction;
}
// * * * * * * * * * * * * * * * * * * * * * * * * * * * * * * * * * * * * * //

dimensions      [1 -1 -2 0 0 0 0];

internalField   uniform (0 0 0);

boundaryField
{
    inlet
    {
        type            calculated;
        value           uniform (0 0 0);
    }
    outlet
    {
        type            calculated;
        value           nonuniform List<vector> 0();
    }
    top
    {
        type            calculated;
        value           uniform (0 0 0);
    }
    bottom
    {
        type            calculated;
        value           uniform (0 0 0);
    }
    left
    {
        type            calculated;
        value           uniform (0 0 0);
    }
    symmetry
    {
        type            symmetryPlane;
    }
    interface
    {
        type            calculated;
        value           nonuniform List<vector> 
181
(
(1268.45048994615422 -0.010917399032478568 -0.0366305185469703101)
(1146.84964000529885 0.000104476723812789904 -0.037500962636648906)
(1025.22175197341721 -0.000501794049040004439 -0.0373770461651748154)
(904.195078460868785 -0.00160465855010620334 -0.0373165565992801748)
(784.465870243815971 -0.00267566955405256152 -0.0369171236705650996)
(666.593162759147845 -0.00408832942377216312 -0.0363336231100473833)
(551.048058694954875 -0.00627366985460666229 -0.0357448478449819071)
(437.293469013095091 -0.0096146838641669001 -0.0362182694735411342)
(322.08241289658838 -0.0128868790065356804 -0.0342377157625624873)
(204.836998532484728 -0.0171407554427458995 -0.0316059605575227179)
(93.5666570269836342 -0.0208420427325593412 -0.0271568874947685467)
(22.4006069948374389 -0.0109679781790940848 -0.0102570064424980737)
(-2.76180164816832008 -0.00249925274795696241 -0.00115417255395761369)
(-12.8257667960496118 -0.000594753655937659063 -2.59785023697323692e-05)
(-19.5539243179120774 -0.000659095248763524703 -0.000138619833187505245)
(-20.4373336460863406 -0.00307052864420416039 -0.00166211251852256396)
(1327.82130793849205 -2.41994619772457985e-05 -0.0254401587801131902)
(1205.80209307297059 0.000131954276293609672 -0.0263537895518663433)
(1083.02443337803697 -0.000161844387067133869 -0.0261181734603058782)
(960.018490219552973 -0.000951436252120933454 -0.0260283515901009663)
(837.336958061299015 -0.00186292649145028671 -0.0259653411565369426)
(715.069618913940303 -0.00306844378216740562 -0.0261876299533654322)
(594.522668731390354 -0.00388370050287657753 -0.0257854933698493244)
(477.510539338438889 -0.0053534865873551855 -0.0253877094001069142)
(362.019918495546051 -0.00903018685552851863 -0.025104917416875653)
(244.861774868523327 -0.0139244772866831314 -0.0244774407118477227)
(128.017773780221177 -0.0183790833073704668 -0.0227518966671441045)
(41.6890101572530938 -0.0131204111616367771 -0.0127954464352178499)
(3.88284358942462537 -0.00471035598692249192 -0.0036639548197255449)
(-14.3667473968785888 -0.00198507683968305931 -0.00110827912164610746)
(-26.973363862350844 -0.00149671772782114607 -0.000634434156714862568)
(-27.1830190416251973 -0.00260978909716402287 -0.00115516794657751615)
(1356.38084044408697 -0.0071273076774668806 -0.0207663086269892633)
(1234.23631842607028 0.0011602831593353236 -0.0221455897049239805)
(1111.06549110010565 0.00148110615777478439 -0.0218044441743425049)
(987.576381529740615 0.000927229016454079969 -0.0217363789299065725)
(864.315877512289376 0.000155462889319935005 -0.0218144405965194216)
(741.472712914577301 -0.000943208696035127388 -0.0222619529867626141)
(619.800358438399485 -0.00231363449851918141 -0.0226720469600144268)
(500.963287707465042 -0.00425390388863656783 -0.022280292037161014)
(384.846970194141306 -0.00750606079933569155 -0.0214892315433830167)
(267.406899815137137 -0.0123615338029015205 -0.0202391640050294391)
(149.150604453923592 -0.0167590309149019505 -0.0184963644635953196)
(53.9548030131612393 -0.0146617110664952945 -0.0121830348561809028)
(5.54857704573086252 -0.00617041275478185693 -0.00413778476779879095)
(-17.3817199766331498 -0.00274493988967287406 -0.0013709598613239316)
(-30.7517806325258967 -0.00126373357507725942 -0.000436388098234570499)
(-30.1798095335733478 -0.00302221473128973456 -0.00100426289037411744)
(1368.83536752956047 9.31714539934945919e-05 -0.0136399825601481572)
(1246.54413198064594 0.000920605438446162635 -0.0151007923537918188)
(1123.2115829081124 0.00117240809279061287 -0.0148247388244871769)
(999.320042280548819 0.00089215098776886765 -0.0146964175821745254)
(875.678600263135081 0.000483852613503620683 -0.0146740916913713926)
(753.358491067267209 2.2978885803639087e-05 -0.0147606009409010207)
(633.143460892756934 -0.00105262744133927046 -0.0151343757954977686)
(515.324373234789277 -0.00326931219883254453 -0.0153137921589240333)
(399.702589857473754 -0.006843785867822306 -0.0149687335036108125)
(283.547683338685886 -0.0117148892050487549 -0.0142838159977009879)
(166.012186551998951 -0.016315440196091522 -0.0132547510449246304)
(64.0762997539080743 -0.0165473759953649671 -0.0102016672375036584)
(7.13305204054282704 -0.00695087494783273602 -0.00367771602063240999)
(-18.9630147632328345 -0.00267438636058466885 -0.00117266938287172184)
(-32.454180088618962 -0.00105539466815283002 -0.000340885230540710518)
(-31.3258013523243832 -0.00312111355817920556 -0.000921500254945169153)
(1375.92661520888191 -0.000919478616469835515 -0.011276478259997974)
(1253.91856793145871 0.00103411947042764758 -0.0122721474596381754)
(1130.42180208195896 0.00140417718759304 -0.0124024795906308195)
(1006.11366204257331 0.00120480597997142517 -0.0123560578469632341)
(882.634646939006075 0.00102059562395305937 -0.0123822931126181292)
(760.772523291542825 0.000752858648641572766 -0.0125065849726341272)
(641.328736842256149 -0.000429419597458479991 -0.0127663395966341221)
(524.039205794044733 -0.00266645856730974564 -0.0129026033301954304)
(408.810104041261127 -0.00663612425590529541 -0.0126783786758935205)
(293.292866415344122 -0.0111818256554049797 -0.0120041552788121841)
(176.391041583989988 -0.0160365133915036685 -0.0111387489649526824)
(70.5663002166973143 -0.0177573208986314089 -0.00909891521078975626)
(8.22821116543571129 -0.00777030448656100461 -0.00328799467978063394)
(-20.1983186035977234 -0.00266852761044954635 -0.000876510815754596626)
(-34.4482075646413435 -0.00113346681978532217 -0.000258107622573015751)
(-33.1647095394896709 -0.00341913012679252466 -0.000717754763049715345)
(1379.25240916036751 0.000136026127590500477 -0.00628848909250619668)
(1257.1814620973671 0.00119045871107168887 -0.0076353219094711846)
(1133.69332293209868 0.00163946534162222996 -0.00753095266724061047)
(1009.75113125594135 0.00152857289598963206 -0.00747531837772848727)
(886.806052955648624 0.00138760469077468503 -0.00752907551649019922)
(765.232328888185634 0.00103729484115920893 -0.00768078979681854727)
(646.197127636657569 -0.000198995644736905426 -0.00776311940428948185)
(529.065226517299266 -0.00253623963816912391 -0.00768821794362841739)
(414.11145712691831 -0.00677230468100029938 -0.00733487226936612585)
(299.433661440728827 -0.0111203093605308206 -0.0066180458030880851)
(183.476489752996741 -0.0158865106993589002 -0.00588350882667658306)
(75.4333175814674064 -0.0185419365595495822 -0.00502862530625148088)
(8.75268053066044516 -0.00854939476695757219 -0.00206402814330928748)
(-21.27933904383735 -0.00242303557391886602 -0.00052294173480718349)
(-35.8455533740982659 -0.00149943662398794512 -0.000255388755047165959)
(-33.9081705194299872 -0.00317126048040232119 -0.000494510958352252245)
(1381.79595904842745 -6.13780885965383029e-05 -0.00391012710503401903)
(1259.32326245947343 0.00137434003601404455 -0.0047360992819775417)
(1135.86397239230132 0.00200559489342921633 -0.00462378859028055207)
(1012.60176166683914 0.00204617270109352153 -0.00467130964746221948)
(890.064416073076245 0.00189177637870501891 -0.0047945055279662533)
(769.107227661784918 0.00138255909467094556 -0.00495679848643183762)
(650.351017482881957 1.43848820891822415e-05 -0.00503668139986251321)
(533.450303277474404 -0.00248080307716473745 -0.00499779789868168376)
(418.800440515155458 -0.0068471959806776549 -0.00479353412340257062)
(305.085669436605883 -0.0109363252551915799 -0.00441903786967650074)
(190.419284196959836 -0.0153753697898450017 -0.00397935935905180914)
(80.8589763009613165 -0.0185822035169281828 -0.00340034569910294951)
(10.4866039236924635 -0.00880490408129845116 -0.0013474398068037336)
(-21.2017712901373159 -0.00268556374367280842 -0.000362631177369260316)
(-36.0078225651135924 -0.00172518443440834203 -0.000180517671317071424)
(-33.8347457947542196 -0.00296062476077658954 -0.000277013382794578965)
(1382.93350953794652 0.000596797968878327108 -0.00125072351522219935)
(1260.28533940258785 0.00143750659243456827 -0.00151904857311748365)
(1136.80248282050343 0.00212856455227734354 -0.00148176853662232238)
(1013.75741580678618 0.00220011107086462562 -0.00149140215505033213)
(891.412616065268821 0.00200425372283713271 -0.00153293884661307085)
(770.714839976594931 0.00148459359396308226 -0.00158438877349095352)
(652.016524114109984 8.85527493855946772e-05 -0.00160778857432021722)
(535.113929078921615 -0.00247381529498440569 -0.00158116734786571309)
(420.434173819733246 -0.00689281949286592224 -0.00149150194860135231)
(306.89386045715014 -0.0109316924242370082 -0.00135458046228820422)
(192.56912967716741 -0.015222410903871891 -0.00121082143078126174)
(82.54873360135052 -0.0185565697503099689 -0.00104838355295054945)
(11.4265813132108711 -0.00879397856744469283 -0.00041698821846964068)
(-20.4323399342111607 -0.00304895662850265944 -0.000126963021369841102)
(-35.2422767519772933 -0.00172907688937931777 -5.44555196673315932e-05)
(-33.0077404976998565 -0.00288583540779801823 -7.88533426871127348e-05)
(0.0466280777843842142 0.0287863472373854241 781.926626181038046)
(0.0462028295835593614 -0.00283427434010793608 663.748634338982129)
(0.0444419517698738248 -0.00715443123920142966 554.151661519928439)
(0.042195081803743012 -0.0112754936029694167 453.18454884756278)
(0.0387141129788151975 -0.0184767374129821763 361.601427581898633)
(0.0332807851155839038 -0.0300700636323865574 270.046195191552954)
(0.025694559819980433 -0.0422541196424670862 175.120834867932899)
(0.0168143234975713651 -0.0502914130737629472 91.4760223957773064)
(0.00476394008913942017 -0.0301569170597908755 46.933233957392865)
(0.000987763622165848581 -0.0155680865291884345 28.5061061924852481)
(0.00114758199037455597 -0.0113094734914410446 15.6084127211481878)
(0.00114345201874274118 -0.00321904836877753061 1.20685779131474225)
(0.00100835785884743293 -0.00099731027367318259 -7.41275556004807168)
(0.00122665339966020258 -0.000340100942664804207 -18.2433615221539647)
(0.00146823963124161983 -0.00272045762565748623 -34.8753442597139838)
(0.039185418429636687 0.0135821923141770332 839.389074989980145)
(0.0379672923436075033 -0.00706403180496752072 727.271596631076363)
(0.0353235027147928288 -0.0147357207722792066 617.242092748653363)
(0.0327480893421162392 -0.0244939176089336956 501.767306531825454)
(0.0295970990164129005 -0.0344982062271311368 380.478808038439524)
(0.0242019357022864555 -0.0415456025211997371 255.442231838130908)
(0.00904421836294228704 -0.0276636666309176826 147.340484948176993)
(-0.000387907111702741727 -0.0114835434026040496 82.7612111235354178)
(-0.00231475585698418234 -0.00326032845205930085 58.1983905135988451)
(-0.00243966227099145193 -0.00186452542051552617 47.53062267156335)
(-0.00509888435541182208 -0.000653492332873125423 33.2980491802190528)
(-0.00267531352636377496 -0.00174433899960782751 16.8073147758209664)
(0.00210789168586202275 -0.00323380807195504123 -0.55827880265207197)
(0.00332817876739170595 -0.00619197678430135918 -21.2380494756029883)
(0.0391941064874853085 0.0018719285981439941 871.905033002665732)
(0.0371630701485224924 -0.0137337574591043961 749.815474383705805)
(0.0350644068943250231 -0.0257850319809603511 619.343768916008571)
(0.0345965916665307779 -0.034519881740928085 486.20298676535117)
(0.0331941972100292179 -0.0387762000807730239 359.849262730861426)
(0.0279585550077472329 -0.0378859190176293673 229.572049826976155)
(0.00941974023623263872 -0.014582077829598852 121.30205290633711)
(0.0011065283597372611 -0.00194451715983629588 75.4552647015563025)
(0.000221758560455821848 -0.000236358073189838727 60.1338299854560177)
(-5.79770222692987071e-05 0.000629431918682447455 47.3751910519295976)
(-0.000400942218431165134 -0.00164460663106887105 28.6417957229315014)
(0.00173243335663657359 -0.00276077242942783865 11.9195595611783993)
(0.0588101088214662976 -0.00574631640489317325 762.29444280357211)
(0.0581932508772433563 -0.0226007242761156572 632.409640245061382)
(0.058480529801323379 -0.0343934803000189443 500.08819056830589)
(0.0574212499250999903 -0.0392367150984212557 380.572768058361021)
(0.0518128697078898484 -0.0386941295640250357 264.210179369897673)
(0.0294192889386598669 -0.0235100639761459118 147.284906696267711)
(0.00352232265074947388 -0.00216257662891644869 80.4153136285551682)
(0.000660968151549987354 -0.000228263710880076653 59.1415683018886682)
(0.000556963405827241766 0.000580674362725717508 51.6189303079571218)
(0.00187526645793120663 -0.00142744954691484622 42.3229316614099744)
(0.00295152244904305083 -0.00878143426519104736 33.4823303575917066)
(0.00302693868714896952 -0.0116575474544627338 24.3472669095031193)
)
;
    }
    procBoundary0to1
    {
        type            processor;
        value           uniform (0 0 0);
    }
    procBoundary0to3
    {
        type            processor;
        value           uniform (0 0 0);
    }
}


// ************************************************************************* //
