/*--------------------------------*- C++ -*----------------------------------*\
| =========                 |                                                 |
| \\      /  F ield         | OpenFOAM: The Open Source CFD Toolbox           |
|  \\    /   O peration     | Version:  2206                                  |
|   \\  /    A nd           | Website:  www.openfoam.com                      |
|    \\/     M anipulation  |                                                 |
\*---------------------------------------------------------------------------*/
FoamFile
{
    version     2.0;
    format      ascii;
    arch        "LSB;label=32;scalar=64";
    class       surfaceScalarField;
    location    "0.840000000000000524";
    object      phi;
}
// * * * * * * * * * * * * * * * * * * * * * * * * * * * * * * * * * * * * * //

dimensions      [0 3 -1 0 0 0 0];

oriented        oriented;

internalField   nonuniform List<scalar> 
20789
(
-4.71402771890337425e-06
4.65274668523176366e-06
-9.77757855306157656e-06
9.83885958669203066e-06
-3.95802328381243749e-06
-1.24327931823446355e-06
-1.15474550986654515e-05
1.20347281713951959e-05
-5.33706023406585137e-07
-3.94451933678938128e-06
-1.30234964420986289e-05
1.35436986043276824e-05
3.30079919605740836e-06
-4.42319243647354006e-06
-1.51522157986419683e-05
1.57409042150762762e-05
6.05850342660223114e-06
-3.31553593390153705e-06
-1.79591895975034165e-05
1.85170205133538523e-05
7.48459103865596284e-06
-1.97138542700655101e-06
-2.14685594046859022e-05
2.20138556769994006e-05
8.51193396877297364e-06
-1.59556265306468596e-06
-2.58166057601596996e-05
2.63848180477967253e-05
9.95257270369349212e-06
-2.16879428725681279e-06
-3.11661190475172523e-05
3.18942790707748948e-05
1.24312120545781817e-05
-3.40623310737078192e-06
-3.74982336272108583e-05
3.8425821824721081e-05
1.6303244404905727e-05
-5.25383662066468863e-06
-4.51191065111920166e-05
4.65009220743929394e-05
2.21294917680582016e-05
-7.45790074079953634e-06
-5.40689060390753338e-05
5.57005703392666647e-05
2.92616115103923515e-05
-1.02224249641092885e-05
-6.51402844299646508e-05
6.82305829794025207e-05
4.02846653256218486e-05
-1.37155500806877295e-05
-7.83779343847238488e-05
8.10704480644286669e-05
4.76516952048755888e-05
-1.77856839939280454e-05
-9.72843480771762932e-05
0.000107703008505157985
6.42047060001313191e-05
-3.00676880311402793e-05
-0.000114237856796155926
0.000127752538786092258
-3.11536910336715078e-06
-0.000160489321151109816
0.00022780939784589551
-3.02440201948752508e-06
7.52057586695763762e-06
-9.75827364224052699e-06
9.91484305154863925e-06
-1.67956262958028517e-06
-3.22140484944768137e-06
-1.11234525592622667e-05
1.17567380603657387e-05
5.28423031140671102e-07
-6.90260816463681987e-06
-1.26512376393924286e-05
1.34013409468355573e-05
2.0239025893483552e-06
-6.66651013977865798e-06
-1.47955344096879041e-05
1.55433718056966806e-05
3.01769966011708532e-06
-4.96894870820034622e-06
-1.76899489258614716e-05
1.8349550358116817e-05
3.88821284353593341e-06
-3.42247730545510318e-06
-2.13667430093258641e-05
2.19473203648423528e-05
4.94582629044693229e-06
-3.23582503806633113e-06
-2.58932326994547989e-05
2.64758594096233947e-05
6.68544653461157135e-06
-4.62280766825908482e-06
-3.13293839990254935e-05
3.20438045855146866e-05
9.59660937096906716e-06
-7.31042319393505416e-06
-3.77241863903865303e-05
3.87172105431289471e-05
1.39871524482815478e-05
-1.1091682090789035e-05
-4.52247217802197727e-05
4.6672048084303896e-05
2.01909679843982353e-05
-1.56733660097383463e-05
-5.40261802363962905e-05
5.60378721947019182e-05
2.81965870581418033e-05
-2.14577486297554548e-05
-6.46869914788657886e-05
6.79167078609894064e-05
3.88083387486996554e-05
-2.84618339954233138e-05
-7.74626771820574974e-05
8.15972345518628208e-05
4.78922267078842853e-05
-3.69971848409685319e-05
-9.52611277801399117e-05
0.000105388759468061873
6.23488999550954245e-05
-6.27008839361632036e-05
-0.000112010687132278763
0.000130187210442911448
-8.49298355211152151e-06
-0.000164901091832146609
0.000232627593722635516
-1.19795928826326496e-06
8.43335276292054098e-06
-9.31365765628366286e-06
9.59883735269285037e-06
4.50081709278714255e-08
-5.22524332406153059e-06
-1.10041713506543449e-05
1.17650431398892066e-05
1.64023550474504173e-06
-9.32657076543171864e-06
-1.26640878726662758e-05
1.3492821054774339e-05
2.65086417996929546e-06
-8.47102140561143869e-06
-1.4891635359203226e-05
1.56855174139379242e-05
3.17877373619657049e-06
-6.1876852535960315e-06
-1.78552121105364148e-05
1.85460242326852808e-05
3.62326638296255037e-06
-4.46685356030154844e-06
-2.16167222381226144e-05
2.22166035647420041e-05
4.38728537713212625e-06
-4.58869254048236435e-06
-2.62322856254245154e-05
2.68211163224339607e-05
5.94613710479678403e-06
-6.89902620660943165e-06
-3.17468411240887389e-05
3.24642249413224245e-05
8.75011933311569964e-06
-1.1127637640751459e-05
-3.81981521994121268e-05
3.92113823540209298e-05
1.30647975329975513e-05
-1.69088655807977332e-05
-4.57207354562106104e-05
4.72232756378298537e-05
1.9134145505063849e-05
-2.3865317023873349e-05
-5.45237585726156241e-05
5.66463776911371541e-05
2.68699239624730394e-05
-3.24991800736598019e-05
-6.51975281600285087e-05
6.85031996281748758e-05
3.70014951872949099e-05
-4.29434683620002236e-05
-7.79688980810334866e-05
8.23189816253908969e-05
4.65396195168009535e-05
-5.64736271223224078e-05
-9.56956426807893218e-05
0.000105633973059847253
5.80654317758962129e-05
-9.15253246636572615e-05
-0.000112660270462874518
0.000129958899963484871
-1.68833285889144235e-05
-0.00016437992041658982
0.000230835686359199247
1.42575476648402554e-07
7.92271038059520533e-06
-8.77345021532379134e-06
9.14151436706341543e-06
1.71656270534395205e-06
-7.30949361304940709e-06
-1.07624134778237109e-05
1.12726776793027039e-05
2.78674648287974259e-06
-1.08830002396464601e-05
-1.25895948159645368e-05
1.3075836156763018e-05
3.17522129758331111e-06
-9.34076302565647808e-06
-1.49572747044216526e-05
1.54385391144462109e-05
3.09853130888420724e-06
-6.55476383956767737e-06
-1.80607687431566221e-05
1.85045264330411998e-05
3.00593600798605832e-06
-4.79435263078371862e-06
-2.19723164374420749e-05
2.23924023595456704e-05
3.3588231327048233e-06
-5.40739574510402519e-06
-2.67421197597209821e-05
2.72079297610818275e-05
4.64126237911047421e-06
-8.83323803892992158e-06
-3.23925298296642432e-05
3.30443130992940135e-05
7.27711629786853858e-06
-1.48013749001692493e-05
-3.89291333870089843e-05
3.99670172831534837e-05
1.14698800684676606e-05
-2.27208892756583934e-05
-4.64867105512698764e-05
4.81060109176913893e-05
1.7328216024632106e-05
-3.20563889690786457e-05
-5.52913126391887784e-05
5.7624054085052032e-05
2.46933612246121818e-05
-4.33912350779673309e-05
-6.59643079280995166e-05
6.94912365653797554e-05
3.41242361578439454e-05
-5.70479023382916965e-05
-7.87185738679024042e-05
8.33921524901601649e-05
4.37497647230722782e-05
-7.60970996490757749e-05
-9.63089795273366022e-05
0.000106306933571292302
5.32415421260432019e-05
-0.000118137412180448231
-0.000112833944235649531
0.000129954254142085384
-2.80177483841827631e-05
-0.000163849927937696093
0.000228225880298650656
2.02745317696229724e-06
5.84342531453290481e-06
-8.05256989668272365e-06
8.10439888789754126e-06
3.68521306753161562e-06
-8.66349974350963575e-06
-1.02018379228429185e-05
9.89808578925801572e-06
4.21604916682076879e-06
-1.10654975490956924e-05
-1.22336718129397832e-05
1.18853309960665901e-05
3.91608229258589037e-06
-8.82933836675509594e-06
-1.48545479257889561e-05
1.4643085758838543e-05
3.16696663466095951e-06
-5.72466439214738968e-06
-1.82207385072419506e-05
1.81397534146861688e-05
2.46148597614013738e-06
-4.14711120487387548e-06
-2.23832622981921171e-05
2.24414868298924362e-05
2.3159150836172633e-06
-5.51295271058012711e-06
-2.73764608465438113e-05
2.76275987580701245e-05
3.25525312699455432e-06
-1.03499449090833023e-05
-3.31972794080515263e-05
3.37746483861568571e-05
5.67127376070395121e-06
-1.83339923931091419e-05
-3.98256599586520506e-05
4.09422698025669341e-05
9.67291984337432275e-06
-2.85519585807347796e-05
-4.74168195842698779e-05
4.92462734612116176e-05
1.52001937667005981e-05
-4.02222108765053264e-05
-5.62223176380569276e-05
5.88608709048144539e-05
2.20152691647677061e-05
-5.40506856902533351e-05
-6.68775690726576392e-05
7.07219651330742114e-05
3.05644325423906318e-05
-7.06463874128902483e-05
-7.96029615529157014e-05
8.46522982742317181e-05
3.93192161841808346e-05
-9.49913499848445577e-05
-9.70487636172482471e-05
0.000107188238719586963
4.64266496839900428e-05
-0.000142296859090749772
-0.000113460024303867703
0.000130512037285482021
-4.3424214629263936e-05
-0.000163110106317330728
0.000224943213813996203
4.22477484314345105e-06
2.53454276959148191e-06
-7.06400461471864186e-06
6.14811113440682188e-06
6.01319310353179222e-06
-9.03687371954251941e-06
-9.26591767726917452e-06
7.85087487207709947e-06
5.88962312786008238e-06
-9.71355772442898916e-06
-1.15391796006175075e-05
1.03108123012395249e-05
4.7662784358873672e-06
-6.83420950994405741e-06
-1.45088276230806933e-05
1.36370340913093874e-05
3.27037805603892379e-06
-3.69370055090282317e-06
-1.82229086438559807e-05
1.76878479223649258e-05
1.89689269443830691e-06
-2.56282596357923978e-06
-2.2731292074916871e-05
2.25204726448691262e-05
1.19182675495499114e-06
-4.96186800594076367e-06
-2.80336202716514521e-05
2.8187621352920345e-05
1.76246364878863841e-06
-1.15665946394667737e-05
-3.40817879913895883e-05
3.47277894734564517e-05
3.90693233666461022e-06
-2.17841810981546339e-05
-4.08595048950481838e-05
4.21652527501200754e-05
7.67031050833324612e-06
-3.44297957553998116e-05
-4.8512545766568805e-05
5.06270214584865464e-05
1.28420309560777162e-05
-4.83765465341612968e-05
-5.73081543701015481e-05
6.02907780151198586e-05
1.90862534123232368e-05
-6.44769848122958778e-05
-6.78509561854193045e-05
7.20330526668642437e-05
2.64644985991570443e-05
-8.33960149047211196e-05
-8.05706790490052133e-05
8.59420723120664484e-05
3.28087041199453616e-05
-0.000111563245309345281
-9.80748269396215929e-05
0.000108302524038858769
3.66017373029502716e-05
-0.000163243898624624103
-0.000115370786744394189
0.000132524792380053113
-6.61012659379486063e-05
-0.00016193575451417259
0.00022121453565888613
6.67452452048172904e-06
-1.53176271498750611e-06
-5.72580114748067883e-06
3.11758435882813419e-06
8.43239360298681056e-06
-8.62227408217462454e-06
-8.27222374713039821e-06
6.09975200453633574e-06
7.45400975784402836e-06
-7.21103778852261545e-06
-1.07795261866756619e-05
9.25539045391470953e-06
5.47442171509586014e-06
-3.90371542361502314e-06
-1.40920928750098644e-05
1.31411716853256886e-05
3.23452885667255578e-06
-1.01298536687782253e-06
-1.81090972849437377e-05
1.76682680039430881e-05
1.16946902903936392e-06
-5.01160981280879706e-07
-2.29894543385158245e-05
2.29928321797633752e-05
-1.47038972910673869e-07
-4.08945637472874132e-06
-2.86812313308288741e-05
2.91253376565048137e-05
4.46931343775035776e-08
-1.27481240243034757e-05
-3.50316936625325284e-05
3.60214788296741865e-05
1.93024206988855682e-06
-2.52844570004502969e-05
-4.20125716967373986e-05
4.36273313013015723e-05
5.5596130371918562e-06
-4.04184127347580037e-05
-4.97442240494048326e-05
5.2103474180862665e-05
1.05970832497921768e-05
-5.6639882267918219e-05
-5.8447233345390053e-05
6.16731107224327183e-05
1.63361388079384617e-05
-7.45788197664332597e-05
-6.87747715601402706e-05
7.31375668705491191e-05
2.17436228665304665e-05
-9.42682988511000483e-05
-8.17779831105857236e-05
8.7242791694565241e-05
2.36131792670643133e-05
-0.000123664676583940349
-9.99819138005060928e-05
0.000110213795052097478
2.34939851745277351e-05
-0.000180791573455267997
-0.000119863419219997218
0.000137530286888223213
-9.88922465831357337e-05
-0.000160494300265631598
0.000216779259550367695
9.32694820734741445e-06
-7.23205204280840492e-06
-4.67070362770754922e-06
1.04404644958273126e-06
1.02438830418174919e-05
-7.42966063528501539e-06
-7.59046114883584077e-06
5.48090405699047015e-06
8.4566564448294416e-06
-4.31545299608952098e-06
-1.01145344949906223e-05
9.00617012437986622e-06
5.88711018945810288e-06
-8.8955053153887912e-07
-1.36910241557878926e-05
1.3246396753819824e-05
3.02691280830994255e-06
1.60474108649174098e-06
-1.79514699213223117e-05
1.81939222940308102e-05
3.05311886848329316e-07
1.39204278739566927e-06
-2.32078397893453499e-05
2.40362365393355005e-05
-1.63896153881650326e-06
-3.4644088247500291e-06
-2.93073128944020138e-05
3.06265289149877161e-05
-1.75521611753315945e-06
-1.43954561745000757e-05
-3.59222330338512414e-05
3.76858202050790286e-05
5.61114695698534583e-08
-2.9170500641569061e-05
-4.30761835866427741e-05
4.51509232401190797e-05
3.84954642011925503e-06
-4.67059642812801715e-05
-5.08502461377700467e-05
5.33443613388886093e-05
8.89354786250841272e-06
-6.4900683739483426e-05
-5.94774570549470443e-05
6.26942703225127803e-05
1.36542267458050697e-05
-8.35017087219543997e-05
-6.99261913603645737e-05
7.40884126909241176e-05
1.54223665371680784e-05
-0.000101390728047698602
-8.39928388141299902e-05
8.93471359765216652e-05
1.14536858333314803e-05
-0.000130089999679504359
-0.00010378533930907675
0.000114179348314648817
8.27943853260219585e-06
-0.000196387784060350623
-0.000127458140047082084
0.000146228596065934793
-0.000143686274235005953
-0.000157247793003093618
0.000210321253581240419
1.02527269941746239e-05
-1.35713194086986913e-05
-2.44910620661944477e-06
-1.46435809303204266e-06
9.22716864880879716e-06
-4.55413054827958144e-06
-6.1861502559794562e-06
4.33617775196021387e-06
7.63994600327980676e-06
-2.17083054028250483e-06
-8.22694156365469808e-06
7.66953765817837415e-06
5.38926801450122627e-06
1.36319948936414886e-06
-1.11424170726891607e-05
1.11403562727782792e-05
2.30123779951277139e-06
4.42739544160024485e-06
-1.62667960152662719e-05
1.6532159274554412e-05
-1.27955789395076403e-06
3.59456153907022728e-06
-2.25841172095843667e-05
2.39624141178696908e-05
-3.45376876857893269e-06
-3.76806894407795369e-06
-2.90367047692527004e-05
3.15145605240126726e-05
-3.86735086503679128e-06
-1.66698453333357597e-05
-3.60816206233787408e-05
3.87696070522458474e-05
-2.0140001336215215e-06
-3.36168214593631626e-05
-4.36116297394096935e-05
4.62046087911543158e-05
1.90735288735088089e-06
-5.30652365360252781e-05
-5.18058655441552317e-05
5.42437858384358233e-05
6.18306455250530035e-06
-7.19671524978572483e-05
-6.11518583424810601e-05
6.39426269791747739e-05
8.58616974226654664e-06
-8.95790181857043978e-05
-7.28628079541040872e-05
7.65370198273856804e-05
5.26721622224159828e-06
-0.000103683382388614008
-8.88259242271376024e-05
9.44375391230703416e-05
-3.45971987579114771e-06
-0.000132712424872646559
-0.000110456253639471311
0.000121805618539670712
-8.74129970732253951e-06
-0.000212773869616194813
-0.000136429164693317419
0.000158096827605261813
-0.000199779688836013348
-0.000151442058160439522
0.000198794168234502495
-1.74248904227080882e-06
1.57523557284275709e-05
3.97662431136846115e-05
-6.73474380068154056e-05
-7.86810456215029279e-06
1.23430502292631861e-05
2.06731173157014277e-05
-3.14446469156796546e-05
-1.11932534419461807e-05
1.15823921814266553e-05
1.42400814274106728e-05
-2.46681602963101288e-05
-1.22964284417928998e-05
9.57744041165352333e-06
5.42741109698338781e-06
-1.25384489269853762e-05
-1.09548608827013654e-05
7.24544320950589599e-06
-7.54657761562550047e-06
3.38697063823575249e-06
-1.05193551885316751e-05
4.24742880142728318e-06
-1.85133009999365442e-05
1.74249501578786878e-05
-1.15536718272050222e-05
-4.12668504786101523e-06
-2.80519420532924363e-05
2.94448655469381026e-05
-1.15802360570867543e-05
-1.92804707683911667e-05
-3.67187478438208966e-05
3.93559549650630868e-05
-1.0039722607312657e-05
-3.77177309820717933e-05
-4.53957199739867689e-05
4.79561151453371395e-05
-7.65204643945758262e-06
-5.70843119767017941e-05
-5.57205579809977796e-05
5.7351963211323805e-05
-5.30786645410598765e-06
-7.65075184956100581e-05
-6.69771824422456025e-05
6.91733760764259788e-05
-5.69396328063069292e-06
-9.32569483187363799e-05
-8.07726443291722433e-05
8.48366764373416452e-05
-1.2138122219132255e-05
-0.000104751896849936479
-9.81809668661442613e-05
0.000105693645765120664
-2.15512886766727532e-05
-0.000137847053927355498
-0.000119956011570615087
0.000134503808693828438
-2.25626137168237344e-05
-0.0002389319021916306
-0.000142694339531874363
0.000169863694113410273
-0.000258377049897768598
-0.000143139659871784574
0.000179174402681245217
-7.55675440620829188e-05
0.000107670266039173416
0.000400399624063416191
-0.000416750010768151364
-0.00012583174850402533
0.000106358203081011995
0.000180716554291068809
-0.000224467356382454124
-0.000161285448558327904
7.00446022363685849e-05
5.30152304164193495e-05
-7.60237283359998828e-05
-0.000162758067573075786
1.06249820685488093e-05
9.80039168055737701e-06
-9.37524557720122124e-06
-0.000142103078905454956
-1.54629331309621976e-05
-9.65456394673321728e-06
1.17079422543225895e-05
-0.000120759621314410742
-2.00614802332368947e-05
-2.65162949785617301e-05
2.9481740414318772e-05
-0.000100732902582135304
-2.78266557550456428e-05
-3.7982510754180977e-05
4.1655757147658806e-05
-7.92447299390189395e-05
-4.37966322988775619e-05
-4.76791383252300294e-05
5.07071324865756052e-05
-5.94088332858501295e-05
-5.98198436535396245e-05
-5.77366678218203632e-05
6.00028802435161919e-05
-4.63769702017518415e-05
-7.22956668580697391e-05
-6.90304589086345306e-05
7.12099562868495547e-05
-3.99848646768242435e-05
-8.67224641220510272e-05
-8.01737574331486515e-05
8.39966009967353834e-05
-3.9092583820722897e-05
-0.000101566876769518082
-9.47154050859022443e-05
0.000102133055885823793
-4.28643889453803127e-05
-0.000114007627103656283
-0.000111228886897800046
0.000124256425374098762
-4.33827453407186002e-05
-0.00015918663044150864
-0.000130160645151069598
0.000152018577680328236
-3.1700058967018793e-05
-0.000284390025449504083
-0.000145336512704944071
0.000179111944860140812
-0.000306553885890794957
-0.000133268350815033949
0.000149745121798559991
-6.09373275713036489e-05
0.000175274714461121995
0.000430719815473204189
-0.000437386996658381262
-0.000137818755959498668
0.000206671301746268448
0.000219342726384616493
-0.00024277409203008897
-0.000210302650585628115
0.000143008220323374857
8.6797762413288524e-05
-8.72776880558647774e-05
-0.000231310814936811046
1.14432632777508158e-05
2.65098521777778165e-05
-6.32008292666033753e-06
-0.000234900958400852865
-3.55168382398272646e-05
-1.47273259425251366e-05
3.83712536982509539e-05
-0.000222117516166764768
-5.56042656591033361e-05
-3.20961889559513757e-05
5.48555076816244645e-05
-0.000197428489405392115
-6.99000071134217409e-05
-4.20699232963908396e-05
5.94542483677346127e-05
-0.000171218234732770953
-8.0950858888334358e-05
-5.12047638404907225e-05
6.21487128647400995e-05
-0.000147016036144385529
-9.06570994873732647e-05
-6.42368941492462347e-05
7.0871945564835191e-05
-0.00012356754706625115
-0.00010226877681344948
-7.78973402503676518e-05
8.44219638733511939e-05
-0.000106976757098831992
-0.000111321061326668733
-8.89849618530749037e-05
9.69927699304758563e-05
-0.000100689228406895852
-0.000120046869349708062
-0.000103680549136499643
0.000115873015127257201
-9.5946298043770144e-05
-0.000140609518380325083
-0.000120318660117004159
0.000142177622133315816
-7.26591090570628427e-05
-0.000217606290236436626
-0.000136690149728233414
0.000171822616569145887
-3.44722510751445529e-05
-0.000358888644444206573
-0.000142497504004619968
0.000178809252746276208
-0.00032705949757014241
-0.000115222287670209013
0.000101255633817205838
-2.10085752889794242e-05
0.000195175372225212364
0.000407950589482681657
-0.000406842865162562284
-7.54018069141049294e-05
0.000261095983928111655
0.00021965623736991852
-0.000219687756062066672
-0.000146142803967420183
0.000197368553220122637
0.000129051307218803492
-0.00011267085363292455
-0.000179922009641338349
2.84410970591894422e-05
7.39536996713398016e-05
-5.71723498364662947e-05
-0.000176031492028735079
-4.61693465681422784e-05
2.32385822233713928e-05
-1.64766632746821357e-05
-0.000148792167721159844
-9.77849697388546443e-05
-1.32093650293430528e-05
2.8150690050061823e-05
-0.000119439422368208746
-0.000126317875508959686
-2.02439688152220867e-05
4.73091224762351581e-05
-0.00013079044449176486
-9.33020043728724751e-05
-3.28100638278027158e-06
2.69830690194506863e-05
-0.000173726638201544749
-5.90357487015354273e-05
-1.23474123635321474e-06
1.25495688035486085e-05
-0.000193244357417950266
-8.31190635342680582e-05
-2.81786029678343234e-05
2.85465986179401709e-05
-0.000198552851400537344
-0.000111473335655982997
-5.66012315059620335e-05
6.20619902682263886e-05
-0.000203249983145997737
-0.000120074278178698788
-7.99660704680921496e-05
8.46906169561351775e-05
-0.000180648767023773186
-0.000191626745298103043
-0.000105250683037744268
0.000133666688930871231
-0.000112009084203288945
-0.000336778901468977516
-0.000125020126378574888
0.000175553038367926408
-3.08644568826215197e-05
-0.000472385648559906814
-0.000131468279918018976
0.00016382061843138313
-0.000322520682014050672
-8.50208053345543019e-05
4.96174881588096764e-05
7.68385775420834648e-07
0.000187032814636864972
0.000377928138184189816
-0.000370554247064088416
-2.1984063048992244e-05
0.000246063521457140521
0.00020841921901185959
-0.000170634396171412075
-9.70670676316419563e-05
0.000235279080115847165
0.00012560912375529442
-8.84368313605007916e-05
-0.000150396113148675123
6.39479545727558718e-05
6.57282842693166956e-05
-4.79059500290535773e-05
-0.000167268921419401375
-3.07018708062883547e-05
2.11256408648436844e-05
-1.97202675755180383e-05
-0.000150778923123287187
-0.0001213849005940776
-1.61692302275557872e-05
2.32792111660281976e-05
-0.000109718229196733094
-0.000182761227962958874
-3.57886217645890983e-05
5.11713515662199245e-05
-5.27836785867283526e-05
-0.000178972009626735342
-1.95218932832444441e-05
4.82573155407379296e-05
-7.77412241168946253e-05
-6.74425931636243609e-05
6.67378509266493552e-05
-3.33734346069228111e-05
-0.000169540049183190892
2.05111537950141798e-05
0.000126679890683872723
-0.000138511370881571185
-0.000235986626339660408
-1.00181534041722433e-05
9.31765710024904384e-05
-0.000128185170711196623
-0.000271011480316212081
-6.37475784926571092e-05
1.52158329015696973e-05
-3.6517698159593732e-05
-0.000255899203170733571
-0.000214208110414824764
-4.18129664571581435e-05
4.92820024365171001e-05
-0.000171317488602420987
-0.000450204665949558466
-8.78708528028311305e-05
0.000116714850478402555
-4.86718924954174774e-05
-0.000615450509508695242
-0.000119078626611718189
0.000139497802647318357
-0.00036411119909020073
-7.68371126433696852e-05
6.97556396599812318e-05
-4.6566557637989117e-06
0.000177869525115684213
0.000345920104686752209
-0.00033210011491871614
-6.17549248751013825e-06
0.000198621206222040402
0.000175111615426242314
-0.000126150310745206995
-6.058374092379954e-05
0.000258950778904293365
9.46345724225863979e-05
-6.38978714463289048e-05
-0.00012396159684018894
0.000117926723522942915
4.17384288085327485e-05
-3.23390785497502985e-05
-0.000149424247211450256
-1.97456237754441068e-05
2.74551110453503922e-05
-1.29483266328915363e-05
-0.000147421038200849097
-0.00013059661298870436
2.66569977946003449e-06
4.54290153107766688e-06
-0.000131393720156694743
-0.000204623059731125125
-2.87317521452630777e-05
3.45662762374505917e-05
-0.000103005034918176797
-0.000223641594455850331
-3.84253410397574955e-05
5.47062734624816844e-05
-6.9839258935298909e-05
-0.000136010537251497217
2.81843365288645352e-05
7.21773535736163117e-06
-0.000107631053458243488
4.46297160760236814e-05
0.000161315601465994587
-0.000147642320898850509
-0.000169840517160293932
6.66777745861593316e-05
0.000202643601756436934
-0.000217130052993285571
-0.000222810634615485097
4.77854077767930221e-05
0.000132315014664431707
-0.000190878007459493239
-0.000240757434001200347
-0.000141774714251142607
3.32983345309215107e-05
-8.77850077087326329e-05
-0.000203590884182157361
-0.000475767486355841546
-5.07378247826868015e-05
3.91339886742735529e-05
-0.000102156379180084794
-0.000724039268755050113
-0.000119151726221118517
0.000126305868565427268
-0.000486004481609826893
-0.000106262493599614341
0.000125999302094530283
-6.55178172215585075e-06
0.000302080340057938224
-0.000287878072434025938
0.000170219134671832813
6.16116001993705e-07
0.00013472206981769648
-0.000137134991263606807
0.000193866180066046279
-1.21543699144253774e-06
8.58385318972131506e-05
-9.12628313572046981e-05
0.000266206219313417421
-4.91882047793851577e-05
5.72782703168109439e-05
-6.0760478111648072e-05
0.000169381124733179321
-0.000105530939581017632
5.26552324212167702e-05
-2.53861373279532529e-05
9.32777702126292522e-06
-0.000126029384833346771
2.91727579561330629e-05
-1.97028784019086738e-05
-0.000119568200069909551
-0.000124398426029953161
-4.84497864699917619e-06
1.43182731258010361e-06
-0.000202840937421071895
-0.000117090918701738862
-4.3068258967975741e-05
3.57798012679188881e-05
-0.000223660629249501446
-0.000101991680682287451
-2.84102757026350188e-05
4.11509173076159856e-05
-0.000163850484707811104
-0.000109619954926244411
0.0001462332058246767
-8.52682926804627624e-05
-8.70694885276746965e-06
-0.000140819829376676936
0.000216064468551559636
-0.000194445768738195292
7.62588681039402957e-05
-0.000185845736116814334
0.000185798742563038767
-0.000211990267050536695
0.000119002710695817921
-0.000217241941615218539
9.42641868978067647e-05
-0.000136878361278810091
-6.77644665471663756e-05
-0.000206287000296997356
-5.02852002178514438e-06
-3.37605365384085663e-05
-0.000447933526681191629
-0.000153645827015767606
-0.000117620078253491634
0.000108588490408561373
-0.000140345297197611463
0.000167766764608439408
-5.27243895999549251e-06
4.88006698375589587e-06
-9.38520793860690942e-06
-4.90996836059495764e-06
-9.36062642758485851e-07
-1.09738670684376565e-05
-2.1416228128310377e-06
-3.43874039282507255e-06
-1.23531006020132499e-05
1.08056731835445926e-06
-3.99372915429454307e-06
-1.43806812270283663e-05
3.10940078180757774e-06
-2.96703037210778429e-06
-1.70209935884445858e-05
3.75712971783540414e-06
-1.83415021414029341e-06
-2.02821533909438133e-05
3.95319598950367657e-06
-1.72335913264055964e-06
-2.42893072652716275e-05
4.48704750207652279e-06
-2.53467101845583053e-06
-2.91653165273556628e-05
5.93131628591891805e-06
-3.98328710747763634e-06
-3.49591873770725188e-05
8.5946852099341004e-06
-5.93060355366093482e-06
-4.1851885525474118e-05
1.25890936109152545e-05
-8.14941468834320015e-06
-4.99138725077937311e-05
1.81839257978278908e-05
-1.11589003925695616e-05
-5.95761988443728997e-05
2.47919222844673984e-05
-1.41128715119736107e-05
-7.0873048559040236e-05
3.20015623528763362e-05
-1.94432540794593153e-05
-8.50507176007731902e-05
4.97331075525037951e-05
-3.16047262973976692e-05
-0.000100364669446167666
1.58668720795781031e-06
-0.000112342904888975467
-3.60996428141726673e-06
7.99659478023270783e-06
-9.26484432923888783e-06
-2.84371994993752511e-06
-2.3431658579797846e-06
-1.04826027920177227e-05
-1.21896810443944749e-06
-5.80899134444938204e-06
-1.19057376942918646e-05
-3.52922443020670814e-07
-5.65596128319569424e-06
-1.39993582893903229e-05
4.98480679566219796e-09
-4.24639554686776773e-06
-1.67685022507377064e-05
2.02154140293969167e-07
-3.19673327744753297e-06
-2.02013428229299614e-05
5.46897526977400985e-07
-3.61674189753324649e-06
-2.43446011888307863e-05
1.52180536713000015e-06
-5.57840470560460645e-06
-2.92605660944974073e-05
3.54624108258638966e-06
-8.71545010804913521e-06
-3.50164293289464021e-05
6.86110995338584579e-06
-1.27596166519278875e-05
-4.17105822807835387e-05
1.15971406785508762e-05
-1.74413208967699561e-05
-4.94702698485763309e-05
1.77112332217378987e-05
-2.33820862966967485e-05
-5.85778694089493455e-05
2.5427174249301517e-05
-3.01231957685992815e-05
-6.91682741794540421e-05
3.25410863585234129e-05
-3.9568655724308698e-05
-8.22496209714380255e-05
4.59111095459216787e-05
-6.18162543185553972e-05
-9.5169172267311889e-05
1.2296124672489494e-06
-0.000118632909434627728
-1.81813966607614964e-06
9.27477093656461706e-06
-8.77369940205145186e-06
-1.18538930601550671e-06
-3.75063838790411593e-06
-1.0229455678744517e-05
-2.22537134799435849e-07
-7.59654183411067582e-06
-1.18393902001246965e-05
1.45611580138294228e-07
-6.86377360821422757e-06
-1.40519747429552045e-05
2.46322133337068509e-08
-5.06102179250526847e-06
-1.69196257254094462e-05
-1.9936398746952822e-07
-4.14798860563713394e-06
-2.04414669545073584e-05
-1.25733370961009751e-07
-5.26764749665076832e-06
-2.46550293968730417e-05
7.02192035824845594e-07
-8.53552615710597629e-06
-2.9617631039138747e-05
2.6589873426270639e-06
-1.34760840942438088e-05
-3.53943101798419082e-05
5.92241628390646091e-06
-1.96521858691572211e-05
-4.2091579956105581e-05
1.05256400433770442e-05
-2.67024656782205461e-05
-4.98658079781779594e-05
1.63724714526827591e-05
-3.54039333656250025e-05
-5.90225012867581344e-05
2.36884008686636938e-05
-4.5719036534839221e-05
-6.96889692947026625e-05
3.12791516199371761e-05
-6.00035358298035634e-05
-8.28514968894936859e-05
4.21888895087947429e-05
-8.94551788403461406e-05
-9.59310775583433335e-05
-3.15008696687446926e-06
-0.000117811333838996744
-5.26751021529521244e-07
9.25215312952051681e-06
-8.22408671453807815e-06
3.69086864528391207e-07
-5.30002357003776901e-06
-1.01088683075385319e-05
7.90071384523223075e-07
-8.66295922289945369e-06
-1.19441664971803018e-05
5.17068328175839785e-07
-7.26381788807236489e-06
-1.42842232570889541e-05
-2.28901278327770644e-07
-5.13902528423615032e-06
-1.72368205606530513e-05
-9.92952047065705055e-07
-4.52170288088809426e-06
-2.08345383204045229e-05
-1.30086079145765135e-06
-6.58959046627555963e-06
-2.51122926018696096e-05
-6.9419492597231269e-07
-1.14115065440391236e-05
-3.01231855454519711e-05
1.15061903238675275e-06
-1.83302399108098181e-05
-3.59198001240737465e-05
4.32579349684133524e-06
-2.66822046147359108e-05
-4.26318460596176345e-05
8.71607978874385356e-06
-3.59453512159499478e-05
-5.04386917034606975e-05
1.41738708067791663e-05
-4.71898686842479864e-05
-5.96361499362998764e-05
2.09669381117877506e-05
-6.09027440006893451e-05