/*--------------------------------*- C++ -*----------------------------------*\
| =========                 |                                                 |
| \\      /  F ield         | OpenFOAM: The Open Source CFD Toolbox           |
|  \\    /   O peration     | Version:  2206                                  |
|   \\  /    A nd           | Website:  www.openfoam.com                      |
|    \\/     M anipulation  |                                                 |
\*---------------------------------------------------------------------------*/
FoamFile
{
    version     2.0;
    format      ascii;
    arch        "LSB;label=32;scalar=64";
    class       volVectorField;
    location    "0.690000000000000391";
    object      faceForces;
}
// * * * * * * * * * * * * * * * * * * * * * * * * * * * * * * * * * * * * * //

dimensions      [1 1 -2 0 0 0 0];

internalField   uniform (0 0 0);

boundaryField
{
    inlet
    {
        type            calculated;
        value           nonuniform List<vector> 0();
    }
    outlet
    {
        type            calculated;
        value           uniform (0 0 0);
    }
    top
    {
        type            calculated;
        value           nonuniform List<vector> 0();
    }
    bottom
    {
        type            calculated;
        value           uniform (0 0 0);
    }
    left
    {
        type            calculated;
        value           uniform (0 0 0);
    }
    symmetry
    {
        type            symmetryPlane;
    }
    interface
    {
        type            calculated;
        value           nonuniform List<vector> 
104
(
(-0.0350927842281819405 1.01287140090588565e-05 3.70585017692550934e-06)
(-0.0127654307056836013 -2.316149879640104e-06 3.46303769935245188e-06)
(-0.0168316481136422426 -1.47871226235162893e-06 1.6032136064171313e-06)
(-0.0135929700591097356 -4.22519631036644526e-06 5.54149401118209407e-06)
(-0.0108583603255055991 -1.17043221602516815e-07 1.42961220090767028e-07)
(-0.0166349214665776832 1.92756226442301436e-08 -2.74521318385647076e-08)
(-0.017492152333379498 1.54458539660803948e-08 -4.14348286739842202e-08)
(-0.0180512807151118893 1.303853594963459e-08 -3.21599454955514216e-08)
(-0.0181649634694497769 -1.3012477970255842e-09 1.6691593365367718e-09)
(-0.0181558177036699256 -6.42668094880084647e-09 9.6512842031568863e-09)
(-0.0179954879833781924 -1.17731845856923081e-08 2.14129143672829012e-09)
(-0.0178492139484191167 3.48236824490298348e-09 -5.45510318110240099e-09)
(-0.0177990092401851922 1.64145143582709541e-08 -3.25735502977179989e-08)
(-0.0301056876122653902 -1.6604419499225411e-06 1.98503496824952559e-06)
(-0.0181076727311414651 -3.35314034732030065e-08 -2.27436066402346361e-08)
(-0.0181095434092605825 -7.2841366051922737e-09 -5.47977220310421258e-08)
(-0.0180179235268066278 -4.20116453308804195e-09 -2.05344708801735296e-08)
(-0.0178766837181787014 -5.12440254999475422e-09 -1.80486551338704244e-09)
(-0.0179246780813259801 -2.79114181045987042e-08 -4.51538805741656475e-08)
(-0.0180097900262274832 -2.26142749827737039e-08 -3.66287411944511204e-08)
(-0.0180894327781510877 -1.23278842171238438e-08 -3.34092669169590147e-08)
(-0.0181125633398250795 -5.09942194029723548e-09 -2.76849424047945217e-08)
(-0.0180835894658466848 -8.79661130598786335e-10 -2.57944852420842646e-08)
(-0.0180282010808847544 1.73328412381913982e-09 -3.1783191587414661e-08)
(-0.0179610368693595077 6.38224115598313844e-09 -3.84033382262010072e-08)
(-0.0179005666826095311 1.62324356380132994e-08 -4.48838253412853113e-08)
(-0.0235568197957145391 -3.41401962187987598e-06 2.76032164740211314e-06)
(-0.0183565287262616103 2.39608753866271576e-10 6.60773499313763295e-09)
(-0.0182039755527783551 6.60677657680291827e-09 -2.8182292106885229e-08)
(-0.0181479353362269877 -8.19824929819699285e-09 -4.26021411203613322e-08)
(-0.0180807278634143864 -1.26880159748031944e-08 -3.52128294720846686e-08)
(-0.0180095742546009865 -8.52312901896751884e-09 -2.43781152430985603e-08)
(-0.0180401195780825613 -6.81812182574325878e-09 -2.64785217283670439e-08)
(-0.0180763204218240964 -1.95654816141178953e-10 -2.60512215528417556e-08)
(-0.0180829074971723854 3.06319687631050366e-09 -2.73240305357344756e-08)
(-0.0180552372576585421 1.53040262404929797e-09 -3.00200051883082009e-08)
(-0.0180086004283405605 1.93983958199160104e-10 -3.67460057291105442e-08)
(-0.0179401660984298862 3.92891992231224523e-10 -4.26966922767767004e-08)
(-0.0178877957845957163 1.09725360864802518e-08 -4.74863020036262964e-08)
(-0.0211998146731052703 -9.32838219397424926e-07 1.89049237573581172e-06)
(-0.0185473491159859373 3.03772803219584255e-08 1.25966536055644443e-07)
(-0.0182723346575919543 3.63308612689940347e-09 -9.11758737944169823e-09)
(-0.0182132665086527853 -1.38334477554848346e-08 -2.23098649843940889e-08)
(-0.0181729806463271498 -1.8327489805339282e-08 -2.52554539078165037e-08)
(-0.0181526565828092831 -6.01354227360044783e-09 -2.48550856245340089e-08)
(-0.0181522280794939143 1.20833521336821406e-09 -2.54985665376177205e-08)
(-0.0181404441229524212 4.6056661770110993e-09 -2.67694672512459993e-08)
(-0.018114679360970453 4.71970519222056295e-09 -2.94633299549929704e-08)
(-0.0180755756397182367 1.63824751687515331e-09 -3.51278801063778125e-08)
(-0.0180381101816303492 1.89357244376511513e-10 -4.55818325463444932e-08)
(-0.0179856107416209721 1.60406261104415441e-09 -5.26853823246348608e-08)
(-0.0179470837743840733 1.11512073108456232e-08 -5.5464539744979297e-08)
(-0.0205640003715558406 -3.12699447536694574e-07 8.80227339463140063e-07)
(-0.0187305676510038377 6.03502796489226618e-08 2.37597875967048097e-07)
(-0.0183417670175620925 1.11979274681749593e-08 4.52087318026026082e-09)
(-0.0182573300404078459 -5.62771978725781208e-09 -1.10385668525222264e-08)
(-0.0182096209019681106 -5.40899617255556947e-09 -1.64106167408966324e-08)
(-0.0181776969369349915 5.79346566729122358e-09 -2.25760156619592142e-08)
(-0.018161514219203749 8.35808490472086044e-09 -3.0273351840854039e-08)
(-0.018140051995961224 9.72694919328277763e-09 -3.36619271197650792e-08)
(-0.0181102718381821737 7.7248334649353055e-09 -3.75989154680370356e-08)
(-0.0180864688937107179 3.30427879702084339e-09 -4.79033157020193715e-08)
(-0.0180861472575510919 4.20509492303460513e-09 -5.95253120063737563e-08)
(-0.0180832674109564183 8.26050319905058106e-09 -6.68652227429048923e-08)
(-0.0181024902906495797 1.45566857761129843e-08 -6.59438964709932573e-08)
(-0.0215959058318258776 -6.2625085805216884e-07 1.63926455861033287e-06)
(-0.0189831034542378325 9.01525456018624806e-08 3.66438810746333557e-07)
(-0.0183586174756802042 2.92447012492309964e-08 2.90375070147364212e-08)
(-0.0182116564194322594 2.69227380674527158e-08 6.25614344013757698e-09)
(-0.0181636959027533691 3.3976257574522859e-08 -1.36997496529387997e-08)
(-0.0181691030664037148 2.94337539651510943e-08 -3.30981349184636917e-08)
(-0.0181590737000039588 3.05918898553547825e-08 -6.04297449700859269e-08)
(-0.0181356584782037533 2.38999153498752422e-08 -6.22694569306968793e-08)
(-0.018128234016025719 1.45769331094796079e-08 -6.09648807179444959e-08)
(-0.0181498619695558867 1.5293537612703505e-08 -6.88275922607358804e-08)
(-0.0181854835184031526 1.94747430512329382e-08 -7.71073294401140636e-08)
(-0.0182128565960680694 2.76209626882003506e-08 -8.72075310642349174e-08)
(-0.0182594239333317108 2.95534394709913677e-08 -7.4513175275298122e-08)
(-0.0240992015341211126 -3.19372650192963011e-07 1.27972658376129286e-06)
(-0.0208063823953878908 2.74396012743616109e-07 7.62308401993120585e-07)
(-0.0190983834459077205 3.08468103585582103e-07 9.7551815664338217e-09)
(-0.0185988359974087122 9.52707539367316955e-08 -4.80884502716534764e-08)
(-0.0184903790114073069 1.0524326611709587e-07 -8.29854703082062348e-08)
(-0.0184317165236877641 9.32059316708002604e-08 -1.06694994592642306e-07)
(-0.0183878025640418254 1.08621502468066262e-07 -1.68643701042570061e-07)
(-0.0183852677706285404 9.17826687139958834e-08 -1.67738146543564828e-07)
(-0.0184673630648911069 4.28881523413062835e-08 -8.24605440829945645e-08)
(-0.0186031454146891352 4.47472616051183431e-08 -7.75463054729617502e-08)
(-0.0186368230062548511 4.72276796597118671e-08 -7.13420856046391915e-08)
(-0.0186655776354176031 6.07562355084161844e-08 -8.09763946401972786e-08)
(-0.018703698024756181 7.0644310095973988e-08 -5.02587206649341815e-08)
(-0.0270989878835889604 -9.7427233374309697e-08 1.87701384162795244e-07)
(-0.0249560024088979655 3.7747317390433867e-07 3.36626208855790394e-07)
(-0.022567791501958933 6.87305358506284749e-07 2.21065413854282772e-07)
(-0.0209970615406573705 6.98769306369446046e-07 1.51150249884804373e-07)
(-0.0202273295139778243 3.30469779982731185e-07 4.9871102911389349e-08)
(-0.020006491914907068 1.20371939235368252e-07 7.41122788571935539e-09)
(-0.0200015734488567763 1.25764358579899047e-07 -5.01207196793419079e-09)
(-0.0200016982914966342 1.32540575245114675e-07 -1.40067688589159805e-08)
(-0.0199433079273581559 1.1253615901299652e-07 -1.39963631311485034e-08)
(-0.0199272212969638408 1.03283643453869227e-07 -2.02788565477600434e-08)
(-0.019678060839030339 9.80848510147643765e-08 -2.53671957322488531e-08)
(-0.0197509210935995876 7.53979910166040742e-08 -2.98935444236448419e-08)
(-0.0200583900299859778 9.64928542017673399e-08 -8.66341325006035417e-09)
)
;
    }
    procBoundary3to0
    {
        type            processor;
        value           uniform (0 0 0);
    }
    procBoundary3to1
    {
        type            processor;
        value           uniform (0 0 0);
    }
    procBoundary3to2
    {
        type            processor;
        value           uniform (0 0 0);
    }
}


// ************************************************************************* //
