/*--------------------------------*- C++ -*----------------------------------*\
| =========                 |                                                 |
| \\      /  F ield         | OpenFOAM: The Open Source CFD Toolbox           |
|  \\    /   O peration     | Version:  2206                                  |
|   \\  /    A nd           | Website:  www.openfoam.com                      |
|    \\/     M anipulation  |                                                 |
\*---------------------------------------------------------------------------*/
FoamFile
{
    version     2.0;
    format      ascii;
    arch        "LSB;label=32;scalar=64";
    class       surfaceScalarField;
    location    "0.690000000000000391";
    object      phi;
}
// * * * * * * * * * * * * * * * * * * * * * * * * * * * * * * * * * * * * * //

dimensions      [0 3 -1 0 0 0 0];

oriented        oriented;

internalField   nonuniform List<scalar> 
20390
(
0.000204123524352370399
-0.000153919938244420905
9.51743426973878764e-05
-0.00014537792915050247
0.00030679555433007897
-0.000157503774179260493
0.000255403278463629509
-0.000200571539328693387
0.000374506873127714425
-0.000128880153809711142
0.000281792924384765458
-0.000220624090838083821
0.000420876319625909494
-9.97284107797346409e-05
0.000285040972731913107
-0.000231682005066563443
0.000454137751082260587
-7.80574525958813067e-05
0.00028348947074320407
-0.0002386934443261972
0.000479266553124919187
-6.26738700052866318e-05
0.000281994845309363072
-0.000244449773431378882
0.000499060320682004777
-5.21173425745249296e-05
0.000282032190329217271
-0.000249708613946770933
0.000514832839905021516
-4.43992075292996461e-05
0.000283454295704161122
-0.00025482760903794107
0.00052793379449541896
-3.94417911364095615e-05
0.000285946348024389177
-0.000259605513963415873
0.000538955860187140517
-3.55197537723188778e-05
0.000288513968432302348
-0.000264016282769504373
0.00054872955133259565
-3.32832332880083159e-05
0.000291262730728598538
-0.000267753190675419487
0.000558057180817061018
-3.20747795912075054e-05
0.000293223630710837081
-0.000270476483511490303
0.000567209616001803437
-3.13353641447936413e-05
0.000294189784456432252
-0.000272006860380255469
0.00057658926206717771
-3.13118797541612362e-05
0.000294153932520038307
-0.000272221704160100896
0.000586438608776801104
-3.18645056701423473e-05
0.00029303454745954955
-0.000271019392084112032
0.000596642128191065386
-3.23320632205398209e-05
0.000290705411344028381
-0.0002685768705552605
0.000607158414716756599
-3.29060673757939154e-05
0.000287372044249756351
-0.000264982268955131039
0.000617499106433141575
-3.2723327551311478e-05
0.000283281749610549062
-0.0002608991214430527
0.000627930638386027268
-3.28496697636209713e-05
0.00027877818485660819
-0.000256360052183485796
0.000638502338478854964
-3.31947719549905457e-05
0.000274093337710984062
-0.000251470265319456783
0.000649331850546324622
-3.34899239441182329e-05
0.000269450040487068197
-0.000246789624470932455
0.00065892870693073295
-3.13750162428370148e-05
0.000264281101161049643
-0.000242502936840656555
0.000668327313661896288
-3.08612907494926325e-05
0.000259394659828537163
-0.000237931971565609604
0.000677889613696087642
-3.08093435603383096e-05
0.000254848514325097496
-0.000233601464959382467
0.000688576941777334383
-3.23162997835484223e-05
0.000251156843624782058
-0.000229527864002321497
0.000697634910684805706
-2.98145152439567526e-05
0.000246652414864390545
-0.000225895858873800874
0.000706368206475184142
-2.88728133262122607e-05
0.000242052534563532849
-0.000221913006314835984
0.000715150896393371214
-2.85290962818264591e-05
0.000237855114598259707
-0.000218108695441698863
0.000724728308772480678
-2.99245334420142517e-05
0.000234751137549789107
-0.000214404005281078461
0.000732922834095940104
-2.75263919040723085e-05
0.000230998630139910547
-0.000211666757221893535
0.000740919288686782526
-2.71724972375548959e-05
0.000226894579054843517
-0.000207718530662484704
0.000747578163892711946
-2.68360319817190328e-05
0.000223751739138019812
-0.000203574572044255998
0.000750340342721648643
-2.37953428377250857e-05
0.000221060178309137178
-0.000200026998514394905
0.000734284262501777888
-3.74481141452322181e-06
0.00021698255242235572
-0.000197181646062045951
0.000663679562206053873
5.16492635828702583e-05
0.000212303072269045949
-0.000193347624829832179
0.000468791929495995015
0.000177124824955038926
0.000204771816793205901
-0.000187008970048575601
0.00016812528551487122
0.000284495207683384168
0.000190724203095757062
-0.000174552688764855444
0.000159403643056473297
0.000120394948748571377
-0.000111673359799597274
0.000254258867984025303
-0.000297110720044854856
6.2308625479738804e-05
-0.000173376724587811777
0.000340816125973700788
-0.000312407282955437678
0.000290844494041748764
-0.00022249824891442207
0.000398164878657132518
-0.000276201653511871253
0.000333540156629010822
-0.000243567403479543675
0.000440602555843632902
-0.00022887227852118642
0.000335822990013339101
-0.000249116789201695821
0.0004746327600875277
-0.000188985268350258783
0.000326445082059899101
-0.000249547465832783942
0.000501026335632389513
-0.000153928151113036425
0.0003145868632659115
-0.000249726156418453088
0.000521229885653196837
-0.000126598596152123526
0.000304624305720542119
-0.000250346605940077822
0.000535869995926690416
-0.000103844526169546644
0.000297190774054541132
-0.000252385571496398209
0.000547689321940729576
-8.90042877768284666e-05
0.000292889395168609106
-0.00025514623095567059
0.000557430363527601936
-7.70360369595916362e-05
0.000290236030082771049
-0.000258460795717285155
0.000565681509775033012
-7.0301496977972369e-05
0.000290456925251343233
-0.00026168981667137371
0.000572942869760782823
-6.54224313609539531e-05
0.000290616526716753489
-0.000264530245691327814
0.000579702728351326056
-6.24697274469273358e-05
0.000290723144667764586
-0.000266348650456204054
0.000586663687811353083
-6.16844638888330279e-05
0.000290231764134944942
-0.000266820148096518633
0.000594546928543582677
-6.31643427914606022e-05
0.000288884533847085293
-0.000265467947958292563
0.000603114264378340047
-6.43779679753312344e-05
0.000286146449974698379
-0.000262667898072882456
0.000612803242748614484
-6.65762292528594338e-05
0.000282212140916712978
-0.000258230977884916894
0.000622245457313435929
-6.5743515473792039e-05
0.000277188159041471117
-0.000253610198390474926
0.000632159138298013317
-6.63821890083660896e-05
0.000271963819429067906
-0.000248344979255977691
0.000642432667298759724
-6.73295128614942857e-05
0.000266718199022634029
-0.000242856975980044836
0.000653692485813280977
-6.89184411944590927e-05
0.000262018583156390077
-0.000237849872502164504
0.000662623168658860954
-6.27386268012183315e-05
0.000255985893895461743
-0.00023355295307273376
0.000671740863586100514
-6.2462379445179649e-05
0.000251223028637042082
-0.000228739617820408893
0.000680249268657553735
-6.09844547865733884e-05
0.000246396173935179753
-0.000224729445899759345
0.000691825067214275348
-6.77893718574835644e-05
0.0002446531723376376
-0.000220755873652740345
0.00069943103017706986
-5.92174904802790579e-05
0.000239989935047025399
-0.000218192893492888537
0.000707588229529684636
-5.82807064231730143e-05
0.000236183582999675146
-0.000214932858297870258
0.000713958006558993255
-5.42670022166852914e-05
0.000232031881740227844
-0.000212663732035919139
0.000724592120146588456
-6.3097457858922809e-05
0.000231648737884250136
-0.000209109914819130083
0.000730728432841787736
-5.21488021766012026e-05
0.000228601658874352283
-0.000210115550373892731
0.000737862582962814893
-5.35641795885367e-05
0.000226752499125644529
-0.000207494944591218411
0.000744020884420603344
-5.26029467017089783e-05
0.000225687349112653197
-0.000206078694785652623
0.00075439230930562126
-5.53585828736686094e-05
0.000225850503360357289
-0.00020465865191789123
0.00075685685012497235
-2.55192692563913776e-05
0.000222675276315978268
-0.000203365320916293406
0.000725964193301626825
6.3036215854833232e-05
0.000220429091898124161
-0.000200923304371459908
0.000608732830848493045
0.000276792794347251539
0.000217701354829571183
-0.000200137864408120168
0.000343410946105989498
0.000534997916924217923
0.000209399898989948624
-0.000194580826217078664
0.000484740961352056606
0.000204387260031916945
-0.000186313735617714464
0.000311704477474398502
-0.000304555171277385531
-0.000114093242978506246
-0.000190166794373513117
0.000359989776102562545
-0.000430649732749220637
0.000332061931200967387
-0.000262104783941809888
0.000394116775376363124
-0.000400989291093819817
0.000381230629706551098
-0.000290569990101236203
0.000422943835259952409
-0.000347046370813467386
0.000384765778077904752
-0.000295418742378422661
0.000454163857684118167
-0.000301954970796145569
0.000370621035880920374
-0.00028887135397942179
0.000486760504393233108
-0.000254702674689719338
0.000346330221910442387
-0.000278152344856742002
0.000516810583055852873
-0.000209588594922306866
0.000319828898909257713
-0.000266888980286673298
0.000539403673976815261
-0.000165893198474741815
0.000298823743208702028
-0.000259368167045567429
0.00055456477023033959
-0.000136077924617711028
0.00028714267040325374
-0.000255230138266921737
0.00056259719608900752
-0.000110029942216126613
0.000280020685067226219
-0.000255059213898505054
0.000567030250463773254
-9.64024785905033717e-05
0.000278913320327195857
-0.000257245398775292865
0.000571151956399483366
-8.7959117510040194e-05
0.000278268685393382267
-0.000259853710657082274
0.000576055556025998369
-8.38448185340450337e-05
0.000278271466682357979
-0.000261799983356742123
0.000582017219852149176
-8.25878335195848017e-05
0.000277898990071674657
-0.000262957295442771345
0.000589422878756026532
-8.5684676980203817e-05
0.000277159804586988635
-0.000262045143126629176
0.000597818825862401972
-8.83828726705988919e-05
0.000275379253075660492
-0.000259770310652368184
0.000607466506904566906
-9.37411487185736388e-05
0.000272690468108445418
-0.000255173241994296703
0.000616801769503317341
-9.19136578151132522e-05
0.000268854313610497175
-0.000252019437368140213
0.000626537053323860879
-9.22430709168531099e-05
0.000265081708419745844
-0.000248956104781341528
0.000636698236378113692
-9.36296067954850821e-05
0.000261546265813577454
-0.000245407344732931441
0.000648823738705568047
-9.84233623553497621e-05
0.000259783673904071465
-0.000242404242622587865
0.000657375470002784712
-8.717494220871814e-05
0.000256569368378562303
-0.000240684764829117562
0.000665887691123637259
-8.74458611181729841e-05
0.000254685820328909177
-0.00023821453430953243
0.000671274326472640938
-8.08859361408931525e-05
0.000250626738852165317
-0.000236111866056696766
0.000682971690980252498
-0.000101019016973924155
0.000255171064382337623
-0.000233638762610095232
0.000684799537870724021
-7.93148623145229891e-05
0.000252981504208861236
-0.000234711967836916157
0.000688789562425093024
-7.96129055014941625e-05
0.000251702818003573159
-0.000234360641265422788
0.000686520814823487037
-6.21121829334668951e-05
0.000244338841952455486
-0.000234224922506865899
0.000696807614569534828
-9.99576053892859209e-05
0.000254281575017030004
-0.000227708232753769433
0.000685449983133443554
-5.31074153185439246e-05
0.00025008867462410618
-0.000237772417879996177
0.000679443250908734388
-6.45608698010711936e-05
0.000251625674553079197
-0.000234622205174198219
0.000668567285645237834
-5.63109263757722699e-05
0.000248418451911515349
-0.000233834448247387244
0.000674874989757143001
-8.47292663247248279e-05
0.000249222492774746037
-0.000226159459100945981
0.000675175454344416229
-4.26670774500570319e-05
0.000235417655740834597
-0.000218570171542734244
0.000639882462990514346
8.3466846131263162e-05
0.000225382299202442408
-0.000210519673211390329
0.00053003019042727076
0.000370875777391485063
0.000221573552486315026
-0.000205804053576009945
0.000325692264390440081
0.000725698286811288468
0.000215423316810318526
-0.000201785711901927687
0.000795050958091556665
0.000210769111827258121
-0.000195386630093723104
0.000322932409935300607
-0.000315736965996841112
-8.90959357510998431e-05
-0.000222654709054892437
0.000336224383633788241
-0.000482245034497960222
0.00034440747104105753
-0.000306104159047720166
0.000334234050166033097
-0.00046357785329079746
0.000398863905607074363
-0.000334285015231508954
0.000344128679389508541
-0.000412013889726086074
0.000381211955252377748
-0.000326139069527271285
0.000383647170153863528
-0.000382802857279094188
0.000333201415308934307
-0.000291872022015661633
0.000451183660748294424
-0.000343531759154518763
0.000269590508136792028
-0.000248297910128782639
0.000528976832830079977
-0.000278779730368347882
0.00020487699913526196
-0.000213479032955528233
0.0006000115973647601
-0.000194712494900982
0.000147011128654163609
-0.000189226617516099528
0.000649242984700640108
-0.000114011396946373601
0.000101528381424210746
-0.000172826336104954796
0.0006750137893748112
-4.31748480064596664e-05
7.68561718842602809e-05
-0.000169482099504401614
0.00068118789975106129
3.75578956239588598e-06
7.00096189090197642e-05
-0.000176341996240837734
0.000677219285447735499
2.47087956179995439e-05
7.692910893794682e-05
-0.000185628403080135152
0.000668845305499299846
3.16100547711492628e-05
8.8330876933635899e-05
-0.000195411799286935862
0.000663050187721905501
2.70570603595576183e-05
0.000101279648399085987
-0.000205129486513607443
0.00066265539240163338
1.1512868615597019e-05
0.000113413380964069244
-0.000210216195940866066
0.000669534974353169061
-7.84418894025320135e-06
0.000125117347233767837
-0.000212535654446855619
0.000679884468551112038
-3.01851108361611819e-05
0.0001327885293548098
-0.000206694073676349523
0.00069277278917017585
-3.90523535943454453e-05
0.000140202841239297512
-0.000205952454623882752
0.000706256393036063814
-4.50589802309098571e-05
0.000146911786694200428
-0.000207579454862570541
0.000719916475931792047
-5.13836070388332957e-05
0.000152509887513337941
-0.000208415929700400313
0.000731510589961573837
-6.13251382167663876e-05
0.000158540848690924731
-0.000207233124670594729
0.000743456618002152035
-5.88012473137845181e-05
0.000165046324089497011
-0.000205365940786871336
0.000751752679212445789
-6.07021555797609977e-05
0.000168340926586936902
-0.000203380546152621142
0.000759406054588400003
-5.9758864873446602e-05
0.000171774901550455925
-0.000200555205792995566
0.00075918850317405087
-7.12808769148452173e-05
0.000168381128889847525
-0.000197901653948962772
0.000761117155956531392
-5.91378786252562028e-05
0.000171739805498921568
-0.00019384551010043685
0.000754751151310853398
-5.28018668875597269e-05
0.000170594619875977845
-0.00019103978899020135
0.000748935056094980709
-4.18710639039845272e-05
0.000171380255014540384
-0.000185805446575590215
0.000726920341504778489
-5.44620944368773597e-05
0.000159402806222019649
-0.0001828837392785989
0.000713601657020589315
-3.09559577784305719e-05
0.000156091027149765583
-0.000164923838718121843
0.000680295125196107527
-1.42328154938873726e-05
0.000137540804116321449
-0.00015456219207577758
0.000640550656172005116
2.38745790990051811e-06
0.00010798573396679548
-0.000126939174477683805
0.00057153898544565554
1.66324281579816161e-05
6.28366013867285623e-05
-9.51861936526540318e-05
0.000531339600664447573
4.45364209543027556e-05
-5.79399464058822131e-05
1.09367415872908889e-05
0.000455982629300019117
0.000155793655524117969
0.000123159605024135465
-0.000120127603256424019
0.000372825346337708969
0.000441001220895711013
0.000201530989069129715
-0.000188498768197961918
0.000255926037115753683
0.000830369979298742865
0.000216069754234257373
-0.000203842045079875465
0.00103746794521815638
0.000212487129262813615
-0.000198978007231358217
0.000321291220582865258
-0.000264582266005705007
-0.000100100073930845489
-0.000272345929315724535
0.000280392810563122449
-0.0004468306198749605
0.000349313296857472002
-0.000343829336521973296
0.000238057167098411159
-0.000448051516622696971
0.000365237950791377731
-0.000338428666148671644
0.000227017617781380074
-0.000424049626148812234
0.000304981824914914981
-0.000281906566626361182
0.000295730786044830587
-0.000455797578578472106
0.000198571403814221462
-0.000194289865726082154
0.000431387285035277589
-0.000469096259161847862
8.94469481106814602e-05
-9.95389255184494311e-05
0.000586933476707153122
-0.000425607664048636601
-1.79227657530460916e-07
-8.53902308104458367e-06
0.000727335500469539252
-0.000334273966618748751
-7.21040360299956775e-05
7.1263402941849075e-05
0.000837541438226446365
-0.00022923277623142685
-0.000124296012181125876
0.000129311315029859305
0.000922726455548491522
-0.000133465531464060894
-0.000153764400664250286
0.000158870007187168505
0.000974043778003857476
-4.79771137192363845e-05
-0.000166267733681624161
0.000166683377639845112
0.000985837412774860991
1.91668645598557533e-05
-0.000157597014237470648
0.000151345323253772079
0.000980274519397649185
5.67115989605791797e-05
-0.000142119815114326661
0.000122580958392270637
0.000976314780682839599
7.08269768515135405e-05
-0.000124406243259651817
8.45957186537665948e-05
0.000971740824297640145
7.19520491832381756e-05
-0.000103099794664799225
4.72342584025077267e-05
0.000956744761575894511
6.40112341219399144e-05
-7.40750238814849902e-05
1.7215491156295265e-05
0.000934460953466685943
4.8009467117778608e-05
-4.09373551780900958e-05
-1.49734375631515787e-05
0.000908516607894509958
2.91028615150104099e-05
9.31351409939838444e-08
-4.23038916755494215e-05
0.000882946493264824724
1.09223299482636181e-05
3.74091712241290733e-05
-6.78201846406136552e-05
0.000860047025657465045
-7.00230253561671055e-06
6.99197742694416852e-05
-9.14013762051743138e-05
0.000840371123314876561
-2.78018638196065873e-05
9.56559258652761753e-05
-0.000109502923928093602
0.000826169001636677417
-3.88098661419223722e-05
0.000116979208232335732
-0.000122767855159178142
0.000810992960220456496
-4.17458566796819196e-05
0.000131150905384107167
-0.000134930410393481633
0.000796138267271356793
-4.29673749569507935e-05
0.00014193475729602938
-0.000143870997100017966
0.000776582172139386891
-4.72783958018954128e-05
0.000145496919498616005
-0.000149943213377541531
0.000761110679576312171
-4.30576533208052898e-05
0.000149781325489043658
-0.000150390542489036604
0.000741929930309811179
-3.47581390095712641e-05
0.000150257115505983597
-0.000149120821391314512
0.000722835448618713481
-2.85699636093105126e-05
0.000147788615066512467
-0.000141995751906862035
0.000692028569052896407
-2.39745184093803152e-05
0.000131679322929120724
-0.000131360209080456713
0.000661202003345648468
-6.16875342422090593e-06
0.000109979531835858446
-0.000103939852661763998
0.000614500033173266571
3.07088833635086347e-05
7.35681301730482145e-05
-7.1806705340868269e-05
0.000554226198310117896
7.19454573089717405e-05
1.43919335740997181e-05
-2.36731156101452925e-05
0.000469250854871223772
0.000137674560001153397
-6.27949145959170627e-05
2.67305747892312699e-05
0.000415036750572220074
0.000199064541545491654
-0.000265793692335118117
0.000165484749200923227
0.000280780151841399865
0.000345224949282568392
-0.000139853119185015214
8.46803618948871407e-05
0.000214601038700024766
0.000500578466982034859
0.000143368571111087784
-0.000136766695767108666
0.000174173400387784194
0.000857964023719115986
0.000211950245137744253
-0.000199116729002857615
0.0012000906914551965
0.000211621212024776072
-0.00020007077745544643
0.00028341365122694633
-0.000187705455145191101
-5.80011749800166576e-05
-0.000302289426719679305
0.000237854120869497587
-0.000362286874330859361
0.000278005764632598292
-0.000316990040258417543
0.000177590781153123183
-0.000386823254888665844
0.000261285522645539087
-0.000262250512603913965
0.000216803516178008733
-0.000449731200446240695
0.000130493336567334792
-0.000144024597249882744
0.00036716262720187478
-0.00058894821214878709
-6.21281479807560928e-06
-1.09956971693605843e-05
0.000526344591475078971
-0.00063985625073134547
-7.38352926188381233e-05
8.54133570376212735e-05
0.000648717160607881747
-0.000581414282562919718
-0.000111317891419810842
0.0001447519283780679
0.000737626526316394453
-0.000465877861143927663
-0.00013894134489732577
0.000181635745770915839
0.000802674069404541108
-0.000335024855773549419
-0.000158949432498061344
0.000199693845716685729
0.00085238321957943283
-0.000216899099150362127
-0.000171732644006089953
0.00020545709404498104
0.000895860505689560489
-0.000118885589938509025
-0.000178247653893585792
0.000205678938639566725
0.000938024879348702337
-4.06513386080527441e-05
-0.000181115166211451398
0.000198768831066788187
0.000968944130561273068
2.36166387729363795e-05
-0.000178928206847958187
0.000181103374253327849
0.000979288502566302409
7.60535304530392936e-05
-0.000166342772351579516
0.000150771189766182813
0.00097605628658240331
0.000107915199483147434
-0.000140652946605281879
0.000107921548351934347
0.000956709914930840974
0.000126628763001203717
-0.000101223108802846293
5.79517680652244461e-05
0.000932049156521020435
0.000115869322009022201
-4.83106558390970905e-05
5.1116200719959591e-06
0.000903555982997032844
9.49602685513183619e-05
3.86500934887738963e-06
-4.12289870142319684e-05
0.000874292222300023913
6.72754148779097457e-05
5.06240292457806512e-05
-7.7712997775309956e-05
0.00084467323644337464
3.85493959828917129e-05
8.91806661999926156e-05
-0.000105112853143414414
0.000815778786511311776
7.5918188035907822e-06
0.000116314860310779794
-0.000122813229277245265
0.00079310869024957543
-1.7345898452624138e-05
0.000133082155029563782
-0.000131874850411218229
0.000771939775363041699
-2.30255421166753122e-05
0.000139000807528740129
-0.00013655108222507194
0.00075050257705275476
-2.30365033734508975e-05
0.000140719302019387858
-0.000139212396260436866
0.000728174862033764084
-2.44529736498154411e-05
0.00013908548766721084
-0.000139583360054161299
0.000709019067914521198
-2.44825345111106116e-05
0.000136162373522943995
-0.0001355826742809013
0.000690490035875901409
-2.09238125800406785e-05
0.000130555645313882516
-0.000125862224361335305
0.000668616635306049762
-1.63729221942033711e-05
0.000116130760897859844
-0.000106455039996882823
0.000638693596691707727
-7.22669934633686473e-06
8.90060695295515308e-05
-7.58308873115224181e-05
0.000598813353290359005
1.63462064523640162e-05
4.73243637463093686e-05
-2.99590340829941265e-05
0.000543042263386128102
7.03261013700067666e-05
-8.60930134151210552e-06
2.4764265198812975e-05
0.000462254698402343766
0.000153104743040789369
-8.43420358470365207e-05
8.39726158031386266e-05
0.000353943898290885696
0.000279738298381704731
-0.000172848128425714801
0.000139095131530689087
0.000283905603210384406
0.000389375897542488972
-0.000427089297676201468
0.000306818459944154963
0.000171346466133710795
0.000531072834996206889
-0.000386766511038243003
0.000313477085282545343
9.28348843615267984e-05
0.000580172552983851094
5.53169897557479921e-05
-5.63994964036034779e-05
9.51845726985347835e-05
0.000840416548212265702
0.000206199070106441359
-0.000191001238583271544
0.0012852634271691176
0.000209066356064431839
-0.000199054724708803895
0.000262793411735355489
-0.000140827745223942342
-3.35886273464053786e-05
-0.000276082664008825006
0.000224061227427102685
-0.000268512649301375138
0.000183508022705670818
-0.000238550159762209726
0.000199870138933076492
-0.000327396487071810545
8.40749035860817798e-05
-0.000119310759015591584
0.000318815480801074426
-0.000538794165876113076
-6.14652175576197146e-05
3.15826511036758817e-05
0.00046768301938051156
-0.000741801496807755357
-0.00011283931951886221
0.00011682503217546434
0.000577078741719568977
-0.00076818051953609994
-0.000129887271772443957
0.000148815853975757545
0.000650392773477477559
-0.000679175222314504657
-0.000142403120519704254
0.00016685002398067025
0.000701672576929196013
-0.000536245738232761027
-0.000152432697013334643
0.000171520692769497405
0.000738388426764357772
-0.000385561356185793835
-0.000156803330889511709
0.000170623919663244304
0.000765042172097929723
-0.000255067674133515221
-0.000154214099554065144
0.000165728981598939687
0.000787304374097384644
-0.000152919179847964813
-0.000147788390347989977
0.000159559840298958706
0.000813755345390714175
-7.72658631420303292e-05
-0.000140544173541360849
0.00015070754308102723
0.000840779063744378531
-5.65846468437243479e-06
-0.000133588095567963369
0.00013583898193876261
0.000863970607634931016
6.01248708556132713e-05
-0.000122054673900572045
0.000114791224118625845
0.000879062231477894694
0.000112823573024826415
-0.000101541212017982607
8.15408518039134101e-05
0.000884645619838371044
0.000146824618469898845
-6.62134549422767332e-05
4.04341154253705956e-05
0.000882725189902334529
0.000142627987985296834
-2.12751098112101759e-05
-3.56304069654813773e-06
0.000872444032671229109
0.000127802589975346348
1.85692852988820781e-05
-4.11302938976327938e-05
0.000853859565894526874
0.0001018424846406287
5.55097509729246471e-05
-7.14921368929436488e-05
0.000830198415360727132
7.03153851664364583e-05
8.72426056316376298e-05
-9.53469976634647315e-05
0.00080127809426780688
3.59045263470003141e-05
0.00010984825932166883
-0.000109239822230181255
0.000772111808530769918
1.20733380755652414e-06
0.000122958488916152
-0.000112344463014928421
0.00074633745598973655
-1.31266564291604004e-05
0.000124700380920036665
-0.000108824275402308584
0.00072102720893743946
-9.4414333236321337e-06
0.000118023796017395748
-0.000106308625331768571
0.000696813442632170836
-1.04758170728423724e-05
0.000112280972669088396
-0.000102044776072530513
0.000674589637706493692
-1.39548945528261508e-05
0.000103455896303095767
-9.17605594081799644e-05
0.000651562892338562044
-1.51708688047608598e-05
8.82718145986659557e-05
-7.09991925221826331e-05
0.000622828942879279069
-1.41200864457685058e-05
6.28427232676908616e-05
-3.63621259606946692e-05
0.00058616784916026214
-4.13703736408462279e-06
2.04097678666106082e-05
1.31617310633297646e-05
0.000540221201908416436
2.67749221782321987e-05
-3.59588715074001924e-05
7.14759329045041789e-05
0.000478391161469473582
0.000106023042843697839
-0.000102248735889505027
0.000128381470707959213
0.000383478276917036749
0.000246269100845082688
-0.000177765407032550707
0.000179513078913319144
0.000260062573679391566
0.000444796318058139086
-0.000266163667627178455
0.000224523061884707447
0.000175352069679421695
0.000580540084454209192
-0.000524933657849779639
0.00041848336184707464
7.28097177845906356e-05
0.000670447587222326767
-0.000501880628269843606
0.00046504958076943741
3.50756252063616427e-05
0.000611023177505235046
-1.84257646532966549e-05
2.53101982980958391e-05
3.22498922133225194e-05
0.000826099198146062227
0.00019811145389740908
-0.000180968462703972596
0.00130885113417393366
0.00020602274877496861
-0.000197360509665738101
0.000210536992218747856
-9.00820646108939962e-05
-2.57749484404194506e-05
-0.000235507925192477135
0.000207997221556989736
-0.000126964108293822422
-3.97491659003548569e-05
-9.92598325967168919e-05
0.00024680209522021237
-0.000302369440961915777
-0.000119734745848207579
5.59024446567003299e-05
0.000404295722910243864
-0.000699033900147971515
-0.000138640708681123836
0.000141386639382504886
0.000513015836411014037
-0.000868888797174582807
-0.00014175034791978115
0.000160117524195319271
0.000578044277399630607
-0.00085238482654133405
-0.000144436390470418054
0.000163612278010016367
0.000620638661818531906
-0.000734516643360296948
-0.000147820335519846123
0.00016056735461865418
0.00065045011978028108
-0.000567751694277174291
-0.000146907548105936067
0.000148601973401820244
0.000670637139129118785
-0.000397882750528239068
-0.000137491925515153071
0.000129626259714166008
0.000684302335995437116
-0.000257009497796899722
-0.000119610031141025212
0.000107886714677346373
0.000696235780650995904
-0.0001530667277049848
-9.99365049568728378e-05
8.81506467053764804e-05
0.000710541377445084057
-8.12938904570344656e-05
-8.29116856766662629e-05
7.26339407867856947e-05
0.000727519901752143373
-1.41805069868211262e-05
-6.83350677676555031e-05
5.98781565505682699e-05
0.000747933479687727686
5.00382478649934135e-05
-5.20179417469229306e-05
4.16905420841640515e-05
0.000767551448663489821
0.000106551004739595289
-3.03029822948964808e-05
1.69573198033856848e-05
0.000789258284513892627
0.000134337274756421931
-1.12458835983245044e-06
-8.09496500057249992e-06
0.000803118197008904325
0.000134385661325827727
2.86617940889982676e-05
-3.42793353604963462e-05
0.00081047633997192569
0.000125257773013240451
5.35228206196497816e-05
-5.83360930600228481e-05
0.000807870431110305903
0.000105547395404070174
7.55522303749224918e-05
-7.6651148190609342e-05
0.000796540074578452341
7.87747024481109785e-05
9.41042918473947404e-05
-9.12330000554230315e-05
0.000773310813065965501
5.30894384021888795e-05
0.000106542327312880708
-0.000100497452646735696
0.000732052960450321017
3.06358612180642235e-05
0.00011205758727358183
-0.000100227691577373535
0.00069058480224373634
7.99496305320723955e-06
0.000110595921555957
-9.02492628444888866e-05
0.000653741690521756637
1.06815361943066962e-05
9.85446445163360503e-05
-8.18250657503968637e-05
0.000622811836155444821
1.7974068452346494e-06
8.75325437415946385e-05
-6.88763701999685221e-05
0.00059476175982874557
-1.0226060555847168e-05
7.19575865106056962e-05
-4.76367182001935266e-05
0.000564107696428886888
-1.76092057442458458e-05
4.39368029162683782e-05
-1.08446936321099198e-05
0.000527448189527326581
-2.03472778938536671e-05
-6.41382356995087808e-07
4.35277016447659139e-05
0.000483622071379497594
-6.34579405696335166e-06
-6.25244494007454172e-05
0.000108558793862404511
0.000436073608972097613
3.76988089666011422e-05
-0.000138335069543168
0.000174958302244730018
0.000381056162050968786
0.000147418277165945919
-0.000221112554074777331
0.000234733697955743809
0.000288372344294574251
0.000355209150496195469
-0.000287466020805290001
0.000271208745081432745
0.000175940355586435296
0.000611933907664931548
-0.000350122170941643727
0.000295418703696986894
9.96917902819351664e-05
0.000723509533086245937
-0.000553751999050327822
0.000487033353705361384
2.01837110498147476e-05
0.000760336005174543105