/*--------------------------------*- C++ -*----------------------------------*\
| =========                 |                                                 |
| \\      /  F ield         | OpenFOAM: The Open Source CFD Toolbox           |
|  \\    /   O peration     | Version:  2206                                  |
|   \\  /    A nd           | Website:  www.openfoam.com                      |
|    \\/     M anipulation  |                                                 |
\*---------------------------------------------------------------------------*/
FoamFile
{
    version     2.0;
    format      ascii;
    arch        "LSB;label=32;scalar=64";
    class       volVectorField;
    location    "0.690000000000000391";
    object      U;
}
// * * * * * * * * * * * * * * * * * * * * * * * * * * * * * * * * * * * * * //

dimensions      [0 1 -1 0 0 0 0];

internalField   nonuniform List<vector> 
7236
(
(0.521188325224540172 -0.14743617949035065 0.456079438509076618)
(0.900699240410446467 -0.141216457904143666 0.777239556530921361)
(1.09393260923529523 -0.0960492457546248957 0.813855934496433564)
(1.27121277095981533 -0.0610464163226923998 0.826219419799322119)
(1.4073952794673863 -0.0411918410022684006 0.832664476449270885)
(1.50046280156783784 -0.0314274974245272246 0.839491339072710563)
(1.56923380106793608 -0.0273843298411839686 0.848672534118293354)
(1.62457017043756746 -0.025683916406716592 0.860472728850289359)
(1.6702322214678984 -0.0256111227123491381 0.873695161737881865)
(1.70838005205965882 -0.0256545462512645962 0.886252768162371085)
(1.74118314441622357 -0.0263745725173536207 0.897530916266729539)
(1.77124140540651798 -0.0272204668249806832 0.905549986161194642)
(1.80043550373195238 -0.0278585212842559805 0.909574980751413187)
(1.8298701215526112 -0.0283601693068659538 0.909545257953630948)
(1.86050526959273377 -0.0288564946887636883 0.905378118035518153)
(1.89263147757903649 -0.0289421936280785212 0.897221384557870039)
(1.92593657429205845 -0.0288870287419072634 0.885643232411454817)
(1.95943301958714344 -0.028163936176016497 0.872092289174789315)
(1.99273320685196631 -0.0278474536191898533 0.857214981928424602)
(2.02629856185906698 -0.0277598650082634263 0.841456484290290962)
(2.06054919567948724 -0.0277080801792736336 0.826180275977825618)
(2.09354443406521984 -0.0257954727230691912 0.811039787805587831)
(2.12400492450958778 -0.0251617575000502858 0.795862614497168663)
(2.15390657713580946 -0.0251904297951846094 0.781450705954424341)
(2.18606293448513833 -0.0264814016219056918 0.768829858252123577)
(2.21812530962279641 -0.0242015132071854017 0.756008933533176219)
(2.2469525917371751 -0.0227832725824939249 0.742241581812259188)
(2.27457821202401256 -0.0223122632310261068 0.729141177559887166)
(2.30364357288105737 -0.0236686605789986765 0.718117469400921027)
(2.33234360108079208 -0.0219135247279672041 0.708001588559621808)
(2.35867688587528379 -0.0212026528892228401 0.695568417393564342)
(2.38243676116223657 -0.0210493738122993213 0.683554995246774433)
(2.39955239407109389 -0.0189629118976702669 0.673615813860943491)
(2.38642996437010035 -0.00229698681899698567 0.663241156788214825)
(2.27654385470337806 0.0472712168618266079 0.650095643208145058)
(1.95996258331148177 0.180105002202750442 0.62921556783122401)
(1.15686752102111856 0.280683699228962247 0.58847976334284724)
(0.152062171696824816 0.139369953509867556 0.374850436655464803)
(0.669069533017134344 -0.382508509904993299 0.582399353325000257)
(1.02854839861454361 -0.398236555690485716 0.842127032654242491)
(1.18562743800815817 -0.335572883628490803 0.919808474380097496)
(1.33808988899508585 -0.269190047817312206 0.926307792879763392)
(1.47034796068261575 -0.215616029694986083 0.911301901787985313)
(1.56843988882035124 -0.172609334156829025 0.893352331173986602)
(1.64043229333338725 -0.141046137235809499 0.879884213219937816)
(1.69432452546086743 -0.116584783029736752 0.874323296441546494)
(1.73512187517109551 -0.100041687355146333 0.875198130003311925)
(1.7697267220744104 -0.0868281907578469375 0.878571912360304075)
(1.79836831763490546 -0.0789149395832877687 0.884935180932281185)
(1.82252411654476876 -0.0736728634332198123 0.890439344754665352)
(1.84434069503700071 -0.0708566623325594253 0.893498614577911798)
(1.8658503793511827 -0.0702296908275366616 0.893259993929987783)
(1.88918984034011017 -0.0718554096973740564 0.88883592299952352)
(1.91551444724837538 -0.0733247229579285509 0.879890674471877965)
(1.94492934053932043 -0.0759988038140685385 0.866562653373848413)
(1.97593537669955621 -0.076010024003047752 0.85103940054254279)
(2.00706286864258221 -0.0768775478684292218 0.834094737412323428)
(2.03905193513938743 -0.078479011396764442 0.816357678110581908)
(2.07338169905142111 -0.0803152168699042268 0.800372880617221116)
(2.10692771735082474 -0.0752866345231499312 0.784017054124843682)
(2.13584180345261032 -0.0739135017144787465 0.768582807377284905)
(2.16312844562946571 -0.073143590039613432 0.753589514700405694)
(2.19426913452298544 -0.0782054555742701246 0.743761108354140665)
(2.22680512809301101 -0.0735106607420612373 0.732921857770950202)
(2.25219866514646672 -0.0713224173274743523 0.721744142477364403)
(2.27525349487065043 -0.0693732928991129816 0.710894736129453086)
(2.29997446421639706 -0.0733875994686974398 0.703611179393078712)
(2.32941733022528785 -0.0695009506189827181 0.701283299222288492)
(2.35105270360655672 -0.068380861388338085 0.696033133882077881)
(2.37024791888477226 -0.0682155712090170563 0.691211000821960297)
(2.39497382266010828 -0.0683381188306062537 0.68929603208755752)
(2.41892716134272368 -0.0458554402069932601 0.682850213113801563)
(2.3832298350032266 0.0255647260434801321 0.675341372632472736)
(2.21665430652263362 0.253415778005609216 0.670187055902894846)
(1.77595838722588639 0.591112675045937008 0.650139976282023913)
(0.628696763517072044 0.521149640898795341 0.631759229584567761)
(0.883967934376676312 -0.492906891906954858 0.646807393268848729)
(1.12854011883752103 -0.609790656602417491 1.00078106922414389)
(1.20554426750920274 -0.569598185925606626 1.09173000925025332)
(1.29748286641986832 -0.48867475790154058 1.09399092203594073)
(1.40209908019735785 -0.412351880421517714 1.05617914922782297)
(1.50824173877020096 -0.339675357243045484 0.998988795559272114)
(1.60993269063870481 -0.278558686497328456 0.941174910043551138)
(1.69460135863670303 -0.22850304806464472 0.896812387739170158)
(1.75606250424740429 -0.196241196578721327 0.86834151145086913)
(1.79269302756218019 -0.17156225184782653 0.856240706695551412)
(1.80858161027451758 -0.156669311837898811 0.858639786743993216)
(1.82091996810696544 -0.146194276754592345 0.864265314283900299)
(1.83473592126500695 -0.138799140547491623 0.869581189579183733)
(1.85204409706765438 -0.136862816779960955 0.8732125139701995)
(1.87323092809735559 -0.139306658700347641 0.872273200590515829)
(1.89862140323400763 -0.141936024868214189 0.866522349025451444)
(1.92823766940388408 -0.144636013886906029 0.854100040796500481)
(1.95850746716271296 -0.142797592214132713 0.841102120511546314)
(1.98964308492712982 -0.142624704550583875 0.828963628649590278)
(2.0204202897069532 -0.142840082142633024 0.815155186764487505)
(2.05615746762317286 -0.144979948814238258 0.805191404442280545)
(2.09107554594227141 -0.134863938386196702 0.796047507745283434)
(2.11937550916093675 -0.132167157495779092 0.790286858694253413)
(2.14081246187647656 -0.128295322121586119 0.778749517811019643)
(2.16457016044712747 -0.138838841451834338 0.778772434317546947)
(2.19113217664769433 -0.126044405523765973 0.777066708918188409)
(2.19845188137831116 -0.121072375457016129 0.77837194291292211)
(2.20445613239328697 -0.112460067553238216 0.765998860321544073)
(2.21152549735372439 -0.124849066666861991 0.76081841504594061)
(2.21775256289350065 -0.108811943850600348 0.779578115612363898)
(2.18458053518616646 -0.108051949380052359 0.789489872424514294)
(2.15838662156587047 -0.104546692699090962 0.783644985471359967)
(2.13918777298508722 -0.107936042993947892 0.761089776635568982)
(2.12714703387977844 -0.0707887426589802471 0.730508481945329691)
(2.08963282765487124 0.0735123581262511899 0.703175406314314633)
(1.91601317181877628 0.470288037884314503 0.687823062693131093)
(1.64832561410223333 0.980370528568281108 0.671973748732241583)
(0.735688511600979922 0.962503882907077446 0.656855233768990243)
(0.960587843991392298 -0.500474527378510503 0.771119010366547286)
(1.11538533582527766 -0.750530772084765929 1.13881258144257269)
(1.06064236851292093 -0.720197528103648454 1.20923677058539036)
(1.05647539974310156 -0.635108273251953737 1.16370352265624866)
(1.1461797769293911 -0.556926339853049512 1.02335137940364529)
(1.32511691859463876 -0.469605565200607922 0.847786200466116524)
(1.56493659438766652 -0.375129097597288741 0.688204204355036375)
(1.81220674947527138 -0.279575739692346781 0.564042695102570102)
(2.01711705506808148 -0.207707948434182221 0.46198088487434652)
(2.13681028521268113 -0.151517987005209215 0.419475762394930507)
(2.1822908802810761 -0.124647736397221362 0.430859413964740645)
(2.17995502154956888 -0.115502118188347394 0.470791229763564079)
(2.15461719138683261 -0.114069446915901873 0.519410294218959789)
(2.12721446191864327 -0.115707434616337992 0.564055821270912139)
(2.11617934398111407 -0.124723444229151409 0.592341312452661084)
(2.12586173939802725 -0.135013588802360224 0.610943267134576473)
(2.15879554298645404 -0.146673941062871044 0.605105984454424983)
(2.19564448504062737 -0.146619813627160839 0.60434074410689731)
(2.23730751258607974 -0.145338875107530491 0.609745577329298794)
(2.28193677271566786 -0.147028691448217397 0.614613429220769669)
(2.32516406832330391 -0.158173215852085575 0.6150562393280391)
(2.36009260766367257 -0.143056609527920875 0.617482674807995569)
(2.39359028603625079 -0.138721545268250285 0.615135939911053198)
(2.4193267900007549 -0.127434329716891614 0.612355129544865373)
(2.43551935346006143 -0.161612771726938137 0.599564164924994647)
(2.43419413410694219 -0.133011870838885493 0.593291384791573284)
(2.42726989766401413 -0.123621490916322782 0.585596015018203575)
(2.40887981704018994 -0.0929308283318071582 0.579117932004916902)
(2.36945265645074477 -0.15179500621942485 0.558623056612988167)
(2.3074607327908887 -0.090614877932469029 0.523850308207414295)
(2.23579028748920328 -0.0800812288179177517 0.477537499909223562)
(2.12638833687312179 -0.062565110533549767 0.393580809714273561)
(1.9635261198475904 -0.110803814518477678 0.263771415826431044)
(1.64086563338238878 -0.0477920914081843284 -0.0980854537462466647)
(1.51729960550664411 0.181913419278366212 0.393054958943021171)
(1.32240756277635274 0.697677082209512966 0.627221348884634988)
(1.29487943350281531 1.2929083356843285 0.676790005699215658)
(0.687646717560318255 1.49359987657801652 0.666458665607141731)
(1.04337714842332985 -0.48761919439963558 0.935738410578264346)
(1.0100370149722635 -0.783644189105120237 1.22110836000460243)
(0.810343971635471005 -0.763012788095905781 1.19947401982917445)
(0.684769668009588939 -0.688824347055558728 0.991123561980194467)
(0.793332993380388873 -0.655471101429180303 0.662464423701455418)
(1.1421959976786844 -0.609170872300955457 0.335932904851286296)
(1.61445851977304922 -0.512848786636199483 0.0468794300808243261)
(2.10130240364210241 -0.359719500214351839 -0.21191010912564795)
(2.52041211507494101 -0.193881983375590872 -0.413897669623580267)
(2.82492758295792701 -0.0376874719021872973 -0.516717114005185607)
(3.0849494717345296 0.0888107998784720964 -0.555793807112674343)
(3.16192395505253288 0.162568489232576385 -0.498190491651475886)
(3.14698217704907313 0.187464506459742608 -0.405316797124327777)
(3.12999689528613878 0.177297718652028757 -0.321500463110909129)
(3.12530321126343003 0.150061519821248296 -0.254163506697435537)
(3.09534119632385618 0.110653341531744942 -0.164221169592509902)
(3.036066511695378 0.0573658555399523193 -0.0592115551867767112)
(2.9489172150772065 0.0207117096162408171 0.0578495185487354763)
(2.8625949998284872 -0.00653811253839899423 0.164071180579242332)
(2.78593396877782773 -0.0298789425156244931 0.255057491081438437)
(2.71960445630178427 -0.0553911466630066726 0.322480888399100218)
(2.6638505513234727 -0.0569156698781068116 0.375455380597593258)
(2.61668140314759956 -0.0658361730788053628 0.417373975562717991)
(2.57197549248879254 -0.069599363850395099 0.450078232003458256)
(2.51994528967791087 -0.087017097706694399 0.468593818291874464)
(2.46025734171733879 -0.0624200191067195431 0.476335349290333943)
(2.40305681110390346 -0.0534578094982335467 0.476788410891744008)
(2.34524299167574046 -0.036600330453609109 0.46432831710494632)
(2.27006351749660107 -0.0508733573845287848 0.423550407177711807)
(2.16975926299114086 0.00636767145348031416 0.346216463201602598)
(2.04610166046029995 0.0341123483533942173 0.234455281895745771)
(1.88336288531884577 0.0731313899299737835 0.0656773698367541514)
(1.65977525628113853 0.127063080163579284 -0.140392052316000521)
(1.38360401910335007 0.201127937769004367 -0.676863198634092611)
(0.977969829827427195 0.417841952786724147 -0.336674074586826522)
(0.698210196713582087 0.796026262749686131 0.456689302015331866)
(0.85320962734639072 1.40901906008378042 0.663049138449594233)
(0.588151857759818597 1.82431234426681543 0.667430965190267678)
(0.920244719056282245 -0.358501523232251096 1.05510718785487456)
(0.889087174097464961 -0.652821525538730407 1.0789293450175601)
(0.626810623331196304 -0.692109303913337248 0.918238386933246886)
(0.514228577099034356 -0.674842979382987318 0.510465996391265997)
(0.91904113826805045 -0.808010531970039025 0.0643049257090664295)
(1.448400294072967 -0.893358563884749435 -0.217858714109101709)
(1.89221507064514682 -0.836540629994616092 -0.380417165622142395)
(2.22690003228770639 -0.682904540955922013 -0.48138694820628064)
(2.47297222045316722 -0.499553029985877695 -0.546280592956274402)
(2.65580244836110158 -0.330254039783712539 -0.584069621851597942)
(2.80421083785226655 -0.182627349912604625 -0.604710189378067864)
(2.93571468468476704 -0.0612070036859126559 -0.612181563380359672)
(3.06623560259064876 0.035375134124361593 -0.594071480928129225)
(3.13805135900839272 0.100763415326362904 -0.541379561235475704)
(3.137264439614464 0.127930974491625854 -0.437913484671411446)
(3.11008926506319305 0.130490658378033947 -0.283757287482116649)
(3.02781394064333265 0.111831684099448422 -0.0788077233959942475)
(2.93445886291919189 0.086215705367549092 0.0955276001613993286)
(2.84390541913672257 0.0522772416761115022 0.222688595964526392)
(2.75222209280341668 0.0172964801926402782 0.316876033679757807)
(2.65665103887158871 -0.0231976050341058983 0.386108787811792198)
(2.56822399223615649 -0.0523035380038424924 0.426198549748340427)
(2.5000435499071707 -0.0568692695852909269 0.439722851639160472)
(2.43691722583185255 -0.0544226605259672883 0.444448024648681272)
(2.36716819535662948 -0.0590743146472223618 0.442800889446144375)
(2.29791322243825125 -0.0547215370881617078 0.43445981116572352)
(2.23680760823150138 -0.0512118980284824443 0.411819485458516876)
(2.17631353590000121 -0.0417162885804283831 0.360285497426654167)
(2.09737975157299861 -0.0344906863560305171 0.27008835114241736)
(1.98731279983714115 0.00213300153785562358 0.131047154424097811)
(1.83367623795181878 0.0659142121033422235 -0.0489141050287532769)
(1.63183338720632176 0.165220611736900391 -0.271663416968402183)
(1.32376512643209532 0.317456181633922307 -0.502160290658128394)
(1.06887902244023869 0.462630354579898595 -1.17991171581739684)
(0.617122065564123079 0.7380292070419332 -1.1550090740917387)
(0.252070511814475318 0.86790857488569928 0.178591713725428175)
(0.387489622787532739 1.38654858999404995 0.642585082859214674)
(0.499539998561867926 2.00941062939484461 0.662487815608425401)
(0.867588740230004429 -0.268264133287951956 0.910449184777841758)
(0.805092619977548662 -0.510887317106199945 0.921913403258483144)
(0.580522033070823396 -0.564782013247810188 0.532983303500751737)
(0.768584911660402215 -0.741559233835692333 -0.0498942657345259472)
(1.2910568374745699 -1.0612820472970188 -0.353119140209861349)
(1.6967557145957648 -1.14976377779197558 -0.457026452718844234)
(1.97366881782473302 -1.03795582770841976 -0.496822024430861542)
(2.16877829796731136 -0.8314051823187113 -0.517318972246101794)
(2.31040327055893124 -0.606589998035428235 -0.517058979515375938)
(2.41211073471728632 -0.406391872279649902 -0.498507274259659849)
(2.48771284571542983 -0.242878494995727501 -0.474683934133155017)
(2.55892792400441715 -0.115213657812904297 -0.449802420358714317)
(2.64721485084024488 -0.000345598031466089195 -0.424887641367919566)
(2.73665265700013904 0.100959256362889854 -0.386368233174261166)
(2.79857649654907537 0.172803828205809751 -0.317866068793619616)
(2.83222121178518149 0.229515313573438018 -0.191987763798016964)
(2.83508926370523495 0.222468960556854251 -0.0377773714479168812)
(2.81314436370324428 0.196162982762373039 0.0998178028464925537)
(2.76743379158449043 0.150137502294587888 0.212856844571578191)
(2.69876474599419636 0.0963745735151896876 0.29790563488513)
(2.61647788081112109 0.0396619310598306102 0.349407045740456168)
(2.5147757748728452 -0.012829415048587426 0.3723103515864844)
(2.42214858525187404 -0.0356083362827381983 0.363593445579887375)
(2.3479809289877851 -0.0303846798199847307 0.34404495028723503)
(2.2709071079724592 -0.0290377315787694774 0.328229860187706335)
(2.19263439380819136 -0.0279366883721985058 0.304184513072608631)
(2.12075265564404347 -0.0250418391093812712 0.253673652067031297)
(2.04180691415730564 -0.0186645254299256137 0.162075229128142539)
(1.93855865458527243 -0.00346166206926972614 0.0176343766339648045)
(1.80729193295293777 0.0392741040567018695 -0.168229582404900047)
(1.6364169510540878 0.137865543493838921 -0.370290640267780691)
(1.41520492996568814 0.309788559122312401 -0.579711961559153832)
(1.03593221469547947 0.566043215771354746 -0.789413180646955093)
(0.786225265278130192 0.794130002106067545 -1.54702712838983603)
(0.241044879882547386 0.980171319161505905 -1.58495567575515484)
(0.101281933472842617 0.969870119607691872 -0.109794257829599853)
(-0.00254616018952780188 1.3310124470375948 0.615114243281519979)
(0.462235920281250712 2.09639464034696799 0.655659556747212768)
(0.58903309183271424 -0.185921339681642678 0.911781884848660851)
(0.738861825362353009 -0.323208492300580852 0.598860381010266951)
(0.568698149693485533 -0.405098037000051203 -0.0713456630237010447)
(1.0739156513841801 -0.969961833870293777 -0.422068607492106451)
(1.50958478513266048 -1.3044477822844136 -0.499553346932323283)
(1.76301373855517607 -1.32020132333482487 -0.513717499431180946)
(1.92104618036013108 -1.15218449258126765 -0.515125139468879278)
(2.03675420317656064 -0.904941460144318754 -0.496234342818224816)
(2.11981592655349571 -0.649426719453653156 -0.446971891613437311)
(2.17229607629611055 -0.430975292154669121 -0.370480456043907724)
(2.21364719583062453 -0.259583256245892791 -0.290834749730453535)
(2.24765541348093434 -0.140458118284516598 -0.227786948595301991)
(2.30008570731708728 -0.0282014430407942357 -0.182633936783678175)
(2.36021800908321477 0.0793238900743384601 -0.13444813222458768)
(2.42613487619682378 0.172486915226287146 -0.0658048919048861425)
(2.49624197752435428 0.233111174204561789 0.0209256793233076714)
(2.55364141171520265 0.232271989916201377 0.108572390329323726)
(2.58798181761959789 0.215385109428381655 0.188273096574048476)
(2.59743998537701648 0.178796536533665507 0.253454567356410143)
(2.57315382422837757 0.131747041144095689 0.302728343856411508)
(2.52599361893082719 0.0823943140322756368 0.327819051675155682)
(2.42397729936038209 0.0355607777938151612 0.334147534183877382)
(2.26419596174808513 0.0036441639342420229 0.316926507577806105)
(2.14671721053230691 0.000581625618705460673 0.28091285249225012)
(2.04328266881974896 -0.00583415084054728951 0.241545714168673875)
(1.94736509985401507 -0.0159608743907729417 0.191644498274190028)
(1.85320054865600814 -0.0224195673475923486 0.0941151953580134093)
(1.74756446048413072 -0.0233738330312477476 -0.0600766385393381314)
(1.62224365741075749 -0.00732315696408256112 -0.26630423885470339)
(1.47216494636672057 0.0529338661361379442 -0.499107565225110017)
(1.29983744748708818 0.204160279241123815 -0.736152764265364468)
(1.12156782091603113 0.474672741031876788 -0.908427460235587181)
(0.736788470758957592 0.843748709533989283 -1.05305051644201497)
(0.544977625507654273 1.05063480229158479 -1.71920378146891251)
(-0.0233073390387046192 1.1604280669338507 -1.55967391440121084)
(0.122677507995258339 1.00911848323668618 -0.17764560123117798)
(-0.271290431693341216 1.29531243689302644 0.606128810783694183)
(0.456429251561550176 2.1072309267049496 0.647033362907645571)
(0.509611737025629452 -0.109041326792247123 0.412190039091806792)
(0.432181233588478875 -0.127902222890427547 0.0622475014936966498)
(0.753588632264619696 -0.563288685697223013 -0.456323427024009631)
(1.29274757623601944 -1.2534151644775966 -0.529926216419436824)
(1.57573441371868994 -1.48181953626327556 -0.533060999675381009)
(1.70681748515891241 -1.41895697029850121 -0.51130635978075345)
(1.8005102767088228 -1.21204381226359681 -0.467512721285845201)
(1.88481153528381551 -0.928322112267673472 -0.400492327045837537)
(1.9486352185398903 -0.636966511707194649 -0.308657479764844034)
(1.99606910172067442 -0.392666255298730726 -0.192690895965699716)
(2.04127416632472691 -0.223838511474135693 -0.0874105078180637263)
(2.09527064215720937 -0.110945214492327984 0.00223570505703762305)
(2.15148946198921909 -0.0127229963008580645 0.0664733918029510873)
(2.20687927338153189 0.0810614517932811141 0.125326356614375384)
(2.27141867114025464 0.16862082563964903 0.191819584111930452)
(2.33275374747990627 0.202099367029449584 0.24409704310131955)
(2.38639935275888737 0.202695470937989425 0.285959272074613802)
(2.42393594170094451 0.188188336357849317 0.317431188797821673)
(2.4443480870620915 0.160926778901357648 0.337465734674355367)
(2.44085180467774521 0.123448442974636363 0.345058814410649117)
(2.40262603369092531 0.0893616312694070075 0.33803529461501125)
(2.32363532409881524 0.0640639591477271259 0.31004600847720637)
(2.15727277293758979 0.0381633677301239857 0.261741671062124315)
(1.94581639476202195 0.0395961539395113665 0.202580092416603436)
(1.77712942831835896 0.0137858100416376542 0.138748348971324986)
(1.62113338054840561 -0.0164615267526484477 0.0479420912709364253)
(1.483473392590686 -0.0341528467754214984 -0.109614606784271568)
(1.34947387522632911 -0.0409487808486501473 -0.325743130756666166)
(1.21049774494532603 -0.011384145342334541 -0.573067916982569314)
(1.09748174694806799 0.0679571077487769876 -0.843300422729367671)
(0.97114545618918835 0.27385444501894074 -1.12890848079421269)
(0.809772225379912447 0.672840766609149488 -1.25509806367234478)
(0.430749861282220869 1.11548755961280555 -1.29204102733657766)
(0.363989861331199538 1.25631594221605947 -1.7857873694533819)
(-0.169709940382653968 1.2641440258269423 -1.48106639691098363)
(0.222698880442939118 1.00370428601188277 -0.165448131606456939)
(-0.412534554157355293 1.278157314865489 0.608217342205442879)
(0.459876057907216806 2.07843280543181486 0.637041183242751607)
(0.245670827318416551 -0.0204510892793947283 0.145818293060320875)
(0.279233595719555583 -0.0916843870504444325 -0.459060601830520942)
(0.998177876355516025 -0.935396166925943517 -0.556647443377327522)
(1.37971456927049929 -1.48849850048254262 -0.559383383632466535)
(1.51812681461974175 -1.58591353671850577 -0.527361462752111265)
(1.58885685732750392 -1.47495548722357173 -0.461689182635778739)
(1.67659078999919164 -1.23141566646184208 -0.368688769513262959)
(1.768317864632029 -0.915150933257335097 -0.26430203572786426)
(1.84202407084612396 -0.6048499893608561 -0.152806950047825824)
(1.91448250934461051 -0.362002164569516616 -0.0291147091160100339)
(2.00107349424277192 -0.196809568187019668 0.0922076466488223334)
(2.09567542487930103 -0.0888526727418660622 0.19803767518068166)
(2.18134980703225745 -0.00191095101992726831 0.283896693323892724)
(2.2470150675357603 0.0974038164183826938 0.367934714048257339)
(2.3007124299327546 0.150562470113430491 0.421692866669317823)
(2.34602012088619327 0.166281699886162537 0.449944393464997816)
(2.38023170802316741 0.163112488376442738 0.456432460434129383)
(2.39660593316928372 0.152239864832531768 0.447610445871725493)
(2.39686340642614226 0.133163488503743987 0.431070760631221628)
(2.36865129402190133 0.111550455162179415 0.403314521275304649)
(2.31226808003829953 0.0970481507301453744 0.363439199080495101)
(2.20546318541501218 0.100041157523118082 0.309500657288986736)
(0.0990667060782818715 0.122437768196569485 -0.114950961350878567)
(0.529878439807636603 -0.195065493307690241 -0.496203338115478787)
(1.1191986207777036 -1.23976990624688743 -0.574846093040564998)
(1.33760985579609581 -1.63343695932990496 -0.555864420777227974)
(1.39854250503429856 -1.63364952274949871 -0.485337913458574965)
(1.47432292860289049 -1.49963856509391369 -0.373601370874202532)
(1.58891213090339667 -1.23173279427197757 -0.242842197335008364)
(1.69239143714218421 -0.883318949425466515 -0.11024938286190121)
(1.76118710791117827 -0.555315202517570827 0.0220892893933855132)
(1.84479742312005079 -0.307642237581688238 0.149690325030885585)
(1.95635627363244957 -0.148974167716856482 0.268125719469572865)
(2.07828762887375484 -0.0476840058559582641 0.37880330533112383)
(2.1899529882357891 0.0680945834798566685 0.490783024969476789)
(2.28515390729366619 0.137983157875784718 0.570161148211895674)
(2.354534430707516 0.160955006058600136 0.603947822873237228)
(2.39983795200428229 0.15936489869720788 0.612776090225675141)
(2.41751027805449903 0.150248686284737754 0.596454930006129258)
(2.41537807927516246 0.133932868532432942 0.566805339337857705)
(2.38502491219400792 0.11507240636315029 0.524545028870449626)
(2.31164129515773054 0.1105990863385031 0.464121977856056855)
(2.20283903593210661 0.12390899829454978 0.396756582061357888)
(2.02571789128970048 0.14202239871825334 0.318620208451089848)
(-0.138342607463072753 0.263544227204662196 -0.524668633416020547)
(0.7929171544562712 -0.706276702523517264 -0.591768243376334602)
(1.15127589035880784 -1.50034741676579464 -0.583375685537983357)
(1.21754349749794644 -1.70904092824944986 -0.521437428520773127)
(1.27669396184958295 -1.66658877395576943 -0.410574622788832611)
(1.39565257835578671 -1.51707816828494746 -0.271243855961142866)
(1.53082986102520691 -1.21554463742036334 -0.123121130696090847)
(1.5895710887697525 -0.839351617551660434 0.0118110045243158858)
(1.61647301014901101 -0.495818472450903214 0.130249933516454752)
(1.68207386672065806 -0.247062395294914777 0.238668457717855498)
(1.82096358453866936 -0.0969947183418114478 0.351801993817684011)
(1.97326302123996578 -0.00286642054665648023 0.455528186130631452)
(2.1004287925971834 0.0764223456118306305 0.556028425412987026)
(2.2075742261155975 0.130636345250248226 0.620333119147561285)
(2.28128724963784046 0.147123788608546663 0.660857881392083235)
(2.31757994965944558 0.143719055737405316 0.655520606970896313)
(2.32725288566661748 0.13108267464092746 0.63778376623336186)
(2.29333333394826377 0.119820913899407216 0.604416871077821605)
(2.20504813746667683 0.12232583195682159 0.5454255594817774)
(2.06537280594506667 0.13247401441866774 0.470239431719493839)
(1.86104411147644844 0.169137829143885587 0.379649671906509056)
(1.58827235141409795 0.223854850042728926 0.273330048322912411)
(0.0316175306041922011 0.422451471008197632 -1.02020197573306581)
(0.900880675776858375 -1.06809977747793994 -0.626275637451564782)
(1.04644725672084959 -1.63682900678816279 -0.560907128185788473)
(1.08568553656428257 -1.744764599967632 -0.468157525789097695)
(1.17928485928677373 -1.70092873718585791 -0.334512042738556115)
(1.35117792383250346 -1.53064560137073813 -0.184055673975614953)
(1.44879509368347015 -1.18666552910302658 -0.0405424448874275589)
(1.4132207490982942 -0.763688804584027547 0.0719836029678144612)
(1.37601405074106586 -0.409128116350217841 0.161267959548719364)
(1.43651445809837197 -0.179342712943478311 0.253510419011095278)
(1.60288462690356459 -0.055387604835518682 0.3653367055181721)
(1.77851543144437296 0.0238889366287431924 0.473906275643230068)
(1.91669872682378761 0.0743327416368596977 0.56104572917189055)
(2.01926179670957895 0.106320109403183344 0.617353231590268892)
(2.08023985726558003 0.121080773916449391 0.643512115303178978)
(2.0905536878781863 0.110323541210760753 0.642289861276559404)
(2.03466404333430528 0.116584217627905773 0.616554700818590207)
(1.91663721923694674 0.130610937148489314 0.566948401005396452)
(1.75240981055717859 0.144324570771943467 0.501107260966446533)
(1.52254375681807108 0.193379422699349185 0.40589711812911905)
(1.26032938794508476 0.266676487111213001 0.290061401110605188)
(0.985826011650771994 0.334979670013325403 0.155135582363981894)
(1.14159976313933087 -0.11146675967207674 0.237139758803868006)
(1.33581515645673865 -0.028237415056080746 0.351069150123504148)
(1.52763910094457533 0.032759445315858865 0.458274195759685976)
(1.66711271276052053 0.0657683542827826872 0.537276068448723221)
(1.75314515273520777 0.0945312941099858139 0.588095865372723403)
(1.7741512735599303 0.113836485909864477 0.610183872936483018)
(1.71422264786114087 0.133905263620878678 0.602583817104928254)
(1.5783961491648657 0.165907382565626926 0.561067866867334453)
(1.39054706575909481 0.200484295213644692 0.489161137076692287)
(1.16017254872767439 0.238650955651338342 0.3908540738448949)
(1.26397448615146302 0.0340225944071369801 0.433841936212143675)
(1.38613215359715802 0.0613528359310016938 0.508932573657025156)
(1.43319916181663176 0.0988751947103850976 0.554985828910826706)
(1.40333217173449198 0.145479684663604225 0.567638558389626513)
(1.29729886489816049 0.19092312151287813 0.541468300384343126)
(1.12361272007447544 0.235639416682902919 0.472460819703730384)
(0.906077275487407685 0.280786702857325488 0.371495006550099927)