/*--------------------------------*- C++ -*----------------------------------*\
| =========                 |                                                 |
| \\      /  F ield         | OpenFOAM: The Open Source CFD Toolbox           |
|  \\    /   O peration     | Version:  2206                                  |
|   \\  /    A nd           | Website:  www.openfoam.com                      |
|    \\/     M anipulation  |                                                 |
\*---------------------------------------------------------------------------*/
FoamFile
{
    version     2.0;
    format      ascii;
    arch        "LSB;label=32;scalar=64";
    class       volScalarField;
    location    "0.780000000000000471";
    object      p;
}
// * * * * * * * * * * * * * * * * * * * * * * * * * * * * * * * * * * * * * //

dimensions      [1 -1 -2 0 0 0 0];

internalField   nonuniform List<scalar> 
7236
(
159.315874958989696
376.296824558493427
491.891556847272113
468.474401163655216
418.589756506902063
378.792736955354883
348.232440054170695
317.917628744697424
293.656806702565689
282.734154906406957
284.437342442529598
293.431694547470954
301.987221378486822
307.995311467757858
311.98305857722869
311.752037398907476
309.105539020836034
306.090820535242699
300.874124653726369
293.931339593171515
286.075348697667096
275.264110281439571
258.55717243646086
248.42220466179964
247.280188283288652
245.728109009011035
231.279048943669267
223.345567773345323
224.355374732033937
230.627969468691504
219.381306870286949
216.900498788691408
240.056849498290148
310.55272139001886
511.037504657799104
1004.90019349136321
1733.64923216396687
2154.50897543568544
70.3009747716502744
211.13002521482224
312.930637655715373
307.823963413350839
270.589955456287385
241.089497203431847
212.822416783097282
185.889544905249238
166.101133740209264
150.676813831011117
155.890519089367189
170.354476481577677
180.642721715744443
185.444831514858379
188.444182512319856
187.730101320899678
185.312163623943945
183.033191510869557
176.580084378465074
169.537508487766985
162.522180995343547
151.949403875614024
129.837848434247121
121.65827792493215
125.829311193472734
130.969570981659956
103.293701256615066
99.762859060956032
103.611419993510793
118.872374627618399
93.0595073554364944
88.08569722516242
99.6393060958927776
123.709094628638837
218.600964477370667
617.724575501076288
1446.68970193391306
2068.83621712754393
71.9973489933686892
110.543404484139671
154.244866709989481
158.863147534739397
161.592869360445547
159.612221236422073
141.376502051793864
118.132648313405241
96.4633988667936251
70.9911331918845576
59.402676362912203
62.7262329981085998
68.283061332795512
70.5776209249230533
71.0981514059512278
69.3815960251757815
67.642361404169435
67.8666786775247317
64.054814315016614
60.2693188886853477
58.1106714118460275
54.5306836932752788
40.34459273391289
36.3157279508529456
40.5656482793946651
49.137668588983189
27.9579528476173245
28.7572375920147536
30.9903242363833371
44.7199049435457567
29.0462649381046631
28.7553452256983917
34.1065398049141209
40.5830098351935789
68.8673112768858147
231.399085234599653
927.592468746722489
1814.71015837926689
71.6673694728001749
78.472062057090568
96.3547490979957217
108.784560368924218
135.806361668183143
143.438218710980266
128.157225568197703
102.684408834667693
78.2838086200718095
59.2557504418405756
42.4540048801930539
31.7137603810447999
25.0097506323862611
21.8403141296391681
21.097526109463697
20.9539327634853052
21.259353411707103
22.3278553766683991
22.7134443577363285
22.2110540788990534
21.5327179712957815
20.9865318376377061
21.4691976775216347
20.999321039321508
20.1867763587656981
19.1516513764206842
19.8357515792457804
19.5552465643430153
20.1536464857419446
20.9792689666698884
24.0773970671652116
27.028257994602324
30.4422651694569204
33.6099179912551307
44.0141084728305785
93.3775239186876433
469.835127901549811
1405.29542245904622
67.6671219931746322
67.5016937320018542
80.9598726433219298
101.536274245919159
122.579243562833085
129.747500328099193
113.501554082259119
88.631581153717832
66.1095013487027217
49.1104053574467656
36.197206935451959
26.9325698038044976
20.6100391947469817
16.7396971502316134
15.7150101173590375
16.5535077093887999
17.9781074554639311
19.1876853842721644
19.7920236674063119
19.7855618990158462
19.5167521646763689
19.7177821430297016
19.888243931909976
19.5769751316129756
18.9403721246980474
18.4022277664029446
18.4300260144168853
18.624493401732785
19.2391444863220009
20.3922274874767737
22.7285953268721812
25.9847094780230847
29.8580444561380247
32.9555826892171808
36.2945196599522504
47.9937767487961793
215.864236911100022
1019.71943617814168
62.6369214188671393
64.0188560353777092
70.3216587275343841
92.5635589691075182
109.738881854508094
109.906608931860063
89.7962041405536411
65.7362240067416792
46.6561131487692862
33.6211440031420921
25.2029127006909661
19.593587116596396
16.200682201407858
14.0369923220041883
13.2876529630774982
13.7924030139687162
14.8994752676334734
15.2789470883143963
16.2168499951840701
17.2729476883166626
18.1564108191444191
18.6968155330032602
18.5812045217791209
18.0662962866046612
17.4599053565677096
17.0673152099611833
17.0762166254495078
17.4028385162853851
18.0691827757331147
19.3649977468902357
21.4614314209381369
24.7915831968586495
28.8668349153834711
31.8881255810627202
32.259541542278626
24.6537856881825093
104.822334474681895
693.054835872269678
62.9615953215027631
60.2149092871869982
66.0386235190253643
78.585303269894581
91.5223337806996398
82.4456509390647057
60.4625791494147578
40.004565278749908
25.5340281868000503
16.848413143132781
12.4241261130555003
10.438972217649507
9.83438157423672266
9.42703811512973999
9.12084150828268747
9.68118486509643361
11.0647071311113621
11.9880750942071472
13.3653453019427566
15.245836406029655
17.0446658968075795
17.6508554276068352
17.2101387352252537
16.3670971452106215
15.6048289723918039
15.1686246554069477
15.1363147578526611
15.3767618409240079
16.0360376327534411
17.602852682008141
19.8302506968501007
23.3972531901046565
27.6882189617577552
30.4504928729430944
28.3541267782227671
9.25559973249480628
57.478438696307208
451.893510781398163
63.135764217404116
58.9196721962381815
63.121011870731806
64.9559490007937654
67.6078162724893872
53.1272749631720558
33.3709805911095572
19.5760505298430445
11.4877347188680439
7.61689885806901756
6.0568966089274161
5.65814360542426265
5.97296694926867566
6.46601269414801116
6.78161065124893359
7.64769442770807917
9.17112064532290105
11.0945528340931592
12.8877254508450712
14.806141700754381
16.5671336134166403
16.6587851149672801
15.7043522811802561
14.3994785322287946
13.4270944270389592
12.9244967631526393
12.7277817286737633
12.613089560609092
13.1177525339989121
14.9251494513942475
17.7651022278967829
21.5631976872897653
26.3136874211947287
28.9312708099347589
23.765141498208294
-3.23466810244124581
31.7716883058803035
301.465959682152175
63.5207369759115892
58.4160829003357449
60.2635196558524058
55.0789595293928329
45.5577556174841618
29.0671328412402517
16.4687242880765119
9.39988124188468177
5.97615260041922802
4.65246043970236123
4.42191385348595212
4.65103604132842285
5.09575016886383292
5.53724504296716624
6.15463487082806004
7.19583464557206121
8.71638602468113532
10.585526348929239
12.555252972903812
14.6997391310069183
16.1116458358098278
15.7153451656930514
14.2604215301987978
12.4445532866364594
11.2025671158963007
10.7022598669817413
10.6592703948797567
10.8071954824212426
11.4848939871082791
12.9690764979690147
15.7578343318590886
19.6710954626286565
25.0035704029577701
27.852594605386539
16.5839907449352069
-13.419129745005872
9.14130015614779268
204.836220990660763
63.3700725614540588
59.2052971127403751
53.9797508173365514
42.4454797414744576
26.4790185625781191
15.0793302928865565
8.86336836792346183
5.1503704799296921
3.46915313228804711
3.0307012432714644
3.26402558461268244
3.75442042178878532
4.31024659689890832
4.84826782467352491
5.51111490812246707
6.56584697562379116
8.14598039837046528
10.2296412538101542
12.6595457107200229
15.1155149944821972
16.1185501796191986
15.2829550515865122
63.8410692017472527
61.1799348347086323
49.2539094932579076
29.5018411144813797
14.8396274886643269
8.7650893808287087
4.87458677746891222
2.73625350084455432
1.84038106119531486
1.7677160237065892
2.14868591896884853
2.71901769367317625
3.32763815604802859
3.99505532354289361
4.74365414695603427
5.80512808341579856
7.54183734039466724
10.222874831422212
13.5279328577009199
16.1464343550562788
16.8570410095257159
15.0227686135973073
64.1767732704031317
61.4936982715200458
44.0550133188039297
18.2525212583013854
9.79036803874033446
5.28644565899419572
2.53183101162819924
1.16182189795257962
0.703072692016538436
0.822587643677287872
1.23581372532251343
1.77515282654684725
2.40962889518378276
3.16110791357935739
4.00902462155730888
5.22171564017333267
7.29375895732457202
10.6199054103601966
14.098890377379556
16.5405408492147572
16.3380440391930861
14.1569437725310188
62.8307664118674154
54.8816573775999927
32.9314706071384649
13.2227109291106082
6.988938345013751
3.11147252889867332
1.0016520378547038
0.119962219507479428
-0.0672234875281345623
0.131020554180744098
0.520756515165381462
1.00462296180523847
1.56674368448472912
2.34828908317892449
3.3371544993504787
4.70310258282436067
7.0693368667834191
10.9146628545163864
13.9573979960542225
15.4050593908662776
14.9761129242723463
13.5742212114382017
-0.357085619411255717
-0.0226575662676782308
0.399084301616980497
0.868561065818004518
1.51636122899829795
2.5088468894267173
3.97941056427344186
6.42617654656497272
10.1629287936663264
13.0757740198135295
-0.0334374816112035234
0.363031175080272384
0.799501172768672497
1.54844080979997401
2.9861598560414615
5.39585455107627965
8.65329745737663814
10.6107531906539805
0.340149859826692325
0.942353042588695899
2.14890949798899555
4.16666062840462992
121.731981085547574
236.50552972998571
358.626762818062161
373.690980910673545
356.764740667095623
347.202471304795097
324.716725270543407
292.126165810170505
265.906570470761153
247.911952139266901
239.797418033746737
239.324573885546869
240.657544475585695
247.313449329048325
260.69529167488497
273.716177795279009
282.161143685755064
284.138847437235199
282.83378003938077
278.874187290349425
270.847978690891352
255.903920677515941
245.409006709648594
243.174787680279053
243.833062151032124
227.199026625250639
214.889669031698588
218.62891523427777
220.057236565922267
210.460228518659108
206.441514949718595
217.566639119782252
242.195716515417303
320.083171094492741
540.463008847394804
1065.862298824238
1798.19111970428253
2185.78980261751849
76.4877790820557948
116.551363531490438
191.55723279416847
206.202446689014579
207.133366730923086
214.771436832778221
199.892814206461765
170.488676633758104
144.339353684371389
125.861425595816513
117.514353135952007
115.152744302612263
112.045451331066971
116.435575159994897
135.791775617459933
151.421739059278678
159.769808667947927
159.206308515583601
157.966585689985664
155.910633264024852
148.799276398394312
128.831499533116727
120.014820798668296
121.045578344863031
130.392292512878583
98.7928192471041768
90.8265607722185848
99.998975576995548
103.768851124463026
87.2863744527978156
83.4671271564008066
92.6502667465672971
100.629617995058709
128.015454898686528
228.853811817412065
663.499121996672784
1516.17292928193274
2098.22845433685234
74.7359892670956469
72.9665806932950005
108.638032536484317
121.21593404086461
138.202610218736396
154.58040140123461
148.274972531679538
123.878735867889475
97.5320592663232162
77.6683687508772209
63.4402960284918578
49.7172551548287345
33.0981366855594885
21.8671660225651721
32.3204338622851992
48.2884256526507443
57.6967589843652888
58.4378404820102446
58.903595041585703
59.9168276181989938
56.9452948003005019
42.9544694761167136
38.33896485077004
39.2579996339404715
50.1186815465149209
27.764357653569931
26.1609358726839396
31.2790887093291374
35.5571937486821241
28.1890256167357691
28.6793694126795735
33.6613039935564728
39.4693802474077913
50.235312095463371
81.7547579465115604
257.83886264058799
998.143063882529077
1855.06283307834724
73.0811249586709266
63.939237615225359
84.835242027933802
106.293225056913343
131.358255912307897
144.207196979821163
136.203466054989804
111.034927180681947
84.7904998035913025
65.3219380827848397
49.609763964776846
34.1104024534328829
21.102175430912979
11.8122850938270574
7.72143701582330344
10.7116601495213217
15.2878652585405739
20.0697384593635988
22.845003633902067
23.803854467927124
23.5177012503583285
23.1489618114624633
22.1309004343891971
21.2527693037494458
19.8484584488822691
20.848933368378276
20.4415331327115872
20.5125624068944994
21.4854727469453728
23.9215915803307162
26.8067927156340211
30.5822592013343773
35.1580885360983402
40.13297874454706
54.73211061192805
112.882894013542483
528.469783099081951
1467.08397276551341
70.903245283577661
63.8197044794060986
78.0502954696184617
96.9437712029487244
118.943512711709232
132.479120631597738
121.521975436606354
95.8097331945449326
71.6911061480173544
54.4356818945229719
41.3085285724920226
30.1480835213244092
21.6205176390755902
15.250778928541461
11.6199387534979017
11.5651650735297054
14.2645834553636206
17.4186120308634926
19.7435206741599742
20.9695260677144404
21.3109763961840457
21.2560140336061707
20.4241345686970064
19.6794580246304207
19.0696165762821934
19.0989751531462204
19.3384264548604534
19.7342276988990797
20.7134298940813224
22.597221455293063
25.5772169098950251
29.6558043947011356
34.762063721295803
39.2807012167951299
43.5493739706547842
58.434787617690219
263.48489289832969
1099.44664219523679
68.6467740662897086
63.0791194850052648
71.0088385585045216
89.2159204211450287
104.718219302369079
112.161721284435643
95.9261135986240134
71.3147993164897684
51.0909144600994622
37.9173882423076591
29.2622160156963673
22.9691409059797351
18.0611584754252519
14.266860297692908
11.6609457664836214
11.0853622300964005
12.5853688699040767
14.4141063537250709
16.190800802824814
17.7211658532452034
18.9056683045519733
19.2916155956945659
18.9746102946464212
18.2769592514842358
17.656551678008725
17.5734080266758923
17.9557896025045594
18.5393194837560813
19.4581808606755828
21.2005989420263212
24.0208969902831413
28.1630211000209236
33.511630676544705
37.7329365405515773
38.1454724992482852
30.411349129187542
147.751202361828973
783.479900285300005
66.7411841442268923
61.6008270878034949
65.4887591544829633
76.5690827186412264
88.0078849151317399
84.4274111291177149
65.4236832236168055
44.3594061826753006
28.9916774082723236
19.9052197918379647
14.8008389535000049
11.6604907747869788
9.86525381820224823
9.01026837273276726
8.43007877246117943
8.49530594024878383
10.0625177819851501
12.1601506309454432
13.9737546095620289
15.7655118600928752
17.144011578934311
17.6628910388532319
17.7515797170667575
16.9008317219801327
15.9802154934662326
15.6552602780379182
15.8657999387626774
16.307079025077261
17.1941143339885869
19.1195919515490402
22.0066438326200355
26.3829090919765719
31.9972344868545981
35.9365278404453505
32.9046912356211081
16.0463644597437991
96.9680940724974789
545.970972031270094
64.9089984988145829
59.6938893233092926
62.5895678894836891
58.8119643591689254
66.097347163947191
55.8368104077548395
37.1125385954105198
22.0576394940895284
12.8534677979008585
8.32873710629509922
6.6780255362217229
6.00490313246258189
5.72554728086205778
5.83335943883751185
6.25562983367738035
7.12921991796904653
8.89512484129796732
11.2371365632502158
13.4686794585468768
15.4691160276804709
16.8931242765518164
17.3102245284143095
16.6498635633714365
14.9528037748979443
13.6820316457739075
13.2144426243023627
13.2193060394055024
13.3239088875340546
13.862954777948854
15.9353450158428398
19.3531812760119593
24.1014216238851517
30.2083831267695331
33.8423312757103645
28.3160121743500959
8.735098036895387
72.3068006706205608
393.028473631323664
64.442684994644992
59.1542404385853686
61.3201582819797295
50.5701376343002806
45.7727661362436891
31.1676888748191772
18.1790770116316338
10.1208675969754633
6.05909458500821252
4.63933196775630208
4.51700933012889116
4.83562593381953132
5.06862536553145127
5.2249445072621894
5.66948567627057276
6.801654130982695
8.55255828142142605
10.7625479379279234
13.0434132792511956
15.1629441476610545
16.662405699085781
17.0738823262142176
15.4625116119074342
12.7893238027638247
11.1786382825370829
10.7669205126019971
10.901281840496134
11.1886278739203604
11.8304496668842045
13.5462618310480352
16.7236867570009942
21.6549056056926119
28.4605587325512843
31.5216334283237458
21.3284420471282878
2.2181180474752864
50.6286879198357838
292.871861619225683
64.5331300730869231
60.2272734591707675
54.5312226628806229
40.0627462664540701
27.522297921554653
15.830199783019312
9.24765508868324915
5.12082695570061475
3.32047862564086449
3.06573278639102664
3.46903828427466809
3.93426796505545617
4.27312033786949996
4.57212071432634115
5.10257258795854973
6.21783703175527069
8.033642280310481
10.2917138372977792
12.824841929484478
15.3423460692069398
17.1736618945128043
17.2590591900990731
14.422130834355535
64.8877809381673103
63.6222205657196369
49.940165966165921
27.9214904188488902
14.7988975378998475
8.69840974865383032
4.69086900445109745
2.47313719264708709
1.68643235283133563
1.87493357928200544
2.41268589653188092
2.87407498622805946
3.20387545220065029
3.61409355871677995
4.29756511263652108
5.52443738291989561
7.38945732064283334
9.98304162313033316
13.2452035367507914
17.2371302092150458
18.7188533813978211
17.0939487646169752
65.8897575108254046
64.9046798537325316
45.0964749033129237
16.5608751345305336
8.55439885846914549
4.74656446920109776
2.16260802924335049
0.86824133460320807
0.610156791648029273
0.94688547771061371
1.44752627713902493
1.82052158673282971
2.17678001772389784
2.71051577798113819
3.54083455119848534
4.81464003840020105
6.85108798951707598
10.1758891072684516
14.7994808055145946
18.9315369214678917
18.5269081088480441
15.8322582337653301
66.6959648398823646
58.1809869630297669
35.7175834946390012
9.82951071753468852
5.53389116578399864
2.46696094362441176
0.610903489900894936
-0.118312069286053312
-0.0979181451531681013
0.247577711098041497
0.683833617565131835
1.02658063550167977
1.40390184139628627
1.97734076336635978
2.88812781214064618
4.21800383754741226
6.55477090030483378
10.5864873295384445
14.9612107834713477
17.7779734389733193
17.035765561155543
14.4944036110196066
-0.243523987981353107
0.131339096786494469
0.479394343847526549
0.833018675285316146
1.39076533669930624
2.27513967948079765
3.67093713526386933
6.19476891552685949
10.0918842857742952
13.3952448255111847
0.0499463753831919099
0.36502182726146426
0.83611788735248016
1.62231177675852756
3.04595820076492529
5.36819994567180814
8.34212117479090587
10.3324055564750896
0.391059819003347187
1.06971653334457972
2.3604470515860374
4.16969432418340702
104.922943081310592
145.822887199331262
216.414902551105371
275.647556315874851
301.632395059269186
314.149064679954336
302.996493920379294
270.022506111699499
240.034953805781839
220.904052159310595
214.166472917591506
214.80725210212799
217.122828762970158
217.626308088450799
221.141661264583604
224.623333862054039
233.976422173938943
244.421051089235903
256.225852983893503
258.384963649231224
253.035039648571626
245.325834030820033
240.604570209235533
240.401443849539163
226.160225978586482
212.947407965783214
212.319503193361584
213.8924204074969
204.646016710641504
201.957066112949207
207.629722230672684
220.716465458754897
248.79564861164252
338.579629022454412
605.102313747708763
1179.19913532297619
1897.08655983172321
2228.9633805072549
78.4923607755945483
85.5058524802607423
119.566637817835669
146.181280425179807
169.654428267832287
193.776866392378849
188.061420315430382
156.850029264108855
127.950829878904756
109.598003938319366
102.750452268838686
101.798874749532843
102.13607884796653
100.868793284204003
99.4629261783635741
95.9245909348740611
106.549145847711316
117.259556927243949
134.494452848014134
133.262431038541393
127.543389164392011
118.826856856767989
115.536933899067265
125.143913833348876
96.7413239487544843
88.662380890686677
90.5264976455505348
95.7705888376256667
81.6737368488107052
80.7686694863961918
86.3737955094146912
94.9749235270957115
100.068229815573943
123.984461754226714
264.50424172709802
764.891002941953161
1630.68080154689073
2140.4617350904773
75.7615130929113434
75.5460880201200808
91.0817928531571539
108.454351526893163
129.333695051824662
154.566046365743375
152.521157813606351
126.117879341569363
96.8559101459444349
76.8504560082270984
66.3779504058101111
60.0423204521963214
54.6485173734760181
49.0552181894708568
34.6934318258219889
17.2699826234751157
18.7811828744387128
26.635414637916341
45.0561815147435425
46.3028424461808186
45.8174608761394921
40.982858879017833
38.6768065043595257
48.1453528226442131
28.7771775615524206
27.2475109662981971
27.2652895385841703
31.5421479214077536
26.5441433181872171
28.1812811562855323
32.7605333956687943
39.8626560656028559
49.7021599071848925
62.3504502354826329
104.281495008508642
319.601303273058534
1129.17978621825455
1919.2167429012402
72.8333027883786031
69.3690008598728411
83.2062832231140703
104.41253691721181
124.985685890735482
142.655532630040881
141.46257225243582
115.702280240070465
86.4969556399390314
66.0440910762778657
53.8985829541063168
45.2816931087530747
37.5273461733964027
27.5910078071694898
15.5439575038191169
6.84391313843855364
4.92720615550312857
8.03722672543318417
12.7884189895243257
18.1566027273984787
21.907622316191226
23.2795643237438377
22.3571961228182872
20.5588684989735206
21.6062649089886563
20.8162202028320777
20.9874791081077703
21.3984565205661319
23.4174881446954046
25.8258747243430129
30.1314788455949731
36.086085472143445
45.2598236920682595
55.3089426228786181
74.1321707787407718
154.786550252086272
653.272823716314633
1563.76782589727736
71.2100847807576116
67.7024116005996603
77.9493261472059373
93.7891572318492024
116.059682941967353
133.135815692347251
127.882784245631981
101.085122520285566
74.0705269931233659
55.8397514541253059
44.45487915509662
36.5273346464964561
29.7517116543121602
22.6216245826984412
16.5593354298526165
13.240042599301848
12.115229042893624
13.2630292329562458
14.8948069253141551
17.6205368226281003
19.8383378226186871
20.6338635368463343
20.2253378617584971
19.3239039112944937
19.3780132258276367
19.6062263950542999
19.9600162878171616
20.6011436977750222
22.1338303175660833
24.6412618282677229
28.5159719773435505
34.3559549279398553
42.6784622879757976
52.1037482134748799
61.4811341091348282
92.7965097671475263
374.65340103916526
1221.23771008113272
71.1070467991898738
67.2115578955019402
72.0387564473693658
85.9021645061527721
99.7367286179625125
113.81071417190573
101.556047471619934
75.9758396016660242
53.8179279740185592
39.8655990882468245
31.7349645441213184
26.8730456172712806
22.5793896454793526
18.3549599482690198
14.6670129763798158
12.7544368728780313
11.7851720398655964
12.375643771310294
13.6371590805603979
15.6999501829322199
17.6282241320785076
18.5980596375229226
18.4372027461799206
17.7270916407649075
17.7506683150508415
18.1970546345612263
18.5950734901006101
19.2854777353701756
20.64043575106313
22.9893312592414141
26.4007226850520169
31.9818209876337392
39.69997741083953
48.3827990599117612
55.622700987391319
65.1382499838691018
259.012767450267802
918.967631693136354
71.2679886732727539
66.2079821860646263
65.1183146830956758
75.3941062681681586
85.1605130646939585
86.0819966529002158
70.0658412928046346
48.5314202781057915
31.8246768505961768
21.970419138239798
16.8643303961738127
14.0979735518694369
11.8631884986316081
10.1221152530883174
8.51077719962470169
7.52313854779283275
8.07642479205742347
10.1557352865799473
12.9657332497635363
15.5738171302481962
17.5271482779919907
18.2410501894260122
17.6987139288329622
16.7097851700960511
16.2591033531919464
16.2858727780762571
16.5829918652902037
17.2130436887577574
18.4726371567196779
20.7797867083398913
24.2628301064713412
29.6964110874312546
37.0440016301676636
44.6713227098598367
49.6596622693279386
54.3929685938930589
218.356256072540987
686.770228356231542
70.4672136971935146
64.7311921229679825
62.5596261573241392
54.7484203542777266
65.7363849099159552
57.9327745490904391
40.8305585201460559
24.8820027043682401
14.7171235718815261
9.63086457915788685
7.61823718328633248
6.70406155406324444
6.18501056323059295
5.86711822354394741
5.62847944397651467
5.71172432949459719
7.20390503779001268
9.8076921613861856
12.8841162997031073
15.5818514023013641
17.5345475430647681
18.1007811018004432
17.2041910629123862
15.6524381519534455
14.2455312776405538
13.7340992016211825
13.8560122160800567
14.2729238878216353
15.1053502680778404
17.492943897957602
21.4325545742208767
27.0017791256839921
34.4842023293360285
41.5129066274909633
42.3204228472720274
53.4576729094323895
200.407666046051247
528.149143608891791
69.1736304647628657
62.8487078382415021
63.0297113111530862
46.9049599899216361
46.2449672794596438
33.2940854195359321
20.3188599945088839
11.3243652992119621
6.80772082895667463
5.35940904494550097
5.21048240763127168
5.1328351626610127
4.83249161081799627
4.47407712281636272
4.3358136762918793
5.1459541202380743
6.98266164760661123
9.57027465946225853
12.5120969636219641
15.2181477534410945
17.1209697993737926
17.5620330934398545
16.1314466263636369
13.6056475610060232
11.5299818815556794
10.9109154442951279
11.0516417911261602
11.5577372015127633
12.5442281496691699
14.7079575056443677
18.3932707539936438
24.1842662825607526
32.0473301433990443
37.529290364183133
35.1477380491806528
54.6587615408511738
187.574078193094692
428.458178375549437
68.0818637065825669
63.2622446822555702
57.7658689804956254
39.5493022248833199
29.4076300809166611
17.2859649612951429
10.1032135458010455
5.65414122319875556
3.70892148681320233
3.53618900439101713
3.96354462915877725
4.022467449481824
3.79158548085776559
3.52387397027173765
3.53453233545267764
4.43819657344129048
6.35972413502540945
9.00219597022963214
11.9742703254268559
14.8666644042579268
16.9732036674125624
17.4111194340182607
14.8290677826924444
67.2837408366467713
66.646584099307475
53.2252870718530176
28.744118226825492
16.0973413632238902
9.14845831362522688
4.99192065233741822
2.66592505299836802
1.89588026623634454
2.15821201998131507
2.64223980191619301
2.70701194994695449
2.51937594526062014
2.41393227409246336
2.77412309735174301
3.92297768009569214
5.87056193183217978
8.49103821825069005
11.727114361032303
14.9100656013916542
17.9679792594574721
17.9436159595667668
67.6256669815213627
69.9124965703708483
49.7541918826254346
18.0952212085387885
8.67850698389704966
4.79091823448158838
2.21912053133500464
0.917566043854865399
0.701216003600706017
1.07391203782820011
1.42586247732706095
1.47410986746220463
1.36092727454678641
1.51993455806315758
2.19425306015257249
3.44511781409791773
5.42361685216397227
8.20004526187016047
11.9336090826849386
16.1977258491589424
18.7281451356408795
17.3393198862403679
68.229133333189111
64.4118122057546998
41.621893220519695
9.89998729723735948
5.2732876898080443
2.37305190031779389
0.568937943564700621
-0.12358491347741607
-0.0660379039689820146
0.270504194495692296
0.547993582510607702
0.608317621879610915
0.634583292735070081
0.946191028778958998
1.71645407650071435
2.99937452549372985
5.00129614485467577
8.2194582203963833
12.2480714797536248
15.9107352010423213
17.2495264636637096
15.4845282173396317
-0.278884154982326216
-0.0269861867192844329
0.0697712060827315739
0.164326506993567101
0.524502227174174163
1.29246469142549847
2.56234214972741015
4.60611202906194084
7.84153967081630388
10.6439763133865348
-0.336231397443414126
-0.214036827936622709
0.1534730267706097
0.901668247710158965
2.0932878333127789
3.92382003324249506
6.05113101955044108
7.65439994363099707
-0.140097583350968335
0.537685632847531458
1.59193151323136695
2.9496240911043734
101.488414445547207
111.346063749819905
144.80069599793697
191.917365381212193
240.879007753125649
265.672263712777806
264.753715094143331
237.635926071025722
208.010186636155993
189.516407073220165
183.675054272874206
185.062848300318592
189.555998742235943
196.900203572130295
204.178228141969726
208.364087453681464
211.869318682987284
216.046299298916608
221.514419276549006
227.721879701262679
230.773574118224133
233.781970505176048
234.110254643354722
226.081938512253487
216.188697519169324
216.43971500032967
212.034874008369883
202.631242456974093
199.212333108448604
207.020013350594184
217.416258400294055
231.065562336638095
278.005401387510744
405.535603204945176
740.222742518316977
1363.63748142850091
2022.52031377365233
2279.83206468335948
79.5438108481869079
81.8068271722006557
91.6606157804061326
115.62711800368065
147.50752558257841
166.197754167505479
161.721676676509674
132.134580256725741
102.342199934446981
85.7731349769553617
80.3683382423684947
79.5253165332942018
80.3982765792968337
84.3701247978572724
87.4342223263999472
88.3414546713329685
88.1984367332735815
90.0048698162373739
87.6455222223198405
94.453892136149733
97.6273934594934474
104.683543939377017
106.506124941552628
93.9948920051326979
86.5229446451206741
91.3809488040452607
85.0427902823329305
76.918329933212334
75.2123489548605164
82.484518413672987
89.8248979377580952
93.1651118877790623
108.256557372598024
156.015436589916959
369.008803336422375
962.959243121681311
1792.93129957787278
2196.90015507475755
78.6163386146225491
78.24257234446398
83.7374742790965456
105.670246630859225
130.853734089165243
151.033434197032307
146.841677283706304
118.88864839315265
87.5335978390896088
66.3642006553728265
55.5458141375509626
49.7455553823819656
45.9749467822098694
44.12814158097882
41.6012224981192702
37.8441699694462912
32.824388558717196
26.785482889126996
18.4689285818935716
18.6275167881714196
23.1019433158435561
29.7673227669243801
33.3378653162371705
29.1636177459837143
27.9775465144176962