/*--------------------------------*- C++ -*----------------------------------*\
| =========                 |                                                 |
| \\      /  F ield         | OpenFOAM: The Open Source CFD Toolbox           |
|  \\    /   O peration     | Version:  2206                                  |
|   \\  /    A nd           | Website:  www.openfoam.com                      |
|    \\/     M anipulation  |                                                 |
\*---------------------------------------------------------------------------*/
FoamFile
{
    version     2.0;
    format      ascii;
    arch        "LSB;label=32;scalar=64";
    class       surfaceScalarField;
    location    "0.510000000000000231";
    object      phi;
}
// * * * * * * * * * * * * * * * * * * * * * * * * * * * * * * * * * * * * * //

dimensions      [0 3 -1 0 0 0 0];

oriented        oriented;

internalField   nonuniform List<scalar> 
84128
(
1.20708641466037084e-05
-1.234284808518015e-05
-9.65410441125898587e-06
9.92608834905694148e-06
3.07968885500719343e-05
-1.91234395074398041e-05
-1.08856299705447088e-05
1.12830242890918189e-05
5.09619894223739626e-05
-2.05685759176665333e-05
-1.17394088444149277e-05
1.21428657041867067e-05
7.07197575732556043e-05
-2.01378813088650725e-05
-1.31782595408729207e-05
1.35583695134117591e-05
8.81797044423581622e-05
-1.78098091225178827e-05
-1.52818856600284207e-05
1.5631765361787883e-05
0.000103425762536028549
-1.56042670853824038e-05
-1.82629409522989565e-05
1.86211601044867498e-05
0.000116960133788235175
-1.38685627051682531e-05
-2.23176171709566812e-05
2.26517951387643308e-05
0.000128759158296345804
-1.23352913030657431e-05
-2.79761474480562174e-05
2.85124042776212412e-05
0.000138720404817289526
-1.04983735349659742e-05
-3.52607672465541226e-05
3.57979050903292048e-05
0.000146118946543586986
-8.72710222438237383e-06
-4.54239945170741707e-05
4.67525654374090755e-05
0.000151336214550417135
-6.47067482378245387e-06
-5.79874925936188547e-05
5.92408986754920568e-05
0.000152757415510697519
-5.3617648191031301e-06
-7.61797329228591666e-05
8.01203005578049883e-05
0.000153056044538732233
-3.5626956570332071e-06
-9.80483855255182549e-05
0.000101312459091482476
0.000141080222022918033
-5.22479267899708595e-06
-0.000131287628282100531
0.000148488251412237009
0.000124801890559462397
-7.32182543567456092e-06
-0.000169701144401332438
0.000193301330704716349
3.75783080344911325e-06
-0.000252314531053427426
0.000373358629343999344
1.348179163510812e-05
-2.61554119247041478e-05
-9.67451405244831592e-06
1.00052378174186729e-05
3.20227347117432124e-05
-3.81193582433559384e-05
-1.05919389820177796e-05
1.10468715321569041e-05
5.04773406545138794e-05
-3.94822983516246887e-05
-1.1477346797677244e-05
1.19364586241823838e-05
6.76375045166349205e-05
-3.77124940340643232e-05
-1.2847555805966114e-05
1.32620386534282528e-05
8.39614760002893465e-05
-3.4497500587076306e-05
-1.49210666487773394e-05
1.52848037194785891e-05
9.91619674893879017e-05
-3.11336665113930283e-05
-1.78740489878887496e-05
1.82029249019870867e-05
0.000113024462591664106
-2.80742900680157928e-05
-2.19375104703312073e-05
2.22807190574173687e-05
0.000125341144327711354
-2.50780697583019718e-05
-2.74233099499981437e-05
2.78494311164322607e-05
0.000135924278113490484
-2.1720790203938215e-05
-3.47174920989703575e-05
3.53568034365083547e-05
0.000144270624565661043
-1.810500462839758e-05
-4.44116263861422472e-05
4.54431886540149953e-05
0.000150286140724562717
-1.41976998413394071e-05
-5.7164697976057685e-05
5.88762181233510972e-05
0.000152874224396367373
-1.10673621119249037e-05
-7.43896717389440598e-05
7.75072070525349499e-05
0.00015286624536250959
-8.84921521050585213e-06
-9.6772753335355117e-05
0.000102067274043459024
0.000142459680239638271
-8.91999913004250174e-06
-0.000129581630136116495
0.0001436834749284928
0.000125086494049403982
-1.9698358706844159e-05
-0.000165632370622240555
0.000195382176962716908
9.88607505413282877e-06
-0.000263969151546742569
0.000382927420792876375
1.49961628559961431e-05
-4.1599144174119772e-05
-9.59129908698704436e-06
1.00388390486365924e-05
3.29617595407473933e-05
-5.66733839949232519e-05
-1.06060733254517825e-05
1.11944887492183497e-05
5.1000111654309394e-05
-5.80911578377657828e-05
-1.15123576292447074e-05
1.2082870978328484e-05
6.81082094938251659e-05
-5.53132765709248031e-05
-1.28715100237516756e-05
1.33642101365111643e-05
8.43501739747672948e-05
-5.11447009605752863e-05
-1.49273457505282118e-05
1.53325733526620209e-05
9.9596566678926914e-05
-4.67180285944446041e-05
-1.78627460031151535e-05
1.82006845575263859e-05
0.000113604043636624267
-4.24032178205459634e-05
-2.18965809714101861e-05
2.22180195467494117e-05
0.00012610709078027615
-3.79686678412694751e-05
-2.73370633187513408e-05
2.77246214589499011e-05
0.000136818968151356044
-3.30088649220487023e-05
-3.45755203928934434e-05
3.51517155117383486e-05
0.000145249274579889822
-2.75060539617989614e-05
-4.42005841195710006e-05
4.51713274618763185e-05
0.000151125891160661325
-2.1703736030360736e-05
-5.68911926090315221e-05
5.8520632334504679e-05
0.000153528770880145658
-1.65408351713245787e-05
-7.39932303734264251e-05
7.70638498393879528e-05
0.000152771775929220213
-1.32825943732273084e-05
-9.63263099619811027e-05
0.000101516718046196729
0.000142054960071764621
-1.19439370914422809e-05
-0.000128725515036165922
0.000142466323465866859
0.000120767572626443934
-2.70256584593740951e-05
-0.000165307895493081497
0.000193922596775910526
1.24212382114844126e-05
-0.000259055438959972109
0.000377287834826315791
1.61073050352602107e-05
-5.83283810119549249e-05
-9.53897104354091413e-06
1.01608990514284187e-05
3.37817356349034029e-05
-7.50824411519136618e-05
-1.06365941114219641e-05
1.13712296225174725e-05
5.14844162894086355e-05
-7.64748684399994241e-05
-1.15382416390527768e-05
1.22192729134061035e-05
6.84598256956645544e-05
-7.28537255961676788e-05
-1.28589190216888005e-05
1.34239495516398607e-05
8.46574592322892668e-05
-6.7774106285846503e-05
-1.48793214783987088e-05
1.53110702895074633e-05
9.99778114690887777e-05
-6.23536016893790702e-05
-1.77905286935269197e-05
1.81057254608723988e-05
0.000114159249157582494
-5.6838010543365721e-05
-2.17990842184768808e-05
2.20524238834278511e-05
0.000126881228912512339
-5.09759366444767403e-05
-2.71991269537843161e-05
2.74843965815389027e-05
0.000137766132185362342
-4.43477804197598769e-05
-3.43826528191254417e-05
3.48366471902824683e-05
0.000146287240322716199
-3.68797594594346076e-05
-4.3929748226051774e-05
4.47823544082371182e-05
0.000152033417551842887
-2.89850714654731821e-05
-5.65313580814643803e-05
5.8066543359999392e-05
0.000154107278748177813
-2.1622643516732134e-05
-7.34906434744586157e-05
7.64986152592042189e-05
0.000152404839020872147
-1.67554229421220271e-05
-9.57049157604843338e-05
0.000100880209410565409
0.000141062819052405311
-1.41557447049751147e-05
-0.000127700970155943496
0.000141254799648054668
0.000117520735492600769
-3.14496893309954931e-05
-0.000164072122207515562
0.000192038205736884784
1.42485238678626077e-05
-0.000254327538318426124
0.000370020990467811106
1.6877095553024492e-05
-7.6001941105229885e-05
-9.444243741421943e-06
1.02407278289055551e-05
3.44984614314478616e-05
-9.35115793451753418e-05
-1.0669374936804254e-05
1.14771650442171257e-05
5.20052756458700219e-05
-9.46973738156685422e-05
-1.1550168891113847e-05
1.22658469264017059e-05
6.89376610696850709e-05
-9.03532240325130885e-05
-1.28155800134252707e-05
1.33826655853730339e-05
8.51952176983173265e-05
-8.44121093363949497e-05
-1.48002679062539259e-05
1.51806917013737961e-05
0.000100662321468847154
-7.80179557895737432e-05
-1.76987020500935854e-05
1.7895936013939812e-05
0.000115073090080237311
-7.1322950532756271e-05
-2.16938467050926731e-05
2.17679900087097839e-05
0.000128063446234953865
-6.40334423801677236e-05
-2.70592440753095608e-05
2.71263561699715448e-05
0.000139167350694509149
-5.56839334251799252e-05
-3.41794411073679573e-05
3.44116742965880546e-05
0.000147795902288271405
-4.6177583733055933e-05
-4.36236676716863023e-05
4.42929473507593988e-05
0.000153406846724420641
-3.60221369339896482e-05
-5.60831852648933972e-05
5.75093108002067323e-05
0.00015502223307404709
-2.62030457857206803e-05
-7.28457495043522568e-05
7.58107724181406056e-05
0.000152227535564703457
-1.91903129117057163e-05
-9.4843596409056012e-05
0.000100073189898135779
0.000139795517583429525
-1.51176296516223227e-05
-0.000126380537555010832
0.000139774407790075315
0.000114051406121948214
-3.32732781243621483e-05
-0.000162096578675909275
0.000189664270722399554
1.67678451571112442e-05
-0.000250270192448897287
0.000361802314207781419
1.747828267609051e-05
-9.43289644537992762e-05
-9.25862171121285625e-06
1.01073933614373781e-05
3.52014595661763981e-05
-0.000111972415804802107
-1.05744644420755483e-05
1.13121356829731131e-05
5.26427200011354762e-05
-0.000112746404914713732
-1.1444448336497626e-05
1.20521922234266673e-05
6.96117161893440578e-05
-0.000107746502209482139
-1.26899344615363741e-05
1.31141862855148866e-05
8.59996445352071353e-05
-0.000100969947873567588
-1.46924548491466684e-05
1.48623521944450093e-05
0.000101670159061376369
-9.36004854398273992e-05
-1.76272434356704889e-05
1.7539242191110675e-05
0.000116356760286876894
-8.57492953622890244e-05
-2.1636991510907243e-05
2.13766951620222997e-05
0.00012966356616725454
-7.70698999374248503e-05
-2.69698853012470777e-05
2.66995044162622175e-05
0.000141044341201506285
-6.70128286936571947e-05
-3.39997965606524512e-05
3.39479116542728234e-05
0.000149839125633847265
-5.54570031927660736e-05
-4.32833026240793726e-05
4.37679201840644196e-05
0.000155355609770442831
-4.29010646574128819e-05
-5.55185813681982718e-05
5.68809952176565535e-05
0.000156426616024737822
-3.02537478861367992e-05
-7.2006533099618677e-05
7.49862272500586045e-05
0.00015235282858913076
-2.04527182626897019e-05
-9.37108561154992211e-05
9.90470474998222743e-05
0.000138309162065389842
-1.43346624842589981e-05
-0.000124728400155766543
0.000137989072363321779
0.000109856322158188526
-3.21213773140555214e-05
-0.000159659772150055006
0.000186960741785230827
2.02167422094104688e-05
-0.000245682410185563138
0.000352089859846662929
1.8147715383831381e-05
-0.000113143375901768775
-8.92855951681690785e-06
9.59528303250644918e-06
3.60913608018664691e-05
-0.000130392280257860411
-1.02104253487422852e-05
1.06866425752132899e-05
5.3552288089093371e-05
-0.000130527789807900009
-1.11250601272923453e-05
1.14454882690793124e-05
7.05973556974307263e-05
-0.000124886861016686439
-1.24622747130425415e-05
1.25575468760009206e-05
8.7136880143379118e-05
-0.000117285110897768846
-1.45945421035216263e-05
1.43701736729758517e-05
0.000103034406689338784
-0.000108985606182831647
-1.76357398407504408e-05
1.7123308148336358e-05
0.000118037612102579121
-0.000100102291286504653
-2.16729872933311096e-05
2.10227395155610244e-05
0.000131740332099360391
-9.02110768477715213e-05
-2.69312375350198181e-05
2.63696839606317032e-05
0.000143522738951873391
-7.85936538539536714e-05
-3.37803049422121863e-05
3.35787153953399686e-05
0.000152632660402356971
-6.50374107157408032e-05
-4.27806604680738278e-05
4.3251097442437267e-05
0.000158160141210079237
-4.98647263484490816e-05
-5.46745695487307946e-05
5.61107192125108865e-05
0.000158618917042203098
-3.37626013817744837e-05
-7.08183524965451893e-05
7.38684464269129249e-05
0.000153010190508084704
-2.0259774315790228e-05
-9.22080817615554343e-05
9.76238631931095979e-05
0.000136919134887880076
-1.13274681749247282e-05
-0.000122695725547395957
0.000135779585491839407
0.000105487378332398641
-2.75552784885252089e-05
-0.000156793579004071618
0.000183659277613240553
2.5034861783006865e-05
-0.000239611076674465422
0.000340280330025610018
1.91295915596248318e-05
-0.00013248588548900813
-8.35982645530847323e-06
8.5727585438366521e-06
3.73404931618284434e-05
-0.000148635878676516085
-9.50717252909147446e-06
9.53985790944328412e-06
5.48048912449385127e-05
-0.000147884516851626502
-1.0577793473644405e-05
1.04701035858895469e-05
7.18864774760799374e-05
-0.000141611189493557032
-1.21664470467978329e-05
1.18091824673822816e-05
8.85424156286479335e-05
-0.000133263431930324679
-1.4555395177526604e-05
1.38777625938290196e-05
0.000104673176800230549
-0.000124257726989880174
-1.77493857405919737e-05
1.68907097423929893e-05
0.000120070712873599839
-0.000114707068486703746
-2.17679232587480926e-05
2.09751459355301482e-05
0.000134342081776081074
-0.000104024421775034758
-2.68198170352430217e-05
2.63618021488561651e-05
0.000146764136589270377
-9.11192026830100438e-05
-3.33015704666398741e-05
3.34050400115881753e-05
0.000156429548332369232
-7.55424477794470014e-05
-4.18334763115762309e-05
4.26730467620927971e-05
0.000162101936772789573
-5.72426182890327975e-05
-5.32783140261572442e-05
5.49838202854507893e-05
0.000161863447748437765
-3.66192356193994554e-05
-6.90897999546253162e-05
7.21849567850857692e-05
0.000154431708886480291
-1.81493631643420895e-05
-9.0249451265556738e-05
9.55707842027148042e-05
0.000135916823907068497
-5.57326193785511275e-06
-0.000120261752651939057
0.000133022455826296333
0.000101704514208148636
-1.95262743702525875e-05
-0.000153503179760555681
0.000179686508826342199
3.21846625772315538e-05
-0.000232492224376878266
0.000327046947717689806
2.05147939485658986e-05
-0.000152483269212645418
-7.42855734098182316e-06
6.91114772434184016e-06
3.88916737849665455e-05
-0.000166561272159942118
-8.49941669197570824e-06
8.04792069555144286e-06
5.62140630965666212e-05
-0.000164691966775431451
-9.8890066739765363e-06
9.37406499158651644e-06
7.32184220253810343e-05
-0.000157884275132166082
-1.18530323829215937e-05
1.11217517746127434e-05
8.9934324629223388e-05
-0.000149073325787169757
-1.45718001473095937e-05
1.36657564523110353e-05
0.000106336800449370055
-0.000139892851129552086
-1.78973189577285642e-05
1.71299327273094592e-05
0.000122296999181021677
-0.000130370521730287106
-2.17618759071430274e-05
2.14651339322171898e-05
0.000137428499773061842
-0.000119552928097857488
-2.63733210561741387e-05
2.67703335328748311e-05
0.000150798128966858652
-0.000105587529031770137
-3.22463390462800065e-05
3.33449992536278926e-05
0.000161289857259971079
-8.77020546588410196e-05
-4.01476565377070874e-05
4.18155009411878419e-05
0.000167275357583189418
-6.53347497545899504e-05
-5.11315544345534529e-05
5.32381985321662258e-05
0.000166266627793513067
-3.85625362258735265e-05
-6.67545815099787788e-05
6.97066237717181968e-05
0.000156691375960083006
-1.34693083569415984e-05
-8.79037407505338847e-05
9.27989640331814775e-05
0.000135462776671612208
3.45174899129811141e-06
-0.000117541970151458644
0.000129745607420457993
9.87361934913900225e-05
-8.28825779027142356e-06
-0.000150133553602513922
0.000175622134743346072
4.33315503785319567e-05
-0.000225161293746314526
0.000312750600306445597
2.20633665758145221e-05
-0.000173106633567367588
-6.19751922709120505e-06
4.75751259977963649e-06
4.03028107635047554e-05
-0.000184078011993726143
-7.40774759936402745e-06
6.6850459881903011e-06
5.72405007713853921e-05
-0.000180973473619903242
-9.19996949640940183e-06
8.54379386392750756e-06
7.40366418574188255e-05
-0.000173926476956694383
-1.15065886760883744e-05
1.07526260907324232e-05
9.07987749384226974e-05
-0.00016523818468175175
-1.4529262592220042e-05
1.39319395810150161e-05
0.000107588048209347512
-0.000156738937495125356
-1.78845704997264464e-05
1.79413619088441337e-05
0.000124358787867520767
-0.000148190892552800064
-2.13846935378986064e-05
2.24343306665922206e-05
0.000140665420414594165
-0.000137911322984049799
-2.52943382920503703e-05
2.73460898091067511e-05
0.000155233399618364803
-0.000122759754183462299
-3.04376668309126417e-05
3.30418844526430457e-05
0.000166854649927729309
-0.000101950988865928498
-3.7756573594895928e-05
4.03842441486541051e-05
0.000173576662107157126
-7.43820792716726751e-05
-4.84578683439762189e-05
5.07831784274245533e-05
0.000171975610815630327
-3.93570519243108824e-05
-6.40905083601425333e-05
6.6486068744802792e-05
0.000159904281343328889
-5.35975730689453608e-06
-8.55056796479852457e-05
8.94675033178210174e-05
0.000135771934628402827
1.62670323744007086e-05
-0.000114933830422984045
0.000126250928529296534
9.61951563183024961e-05
6.64622925058869892e-06
-0.000146818852783710946
0.000171461159531333026
5.78802839950806342e-05
-0.000217955930627470467
0.000299602271467800654
2.31532823315246787e-05
-0.000194263264523968776
-5.3146494333726555e-06
3.31799914034855669e-06
4.07697546408942638e-05
-0.000201203748541426276
-6.6568307954404592e-06
6.16611175409587418e-06
5.70468549150359897e-05
-0.000196920835386494252
-8.57138575248594004e-06
8.24164906554899467e-06
7.35595443995131453e-05
-0.000190207036744946946
-1.09644282057680786e-05
1.07322566653300586e-05
9.04320190911824965e-05
-0.00018249607985572824
-1.41879951733916406e-05
1.45733742606045506e-05
0.000107759715981966433
-0.000175673380787728846
-1.74176446442032418e-05
1.902438182904903e-05
0.000125531419230739413
-0.00016896202379938137
-2.03418055184194131e-05
2.33412215276732964e-05
0.000143185626083826349
-0.000159494847659614255
-2.34262526466661669e-05
2.73555523271356793e-05
0.000159172953259273777
-0.000142466453410011577
-2.80355230945296112e-05
3.17548881333405673e-05
0.00017253479263403966
-0.00011805051013371226
-3.51308480874961085e-05
3.78685259410006141e-05
0.000180752987923452253
-8.41994518176918192e-05
-4.59747078668547765e-05
4.75738716610726669e-05
0.00017917717174970854
-3.88419825530466722e-05
-6.19083920617008308e-05
6.29691370446751819e-05
0.000164468083186762218
6.93106669997055748e-06
-8.36445064381097925e-05
8.60627837677499101e-05
0.000137146240725251328
3.35586903962974497e-05
-0.000112860631287570951
0.000122890766846757844
9.39496412338595809e-05
2.62777220140129821e-05
-0.000143905139162687449
0.000167470237614595989
7.50273362568254964e-05
-0.00021112392124603412
0.00028792646718035211
2.29948809290760547e-05
-0.000215704742144985813
-5.5494848681992693e-06
3.99609354045809873e-06
3.93320661831509554e-05
-0.000217974701168434793
-6.57371509090604886e-06
7.00750281432521033e-06
5.46724415923221651e-05
-0.000212755416215055658
-7.81565266891884971e-06
8.30984210384140059e-06
7.08868018096473488e-05
-0.000207233134798740773
-9.90682778335981393e-06
1.07185220567309593e-05
8.79209225806852537e-05
-0.000201413366780493948
-1.31903233179946178e-05
1.507347201553861e-05
0.000105770269604580725
-0.000197016560704018912
-1.61184986454060811e-05
1.96123173114496119e-05
0.00012445097581426109
-0.000192387305326230851
-1.83697007535534845e-05
2.31142469590318572e-05
0.000143371117020690006
-0.000183096331463634043
-2.07925083310919143e-05
2.54738428809707841e-05
0.000161136220662792113
-0.000163047428498081892
-2.52087175798847709e-05
2.80245957814169765e-05
0.000177523199762524652
-0.000134899818963591452
-3.22648921323237257e-05
3.27272262874298006e-05
0.000188107921307964103
-9.33613486575686664e-05
-4.34767793338726926e-05
4.20539510640546577e-05
0.000186061921040858741
-3.44424407472521512e-05
-6.05612219284159165e-05
5.82076726438801164e-05
0.000169447411051595518
2.31500638792091532e-05
-8.311000201322907e-05
8.35054650608944247e-05
0.000139633442253811571
5.44053264008933181e-05
-0.000111868393198667114
0.00012083564848333557
9.23075688855370892e-05
5.15210590224133777e-05
-0.000141887252741111804
0.00016396979254262181
9.56676612699639071e-05
-0.000204767069734697766
0.00027643434874557787
2.08166629745070888e-05
-0.000236414599651009081
-7.48065010972572468e-06
7.37386380673612418e-06
3.51436825841192375e-05
-0.000234334208529635071
-7.02645842645267065e-06
9.0589556588066861e-06
4.91765796644659073e-05
-0.000228369878246175839
-6.5604633474430654e-06
8.14199911859775169e-06
6.50229659585144449e-05
-0.000225109188446551579
-8.00600257743733202e-06
1.00356464241000083e-05
8.19962393191333232e-05
-0.000221763297212723221
-1.1132570186185828e-05
1.4509220257151796e-05
9.98392083140250779e-05
-0.000219894226811693334
-1.35481803312745116e-05
1.85828372960939181e-05
0.000118868728384179158
-0.000216794982836624774
-1.5030887325675779e-05
2.04090152774362516e-05
0.00013845429525195571
-0.000205555392783408506
-1.70217810858700571e-05
1.98952754056877962e-05
0.000157980220717362954
-0.000181224341530453453
-2.09610697671665123e-05
1.96120646137570612e-05
0.000177748459444439016
-0.000149100263669907623
-2.7528622846846813e-05
2.19608372962390289e-05
0.000192210824957438303
-9.88248371826300383e-05
-3.8230350266141129e-05
2.92314868057351152e-05
0.00018921834949254347
-2.10298626492954124e-05
-5.60117576470303016e-05
4.55916471930135341e-05
0.000169189482103415114
4.73658374537582003e-05
-8.26345160210118315e-05
7.84475901176864224e-05
0.000139818370704426894
7.49914614388589662e-05
-0.000113001277161285267
0.00012178629478416297
9.09344133421858712e-05
7.83016573153958741e-05
-0.000141402511037909146
0.000163505910367598621
0.000118937560512886922
-0.000198900935762240627
0.000266565460273577085
1.62030039641144139e-05
-0.000255425414152012044
-1.15515161391953907e-05
1.43593443273376446e-05
2.75601266339488481e-05
-0.000250115815159389831
-7.64455284653420747e-06
1.20690322415293646e-05
3.96549180860692688e-05
-0.000243346499606007577
-4.5615342805863968e-06
7.44333763184072698e-06
5.47738283329583082e-05
-0.000243297127165800851
-5.26901960320500647e-06
8.33804320460520256e-06
7.07457208337033565e-05
-0.000242120965237120449
-7.93764556270866919e-06
1.23233834687632828e-05
8.73996237243497646e-05
-0.000242237641343057185
-9.41952112800122965e-06
1.5108953612177696e-05
0.000105782468337834237
-0.00023790455178189767
-9.74406094952352155e-06
1.24707625782859986e-05
0.000123977770408180443
-0.000220531905462806235
-1.15080521753650066e-05
8.28926492744276437e-06
0.00014296744458002167
-0.000189881084519220649
-1.36016866174006794e-05
3.26874966206176023e-06
0.000161270711022240765
-0.000149030591494388274
-1.9177159902959305e-05
8.04210829262659056e-07
0.000177788092906039916
-8.82327232262589828e-05
-2.80317361685666205e-05
9.22297813121401898e-07
0.000169951912201807796
9.55843639085206254e-06
-4.41455239705148357e-05
2.13933347539706947e-05
0.000141733915263502635
8.3305775999945389e-05
-7.51677391186912256e-05
6.74457925620595088e-05
0.000127441786820334664
8.10520118477186299e-05
-0.000113849001000549958
0.0001220806796341174
8.57310322173230845e-05
9.94249642573260742e-05
-0.00014383036085737825
0.000164417802926376355
0.000138786711400066794
-0.000194662322789515671
0.000260544255645271531
8.13097567890438367e-06
-0.000272385312566344106
-1.83645691654368227e-05
2.71935026525997413e-05
1.48330070108485279e-05
-0.00026507806075668351
-8.23238840256422581e-06
1.64925853906989894e-05
2.39915147531400673e-05
-0.000257376745352653753
-1.48385811713313272e-06
6.35557615829578887e-06
3.70791673187484714e-05
-0.000259875133045654261
-1.61598302449987406e-06
5.10632022729060634e-06
4.97502310977508699e-05
-0.000259289108140663095
-3.35655190572032158e-06
7.85349427148717051e-06
6.26073987650942469e-05
-0.000258812336020197969
-3.05646331747727607e-06
6.77384060636988951e-06
7.76830337513804287e-05
-0.000248946185861183538
-9.95309222176084829e-07
-3.03869845044638161e-06
8.86383991292740114e-05
-0.000217212698142815958
-2.91235994547758187e-06
-1.13622673679721147e-05
9.51009601457110192e-05
-0.000172286334225594043
-1.20086295013790403e-08
-2.40454601322199281e-05
9.66116654545826737e-05
-0.000110403467067565742
-5.32218433099717818e-06
-3.4815508777029795e-05
8.99885744698746443e-05
-3.29806757022427471e-05
-1.19053819192123085e-05
-3.67235196755505379e-05
3.21064367454291632e-05
7.81459273931620524e-05
-4.05094205596458526e-05
2.98031604868485749e-05
-2.24452851003598304e-05
0.000109908612418908804
-0.000100969329242611813
0.00012891846905226399
6.78719262000801742e-05
-4.04485886005474284e-05
-0.000124301688977599529
0.000155484806289664379
6.75971002436169522e-05
7.5283022824250469e-05
-0.00014902593745109527
0.000173442792521885029
0.000142316858096042841
-0.000192133225706009504
0.000256200259370893842
-2.83298279421062308e-06
-2.62851027529978657e-05
4.49053458340059548e-05
-0.000288172576628655962
-1.6487134015090793e-06
-7.80447489861723861e-06
2.10664362338284059e-05
-0.000279524329764424279
3.84796611231779675e-06
2.78238689026849453e-06
4.44993855403643453e-06
-0.000270105745865278479
1.30236074590458746e-05
3.36792800977264126e-06
-6.25695927361628905e-07
-0.00027179314504686275
2.0440464522937508e-05
3.29906966217548294e-06
8.75396126084406667e-07
-0.000270880809808401578
2.74059067683435231e-05
6.41597918094250069e-06
-6.77917181346749311e-06
-0.000265414679379914037
3.77802458106737032e-05
1.31308255709276518e-05
-2.54523416012040425e-05
-0.000246998980284540346
3.75955666715410529e-05
1.02499667523644916e-05
-3.69870199314129214e-05
-0.000190291349487098859
2.61250435684717857e-05
1.57172855038502863e-05
-5.09862785147696944e-05
-0.000125546705517412213
1.83795194209933194e-05
1.59474439972429954e-06
-5.5441238682565723e-05
-4.88112765902208915e-05
-3.53883861367953974e-05
-2.39697734532977878e-05
-2.12929567416834215e-05
6.60474706754134253e-05
-0.000122394378017863547
-6.16037907682849588e-05
8.36372507069642888e-05
0.000143119300100277456
-0.000127147522308910729
-0.000116399359930413932
0.000141082959450810252
8.99777393193602719e-05
-3.37511945667851509e-05
-0.000154755023685062691
0.000169123374982365173
-0.000148212893638059381
4.12945361870125429e-05
-0.000153825864225083924
0.000171986595786505095
-1.79238770958664063e-05
-0.000187750188138983244
0.000247987146427590779
0.000123374382607023824
1.1748721109837409e-05
-1.24173172306006952e-05
-8.98553341550648374e-06
3.01377326393919025e-05
-1.91404636767974069e-05
-1.01342144721035255e-05
4.98603467089049943e-05
-2.04812247016039042e-05
-1.09808163147779045e-05
6.89915242429517064e-05
-1.9926623246000807e-05
-1.23828026779209168e-05
8.56372802561272044e-05
-1.75338266501697738e-05
-1.43937991132518794e-05
9.98980089348590897e-05
-1.53269274236202668e-05
-1.719675447273755e-05
0.000112191380231941145
-1.36002833371288736e-05
-2.1010724869061341e-05
0.00012242726026795626
-1.19961922189040933e-05
-2.62158291103145894e-05
0.000130264765019471056
-1.01167457270955288e-05
-3.29815135250935301e-05
0.00013504809707487998
-8.15312143345440359e-06
-4.20542056602171964e-05
0.000136569186464957664
-5.97784337453952248e-06
-5.35307310975913859e-05
0.00013372374345226986
-4.43608290234347842e-06
-6.88981848304900143e-05
0.00012653618125427443
-2.90294036565091727e-06
-8.79578542059342969e-05
0.000111698017202029284
-3.84110245202517674e-06
-0.000112608309767999205
9.43518482177315451e-05
-7.36823395750336486e-06
-0.000144986677658353013
1.04855063866373041e-05
-0.000168448187912075193
1.3156605835965912e-05
-2.63048621536553127e-05
-8.94361905821897211e-06
3.13416199209786155e-05
-3.81093953902279952e-05
-9.80805727090670934e-06
4.9338529831596959e-05
-3.92580320756697935e-05
-1.06974610688829169e-05
6.59331144679550871e-05
-3.73138965452173723e-05
-1.20548565156854219e-05
8.15546410127193573e-05
-3.40255857932950025e-05
-1.40508410838550385e-05
9.58673606498664118e-05
-3.06711957204556352e-05
-1.68425336851411566e-05
0.000108593213327212349
-2.76229373501754557e-05
-2.06407279220812837e-05
0.000119456140645509714
-2.45646813592891672e-05
-2.57177462750362214e-05
0.00012812403223494702
-2.11019866855691727e-05
-3.24001448375667666e-05
0.000133980511167058349
-1.72667908798689839e-05
-4.11544258260871458e-05
0.000136522367244096493
-1.31674143415197764e-05
-5.25169430918607464e-05
0.000134594096122278979
-9.62825462835328384e-06
-6.72691829136317737e-05
0.000127843150625613479
-6.91553633685793235e-06
-8.60091682943853273e-05
0.000111249530121043747
-6.49146310491508655e-06
-0.000110337608676951626
9.11144617644025215e-05
-1.50342539034547072e-05
-0.000137831294172457568
2.00825776577703675e-05
-0.000182451795516551754
1.46654984179259443e-05
-4.18101036625369567e-05
-8.75156748586776735e-06
3.22717706196795154e-05
-5.66108017796181163e-05
-9.71094223046572893e-06
4.98555763629063452e-05
-5.77042865895239512e-05
-1.06499161033609927e-05
6.63942059188900004e-05
-5.46905152451946069e-05
-1.20335305110843538e-05
8.19325499994082276e-05
-5.04500902950721122e-05
-1.40412054489065258e-05
9.62996647374107941e-05
-4.60673864944667117e-05
-1.68336943530158188e-05
0.0001091835515472423
-4.17898296844188474e-05
-2.06135939562075214e-05
0.000120238605283329287
-3.730796733708828e-05
-2.56488527199275861e-05
0.000129046089877034482
-3.22087641941042174e-05
-3.22762431154656801e-05
0.000134975677549358485
-2.64309303768077735e-05
-4.09660145211338957e-05
0.000137425641607281105
-2.02444661320887973e-05
-5.22640608817499992e-05
0.000135284131737910756
-1.453633172065637e-05
-6.69435983967599989e-05
0.000127972659227874587
-1.03130369110008766e-05
-8.56173012613191446e-05
0.000110843534517371983
-8.25589851987207489e-06
-0.00010983196069391232
8.72400100936502655e-05
-1.89327160465888514e-05
-0.000137805948521144725
2.75220908240903734e-05
-0.000179254922537392861
1.57838238586455309e-05
-5.85856700424602998e-05
-8.54720884804594645e-06
3.3096221690915262e-05
-7.4968810919789737e-05
-9.59096797364264805e-06
5.03407669756723741e-05
-7.5909820531295288e-05
-1.05772685808475855e-05
6.67371088476345815e-05
-7.1960612639385588e-05
-1.19851882158232484e-05
8.22287807918297363e-05
-6.68185215380981455e-05
-1.40025794192755233e-05
9.66799489593798945e-05
-6.15135897397694754e-05
-1.67955087597517998e-05
0.000109755079523603775
-5.61066620902952559e-05
-2.05574154077139984e-05
0.000121045415078063572
-5.02532584967543784e-05
-2.55442157496428773e-05
0.000130049316068989884
-4.34968491135846253e-05
-3.20984837678260946e-05
0.000136086657429167283
-3.56994750436165836e-05
-4.06985223638260993e-05
0.000138454199894696999
-2.72377642209065486e-05
-5.19055695704946624e-05
0.000136004582963591768
-1.90938110956282581e-05
-6.64835152212861334e-05
0.000127923512135837131
-1.28625098219930056e-05
-8.50743540329564264e-05
0.000110210051070779337
-9.16351194653265195e-06
-0.000109079922698971892