/*--------------------------------*- C++ -*----------------------------------*\
| =========                 |                                                 |
| \\      /  F ield         | OpenFOAM: The Open Source CFD Toolbox           |
|  \\    /   O peration     | Version:  2206                                  |
|   \\  /    A nd           | Website:  www.openfoam.com                      |
|    \\/     M anipulation  |                                                 |
\*---------------------------------------------------------------------------*/
FoamFile
{
    version     2.0;
    format      ascii;
    arch        "LSB;label=32;scalar=64";
    class       volVectorField;
    location    "0.300000000000000044";
    object      faceForces;
}
// * * * * * * * * * * * * * * * * * * * * * * * * * * * * * * * * * * * * * //

dimensions      [1 1 -2 0 0 0 0];

internalField   uniform (0 0 0);

boundaryField
{
    inlet
    {
        type            calculated;
        value           uniform (0 0 0);
    }
    outlet
    {
        type            calculated;
        value           nonuniform List<vector> 0();
    }
    top
    {
        type            calculated;
        value           uniform (0 0 0);
    }
    bottom
    {
        type            calculated;
        value           uniform (0 0 0);
    }
    left
    {
        type            calculated;
        value           uniform (0 0 0);
    }
    symmetry
    {
        type            symmetryPlane;
    }
    interface
    {
        type            calculated;
        value           nonuniform List<vector> 
181
(
(0.730473529422125956 -9.8338544594869881e-06 -2.1988997433540984e-05)
(0.700061112354959492 6.95758119092299788e-07 -2.36724704924347253e-05)
(0.667904297572129657 2.43738945539842664e-06 -2.34043552458714479e-05)
(0.637501417228921841 2.9908160774587162e-06 -2.3006044262832765e-05)
(0.608799346748072012 3.7034860275573837e-06 -2.25295170582552177e-05)
(0.580549238916780674 4.65249763857724876e-06 -2.20040948376357217e-05)
(0.551799322561486894 5.96527029147465714e-06 -2.15719436229495444e-05)
(0.521673964660025802 7.53562547089303675e-06 -2.10117474100698656e-05)
(0.487024754413742711 9.47175639597191525e-06 -2.04166286950003692e-05)
(0.447130709720303054 1.22730584768023892e-05 -2.03613519599826907e-05)
(0.399221944718432808 1.5866631100154351e-05 -2.09648908791115681e-05)
(0.339681478597117392 1.87763112898624522e-05 -2.0048209240717975e-05)
(0.266743645266188045 2.20469143762251933e-05 -1.94710746300494823e-05)
(0.187792720133897556 2.49713639606559745e-05 -1.86822817709464039e-05)
(0.118835412241485916 2.71481900804942098e-05 -1.76835660586228063e-05)
(0.068160907972651924 2.81986960584161259e-05 -1.6880474398234408e-05)
(0.853165050793846969 -4.64038161152841808e-06 -1.35706294099704223e-05)
(0.820291929290456245 1.40018623567346498e-06 -1.57787627582517088e-05)
(0.785313724636781951 2.74675110716205635e-06 -1.54649543653382115e-05)
(0.750713816472641016 3.74331980616040546e-06 -1.5086316596212936e-05)
(0.716856881709402427 4.81117080756648322e-06 -1.48139985235614632e-05)
(0.682747112508499732 6.01365842546711747e-06 -1.45715529745799459e-05)
(0.647510001699444504 7.55540659739835093e-06 -1.4365667585000371e-05)
(0.61080788508145456 9.3020373392974899e-06 -1.41438408173322141e-05)
(0.570648994276679589 1.12542061158954011e-05 -1.38424119611804082e-05)
(0.525322555078432618 1.39348342942620145e-05 -1.36904000755866709e-05)
(0.472307454153927608 1.78172558403922054e-05 -1.42536779971195546e-05)
(0.40813006936810664 2.07235991233690069e-05 -1.37354386939602917e-05)
(0.332480396246850607 2.39869918121082114e-05 -1.34019182629108619e-05)
(0.246080843153689194 2.70586809736108515e-05 -1.315034893466106e-05)
(0.161370290604131134 2.92490740529524305e-05 -1.25564255030860158e-05)
(0.0938393048251495304 3.19725342242239925e-05 -1.28342560238871538e-05)
(0.910390061700297015 -4.67134482122870178e-06 -1.07391523674542317e-05)
(0.877865219849662926 1.52987796366890907e-06 -1.20663871487174773e-05)
(0.842830412520235606 3.27944309768759493e-06 -1.21791782475424041e-05)
(0.806900787611786852 4.56594479582750858e-06 -1.19472696901667824e-05)
(0.771150875819465176 5.88316471949579325e-06 -1.17397348921533794e-05)
(0.735102868289988387 7.24782213392043599e-06 -1.15890592010134901e-05)
(0.697688131559661362 8.94645880199378116e-06 -1.15059325592886268e-05)
(0.658774499514090284 1.08327456029804649e-05 -1.13925224896351065e-05)
(0.617642410115876506 1.28292165613538973e-05 -1.12194306580832088e-05)
(0.571146375290071617 1.63854072719253654e-05 -1.19524323969088463e-05)
(0.516400417705217385 1.94743640488739392e-05 -1.19495224969470472e-05)
(0.451547314101233332 2.23099329489124969e-05 -1.16219293702087573e-05)
(0.3761346671619471 2.55707423808372216e-05 -1.14414792081860021e-05)
(0.289710787990619167 2.8736005818826846e-05 -1.13747655327433314e-05)
(0.19891802862029781 3.07833245527659895e-05 -1.08781141976386974e-05)
(0.118340659606411089 3.32829442850028764e-05 -1.09573955019275206e-05)
(0.933241405804217328 -3.47543892470763881e-06 -6.26903163844133829e-06)
(0.900391204453892868 1.83077605236192517e-06 -7.97658385899973149e-06)
(0.864955548573910216 3.54555853540152032e-06 -7.99308744462422215e-06)
(0.8284668147458365 4.95445654616693863e-06 -7.77953915220740147e-06)
(0.792071261059604237 6.40321008341558761e-06 -7.66017769899441937e-06)
(0.755285700628050449 7.87543314968939491e-06 -7.57838018939730437e-06)
(0.716881026134033927 9.62485957696704382e-06 -7.52667666937808188e-06)
(0.677402258256830647 1.16812839006587654e-05 -7.50658908240480916e-06)
(0.635592901474503646 1.36838874769796862e-05 -7.46915361028283495e-06)
(0.588167448733503129 1.68282980856431327e-05 -7.77017567171272327e-06)
(0.53354290259911008 2.02934558978254829e-05 -8.02459737522565605e-06)
(0.470189885884540748 2.31230074782287351e-05 -7.89861206324644963e-06)
(0.396564246455009706 2.60936919767605452e-05 -7.81153503686066183e-06)
(0.3127739403341534 2.93653572236930098e-05 -7.83637548069158212e-06)
(0.219916624838973007 3.17673696314286984e-05 -7.68290589000435771e-06)
(0.13170741467138869 3.41194123964166135e-05 -7.70986723529300513e-06)
(0.946038522335343135 -2.87629771781008195e-06 -5.07513698798855641e-06)
(0.913241214666498546 1.92041747308351875e-06 -5.73662780417762187e-06)
(0.878052112540912533 3.6604377633603274e-06 -5.78576880326525193e-06)
(0.841593959147098558 5.17235266081306399e-06 -5.7383230786685299e-06)
(0.805086094578657208 6.75860116024244534e-06 -5.7273425937833759e-06)
(0.768217004837693063 8.33477552708378518e-06 -5.67738392410253988e-06)
(0.729590134752750807 1.01076515554686713e-05 -5.6190356104731739e-06)
(0.689754674483897157 1.23365468878881436e-05 -5.61993798595056093e-06)
(0.648106009983955067 1.43144019815739233e-05 -5.54126898711201338e-06)
(0.601086957065130156 1.65108647051186447e-05 -5.50928555695433385e-06)
(0.547339972069588399 2.00483502907053727e-05 -5.78725237026481158e-06)
(0.485764779939576841 2.38839881245969719e-05 -6.01666536053452866e-06)
(0.41423597796959355 2.66208224064087403e-05 -5.91186265918421893e-06)
(0.332124010727422425 2.968229276184289e-05 -5.89220859405524406e-06)
(0.238753504465874233 3.26102622882229413e-05 -5.89125438046593412e-06)
(0.148284902974297056 3.4336442150688727e-05 -5.8360040595306273e-06)
(0.951850706471152441 -2.21325892478826042e-06 -2.7039866623098281e-06)
(0.919280300349975432 1.99506037309341577e-06 -3.65694178389381599e-06)
(0.884387194691720668 3.71460233313680797e-06 -3.77390715086315398e-06)
(0.84796141790643742 5.2697895235711282e-06 -3.75135182086675645e-06)
(0.811225684079855958 6.93518783823133257e-06 -3.7421688466941183e-06)
(0.77410276079147966 8.60251584245410102e-06 -3.6961882934499842e-06)
(0.735329409943694112 1.03887401399517832e-05 -3.63967706136793859e-06)
(0.694627701667942965 1.24887628005575191e-05 -3.55923110255761461e-06)
(0.652021370212944262 1.46101430407043396e-05 -3.46735312850442363e-06)
(0.605626334410816813 1.6863817211360222e-05 -3.40109832094432376e-06)
(0.553070712268971865 2.02059590551158516e-05 -3.52405952690863278e-06)
(0.491793955121803517 2.42772867359929389e-05 -3.73234842833589319e-06)
(0.420394705904299115 2.69967429574232887e-05 -3.70988723612504463e-06)
(0.340475497417585538 3.01043773101700582e-05 -3.74991685004519324e-06)
(0.250158388829782807 3.33379444048302205e-05 -3.84999635897548984e-06)
(0.157602666197059704 3.53083212182391293e-05 -3.91676856772514187e-06)
(0.955159819454475922 -2.10642820329074892e-06 -1.52795670133428894e-06)
(0.922416261998492581 2.09452304544245875e-06 -2.08156412003927859e-06)
(0.887821584168015931 3.76195267167264929e-06 -2.14266409164601055e-06)
(0.851846956090748453 5.30502056165192354e-06 -2.15794546065428919e-06)
(0.815345728693288252 7.00106901090529421e-06 -2.18137947968663178e-06)
(0.777988913144788463 8.6323609835535057e-06 -2.1988020771502406e-06)
(0.739380130066490393 1.08712652326512714e-05 -2.19222447888395979e-06)
(0.698232569021636995 1.39159134793881193e-05 -2.25218430232366974e-06)
(0.65442041459188105 1.51043596904495067e-05 -1.9653853355260097e-06)
(0.608324740493399685 1.75013619790385545e-05 -1.85519817376843092e-06)
(0.556498205825999626 2.00150560827862123e-05 -1.8207414521841689e-06)
(0.496853746264825036 2.30063441187114344e-05 -1.8571171248100401e-06)
(0.42775564731653043 2.74761367787947139e-05 -2.02416526150554496e-06)
(0.348645737799009647 3.0339409113678968e-05 -2.05526475980636245e-06)
(0.261565467379315741 3.35068274959140157e-05 -2.11538429188340114e-06)
(0.171703612279929418 3.56847665115550466e-05 -2.18719157925904602e-06)
(0.956401505882823133 -1.87449622870676311e-06 -4.92709556530636178e-07)
(0.923543476497335591 2.15091108887484952e-06 -6.60291491570578652e-07)
(0.8890287090352752 3.7920829420719485e-06 -6.82451418220014461e-07)
(0.853419268539298836 5.30751100237456506e-06 -6.94418867963926048e-07)
(0.817211951560659289 6.94260290707051368e-06 -7.13709303516081732e-07)
(0.780457168796812928 9.22838315900381337e-06 -7.80636771035808179e-07)
(0.741106673561730989 1.24210082786842247e-05 -8.28339861207382825e-07)
(0.698647091936093201 1.3752133471870688e-05 -7.02303588279793327e-07)
(0.65525700437824308 1.54211613690772399e-05 -6.10281242651842504e-07)
(0.608962522346422341 1.77574754401266768e-05 -5.50407186026436824e-07)
(0.558233059678254651 2.02860244792167682e-05 -5.25532545157070602e-07)
(0.49925699979944238 2.4707117464832165e-05 -5.57350275306817875e-07)
(0.429625984066020317 2.79357496255457966e-05 -5.62808335568493459e-07)
(0.349466797124737938 3.08067433177582796e-05 -5.56234690333503994e-07)
(0.261323881931820767 3.39503919037378472e-05 -5.61458790357444891e-07)
(0.169443893303721338 3.59706899026065156e-05 -5.68880567666141426e-07)
(3.76110847020858294e-05 1.56825648005825645e-05 -0.123199140134646473)
(3.93019977286231716e-05 -1.81559614301917398e-07 -0.150165929989954539)
(3.84223287445162816e-05 -1.81263651657909623e-06 -0.15266800961974486)
(3.63158563937244363e-05 -2.38791151556589762e-06 -0.138634520835585417)
(3.4832280731497254e-05 -2.85937744442698128e-06 -0.113736275837880429)
(3.11486827019372261e-05 -2.5617294284587145e-06 -0.090471762221471394)
(2.92518334451626618e-05 -2.04775669694474978e-06 -0.0648682855056114949)
(1.98094904332664937e-05 -2.54423729938922627e-07 -0.0246168428488482416)
(2.2622504983778756e-05 2.777053474414776e-06 -0.0298864408754267244)
(1.55539947620075334e-05 3.36094485859700806e-06 -0.00168198855763866564)
(1.35936635595840364e-05 5.74705793327119303e-06 -0.00115902452656541219)
(1.21376010454686234e-05 8.10071056693488191e-06 -0.00122170233832379375)
(1.22938857256691043e-05 1.09496039032862222e-05 -0.000592000836596951623)
(8.61944021023622052e-06 9.41138623645655653e-06 -0.000782640544655904932)
(4.76418788512964691e-06 7.6424329583726117e-06 -0.00104907199498597507)
(3.06885512205528737e-05 1.28237164277439551e-05 -0.0197711312208359406)
(2.99232738066307104e-05 -4.40474895723571738e-06 -0.0352724016179016137)
(2.51705975843515819e-05 -9.20380237617414745e-06 -0.0399603881441032219)
(1.85241919165362798e-05 -9.81640420638609705e-06 -0.0351371029574021332)
(8.26515065746363971e-06 -5.30514161844643403e-06 -0.00836810244859849568)
(4.14653925769958444e-06 -2.07549314512292638e-06 -0.00319591222424296792)
(2.01471485990929682e-06 -2.05719669261022142e-06 -0.00369202504818140573)
(-7.21347229111065042e-08 -3.59093219160026122e-08 -0.00446063980950454474)
(2.05747108073292852e-07 -7.72603049196485881e-08 -0.000271941084588303366)
(-3.48597301906794538e-08 -3.31013732960947493e-08 -0.000879978926754023576)
(-4.02936179433116722e-08 -2.29336315440612531e-08 -0.000865510161872627064)
(-4.21197196898043779e-08 -2.32787947186708117e-08 -0.000859847006530897523)
(-4.47785817486506484e-08 -2.13723148387978897e-08 -0.000845087956972218925)
(-4.39094330850765339e-08 -1.94047027775239231e-08 -0.000842947087070370477)
(2.71639878295474299e-05 7.26205328214039745e-06 0.098318565085578194)
(1.84800530684818829e-05 -5.73248575262553949e-06 0.0571772540927919029)
(4.78763975741602005e-06 -4.78765549839212634e-06 0.0179514791861320848)
(2.35814816808954202e-07 -2.4849019130645441e-06 0.000189951472917853666)
(-8.23672768141284115e-08 -7.34599481514794753e-08 -0.00276736997151833886)
(-1.19056383612626033e-07 -7.4759747358256646e-08 -0.00253599342259088791)
(-9.52385118657062217e-08 -6.40543682399251368e-08 -0.00249597301867514939)
(-6.76627318913236172e-08 -4.06895340973114524e-08 -0.00224792047331189059)
(-1.73696950013219452e-08 -1.3511384161718079e-08 -0.00143724529400521706)
(-2.91811605419518461e-08 -2.20988516600807357e-08 -0.00122565847727029546)
(-3.62604886147665127e-08 -1.86469145799409668e-08 -0.00112071169562807048)
(-3.68093423236294702e-08 -1.56104609601970022e-08 -0.00105802397871045681)
(2.53695410995824216e-05 3.73055249067258539e-06 0.0696019997253314454)
(1.59409819600565548e-05 -8.23418219467759107e-06 0.0253160475243181943)
(1.26515005627136909e-06 -1.00947572040321357e-06 0.00133147801947044574)
(1.05289686757553906e-07 -6.67930066007977066e-08 -0.00213791494657156406)
(3.52690990472345258e-08 -4.71240452167794251e-08 -0.00275992702929159445)
(-5.69575589137367233e-08 -3.41571127716565329e-08 -0.00256752737568027812)
(-2.16802107323361732e-08 -2.94283586631083873e-08 -0.00234313861581206349)
(-3.00600661914204136e-08 -2.10615288327843562e-08 -0.00154951685716486764)
(-4.87090570037299141e-08 -2.00586136398475735e-08 -0.0012329504869316324)
(-2.01459745745003303e-08 8.05588474777533741e-10 -0.00114569861128909281)
(-3.45652652502812032e-08 -9.13840375342989651e-10 -0.00107569083749965212)
(-3.40255137840545356e-08 -1.30435227686947869e-09 -0.00105717704070918653)
)
;
    }
    procBoundary0to1
    {
        type            processor;
        value           uniform (0 0 0);
    }
    procBoundary0to3
    {
        type            processor;
        value           uniform (0 0 0);
    }
}


// ************************************************************************* //
