/*--------------------------------*- C++ -*----------------------------------*\
| =========                 |                                                 |
| \\      /  F ield         | OpenFOAM: The Open Source CFD Toolbox           |
|  \\    /   O peration     | Version:  2206                                  |
|   \\  /    A nd           | Website:  www.openfoam.com                      |
|    \\/     M anipulation  |                                                 |
\*---------------------------------------------------------------------------*/
FoamFile
{
    version     2.0;
    format      ascii;
    arch        "LSB;label=32;scalar=64";
    class       volScalarField;
    location    "0.300000000000000044";
    object      p_rgh;
}
// * * * * * * * * * * * * * * * * * * * * * * * * * * * * * * * * * * * * * //

dimensions      [1 -1 -2 0 0 0 0];

internalField   nonuniform List<scalar> 
7360
(
2567.716539663395
2566.58546718611706
2560.23514672041756
2550.13153133618289
2537.96176828606258
2523.36099513893851
2507.09624371654172
2490.13942159713997
2473.63209892783107
2458.26307758281837
2446.28707198991106
2436.46670803487177
2431.65864520268951
2417.55347182116429
2405.93735885355181
2214.37213696782328
2567.12606909486158
2565.58574910066409
2559.25147823460566
2549.15000545141993
2536.69071403768157
2521.96588694865568
2505.55758822977714
2488.37683838248768
2471.48440589182974
2455.84834143046282
2443.23023007435313
2433.76027570376436
2428.73849393375122
2417.77858256056561
2404.33703369826117
2224.84804025588483
2565.76508238348015
2563.63224596736654
2557.20864039497292
2547.05694032109341
2534.30649750349266
2519.30105421116696
2502.5390850066151
2484.87395999966384
2467.3564572207174
2451.10543493443674
2437.80289530104437
2428.3394190030931
2423.89754476290273
2416.53770864945545
2407.49409653649218
2231.42316448721067
2563.53926143156104
2560.88262732691874
2554.27888506576164
2543.98457518095483
2530.8555664173623
2515.37052231025837
2498.03490692828291
2479.64682344855282
2461.22631739688632
2444.00460788524651
2429.70999717676114
2419.85858297728964
2416.25524217908696
2412.94092714552971
2411.28186069319781
2240.14502186869413
2560.47012630108065
2557.39382896417328
2550.50446668523455
2539.93569589195295
2526.31697286018698
2510.18164697493694
2492.06083058007198
2472.695937058043
2453.06351635530609
2434.4705942573305
2418.76205326182162
2408.09102614585026
2405.29683835352125
2406.53333251288223
2415.36661283311378
2255.56171191618205
2556.59748482399891
2553.1724209628801
2545.92526050532842
2534.95693548652571
2520.72240359791613
2503.76757096913434
2484.64367854815282
2464.0335182291542
2442.85011824056301
2422.42487065266778
2404.75172774680686
2392.64481970335555
2390.27563840513903
2396.4375525336086
2418.00287631959281
2274.83125603423832
2551.96680227810293
2548.24014278924824
2540.57721825419458
2529.08740998700387
2514.09880568679273
2496.15527101502494
2475.81048148300488
2453.67419965188037
2430.56325799569777
2407.75330217108785
2387.39628576519362
2372.96810741235277
2370.15973397114522
2381.39565664317342
2415.16015685094499
2293.62372211310867
2546.62700738532203
2542.62154946488408
2534.48601998393542
2522.36011693787532
2506.47610769127232
2487.37616428768251
2465.59186819801516
2441.63071036180054
2416.15909397942369
2390.30931618786281
2366.32259225127109
2348.26400257673458
2343.42638616994509
2359.18375564761209
2404.82487884353486
2315.10410564539143
2540.60719981476814
2536.32443096887391
2527.6500361822068
2514.78289654745959
2497.86477565589621
2477.44320680177589
2453.99542583351831
2427.87530403835217
2399.51170953323344
2369.81784844911772
2341.04058459551516
2317.29067032422699
2307.68578015802677
2326.38635475622777
2391.44599793881571
2331.51688140880697
2533.85229476948643
2529.25221681737366
2519.9560136578425
2506.26537356945983
2488.19143981063553
2466.28690965163105
2440.92650367552051
2412.2250012001291
2380.25335675907718
2345.6072706262903
2310.53275281542528
2277.96298701570504
2258.99592363786178
2277.82452257358364
2362.23741476896157
2340.54465958982792
2526.14874384137738
2521.08651661470321
2511.05143523666266
2496.50417183857508
2477.18817911214637
2453.63541110923052
2426.02778408301856
2394.1201841439788
2357.48897971233737
2316.14908957498255
2272.15322901543459
2225.78145123403965
2188.82291231772342
2187.51364775461661
2308.85619758703751
2387.07536745118068
2517.0795124417923
2511.25323895042948
2500.28058573184398
2484.90763309295744
2464.27901542201926
2438.85723673866642
2408.47709121719527
2372.37873216656271
2329.48416959346059
2279.05976040561472
2221.70730390224071
2153.12832271500201
2090.23640162458514
2044.84510618137006
2203.59177277677736
2339.1211148946345
2505.79378835691296
2498.75121535055041
2486.53146476145093
2470.42115102105072
2448.35644792794301
2420.69260772005418
2386.70178010102654
2344.85899305164139
2293.35973396670352
2230.55110280535291
2154.71442153471799
2048.82163112309581
1941.91395961459148
1819.28378938265087
2020.03615422783264
2251.34459003719803
2489.97095637429265
2481.08028395806605
2467.34415561884589
2450.73340183592973
2427.08185159512232
2396.496977351439
2357.51664479719602
2307.27741814757655
2243.4041464889533
2164.30748024694867
2062.35791805471717
1897.16351894903028
1351.67314509189328
1424.73189774990919
1762.83045807085318
2138.28569942871081
2464.25313815774416
2452.65815365447997
2437.41000117365775
2420.82395180688854
2395.47038864879323
2360.60138288789267
2314.01144187443515
2250.50249263291244
2167.52173683321189
2066.54853360665402
1925.76087100109316
1569.71039842230107
785.566716164348009
375.963377009791316
1387.58221145059861
1991.66214458512536
2420.08189831435357
2404.45720347291171
2387.99900864362507
2372.21894165721142
2344.07637397228928
2302.28447455094647
2243.43266161459587
2158.52063459078818
2047.75196007726686
1915.85190765457492
1545.72836515754739
522.245179098455537
171.233764837804841
68.8813285980304641
294.482273751501225
1862.41128454282352
2568.66096089986604
2567.63047417526877
2561.60145686398619
2552.09570317589214
2540.8619070423274
2527.7330331379876
2513.67189560887346
2499.96796580108366
2488.13140572185102
2479.76697562887375
2477.51860297011899
2482.90726185914718
2499.5826718223243
2524.62920658658049
2554.61526581393309
2553.4526976485572
2568.0783355767021
2566.64782474009371
2560.62740627887342
2551.11491422490599
2539.60111181282127
2526.34671446877428
2512.1384531910453
2498.19494967596074
2485.99586250004131
2477.28182341638603
2474.5856852352731
2480.20704848800369
2496.9535921852198
2524.10467522630506
2554.58965476489266
2555.54426075899482
2566.7371679705534
2564.72501518017043
2558.60776260660259
2549.03673894191434
2537.23655033196019
2523.70154151088673
2509.13795653896386
2494.70837606599935
2481.89525847909499
2472.56077778503595
2469.28494032343133
2474.9340936262879
2492.30999864678961
2522.40553108716222
2556.64381582982378
2554.63504326329166
2564.54726540639786
2562.01836081346437
2555.70995586250274
2545.98643378791849
2533.81063526535399
2519.79837741023675
2504.6618296471238
2489.51040532957995
2475.80205941067288
2465.51016161647021
2461.3252599271068
2466.68973163796772
2484.95928841120804
2518.51534822342092
2558.82433280401028
2550.05203962989071
2561.53194087640532
2558.58437050072234
2551.97419174885863
2541.96654155710212
2529.30443023023463
2514.64406567534434
2498.72377379403315
2482.5986753703146
2467.68094192425042
2456.03876548455037
2450.52611947283503
2455.23143662801886
2474.42410111275649
2512.01665349018776
2560.83491311556236
2547.41819168945176
2557.73195931256532
2554.42950567420303
2547.43844916445323
2537.02241751996507
2523.74872187384926
2508.26793455342704
2491.34576503585504
2473.97744716146826
2457.49908094725333
2444.04114505916596
2436.65612823756783
2440.15079657403794
2459.98531340786531
2502.04155661199229
2561.31508454549839
2549.28531967248546
2553.19435140327869
2549.57446195819057
2542.1369091516749
2531.19284235138548
2517.16945287432463
2500.69156412590519
2482.54727904237143
2463.64787337662028
2445.20715098883602
2429.37299087845031
2419.4071883825236
2420.87002407313548
2440.6355725099661
2487.4379958745094
2555.88896940433779
2550.69039540659833
2547.96815524128306
2544.04507838314794
2536.09632103844115
2524.5114580488098
2509.59340799060556
2491.93570380185338
2472.34423831230379
2451.59645103017056
2430.71852764692449
2411.82893316489071
2398.38995267156497
2396.57538439776454
2414.8671375836343
2466.11534084299683
2542.83674170064478
2553.56594285954134
2542.08089278111447
2537.84921580535138
2529.32247129647703
2516.98952201771181
2501.02494322859684
2481.99426746502286
2460.71590366068949
2437.74679699435137
2413.84171462977656
2391.07189882243938
2373.07196930645569
2366.12828022440954
2380.38480405218388
2434.79824743185827
2527.73918013781167
2552.11592893661646
2535.47300865036777
2530.88475877824703
2521.71945406348595
2508.54592343534932
2491.37992939598325
2470.76542831563847
2447.51116696163444
2421.82680179273848
2394.13156072448555
2366.35901439490635
2342.33997403389276
2327.52112201456248
2333.53963562987383
2388.71919704837774
2497.25969170929056
2543.12521645971674
2527.9108708847798
2522.83323558870006
2512.96827650540627
2498.88283615931277
2480.36449460640642
2457.91075626785596
2432.25237169094498
2403.1201617114707
2370.61990046368146
2336.47592802237796
2304.04812902629965
2276.57539019622345
2265.77361654764582
2300.13853545887378
2438.84529796316338
2573.90678798235786
2518.9197884795235
2513.13522647852415
2502.46859488295968
2487.37933495510606
2467.34136130315119
2442.66557981994902
2413.88015457086203
2380.22563481757152
2341.60912642911899
2299.12474902675194
2254.66576610932816
2206.70086304570759
2170.09454435432372
2179.84198312553963
2341.21126487040192
2531.22877510992294
2507.57654327350474
2500.80423401199278
2489.18656275991361
2472.92470373266542
2451.10670334411407
2423.55123015965182
2390.52323105890127
2350.86462734820316
2304.4261904506061
2251.05926588998091
2189.35575211329115
2106.7569394694583
2034.64631913368589
1983.1434348487619
2185.64208754262108
2434.16651892405253
2491.61209164851834
2483.41452411062528
2470.8157738464979
2453.20041267226225
2429.1664790193845
2397.67784426118214
2358.65099249658442
2310.99590461358184
2254.12702533363154
2186.48090655242686
2099.37050510610243
1957.87628268992148
1531.94739574533173
1711.88243598209942
2001.57454977230032
2316.20012344986753
2465.63109323209665
2455.46576449323447
2442.17779882837567
2423.01518714452959
2396.18946921964425
2359.05888774638925
2310.5788747902584
2251.82176040012519
2180.62619433167583
2091.87245895358456
1963.54428537394506
1649.12285003863235
872.335200868150082
705.437879103774321
1738.6356584482769
2166.33805744930305
2420.46222500674321
2408.14494602543209
2394.31610883445046
2372.71560964402624
2342.57025101039244
2295.98669855584376
2231.66356627864525
2158.08566627318396
2067.01874360847796
1945.12273512386128
1598.62874934319325
606.859808937414414
307.263029490350789
105.550849131058456
998.77291525255896
2010.03671621158787
2569.603698451338
2568.67024369281808
2562.94581432688574
2553.99570475437849
2543.62051464100387
2531.82732441151302
2519.7427559064804
2508.90339364144393
2501.12151172096765
2498.54484434070991
2504.1712530969312
2520.82615415330565
2551.88408344743993
2597.78257619138276
2654.81868452597746
2709.49693769050327
2569.02293786846394
2567.6990798627653
2561.97985573684582
2553.01758601289202
2542.37168337085586
2530.45178854738333
2518.21486183893103
2507.12311202864475
2498.9843859354055
2496.05380229403499
2501.35193655204148
2518.16691426632951
2549.57287060688577
2597.26908447982214
2655.76874019041225
2710.39846846814044
2567.68945932076531
2565.79475257164086
2559.98063649739288
2550.95719560141788
2540.02987710490515
2527.82959785354888
2515.23279261905282
2503.64647093505482
2494.89752177028595
2491.36296996572491
2496.16268475754032
2513.01509021990114
2545.15074586686296
2595.48485314671007
2657.26584818269703
2709.04148761240913
2565.51401917144085
2563.11131713877876
2557.11156912171691
2547.93308931309548
2536.6335645455847
2523.95997351293045
2510.78573207368936
2498.4649251243186
2488.81988507171491
2484.35351712071861
2488.32494491504758
2504.96745641716007
2538.06372556721954
2591.5698229552504
2658.48901146139133
2699.48051533851276
2562.5185671808008
2559.70406090538427
2553.41207437485537
2543.94735405656274
2532.16576587282725
2518.85187114936207
2504.88711041635315
2491.57254404150808
2480.71195827737756
2474.9305240264257
2477.66481562788113
2493.77219861928006
2527.85761316252501
2585.13217677911371
2658.85253138045164
2688.5566175783506
2558.7428591883795
2555.58079905226714
2548.92037502761968
2539.04349239575595
2526.6574676646801
2512.53630079178083
2497.55730192130568
2482.96632916356339
2470.53232828153932
2462.9805968012397
2463.94763499374994
2479.00695732343274
2513.84873900278262
2575.28779415522513
2657.26721905030354
2683.62493717437155
2554.23664330127303
2550.76559850540571
2543.67179208771131
2533.25919065215157
2520.1365521318844
2505.03799336053271
2488.81256843233678
2472.63888963249065
2458.22592273768214
2448.35825884127871
2446.86592754261665
2460.1025060965967
2495.05420557576645
2560.89420794202169
2651.35250199375241
2679.15058793276103
2549.05570092165135
2545.29466568934731
2537.69702198061759
2526.62802035275217
2512.63173925305728
2496.37868477325401
2478.66197207657524
2460.57147402910596
2443.71633918744101
2430.8648725657481
2426.03239633883231
2436.28716106990623
2470.05239367918148
2540.02546867494584
2640.76262149796003
2675.08534749541786
2543.24144300635862
2539.19767872115699
2531.01059479252899
2519.16269091294998
2504.1473845365781
2486.54850483829341
2467.07876085532962
2446.70142635727416
2426.86000517782577
2410.18542546420167
2400.81076536465207
2406.37975680499176
2436.78411760701647
2509.72617841044803
2623.8521539465828
2666.99091168131417
2536.76562609473376
2532.40450745908538
2523.52765594462517
2510.78319147464981
2494.59039668735159
2475.43015523283793
2453.91427453686993
2430.80804445576678
2407.28951391081318
2385.76208589382122
2370.2590728932214
2368.50777586240974
2390.55831297857048
2464.41273692485493
2592.19082259906463
2661.42884545327524
2529.45064487023092
2524.63337406373694
2514.94024302959906
2501.18260830832378
2483.62738825963152
2462.64703779148249
2438.71344762572289
2412.2651786069182
2384.1037295857077
2356.26700904840891
2332.57206389805106
2319.75742033498136
2327.53154360757662
2386.63951631704276
2537.63968405271726
2720.99046688318322
2520.92070174093942
2515.38224368599731
2504.67080358111025
2489.7076321008517
2470.53181186367874
2447.39302254472705
2420.515299818529
2389.78339840754188
2355.56572419217036
2319.30165899489657
2284.36671438653548
2253.70823344710743
2238.43603810696004
2277.77250658512094
2453.01388705767567
2652.33989561341059
2510.43294630943365
2503.77473280536014
2491.71763310270535
2475.19244175329959
2453.99196213696587
2428.21069281479458
2397.64984191094572
2361.20819067827415
2318.86481497495288
2271.36850482138607
2220.5961529809947
2158.75772364736031
2109.32398149219716
2120.35705334635395
2330.31656563024808
2556.00224567869054
2495.94354569738834
2487.5008354153656
2473.83103150319221
2455.22524204470028
2431.37562768998805
2402.21872006736521
2366.81394222756126
2322.45909517295831
2268.78915012501102
2206.46071823479633
2133.74294313999872
2017.42830557194247
1712.79813454557552
1835.00588947393294
2172.47747336953671
2438.43633245762749
2472.09845955547053
2460.96649446802439
2445.90607474184299
2424.45171348110216
2396.93772940353665
2363.19988459490696
2320.74628945558743
2264.43312323199052
2193.95336377829562
2111.13845481685985
2004.80434775878098
1787.71029104111972
988.785458562249119
1022.49746151470958
1862.09181270567865
2291.55054987901212
2429.78563204677766
2414.9907158242363
2399.15202502215743
2373.1029416827746
2340.18791930052566
2299.95577336699534
2246.56986977764063
2171.12936192714824
2075.50648860869387
1963.41937516300959
1699.60049404399888
774.484900363085899
469.461620796082229
208.217576794387696
1642.92611077621427
2120.00736962592009
2570.52827456272189
2569.68773502562271
2564.22923629921479
2555.7593148853116
2546.12275500705164
2535.47502817275472
2525.07394428293446
2516.63478721774663
2512.18199730932611
2514.1550790423089
2525.72758450460515
2550.1328565667236
2589.94035125493428
2645.67465317360757
2711.74699380449965
2769.97112931735819
2569.95849974946759
2568.73644059554454
2563.27649481856997
2554.78633272262459
2544.88586729722329
2534.10985255752621
2523.55225003495343
2514.85501969993265
2510.05128515240676
2511.68364380017829
2522.99227712850825
2547.52217047276463
2587.84018871931903
2645.27902560220627
2713.019057669625
2768.96037586237662
2568.6509120382093
2566.86835073412249
2561.30760110143046
2552.74891929745536
2542.56897033909445
2531.5110065256622
2520.59086841060389
2511.3981393256845
2505.99252157193769
2507.03886642821635
2517.89781419349765
2542.47885704794089
2583.59176506179256
2643.50218506958799
2713.99825059490013
2765.18471418800709
2566.520412939582
2564.23525159964765
2558.48162949171729
2549.75947760279223
2539.20701506451178
2527.67557279798621
2516.17612905906253
2506.24788281648944
2499.95296964428735
2500.08789076791982
2510.17523379051727
2534.60814079676902
2576.7323876694727
2639.65091781781393
2714.37503800557124
2751.86984209773527
2563.59054360318578
2560.89107634154379
2554.83644143662832
2545.82049249948886
2534.78500297012761
2522.612483897316
2510.31987059713629
2499.39540474986507
2491.88758254747609
2490.7267803243567
2499.64156646031961
2523.63891512578402
2566.81538365485221
2633.29388419317638
2709.62282118595976
2740.27315167508505
2559.90085537738469
2556.84196251413459
2550.40899605454024
2540.97504151896283
2529.33330064122583
2516.35020377843739
2503.03878207998832
2490.83267027159036
2481.74417335120961
2478.82672901851311
2486.04807035327167
2509.1251695025544
2553.14338484178916
2623.49524670707206
2708.24144313460647
2733.66087245436984
2555.49840113276559
2552.10795660752501
2545.23335038449977
2535.26063193787877
2522.87850672149261
2508.91024690555378
2494.34568476783443
2480.54582062070267
2469.45337388987446
2464.21869039978355
2469.06466874644821
2490.49002587316681
2534.74395103026154
2609.12195606525484
2705.97485342420123
2726.04436791077524
2550.43422543569341
2546.71631427991269
2539.3369197483139
2528.70822767970139
2515.44567209515753
2500.3098232381767
2484.24587882595551
2468.50749383957873
2454.9191703785832
2446.685195185456
2448.28136054096422
2466.98675028105481
2510.15592599663523
2588.76112362283311
2695.16479826208024
2717.98843059706269
2544.74348875443593
2540.68282683901361
2532.7265235044315
2521.32239338556747
2507.03106986155808
2490.53246430749823
2472.70812968782366
2454.64402165448473
2437.98658936345601
2425.9239271266988
2423.14274741376175
2437.48118421199251
2477.74667045709475
2559.35500183023623
2676.64376982136127
2706.30240904877519
2538.3906848783754
2533.91658803529526
2525.30368903522685
2513.00592197606647
2497.52741051855628
2479.45022957713218
2459.57659183484702
2438.72367738022194
2418.29487190826922
2401.42054097328264
2392.79786078566804
2400.3467694576093
2433.60552838238618
2516.81258813910927
2645.54382126398968
2690.09742400581717
2531.19267749845221
2526.10486826866099
2516.72794628750034
2503.41838370059349
2486.57831241423264
2466.67664498282966
2444.38974951258251
2420.11456575334432
2394.99326371454799
2372.14143961885475
2355.78802625013304
2353.17257711254069
2372.38806269440875
2448.64254854138653
2596.60696179809975
2740.07425346254877
2522.77148503505077
2516.71894784714686
2506.34488532630075
2491.8428479420304
2473.41446604257999
2451.39041114666134
2426.18521168035841
2397.54527508112187
2366.49178924921125
2336.08660326338622
2309.31242943233656
2290.89484580506632
2289.47437348319181
2344.76397760395139
2520.85550663763252
2705.98009159463709
2512.36358800868311
2504.8133995059834
2493.02826188748168
2476.99697297654802
2456.62018441462897
2432.08369636568841
2403.27118933382462
2368.91495239176766
2330.26034448871542
2290.14207007032701
2249.78409264870061
2202.59183309689433
2167.91531704918452
2208.94331357481587
2416.90321506099008
2609.29088021141024
2497.84972745613459
2488.01229982102586
2474.3128484571539
2456.25314202841491
2433.40524382541753
2405.80780829367404
2372.32091330296089
2330.13561232255142
2281.43708525982356
2228.86668836488298
2168.93902033269796
2068.89483183265565
1851.87492758081407
1955.00988410947252
2265.69590578608859
2490.75004988383989
2473.83994245499389
2460.68636713732576
2444.73016504369252
2424.08970028629437
2398.00179228591378
2366.46817726484551
2326.06430354045233
2271.96901001399829
2208.85851505142773
2139.36207779765755
2049.13989153977309
1885.98400486700734
1125.14916936123404
1281.57468917491701
2016.69918518202985
2353.02112514757846
2431.43941167969479
2413.84006358388342
2394.98150697880055
2370.84521063220109
2340.03423105076445
2303.1248042994639
2251.54189552114531
2178.73535988939193
2093.96952713610972
2001.02297343970463
1837.63442411987739
921.671926052996355
566.708935085796043
378.23627615824131
1526.8857714450337
2194.38088582361888
2571.37501013739802
2570.59463689406766
2565.35824126286298
2557.28064466477508
2548.24118242383247
2538.51762138804861
2529.46366337663085
2522.91270789636383
2521.0168904236466
2526.37517737121152
2542.14198526227983
2571.5444929220057
2616.30622364945793
2676.99949778985729
2744.86268738996387
2802.92522699072379
2570.80701761809405
2569.65369143951921
2564.41553098568966
2556.31584325099857
2547.01793339054666
2537.16294393213184
2527.9494950287617
2521.14184641142447
2518.91406558222252
2523.95748640377496
2539.53813764715551
2569.08584566004129
2614.51341119098333
2676.45294183283977
2746.8654397700966
2801.33786414538918
2569.50205404969984
2567.80409754806988
2562.46965948876459
2554.29859208461539
2544.7200447635978
2534.57871493695666
2525.0000560072699
2517.69943661555999
2514.88524022848151
2519.36998650865144
2534.55393938941052
2564.18735357526748
2610.46468723294538
2674.66297186333531
2747.61605975844304
2796.9088725945935
2567.3744294937851
2565.19529379718642
2559.67677922453277
2551.33697249318902
2541.38012778659913
2530.76078721652857
2520.60027647918741
2512.56675765153568
2508.88021070872037
2512.48762942609983
2526.95951849503354
2556.51188137923828
2603.85301575757421
2670.90392178675938
2747.363697411251
2782.18700416360207
2564.44339829384808
2561.88090177274626
2556.07447498424426
2547.43179620359251
2536.98079491932413
2525.71408641603603
2514.75760784021031
2505.73146380967546
2500.85249774443446
2503.20419785799595
2516.57389895197321
2545.78152541590043
2594.23646466323044
2664.7694382905288
2738.28155032407358
2772.07955867525516
2560.74431640743296
2557.87067625929103
2551.69934623071777
2542.62136248074148
2531.54624089244408
2519.4607843927829
2507.48335392984018
2497.18154368788646
2490.74807262087461
2491.3875532099828
2503.14921581605631
2531.56639672051369
2580.94256189143107
2655.28232556563307
2738.03822202348874
2764.87223073203722
2556.32181896044312
2553.19128606863114
2546.58390625831044
2536.93632027143485
2525.09551076840626
2512.01623826213427
2498.7862339102212
2486.90160498797741
2478.4968933877426
2476.86302012205533
2486.35198138308351
2513.29818306931838
2562.94161662185979
2641.28882401738338
2736.72788426841453
2755.60186800128031
2551.22461256938914
2547.87911867992671
2540.75039071136871
2530.39818602682044
2517.6467437268343
2503.39536986848407
2488.67306036051605
2474.86860230292723
2464.00480557408036
2459.40043950185736
2465.77219662474363
2490.24169583129469
2539.2166147990938
2621.24631237734729
2727.37747881848645
2743.83924745860986
2545.49191560853296
2541.96348010000429
2534.19555059948152
2522.99954851670645
2509.1962874733058
2493.5917213663929
2477.12748366919732
2461.02117474589068
2447.11255302894733
2438.68322851132598
2440.83121509394186
2461.38943154442541
2507.82732693947628
2593.26882429791931
2705.33852726162877
2731.0472023709649
2539.13418875329489
2535.37225447062701
2526.81188652430319
2514.64033633068311
2499.66048473858655
2482.52328167794803
2464.03559556506389
2445.14841904660489
2427.46824988059552
2414.18863802994474
2410.71777752291337
2424.7064226303246
2465.21565540115307
2553.59022863581276
2673.71444853991125
2711.46035067634875
2532.05199767341401
2527.78004264657102
2518.26370347710599
2505.01958877369725
2488.77525506545953
2469.92813852377685
2449.01942488768418
2426.64072257921543
2404.20231427507815
2384.83549081309002
2374.05099568463811
2378.01010830226005
2404.29662799175685
2493.41809454026088
2630.64834930457664
2681.23262629435567
2523.97028041474505
2518.61378143145657
2507.92035739376161
2493.52245098784806
2475.98359460814208
2455.18580784218693
2431.20317347438504
2404.20968978419387
2375.71984450367427
2348.82608452507066
2327.91164845503181
2316.32009195093406
2322.6472839800872
2395.40548543238901
2563.89767628217578
2720.37082588052363
2514.26891998019164
2506.94261965837813
2494.70934851656784
2478.98635317787375
2460.17472870536994
2436.98869945919205
2408.89639463430876
2375.64713338949787
2339.43597573058469
2302.89878886825136
2268.7571155766841
2228.75038144768496
2199.03661500695034
2262.24707266251926
2466.84770321183669
2657.61951595400205
2501.02126674007104
2490.45514762465882
2476.28105739258945
2459.02451805473765
2439.01051713586685
2412.66659748729626
2378.74881264209262
2336.77774255843178
2290.53589076825983
2241.82878028003461
2187.82375204112122
2091.63619634547831
1910.88179159226479
2048.39637141440289
2329.86019471524378
2534.07082120040468
2479.20694293427005
2463.64160780524207
2447.52287440232749
2428.83502853665095
2407.70447968216786
2376.63090121671257
2333.42847152502918
2278.42905771437336
2218.54248910552451
2153.30420125466753
2063.98112671364197
1886.94780831864387
1219.21160486801978
1482.27661275938567
2152.8956685345097
2392.85280823171388
2440.56415919931715
2417.38537048116405
2400.08721571850629
2379.57861642645776
2357.46295946821465
2318.05294562296103
2259.20592640982431
2184.5185328775101
2106.1021843078679
2015.3817443762573
1806.30791657019154
895.096819587476148
672.5581034640702
546.683584340087805
1722.95823286504492
2239.81049720169858
2572.13606623004125
2571.37630944635839
2566.30258788988976
2558.51224946620641
2549.90936506948947
2540.87206771946785
2532.81872723987681
2527.65238450748575
2527.61144021550444
2535.33994089843873
2554.01521813752561
2586.4980092988344
2634.31466060547928
2696.70605856434304
2763.52571714037776
2817.00019677791624
2571.58564289866172
2570.45987852714597
2565.3743107148598
2557.55587894339533
2548.69964665888028
2539.53065975026175
2531.31743039792127
2525.89816376850695
2525.53403688138314
2532.97523876309788
2551.46892070423155
2584.15620750765311
2632.51392823850574
2696.09955802092418
2766.42559742254707
2814.97162633706148
2570.32042200000024
2568.65556321928852
2563.45957226873088
2555.55833835397834
2546.4198032080435
2536.96341924495619
2528.38492538237961
2522.47426319801889
2521.53028348612224
2528.43166526047617
2546.5507560793294
2579.3611780661945
2628.55012469952635
2694.37061345697566
2767.21535350142949
2808.80458277295156
2568.25877521287657
2566.11140081236908
2560.71010401576586
2552.62339446487795
2543.10235057270211
2533.16944099402508
2524.01051080277603
2517.36609766076208
2515.55330520876669
2521.59770789206459
2539.04067614510268
2571.81585509847946
2622.09839703541775
2690.65525548625919
2767.22510582105951
2795.55436417950523
2565.42358637979532
2562.87951060774776
2557.16066089958349
2548.75109802822226
2538.73145488844057
2528.15610960622143
2518.20409412655226
2510.56171582709521
2507.55453144335343
2512.36546683718052
2528.75285760158431
2561.24129390683765
2612.65506315111952
2684.56622436449607
2759.74500726520546
2785.07814755824711
2561.8516350578675
2558.96346386545565
2552.8435337610008
2543.97813490397948
2533.33263359302464
2521.94956542707678
2510.9810117818688
2502.04846072104692
2497.47465510866868
2500.59738862156428
2515.43501714209424
2547.21700229657336
2599.58394181287213
2675.17904116276122
2758.8350349317252
2776.47511360777025
2557.58465453128838
2554.37767722747412
2547.7872671459354
2538.33571667160004
2526.92910390052657
2514.57206943771143
2502.35448063562535
2491.80735893859492
2485.23522554684268
2486.11110933264445
2498.74649274001786
2529.17713546000914
2581.9389350060319
2661.41953580357904
2755.13038016904602
2766.10243641082388
2552.66483800569085
2549.1386971835318
2542.01269262403275
2531.84993422218122
2519.54612249054571
2506.0473724497042
2492.33317997750055
2479.80682284398972
2470.73229321834833
2468.67229412847519
2478.26301589117247
2506.38394696305886
2558.66107562545631
2642.00321836040575
2742.00498508792498
2753.00483854714867
2547.11118175611773
2543.24629896367333
2535.51953111843113
2524.5244454660733
2511.19079538493816
2496.37891372040031
2480.89492900199184
2465.97167720036305
2453.80126273168889
2447.96152126107972
2453.47548788438598
2477.84472976178085
2528.01874497084191
2615.02569679119688
2698.99138833506322
2738.74459143492686
2540.85516088604118
2536.60771650885135
2528.21177986989505
2516.28092963451536
2501.79861657140464
2485.48710016035511
2467.90567574514489
2450.08060613628004
2434.10481810489682
2423.45539492791522
2423.25491458884153
2441.65546132045665
2487.45962191484477
2577.00504346548905
2666.35439449994965
2718.43595681206671
2533.66242680498635
2528.93189795635544
2519.77501496469404
2506.86055876596993
2491.1331809142207
2473.07675440268076
2452.94340967990684
2431.55068760670474
2410.88735565727347
2394.12618402345151
2386.35950988640934
2394.97233248671819
2427.39921593325016
2520.83034646002807
2649.12993594712543
2686.23441006528992
2525.0855971426472
2519.6800767086097
2509.59535663260294
2495.73358303869281
2478.64493040260686
2458.4483881009196