/*--------------------------------*- C++ -*----------------------------------*\
| =========                 |                                                 |
| \\      /  F ield         | OpenFOAM: The Open Source CFD Toolbox           |
|  \\    /   O peration     | Version:  2206                                  |
|   \\  /    A nd           | Website:  www.openfoam.com                      |
|    \\/     M anipulation  |                                                 |
\*---------------------------------------------------------------------------*/
FoamFile
{
    version     2.0;
    format      ascii;
    arch        "LSB;label=32;scalar=64";
    class       volScalarField;
    location    "0.209999999999999992";
    object      alpha.water;
}
// * * * * * * * * * * * * * * * * * * * * * * * * * * * * * * * * * * * * * //

dimensions      [0 0 0 0 0 0 0];

internalField   nonuniform List<scalar> 
7236
(
0.19782110331515354
0.0209159786728512764
0.00657132847683497903
0.0109382223552978303
0.015007175585739399
0.0283266156232950261
0.0452166931459253782
0.0467241565106491785
0.0541778114659857632
0.125770393909032885
0.129187769912665146
0.110683704259173954
0.0887562517610569757
0.0863325322365086079
0.0809787411709270988
0.0699691315544799519
0.0651186514370136332
0.0609028456296830389
0.0502220226995199262
0.039918051409824587
0.0346100193103021231
0.027306115329666418
0.0193078539481963928
0.0151554841577071116
0.0120703100451251752
0.00758957083078519099
0.00525282583276120724
0.00501399602360581322
0.00262220012734955482
0.00157837512574368296
0.00101937929177135789
0.000633530604227793221
0.000312457506687940662
0.000118934581506958346
3.3887608700271505e-05
6.69660444963017209e-06
9.53649978502697636e-07
2.86390227302890183e-07
0.000314940023543999693
0.000499002719522286388
0.000123520647575843572
0.00218191331375736444
0.00292510897925724826
0.00330567768654818888
0.00295088477391590052
0.00231150934149700884
0.00188487086625017844
0.00158787266462945861
0.00140043000719386511
0.00131111973613554414
0.0012872190997945572
0.00129666274038184922
0.00127765257412627495
0.00126177908911150765
0.00121655633555699944
0.00116119943371073347
0.00106732445385643478
0.000996265712428561108
0.00135356592018158603
0.00214354804508839775
0.0030007430470800258
0.00308111104658731049
0.00315557740832342077
0.00284278572643499681
0.00260583080952343955
0.00227229311969915802
0.00208218900267076804
0.00156169349334730556
0.00111084379837990649
0.000859678382991731216
0.000515747718313134661
0.000182522139721434304
3.77233036914548957e-05
8.36944699204748559e-06
1.30545625226622812e-06
3.89710317061241857e-07
0.00014733901135198735
6.01068766721642216e-05
0.000216501537952054775
0.000565521604224118041
0.000178948356423489906
0.000198839597869953277
0.000249927058442846314
0.000256518191127003993
0.000255585314000720295
0.000242233924165608281
0.000235844529336684213
0.000255478950819833467
0.000286029594226603018
0.000310064589507619997
0.000306891102198586724
0.000299888346592941304
0.000294355165675872594
0.00028329641021421914
0.000275612323078549214
0.000286185338882064227
0.000262833513096688261
0.000310683144228784914
0.000285028352591754942
0.000299396278995490506
0.000350216916785320168
0.000525898736413656521
0.000630366509478216494
0.000520845134114341951
0.000364066277466831975
0.000351989711740719239
0.000340100782727180569
0.000313926696272997391
0.000248059382812556412
0.000162651626776841323
6.29312084693228703e-05
1.4383626846507587e-05
2.01393170236316147e-06
2.85984836896837998e-07
4.34972791190987111e-05
-1.12889994854072403e-05
-3.13017393147528952e-05
9.19526337055309788e-06
7.56370570224146435e-06
2.72273385662622369e-05
3.01200450154741732e-05
3.03080966261922382e-05
3.79697484130780814e-05
4.70587787333749601e-05
4.63200829371095629e-05
4.16637529112278408e-05
4.81041920235012653e-05
5.6501094523430119e-05
6.22383381412934582e-05
6.75844765202729701e-05
7.27796730889808754e-05
7.95458975001300399e-05
9.37553314525993887e-05
0.000112551584606714045
0.000124088228089438377
0.000117398600752334248
0.000115427685884532009
0.000138518037076663264
0.000152551257400023669
0.000150319127572510439
9.90116349102951874e-05
9.1019279310079206e-05
9.8680169978464447e-05
0.000102919059119003294
0.000103521578845583364
9.62909084144528333e-05
7.51902485019349484e-05
4.73371865429352982e-05
3.42566313185480695e-05
1.12237524791744914e-05
1.84201516020177155e-06
1.73903715758926319e-07
1.26024676528122229e-06
-1.36887958955193371e-07
8.76780015640537692e-07
1.61317995000003301e-06
4.24550998001095684e-06
3.58705767775800431e-06
3.75734855310666035e-06
5.6382437158696817e-06
7.66862299344298512e-06
8.5235223297255733e-06
9.4733878811265664e-06
9.70741104933727514e-06
1.07019331389018907e-05
1.27446219771512338e-05
1.54519550574678963e-05
2.14494674087996031e-05
3.37090642300595428e-05
4.29905536069137361e-05
4.70195967480921217e-05
5.40564604529677182e-05
5.26879787921226346e-05
4.94189400169717602e-05
4.94449538711540568e-05
5.26351694528936793e-05
5.00779616426089017e-05
4.6955112013028749e-05
4.43601812252056817e-05
4.33138945825224835e-05
4.43033383218351663e-05
4.63754036189474098e-05
4.77497358124089885e-05
4.62798863725056276e-05
3.7700838275245017e-05
2.21218855802155171e-05
8.7506359220172568e-06
3.64268556874012938e-06
8.88638229060171768e-07
9.67139168153340243e-08
1.94223609926673728e-07
2.49118312227419202e-07
1.29954356696913833e-06
3.36116755658658911e-06
1.07110776009095735e-06
9.9103627913265882e-07
1.21772532187851574e-06
1.56290839390719871e-06
2.13316764593008158e-06
2.64973172823850173e-06
3.28363591478904448e-06
3.76959969227143301e-06
4.46541509018901705e-06
6.58111842669040396e-06
9.99304074884388864e-06
1.14439349425814624e-05
1.24197029150290096e-05
1.46397503366071035e-05
1.6479294476583237e-05
1.89829348619304955e-05
2.01262730875440944e-05
2.111838859959825e-05
1.97194411244558673e-05
1.9442567520960952e-05
2.0359488131195972e-05
2.04263998429881332e-05
2.12485961634524637e-05
2.06016699030517946e-05
2.00641826375511395e-05
2.09189691513501909e-05
2.1743637676818252e-05
2.16394704632318526e-05
1.82688901295688849e-05
1.08709962485531029e-05
4.26336201238265091e-06
1.3496260701744065e-06
3.88994836547741172e-07
5.20336677069004097e-08
9.68464503255355771e-08
1.99384854595047297e-07
1.12555013572255333e-06
2.32350792380380114e-06
4.85092818120291506e-07
3.76213720334896816e-07
5.05016877889097085e-07
6.75542093238598641e-07
9.06361063174492932e-07
1.16186974306159781e-06
1.46246585939907227e-06
1.71836045953689878e-06
1.96146810091423918e-06
2.56941265974839404e-06
3.65063321370482917e-06
4.18196812767246204e-06
4.61530544270779061e-06
5.41129713932012771e-06
6.04730146970605091e-06
7.30477741683580738e-06
8.01163858862147092e-06
8.67670451775770702e-06
8.7318958024553141e-06
8.6259938353542358e-06
9.00791077797363917e-06
9.15123988598880709e-06
9.65034111797475591e-06
9.30999574328776772e-06
9.05955015801793876e-06
9.38488905528796021e-06
9.78810921822397639e-06
9.90494280580936198e-06
8.54749328009905043e-06
5.19122139386538767e-06
1.96159093784617494e-06
5.40437892065894257e-07
1.66096761311181232e-07
2.62840107736108564e-08
3.62939885283780508e-08
1.04108387273176195e-07
4.21297531446227053e-07
1.07022092575500952e-06
2.52329768537265417e-07
2.26970177830781012e-07
2.98097580740176947e-07
3.66307043129995069e-07
4.34708153463138957e-07
5.12986045962789836e-07
5.8797624016397247e-07
6.59598673711682542e-07
7.65149934327821409e-07
1.03595497242870904e-06
1.51497265288108029e-06
1.83063564178935647e-06
2.03290004889575578e-06
2.11378173627864781e-06
2.40226443018868823e-06
2.99494080748018744e-06
3.4162097845310197e-06
3.61687678811410309e-06
3.70876620335189335e-06
3.76144743653370214e-06
3.95416742643109951e-06
4.10549455792731681e-06
4.31852059082720959e-06
4.15053312910681224e-06
4.04808824843412215e-06
4.16494013782858366e-06
4.34567278389603614e-06
4.44480167767327879e-06
3.88492874015081456e-06
2.40683748999425524e-06
9.1193220239805618e-07
2.40633966435565297e-07
6.88675213686207856e-08
1.20874967686332455e-08
2.33773810058401636e-08
8.29177064739329539e-08
2.52935104027028095e-07
4.95056639184480571e-07
2.07947422721944046e-07
1.50292629386482564e-07
1.75533821004162506e-07
1.95023665175811021e-07
2.17450826763606194e-07
2.41245118568597116e-07
2.62710521876850557e-07
2.83222230096702476e-07
3.13160315929631641e-07
3.99630828922037157e-07
5.98247457387588658e-07
7.50828609031855629e-07
8.4890519249521445e-07
8.87337636683002163e-07
1.00147128902792837e-06
1.23415706634920953e-06
1.40708866104147973e-06
1.49103283293600813e-06
1.49235003752965713e-06
1.53268694285759039e-06
1.67160080625436905e-06
1.80461045558055148e-06
1.89190099653400457e-06
1.81483980904320404e-06
1.78290983523841617e-06
1.82285656019114857e-06
1.90026042833405334e-06
1.95648881223912915e-06
1.72224965875484202e-06
1.08422904125462798e-06
4.16935644695503413e-07
1.08219685418360406e-07
2.86151211389135893e-08
5.48320437310404206e-09
1.82670049034017114e-08
6.01917284700760549e-08
2.13951731349048526e-07
4.76939334467683101e-07
1.14392933434552181e-07
9.90200934540135532e-08
1.07386130862205691e-07
1.11219833761504909e-07
1.15503975593826823e-07
1.20679273021933047e-07
1.25890595046696991e-07
1.32774457295771873e-07
1.45155411017525893e-07
1.76797898480099115e-07
2.24281215304070806e-07
2.83994122311738844e-07
3.25666836522643986e-07
3.54158689660106221e-07
4.10872683150853091e-07
5.06118000249627683e-07
5.69123451995009949e-07
6.17609379728429336e-07
2.04113180896683425e-08
-5.00426446658396421e-09
2.50701941438120686e-07
2.53213411018128213e-07
7.57224688383420831e-08
6.62655308307385298e-08
7.17021002165316062e-08
6.99484249701437879e-08
6.71285269658438694e-08
6.47247785621761452e-08
6.41612189321411217e-08
6.61896999944040333e-08
6.89017953465738417e-08
7.7258591724891659e-08
8.76174770980580061e-08
1.03217300579663365e-07
1.21131671375611308e-07
1.36314851851611851e-07
1.63375571545695152e-07
2.02787053762423973e-07
2.35264345492884517e-07
2.53752566401930894e-07
2.39433015696768044e-08
4.73076380487310359e-08
1.19037531928109779e-07
1.70463588537713771e-07
5.4595253012199946e-08
5.47838784663301016e-08
5.28238538361267296e-08
4.82362064080646889e-08
4.27177656443312929e-08
3.88587975690663095e-08
3.60688087223068977e-08
3.40768045825015122e-08
3.48261726175287206e-08
3.69312987851918632e-08
4.00362058178345746e-08
4.30075788785009242e-08
4.62517012965066263e-08
5.29851914233066731e-08
6.45058856173199298e-08
8.13997057021472895e-08
9.67441216293534454e-08
1.02474470567480714e-07
2.0988321779150475e-08
4.1034070729737252e-08
9.78221700473310053e-08
1.0460337416085249e-07
3.01307685814715407e-08
4.23014773728875666e-08
4.09417646553365811e-08
3.55304252696755648e-08
3.07049203001679925e-08
2.50753703802239944e-08
2.08753891379392806e-08
1.91835488648522174e-08
1.85244165627289437e-08
1.85614782940911463e-08
1.90890517953537428e-08
1.97021364452764162e-08
2.00623256547703175e-08
2.20071751180573406e-08
2.65297051129021815e-08
3.34853550454283249e-08
3.8872990169136899e-08
4.05984787157479664e-08
1.56733245742751843e-08
1.29087446758477684e-08
1.12526772012378042e-08
1.02233794298614155e-08
9.59427723366453248e-09
9.25762076114396246e-09
9.08604047612329011e-09
9.05710123078954222e-09
9.2475450985685359e-09
1.12409687780884616e-08
7.07411368572260871e-09
5.77775682089469304e-09
5.12749108813374378e-09
4.6410273762052907e-09
4.32199541646446342e-09
4.15095071628707649e-09
4.16370540931686908e-09
4.94454438818817283e-09
2.54161296629683158e-09
2.31726201213351633e-09
1.99829214231799391e-09
1.79441528886170228e-09
-0.000120748667228308821
0.000289339672820813009
-0.000192572784561147127
0.00157399407968743525
0.00302299168508832336
0.00338516414427979598
0.00249958963497901639
0.00186176667644370308
0.00251210192454683805
0.00556436523694112291
0.0103644311332971324
0.0184563519273186032
0.0210150423324071342
0.0196966816611720899
0.02037668004373068
0.0219930015289011502
0.0231125212740403499
0.0226423382963138083
0.0227682603460328328
0.0214559823226731228
0.0191608853556315406
0.0170549933161642173
0.0138139957414834362
0.0108116199535958097
0.00884709172082810517
0.00606448308469737657
0.00391080491811524912
0.00313430770024821035
0.00255651366653153293
0.00121883870286372997
0.000494342970869529239
0.000272566481159362969
0.000128931232853311221
4.90592608045306333e-05
1.25240277999008251e-05
2.26153316621298357e-06
2.85816950825982645e-07
6.91284511174775176e-08
0.00105917058822645378
0.000308264637248575077
0.000152152918029626238
4.51322256282676843e-05
0.000870582883652609913
0.000695535930656927988
0.00051149924488340338
0.000367190431122772559
0.000353434443401663223
0.000897731201601181632
0.000454673462368187522
0.000283405859290359165
0.00029920024981905575
0.000330246563265152533
0.000353691840206310937
0.000371514203900030575
0.000381569823120116126
0.000378632008687998945
0.000380910348249795575
0.000365329828865147482
0.000344949329409469964
0.000373658093336900132
0.000629863456924900623
0.0011017540520862441
0.00127387154956981586
0.00143141720375732388
0.00152480210450766512
0.00134710630433560906
0.00118090203068878458
0.000898991976608024077
0.000705643649966442802
0.000486695121155700152
0.000217887137571818462
5.09619111752174125e-05
1.43264669632689724e-05
2.85316470292507107e-06
3.89414190230885031e-07
9.37525858571652572e-08
7.27964813544435619e-07
5.19589210420334025e-06
0.000115273219384176155
7.17121308297573099e-06
4.62312333295606068e-05
3.58539769121665828e-05
2.57328560755307396e-05
3.29247631280451972e-05
4.12050778340111032e-05
4.85720255145573605e-05
4.8462333152517832e-05
4.46539945295449544e-05
5.17909065735621486e-05
6.03982914779480537e-05
6.62592335329863962e-05
7.14479308268680942e-05
7.48470081392697996e-05
8.20185820429852061e-05
8.98425928429660142e-05
9.32239231283060266e-05
0.000118156350573017459
0.000118514564664434687
0.000113057804716424259
0.000162276293160099511
0.000239452705505957417
0.00028727454607501286
0.000231559940061857076
0.000172952031574816987
0.000152711429941388354
0.000168589281614157634
0.000246954169830778097
0.000209742461582973434
0.000141732877407453676
6.17487640917609246e-05
1.85881914917923518e-05
3.92007203604796213e-06
5.73084989940732724e-07
6.90263612276352455e-08
-5.04435184747230055e-07
3.71672916775863315e-07
1.35422274158063802e-06
1.70384567291156095e-06
3.64158016678677444e-06
2.68047008097174065e-06
2.84150348432929058e-06
4.95075848749743446e-06
6.91638376372469433e-06
9.45057903306948746e-06
1.15229287882743523e-05
1.24603620915579592e-05
8.93060644304315153e-06
1.01483612054413659e-05
1.20981943381811592e-05
1.5133895591648052e-05
2.329923292401123e-05
3.7640674196262578e-05
5.01990869237325872e-05
5.26429539844396776e-05
5.2073780208449592e-05
4.98920340508002071e-05
5.65987958132021097e-05
6.63768816288671224e-05
6.23203400520075211e-05
5.23166473993968327e-05
4.81849233049315456e-05
5.61340346244561359e-05
6.25471921070158921e-05
6.65822578686981901e-05
6.62522213934560602e-05
5.2484506429386817e-05
3.11792640404097427e-05
2.88657327695955736e-05
1.31056828987193158e-05
3.13886971271519138e-06
4.88314997389212729e-07
4.36836005921545734e-08
5.90673967581604729e-08
2.4988001917230114e-07
1.0106306508019472e-06
1.46756458213753972e-06
1.21604850036097288e-06
8.91974555257596502e-07
8.99028460848371573e-07
1.1803131671323442e-06
1.77185473076313839e-06
2.46333820133394588e-06
2.98366031189791214e-06
3.38355272815755462e-06
4.54771539829397533e-06
6.55665084802797141e-06
8.56008449617895697e-06
1.0386602027871655e-05
1.18196349339253995e-05
1.28448456264717164e-05
1.48451236191657709e-05
1.63636255250902171e-05
1.80112771211061063e-05
1.9018826220703148e-05
1.93602627331288906e-05
2.13589294105406225e-05
2.26535100309897946e-05
2.26084162957616645e-05
2.29517583450874818e-05
2.34637614089015441e-05
2.62404756799250651e-05
2.83800582985786816e-05
2.91940711786818674e-05
2.49202264504557604e-05
1.54055517120255445e-05
7.71832345806293925e-06
3.09277251721174892e-06
1.20328999241347352e-06
2.52331451467628156e-07
2.70986893303255251e-08
8.93927281749201696e-09
1.29204477510061304e-07
5.72445671082387282e-07
4.7003635042340084e-07
5.68112832448614985e-07
4.56626913213369934e-07
4.06545063101028831e-07
4.2767383379542651e-07
5.47171271011246163e-07
7.29580433462944092e-07
9.0985958873554701e-07
1.06014929937977318e-06
1.37675665122285191e-06
1.98301858293061792e-06
2.72365193805362036e-06
3.58814665209077804e-06
4.31727052562737429e-06
4.66208675154584637e-06
5.27244304583840749e-06
6.1596119709786952e-06
6.995858825988846e-06
7.51619515163254135e-06
7.74442370479210321e-06
8.82604658020939232e-06
9.51557134705748086e-06
9.94738663544646572e-06
1.01579091956101324e-05
9.95261109956893672e-06
1.10837484323164005e-05
1.20552749355025589e-05
1.26496574083828232e-05
1.12434412565263932e-05
7.33180443915222321e-06
3.72862746422480155e-06
1.4791316533878008e-06
5.13775126430478913e-07
1.18495784333469885e-07
1.53207241434296044e-08
6.26991090585595958e-09
1.24153092456520718e-07
3.49902252015346377e-07
2.59673063614926692e-07
3.25394702760042863e-07
2.00265293043554068e-07
1.93822915248539859e-07
2.80832132549152648e-07
3.37046909461595503e-07
3.61963027106592494e-07
3.88006805322679897e-07
4.48684623478517082e-07
5.67715008499356311e-07
8.099008182408342e-07
1.09120204376151706e-06
1.30926038474507917e-06
1.54052707126862587e-06
1.76349265384912285e-06
2.01630694550153897e-06
2.48869096556498679e-06
2.96878312855116609e-06
3.24715055949158396e-06
3.24544462328939989e-06
3.57296749488401225e-06
3.84485929327303923e-06
4.22906400699271072e-06
4.34286367227120544e-06
4.23717294566868706e-06
4.67691481904500596e-06
5.09031604074441654e-06
5.40849751463831646e-06
4.93341824795174981e-06
3.35360761086474169e-06
1.74898986299607683e-06
6.93476443872869571e-07
1.91967712455619237e-07
5.2387877261501745e-08
7.67207479135773922e-09
3.9626090866522885e-09
1.0642079656996606e-07
2.23247686050970222e-07
1.85788081875877859e-07
1.72509811437458745e-07
1.13855764467374531e-07
1.09938128806899973e-07
1.19149298439630904e-07
1.17003611807936764e-07
1.26520419605150866e-07
1.53014893390456069e-07
1.87335682044557442e-07
2.42888207537766958e-07
3.4845404955325026e-07
4.57630153808151728e-07
5.28672016170991007e-07
5.95632878025974482e-07
6.64106421008516516e-07
7.73191144013931175e-07
9.55620360606806316e-07
1.14068561733820603e-06
1.28222273247109015e-06
1.32584153537102381e-06
1.42644126277337282e-06
1.58778398049286939e-06
1.76855077790705196e-06
1.828643760732194e-06
1.79758557830970123e-06
1.96206462734240114e-06
2.1316074041580947e-06
2.27298237278637024e-06
2.11673669693981876e-06
1.48488680725311469e-06
7.95830473035182541e-07
3.15849837055215487e-07
7.97115887982429036e-08
2.23361989948925365e-08
3.63692983289577532e-09
4.7144915233309439e-09
1.09796140452043992e-07
1.43766211321098851e-07
1.09020237287226641e-07
8.77303734374821893e-08
5.30571483987414654e-08
4.4759422570413248e-08
3.90521650846048942e-08
4.00630573334226623e-08
4.56542705182524432e-08
5.49783163112542398e-08
6.64357103492301029e-08
8.75471626315510097e-08
1.26712612815064971e-07
1.783849815110185e-07
2.17816682786314934e-07
2.41445983454626692e-07
2.557686312070179e-07
2.99082973415848324e-07
3.71104334153345872e-07
4.34863449269755041e-07
4.81265479553029061e-07
5.04879969117687709e-07
5.42962459583088494e-07
6.24914307224856816e-07
7.14625758045234053e-07
7.60962826577064952e-07
7.56805551071413156e-07
8.16572342473182341e-07
8.83934108514816859e-07
9.35766067400590939e-07
8.85245477138896483e-07
6.40213554858663624e-07
3.52420523645552575e-07
1.41976017505273823e-07
3.58012677726083178e-08
9.32953871166761252e-09
1.70365147354829664e-09
4.52158956824208429e-09
1.00320670470061566e-07
8.32099903718720464e-08
5.99979128774173995e-08
4.47763689578938386e-08
2.2354526215002742e-08
1.96599819465130817e-08
1.87813408144813755e-08
1.83792942502948343e-08
1.95404985141706263e-08
2.30223181656622619e-08
2.83853397808456914e-08
3.57193288975109782e-08
4.7623668723316642e-08
6.55974424574193018e-08
8.32544938038473039e-08
9.39621536520877358e-08
1.00649052244905859e-07
1.16989661547017694e-07
1.45393152802314219e-07
1.69048560736034004e-07
1.85471329040304987e-07
1.89495118162591702e-07
6.97177050644153829e-09
4.46469413947122121e-08
5.89487100773519363e-08
4.45666218534965692e-08
2.33861375697803453e-08
1.34071142402183177e-08
1.16154960302418103e-08
1.0492840750703052e-08
1.01445081678797476e-08
1.06011411208440883e-08
1.18147773333892385e-08
1.28857215482494676e-08
1.41621317860535069e-08
1.75476623050354348e-08
2.37143690275478523e-08
3.03091867806839665e-08
3.48596678777153978e-08
3.83733357237755449e-08
4.53304559964645335e-08
5.63945189931774526e-08
6.60075788196564014e-08
7.24610498894112185e-08
1.24012865574052592e-08
6.42392801370479658e-08
4.35024875918630686e-08
3.21637647318868386e-08
1.34492429873705716e-08
8.66200151258248308e-09
7.67905441555580105e-09
7.23821174519455431e-09
6.74179233067134597e-09
6.35481686638753652e-09
6.10493001089137125e-09
6.07631109212749465e-09
6.26804867823275963e-09
7.01940707681400559e-09
8.49653872868325547e-09
1.05551801990072795e-08
1.26871489487285672e-08
1.44244110513786819e-08
1.72527323720242915e-08
2.15074301833867624e-08
2.57964332617979296e-08
2.80380538813016831e-08
1.49383006246033799e-08
8.71754067893584889e-08
2.57629356634255887e-08
2.0482870681907094e-08
9.44156254758610313e-09
6.44825517624964402e-09
5.98325686381446352e-09
5.24206993055403417e-09
4.44170456058874841e-09
3.8069415516704451e-09
3.22373065465110113e-09
2.94398158511364048e-09
3.00489034907941173e-09
3.22203926701572387e-09
3.55514237435044828e-09
4.06681557270580181e-09
4.80656010021623248e-09
5.61754545748181318e-09
6.7701870199619796e-09
8.49594746583103526e-09
1.01247722018554586e-08
1.08478074225702339e-08
2.23840312380548317e-09
1.85166844122754488e-09
1.69314938426814838e-09
1.62728673990237989e-09
1.64326751870861759e-09
1.72040575635339763e-09
1.846585479982183e-09
2.1122471210116601e-09
2.45688693430196118e-09
2.94471173557270453e-09
1.03701480712393172e-09
9.44829798454373602e-10
9.05219134501901692e-10
9.05154159128813218e-10
9.3060991241376614e-10
1.05570713072948448e-09
1.27883535515721207e-09
1.49440294538628457e-09
5.06975829242335104e-10
4.737566349459171e-10
4.56048565711780965e-10
4.86438224401914896e-10
1.78307427734873288e-06
1.38712916564102112e-05
0.00013930988225648242
0.00037970847131489784
0.000918903053203893976
0.000735952148420363351
0.000543352104583806877
0.000844957561066742892
0.00102863338081546178
0.00122075002435997611
0.00154478109448167754
0.00286456969777503347
0.00378213577397455052
0.00377500719988704131
0.00360611206689879756
0.00338320813359631366
0.00324245474943217525
0.0032432239063211344
0.00374347804077896111
0.00396499843085255238
0.00403771392013101051
0.00426080993298372668
0.00407725722498151685
0.0034912878356540963
0.003064057459154394
0.0026222043793154657
0.00195700660340786259
0.00133053134632323683
0.000797075656994687448
0.000386508263024852366
0.000171456160258955581
8.73195118398551763e-05
3.7605667644522963e-05
1.33167435529817039e-05
3.6387478321856987e-06
6.05816024656953762e-07
6.90004521146297175e-08
1.32984682397572695e-08
7.63827961424791993e-07
2.23529248766043274e-05
0.000168864094467433565
0.000262567449207550452
0.000346497921248793478
0.000278766812210959249
0.000317152950296214619
0.000400614740912828414
0.000573005184845502098
0.000782711893527501291
0.000668063965296417767
0.000824214751275175296
0.000856228916000389582
0.000838681074584514104
0.000681436636820291811
0.00062622986016618574
0.000592103021300155723
0.000592292644738504894
0.000590067012494438969
0.000581000731014161991
0.000580970961052499832
0.000633065631610685992
0.000754518688947754127
0.000825826465662116713
0.000880650461084952737
0.000903485313463286022
0.000804895819725891899
0.000701207925059151591
0.000596803714373591448
0.000458483931917135564
0.000300515508244931931
0.000147722452961234906
3.74608045898629666e-05
1.2394196946062032e-05
3.95463125781838078e-06
7.661030042973641e-07
9.3725346213329693e-08
1.80914051228698711e-08
1.38228003189632065e-07
2.00962492213236815e-06
5.13171704772616308e-06
8.1027807642082971e-06
8.3307270068403029e-06
6.06398983664092682e-06
4.16354931030796971e-06
3.9336546308149847e-06
5.4164999545883569e-06
1.18640054192700067e-05
2.21286363032789901e-05
1.84614075178983954e-05
2.84345147391270063e-05
3.43706531720162412e-05
3.85465510768149655e-05
4.65102509054286564e-05
5.65796672884826094e-05
6.69343964840499845e-05
8.37183401715258765e-05
9.59248794863267547e-05
9.55013318681256513e-05
9.29050473409948183e-05
0.000102038736412845513
0.000103101053048165254
9.84978129261648627e-05
8.96299970885508631e-05
8.6867869967810783e-05
9.52693077999506872e-05
0.000128939778889038939
0.000164533383872343924
0.000136595659062641853
9.13408605011728156e-05
4.43874235535505704e-05
1.29584774278580173e-05
3.41275503654244849e-06
6.95879504285873999e-07
1.07294903927978673e-07
1.33749617611763144e-08
3.32602783399042275e-08
2.28358476905674883e-07
4.70057888580592199e-07
8.32220753841117748e-07
7.92685320209589889e-07
5.11761050331013456e-07
5.29117160154498317e-07
9.62223794689345053e-07
1.40015868866512396e-06
1.88172852132716408e-06
2.19994502378843886e-06
2.70758071414927457e-06
3.07591514064153082e-06
3.77465940003476704e-06
4.88529128884782768e-06
6.39238428748243635e-06
7.92418583819088561e-06
9.67839047511040378e-06
1.14735296459704772e-05
1.27169848421014909e-05
1.44813804620995243e-05
1.73677003918464265e-05
2.004315262056371e-05
2.21259784273278485e-05
2.28645812628594594e-05
2.51911881792696486e-05
3.06365919507535947e-05
3.57977197863162261e-05
3.81115898451015828e-05
3.57493113702680356e-05
2.69642332682635154e-05
1.74097974573337277e-05
1.48073816018026056e-05
7.75937243016999436e-06
2.4002201451868411e-06
4.68856088578603787e-07
8.23127464673281104e-08
8.7781491927252266e-09
7.59559829272926107e-09
5.38476361361201302e-08
1.31417960565586722e-07
1.90948386115860867e-07
1.83720841999801414e-07
2.17095844651060722e-07
2.16193152967576778e-07
2.65831279747612693e-07
4.00347824787699033e-07
5.43600994206902809e-07
6.87530920368077762e-07
8.41132327825986864e-07
1.00553663051221718e-06
1.28089643318020453e-06
1.78215077577776123e-06
2.35488236834772152e-06
2.8563010022194672e-06
3.32793220029237275e-06
3.96109943125958534e-06
4.59961958152836873e-06
5.41714500361470882e-06
6.46405881730426575e-06
7.69811405440614762e-06
8.83133138937881588e-06
9.4863779166561264e-06
1.0068077753680421e-05
1.15349960941623484e-05
1.36667578162005008e-05
1.49376084089804423e-05
1.46729670386361624e-05
1.20038070000220984e-05
8.186776561768187e-06
4.60721631187150214e-06
2.08349516860393945e-06
8.33083839254692162e-07
2.38107566907995594e-07
4.74909342628158778e-08
5.74193402672610289e-09
3.45427268151586457e-09
1.61664978759841366e-08
5.73863260444349843e-08
8.3237460619133671e-08
9.66153001732149537e-08
9.93649007677635521e-08
9.22473387132196623e-08
9.95187801302165342e-08
1.42259895534834861e-07
1.92265102409296836e-07
2.41639714902377451e-07
2.86943746629723505e-07
3.5035430466589824e-07
4.53997997818319962e-07
6.21055928765238022e-07
8.49897746403524574e-07
1.07290074764179791e-06
1.24267987288599458e-06
1.49891662905188144e-06
1.85259342041430511e-06
2.22333323423851984e-06
2.52523501155881859e-06
2.92181271344965038e-06
3.36327966170606069e-06
3.69593030437259992e-06
4.01823973705440954e-06
4.44081664108599208e-06
5.2741761260762561e-06
5.80321328623507271e-06
5.90461507048691181e-06
5.10276812786683889e-06
3.66681498731108347e-06
2.15508074783924793e-06
9.99813870366060601e-07
3.59898602631727758e-07
1.11626724028678063e-07
2.42793354666880417e-08
3.32497630033723356e-09
1.65131485899772706e-09
1.07710406627425716e-08
2.69064810148674439e-08
3.65769429477991153e-08
4.77999268602786375e-08
4.89105816531305115e-08
4.3093687037749828e-08
5.13804918070799402e-08
6.85426504207590187e-08
8.1154275877894227e-08
9.37850092117598732e-08
1.07221694278401102e-07
1.29118249552434076e-07
1.75451182677069777e-07
2.40140798483559054e-07
3.21964889708749372e-07
4.08165549496546525e-07
4.8057167951291389e-07
5.87405478034255546e-07
7.45891513907149046e-07
8.955078655868656e-07
9.88720593838637166e-07
1.0859969257780739e-06
1.27259195671877897e-06
1.43831571045170285e-06
1.5998937343878916e-06
1.73323135852552488e-06
2.04971591415012808e-06
2.24146269990068227e-06
2.34376652106899031e-06
2.09816660869225004e-06
1.5817601463479462e-06
9.7032467761140754e-07
4.63220876623908047e-07
1.70573956544737293e-07
4.78927308689648975e-08
1.14102023026569944e-08
1.74867042686344235e-09
1.56264229336683433e-09
1.02980437893605049e-08
2.18708373059603894e-08
2.53250155140482665e-08
2.75457008353624356e-08
2.26871330343629117e-08
2.09658009204652044e-08
2.66525198825085096e-08
3.13865821472520664e-08
3.55936883321594579e-08
3.92865697816603982e-08
4.31272056921676326e-08
5.15169703887316042e-08
7.09212000155609096e-08
9.36569734240105957e-08
1.17566490202418414e-07
1.41612863848249463e-07
1.69190434088226986e-07
2.09616927991194769e-07
2.66603678857971709e-07
3.23531023659415511e-07
3.66721929881728105e-07
4.09536048240919209e-07
4.81841666105845807e-07
5.57322773682353401e-07
6.30982742402748334e-07
6.80188030566029931e-07
7.78360585225499964e-07
8.62579570783872467e-07
9.15227316589269838e-07
8.42360042447297851e-07
6.62769529964742929e-07
4.23293192178185357e-07
2.08103408495398328e-07
7.66460121199344265e-08
2.06286482325006734e-08
5.12842356635620523e-09
9.01550368107420321e-10
2.7973218082370126e-09
9.56482911528601655e-09
1.83106057444480202e-08
1.70866589057442944e-08
1.45844075995885746e-08
1.09576307461944764e-08
1.05683745662050094e-08
1.15007493522493822e-08
1.20392907766604947e-08
1.30679788847732823e-08
1.42699532149351493e-08
1.60154185617797617e-08
2.04299719226105959e-08
2.90787068884962597e-08