/*--------------------------------*- C++ -*----------------------------------*\
| =========                 |                                                 |
| \\      /  F ield         | OpenFOAM: The Open Source CFD Toolbox           |
|  \\    /   O peration     | Version:  2206                                  |
|   \\  /    A nd           | Website:  www.openfoam.com                      |
|    \\/     M anipulation  |                                                 |
\*---------------------------------------------------------------------------*/
FoamFile
{
    version     2.0;
    format      ascii;
    arch        "LSB;label=32;scalar=64";
    class       volVectorField;
    location    "0.209999999999999992";
    object      faceTraction;
}
// * * * * * * * * * * * * * * * * * * * * * * * * * * * * * * * * * * * * * //

dimensions      [1 -1 -2 0 0 0 0];

internalField   uniform (0 0 0);

boundaryField
{
    inlet
    {
        type            calculated;
        value           nonuniform List<vector> 0();
    }
    outlet
    {
        type            calculated;
        value           uniform (0 0 0);
    }
    top
    {
        type            calculated;
        value           nonuniform List<vector> 0();
    }
    bottom
    {
        type            calculated;
        value           uniform (0 0 0);
    }
    left
    {
        type            calculated;
        value           uniform (0 0 0);
    }
    symmetry
    {
        type            symmetryPlane;
    }
    interface
    {
        type            calculated;
        value           nonuniform List<vector> 
104
(
(0.970712073482210336 1.36839608885496848e-05 -1.34450155817232837e-05)
(0.98451741855249042 -2.27986279103915566e-05 -1.29609326616079338e-05)
(1.13346903282323219 4.24406324216270488e-06 -5.91627476715461491e-05)
(1.26538567132985502 9.85988110067415678e-06 -5.68362329959319854e-05)
(1.4219522631867747 1.3113138711163032e-05 -5.56962388123601968e-05)
(1.59005998897917977 1.46788469599179209e-05 -5.51749907018465251e-05)
(1.7536169647628308 1.35510007067010766e-05 -5.52170643615333657e-05)
(1.90503364910860751 1.11371978488339011e-05 -5.46490844685169772e-05)
(2.03885997575768929 9.66380192009479728e-06 -5.06697357677083824e-05)
(2.1785012427907402 1.00588711531610737e-05 -4.73655322144447678e-05)
(2.32524451817959754 1.10808882902158322e-05 -4.53983833578156879e-05)
(2.47365823445380295 1.20555924860286148e-05 -4.42216583216255207e-05)
(2.62005409286391 1.27032706983873526e-05 -4.07461220336501385e-05)
(0.851932401769684433 -1.30708641540740178e-06 -3.53250998499744036e-05)
(0.961711241360389102 2.10369249381583498e-07 -2.44628858195866283e-05)
(1.08833421548303355 2.37805086913394017e-06 -1.92702532618867738e-05)
(1.21772183897761499 4.33047566429515043e-06 -1.82687077587399194e-05)
(1.34991100038517975 6.01746519898395895e-06 -2.01817809959263087e-05)
(1.48568707918178644 7.2731857436533281e-06 -2.24175659588066776e-05)
(1.62239670971742544 8.13008657953685627e-06 -2.42544461405104622e-05)
(1.75819990151455041 8.95316112378147916e-06 -2.51214570011015857e-05)
(1.89256210899873589 9.93219832655443434e-06 -2.50253398732327257e-05)
(2.02831206013253862 1.10613463300651423e-05 -2.44271508278677955e-05)
(2.16841219685277631 1.26887631689675028e-05 -2.34813227907805458e-05)
(2.31323520886063205 1.5002094066742544e-05 -2.22170478704135667e-05)
(2.46527393062770139 1.78172248374663353e-05 -2.04171154754019231e-05)
(0.805780215413314682 -5.19196197388582666e-06 -1.5040350997074904e-05)
(0.924393306119604463 9.82715080415989733e-07 -1.6144358085221197e-05)
(1.04409724188107544 2.52464129642422313e-06 -1.70509586677891018e-05)
(1.16688985809434698 4.2307226338028562e-06 -1.76449954412614997e-05)
(1.29265575466755323 5.87634545572727879e-06 -1.80700421903209066e-05)
(1.42086881024366551 7.25129237838698015e-06 -1.83524164957916548e-05)
(1.55102732686155176 8.53003473108638249e-06 -1.83249225269909043e-05)
(1.6828002668663502 9.80146160643562645e-06 -1.79428309732077026e-05)
(1.81637896785898767 1.12364273298644319e-05 -1.7233332065704299e-05)
(1.95263046094514392 1.30258614889195569e-05 -1.6407149330985461e-05)
(2.09312343930711142 1.52676884488639346e-05 -1.53967164871945894e-05)
(2.23917439686444775 1.83506778801659191e-05 -1.41623914094688749e-05)
(2.39508342225446524 2.16495324185599663e-05 -1.26125023558912592e-05)
(0.770269740930858537 -2.85236604738043868e-06 -1.11718693784282364e-05)
(0.892903204886994262 1.72289401472956572e-06 -1.15461955912965694e-05)
(1.01671531849284014 3.31035028455236349e-06 -1.09172508203272448e-05)
(1.14157450721704867 4.58882301891152971e-06 -1.06883259330277697e-05)
(1.26781682571594567 5.91272250534141606e-06 -1.06428812560402662e-05)
(1.39561140230417546 7.31387283807444521e-06 -1.06003444943528797e-05)
(1.52500853514204238 8.79243136919919383e-06 -1.04941711523775791e-05)
(1.65623599799070598 1.04191172794134821e-05 -1.02766397728177966e-05)
(1.78979595647220302 1.22795729113432023e-05 -9.90577346041055937e-06)
(1.92653279912579078 1.45036401605871865e-05 -9.37292762063063753e-06)
(2.06766811477544188 1.7122231294653233e-05 -8.68593045002229079e-06)
(2.21448194909148688 2.06294696824860855e-05 -7.85919368020644397e-06)
(2.37174537369464211 2.42092197831274358e-05 -6.88920389118198828e-06)
(0.748722350241758594 -2.37495188698379773e-06 -7.21251750477226953e-06)
(0.871814150439817248 1.78557053538988805e-06 -7.69886705025571142e-06)
(0.996035240212532647 3.34355034779843363e-06 -7.49216304130864621e-06)
(1.12132074078759847 4.69751743743537405e-06 -7.40370621721900624e-06)
(1.24785175856961783 6.10649475275164552e-06 -7.32035216201731265e-06)
(1.37588611076314127 7.62601357814477512e-06 -7.19336893161099163e-06)
(1.50560889053684521 9.27424793932548979e-06 -7.01237344639634663e-06)
(1.63730278475030877 1.10986484116033995e-05 -6.76117052357730681e-06)
(1.77142292217634556 1.31721104465616223e-05 -6.43315772297355197e-06)
(1.90862114260128668 1.5606773885275574e-05 -6.02651635537769957e-06)
(2.05013906299586957 1.84281462484822276e-05 -5.54174226330845924e-06)
(2.19730134191713944 2.217096383844216e-05 -4.97739949619651996e-06)
(2.35504056751370205 2.59418145556556509e-05 -4.32623343827353715e-06)
(0.73452960856170979 -1.95722451329885055e-06 -4.62994979429806022e-06)
(0.857987642962088182 1.89135931576854298e-06 -4.92139952191460528e-06)
(0.982675944277647928 3.46628292060059384e-06 -4.76766553259806033e-06)
(1.10845313303970494 4.88069254112869021e-06 -4.68634918186898034e-06)
(1.23541838991309927 6.35441408179980264e-06 -4.60574019159845546e-06)
(1.36381825006591018 7.9467486185351381e-06 -4.49725622987146948e-06)
(1.49387223648458622 9.6860097488712423e-06 -4.3533009572816955e-06)
(1.6258711812400366 1.16236724025008445e-05 -4.17096493085297828e-06)
(1.76026580865740856 1.38153725253577707e-05 -3.94487335277823272e-06)
(1.89771282644439454 1.63734764120973372e-05 -3.67386452596281309e-06)
(2.03945895204648187 1.93212715764357919e-05 -3.35430682867275931e-06)
(2.18683977552316078 2.31842875400981027e-05 -2.98659530507483932e-06)
(2.34475072668872198 2.70743003577759589e-05 -2.57793841358437208e-06)
(0.726162140946480128 -1.72479235374798524e-06 -2.56209176372664021e-06)
(0.84973221610509575 1.94842462793451189e-06 -2.71549247507245308e-06)
(0.974576246681074787 3.54154412434809694e-06 -2.63447417909540553e-06)
(1.10054404159611141 4.99706293747224003e-06 -2.5909445914613904e-06)
(1.22771437805117611 6.51445729957319594e-06 -2.54307760897509579e-06)
(1.35631573350756773 8.16090878004595678e-06 -2.47767105039028338e-06)
(1.48655500367100957 9.95804178894065525e-06 -2.39196791149908059e-06)
(1.6187289685818822 1.19531869944173859e-05 -2.286851307490356e-06)
(1.7533029809598506 1.42077204057461062e-05 -2.16187547798878929e-06)
(1.89094298312169862 1.68379883460605902e-05 -2.01450273243354503e-06)
(2.03288309137710455 1.98616567075781912e-05 -1.85172494559787668e-06)
(2.18047925792162056 2.37843659003866985e-05 -1.66957322543251772e-06)
(2.33860265094251796 2.77480412784246305e-05 -1.50005167808567621e-06)
(0.722261633621376631 -1.6205601099950901e-06 -8.21926333860849472e-07)
(0.845865538318325449 1.96545708773676402e-06 -8.69734886740426369e-07)
(0.97076060188739044 3.56761730086407485e-06 -8.44424509131929178e-07)
(1.09679973918147211 5.04717980663642281e-06 -8.30025526049893151e-07)
(1.22404935633254275 6.5848952337814364e-06 -8.13257760827582204e-07)
(1.35273361885219168 8.24882148469718447e-06 -7.90938219314899915e-07)
(1.48306105591492154 1.0064975574930502e-05 -7.63717048883643932e-07)
(1.61533151357278282 1.2079152764904724e-05 -7.30903055835108554e-07)
(1.75001074769139575 1.43511715037892081e-05 -6.92077712642850519e-07)
(1.88778790676323149 1.69777073982310401e-05 -6.49245781668506581e-07)
(2.02988844307320138 2.00135972662692347e-05 -6.08575596123563763e-07)
(2.17783747097778546 2.38222181493874702e-05 -5.68726726312944601e-07)
(2.33620344637289401 2.78949161382437696e-05 -5.4543173170583098e-07)
)
;
    }
    procBoundary3to0
    {
        type            processor;
        value           uniform (0 0 0);
    }
    procBoundary3to1
    {
        type            processor;
        value           uniform (0 0 0);
    }
    procBoundary3to2
    {
        type            processor;
        value           uniform (0 0 0);
    }
}


// ************************************************************************* //
