/*--------------------------------*- C++ -*----------------------------------*\
| =========                 |                                                 |
| \\      /  F ield         | OpenFOAM: The Open Source CFD Toolbox           |
|  \\    /   O peration     | Version:  2206                                  |
|   \\  /    A nd           | Website:  www.openfoam.com                      |
|    \\/     M anipulation  |                                                 |
\*---------------------------------------------------------------------------*/
FoamFile
{
    version     2.0;
    format      ascii;
    arch        "LSB;label=32;scalar=64";
    class       volScalarField;
    location    "0.209999999999999992";
    object      p;
}
// * * * * * * * * * * * * * * * * * * * * * * * * * * * * * * * * * * * * * //

dimensions      [1 -1 -2 0 0 0 0];

internalField   nonuniform List<scalar> 
7236
(
8.6717990173958075
0.740659172534830601
1.15351956030424097
3.12559225348058645
3.37088759611252931
3.17851246147369126
3.55817813333831623
3.75156914204747194
4.12699834842650048
7.50919019347490391
7.70414535059514005
6.44400654494790359
5.1524593564036909
4.93339401807242339
4.68287886459733738
4.10072204339704705
3.81690506480532221
3.60139953553758962
2.99236929266215546
2.34077616231347507
1.98048775747111971
1.54973145372643684
1.06991676767530453
0.775672092541426994
0.578803084312332294
0.444628449830112737
0.498326001480597802
0.705108790597618329
0.909446010331571797
1.14042691355625081
1.36968959252324574
1.54277238160498142
1.60603871172650337
1.56942748450661096
1.49214689794111122
1.42195084948162842
1.37404916137582722
1.34992985712993852
-1.81924320487215807
-1.16628490894189429
-0.96611817106402742
-0.254145778699176206
-0.23468170677650485
-0.42180673995179585
-0.461114687125195932
-0.378738399642116974
-0.27532941721680787
-0.297905270107207965
-0.34733763903004794
-0.425157950834818776
-0.439000709891805285
-0.433593488447213737
-0.404216282921144199
-0.362879655306387217
-0.338957695066529785
-0.316419476636216113
-0.316070722473432264
-0.337561159909163966
-0.363716334753360848
-0.381937111329679335
-0.394931206417336977
-0.406775219085623252
-0.394062209613108394
-0.319719447149222402
-0.17135508450638659
0.0346609444754021334
0.328428228750988427
0.654488372255080164
0.976366045223016732
1.23233127423654643
1.37128422512083503
1.39150209312171391
1.34457486840277185
1.2847546476119529
1.23952479370842084
1.21592213965693952
-1.44613534837397051
-1.2508908869107167
-1.09525041203762696
-0.752603640491710912
-0.69664268985661959
-0.704920340703910409
-0.712581885369226065
-0.677323444678306186
-0.623535217249306384
-0.605940379480905178
-0.621594349034000238
-0.640335704745291223
-0.642930633093034443
-0.628941143685356696
-0.608605173161373081
-0.584677127912761274
-0.564894137517842232
-0.55073427405013442
-0.546758307672135402
-0.554903315399252195
-0.577600736887750932
-0.610310213644828292
-0.641892335735112396
-0.647007665281014832
-0.624217899025940159
-0.553374558529109328
-0.423137507367232157
-0.232222824617544843
0.0158146283532470955
0.309432019575332229
0.618155766815535523
0.89094946330397562
1.07709207729520662
1.1580434383509941
1.15738594134547812
1.12189402311944919
1.08756175804009136
1.06824847479528584
-1.36841353352739903
-1.27400419541520527
-1.11869719483556063
-1.00318176024210803
-0.940254610180914607
-0.897749556526977743
-0.870266712003557097
-0.842828106777707253
-0.810482372882259217
-0.791349428137869682
-0.788510150351472427
-0.789728140513352717
-0.783830699913998119
-0.768956400384589234
-0.749456825311641262
-0.729608802059706685
-0.713131091987669219
-0.701862060253375608
-0.697551488168429934
-0.701725936224738889
-0.714419683793060756
-0.732459881331514295
-0.744121691563752519
-0.73709486863014384
-0.705333486647113928
-0.639258587615313623
-0.523465853939089398
-0.349889046756910349
-0.126574459226346414
0.12787137735526094
0.392902886062333367
0.636861630797618927
0.819962468455540217
0.921832729647869553
0.952085029556172691
0.941902211606295059
0.922242051292826881
0.909742759593725081
-1.40966724276408861
-1.32315602377473862
-1.22371794622108609
-1.14205383378179182
-1.09414307341898631
-1.05572366031816722
-1.02566334668622572
-0.998091318217783519
-0.970141976917680227
-0.949056449519646517
-0.936247847720013793
-0.925686971140606829
-0.91283235172912125
-0.895939105421148962
-0.87625330052257977
-0.857132252068789957
-0.84096329425862737
-0.830396499907632979
-0.825141672379476665
-0.82546734106498354
-0.830233967445724197
-0.835809470562868473
-0.834683646787672484
-0.817375039045000751
-0.776650504632505845
-0.705393012464972768
-0.59262597569151676
-0.434220449305080747
-0.236175887711794819
-0.0133497436682002979
0.215876255503632763
0.428163888138619608
0.596521307821471947
0.702030777999109512
0.74768999099669986
0.755524292440445611
0.748880028112780427
0.742878526203935574
-1.44375311856434196
-1.36693816600978524
-1.31859568107158953
-1.265845498993593
-1.22469042684647089
-1.19110186699774778
-1.16277060992828662
-1.13676532785531625
-1.11197768957758036
-1.09086215829555
-1.07416501328112624
-1.05867028470299496
-1.04161352513459038
-1.02209706594481808
-1.00151660427796418
-0.982040542350257839
-0.965554195873395305
-0.953548183640757663
-0.945805366214083287
-0.941719765459523073
-0.939230514555816631
-0.935116757795648734
-0.92338037794748784
-0.896803854038188852
-0.848910736807840127
-0.774052438364674078
-0.665227887327824008
-0.519773984252479115
-0.343131010706659634
-0.147294137710641704
0.052632147577851951
0.238540367443013657
0.39060390589706484
0.493551256174260433
0.547856984964722682
0.567892616536715633
0.571226289829254275
0.570347626778553218
-1.51824932758707387
-1.44752167966089829
-1.4181051668766389
-1.38375609148589174
-1.35211638173896898
-1.32207780197070601
-1.29622955504878767
-1.27245750157197879
-1.24986301507622288
-1.22859659518046826
-1.20906242732345715
-1.19018347587816153
-1.17005902855855659
-1.14859118103559532
-1.12675704146481181
-1.10601716505135483
-1.08801601774660117
-1.07367572657332255
-1.06267702042867285
-1.05407866412382223
-1.04553367992843338
-1.03378732897240955
-1.01389945722756525
-0.980308769520578105
-0.927618015266742479
-0.851022355740460035
-0.746486603177970443
-0.612682510368385946
-0.454170374677370647
-0.280806575123851765
-0.104501643640225628
0.0596315207879870579
0.196265943827979461
0.294319100831180069
0.352795128661246848
0.381012097198974331
0.391704274749018588
0.394798729000359838
-1.62152467175872128
-1.54426140805506162
-1.52672003935275158
-1.50276363645084809
-1.47727979775348572
-1.4508427856908126
-1.42724776422793886
-1.40522900455354249
-1.38371916366549352
-1.36210349479072201
-1.34076821461164908
-1.31938160697647122
-1.29710015883521557
-1.27400459650842679
-1.25093262230094848
-1.22894952086445208
-1.20921719647304937
-1.19236112785373294
-1.17802101813686599
-1.16503539999288686
-1.15116983886517388
-1.13332557776701615
-1.1073085422677782
-1.06853015339919444
-1.0126371588336025
-0.935939677977974394
-0.835660654913262246
-0.71202062999127913
-0.56920527462576187
-0.414641805923481988
-0.258401089777751336
-0.112648526248560588
0.0106860126884680273
0.103024435015267257
0.162819862289942607
0.196101195082896584
0.211945004706713069
0.217992118299439874
-1.73980518143316298
-1.65253294938957729
-1.64330813151316901
-1.62411225239608115
-1.60245703203051137
-1.57868986231585784
-1.55693380092324096
-1.53600439254828025
-1.5148074319331839
-1.49276912184925648
-1.47013680806366476
-1.44691480513077142
-1.42287642857911978
-1.39828872460890397
-1.37389669382295532
-1.35056971442688778
-1.32911477616827067
-1.30988059311000904
-1.29243082623699346
-1.27553393212091071
-1.25706749041666366
-1.23419807989350838
-1.20338373222922779
-1.160820628547794
-1.10302895411287771
-1.02726672606148894
-0.931805604377729968
-0.817397584693768331
-0.687793778191182925
-0.549171729098935635
-0.409909158721117106
-0.279700974496860266
-0.1679595404324703
-0.0815782355081063892
-0.0222706137188708464
0.0137995904862078245
0.0330265292520850462
0.0411398944173624326
-1.85384318150342975
-1.76429152180230053
-1.76536961495778044
-1.74832827740386865
-1.72894490335414419
-1.70706958708294754
-1.68609213725606999
-1.66531455839367837
-1.64403884981672443
-1.62149160858266583
-1.59776008724916974
-1.57302091236549257
-1.54742613398482365
-1.52142339572237661
-1.49570834435002453
-1.4710041608617257
-1.44787400347446393
-1.42644568362987889
-1.40619806400473557
-1.38589701273614208
-1.36356588164730264
-1.33666148299236598
-1.97318278237939171
-1.88408562882115982
-1.89072979343209524
-1.87520500554131253
-1.85705965568511999
-1.83592453267391242
-1.81489847777232249
-1.7938357754262122
-1.77205114895353444
-1.74876360015296584
-1.72390793698628864
-1.69776064440198882
-1.67071607794098886
-1.64335857302518606
-1.61636918994968282
-1.59034527841866069
-1.56565558953346606
-1.54226497807147878
-1.51957821853566699
-1.49638250750756763
-1.47087536894864757
-1.44080937716747481
-2.09063206903448773
-2.01069215723459394
-2.01930985684666009
-2.00449677126099468
-1.98666617989989547
-1.96535883217175655
-1.94375377402587213
-1.92189932642990846
-1.89921124040502098
-1.87489548377008064
-1.84879770327434545
-1.82124025342240259
-1.79278813171751916
-1.76413576437825093
-1.73594589240881825
-1.70870381322561737
-1.68261889629572825
-1.6575191836146479
-1.632751742841408
-1.6071498104235391
-1.57909212780418629
-1.54660944296730674
-2.20742950943047722
-2.14149252494936837
-2.15131881331132746
-2.13576735128123119
-2.11737298232146287
-2.09518305233390345
-2.07256012408221268
-2.04954654650652879
-2.02562120363954268
-2.00001706697806192
-1.97253188044496075
-1.9435350935032667
-1.91370952567153529
-1.8838327835964841
-1.85454019958928207
-1.82621209464564727
-1.79891734040420159
-1.7723683426177872
-1.74586747785553098
-1.71831298142656452
-1.68826044225757554
-1.65399586405191945
-2.12418225773354674
-2.09517224287261472
-2.06470769257273279
-2.03355642960756633
-2.00254614981676538
-1.9722707634610801
-1.94300914761442156
-1.91470093407778119
-1.8869573080968769
-1.85904988244527924
-2.18483608010442865
-2.1524283392115966
-2.12039864967007219
-2.08928007114481584
-2.05924504407522857
-2.03011660932062865
-2.00142375933449213
-1.97240905477471662
-2.23750148237932667
-2.20568414258594814
-2.1750355470725018
-2.14526840991645162
-0.322564466204194211
-0.396855315131515507
-0.594015810405156386
-0.209931572435553493
0.130077599391239418
0.241898183727973448
0.223094425864783785
0.13498063051068912
0.0680971081523172317
0.333929784155652554
0.554507630859340961
1.00174499860788702
1.12609206532842121
1.03738314349602057
1.05690561795011906
1.11474287198464705
1.15190384546842317
1.11148890939116485
1.0821352560769717
0.958839435112622818
0.780976162829347897
0.619915253647691733
0.442100049720792976
0.334020312497189331
0.290336819014558434
0.301723057466429856
0.431856500907622454
0.647860410894100736
0.894353447836418347
1.08722047702227553
1.24273296639869413
1.33805291481518807
1.35612799286699315
1.32899802618355545
1.29067473171446156
1.25590882407690718
1.23035093741067159
1.21676698722672305
-1.02563411906208724
-0.704152052054031419
-0.72890453583603898
-0.718619547449622087
-0.65666802768034227
-0.586161138491967826
-0.531884435776049047
-0.505935172847886916
-0.51427274045947291
-0.469228921758043593
-0.463507723283370088
-0.488668249910587882
-0.505126202927116519
-0.491737393566733794
-0.47145056499478194
-0.457830249195929018
-0.44594849296589989
-0.431570358581304325
-0.430287892470240907
-0.445439072909977751
-0.469186525447147229
-0.495380461536063799
-0.495823838415241247
-0.456111207625746973
-0.402548716616746904
-0.302826801262287226
-0.130011787139108492
0.100440815045419463
0.37657718619626579
0.671523635783997652
0.933183215196662585
1.1082272922852916
1.17757971248802251
1.17875704293104189
1.15258323802231999
1.12209457727178274
1.09811442044637886
1.08493198469508423
-1.10702341871655285
-0.878801048953168906
-0.85845889753856186
-0.818120401635741734
-0.775453872723275595
-0.747729652819358881
-0.723156408261235728
-0.697448307592718475
-0.680713555766333522
-0.670602494246210212
-0.654476666475142022
-0.654560173205856799
-0.654576753109800347
-0.642226296886136749
-0.622467911136521224
-0.604382991893349097
-0.589192141258175317
-0.574474868200888666
-0.565481399569335297
-0.567424213683999756
-0.577812938759018291
-0.59061443844747441
-0.593860393029203459
-0.575861291434084821
-0.532588467784224529
-0.451114415015714254
-0.312527417734158708
-0.116682708149616676
0.117589040646813914
0.374620873456511794
0.628584953549711556
0.831150936116600292
0.948360826197077955
0.991429310498886163
0.98953729386730338
0.971370865753474977
0.953538205451864407
0.942947574137488309
-1.14801245200319713
-1.01067479600260235
-0.981880920400181934
-0.947831433183076166
-0.909971367031604084
-0.880484379249100391
-0.860989772457765534
-0.841948302871896037
-0.824736179241706724
-0.810916017912608256
-0.798026752843853826
-0.791098194365380092
-0.782036298967739518
-0.766467847539484048
-0.746379915981776998
-0.727101555488604001
-0.710357014806622722
-0.695345684865783742
-0.684379273259795196
-0.680827238381157773
-0.683639716919334783
-0.686321497118058899
-0.679421216396774996
-0.655754289761260489
-0.61016056829055465
-0.530866515669487837
-0.4046089008127709
-0.23227178268276133
-0.0279789314404398914
0.192384677603258614
0.411284615873783399
0.597647960409720902
0.725493894853184607
0.791508181621075946
0.811545844991566234
0.808335828891989294
0.799085146895758047
0.792627615238645
-1.2246527941426899
-1.15026852611137276
-1.1137488188022826
-1.08203912548589942
-1.05212701998952252
-1.02620725874316676
-1.00527412289360596
-0.985382130755370067
-0.966214115345439772
-0.949285513824251526
-0.934168762971161026
-0.921075399510416393
-0.906280399577343854
-0.887580472454397196
-0.866483127081186799
-0.846214914570426746
-0.828296471778930954
-0.81277934917682515
-0.800593901018317844
-0.792824832183826489
-0.788139738131320211
-0.781802374293102065
-0.766619418105882744
-0.736122548765841489
-0.685020795023222107
-0.605713947595178603
-0.489476205662627117
-0.336340528217181078
-0.155932724954615909
0.0373879034634531093
0.227904207435831507
0.395719922967643023
0.520908006478944308
0.595619761820828431
0.629499405443639914
0.638722777982709156
0.63774294435747636
0.635445329118406455
-1.30680282774274925
-1.26069614982295253
-1.23380765152358451
-1.20939062158742061
-1.18499694106905329
-1.16214586924574714
-1.14127663605844143
-1.12125002886450997
-1.10173281246874577
-1.08329384341239088
-1.06579234143250079
-1.04892491940928023
-1.0305861598448085
-1.00977743740872183
-0.987678594809929367
-0.966378027502114101
-0.947085173318927831
-0.930105251578157155
-0.915861198172078117
-0.904266224800741036
-0.893560353107449412
-0.87990419343445514
-0.857736052995564879
-0.821689193828645248
-0.766951126570881159
-0.687948224358986504
-0.579395173356768378
-0.44138499628864214
-0.281140839350703831
-0.109981801821039338
0.0586634680222412053
0.209567512628314745
0.327566828762752338
0.405321526942757582
0.447719717345074208
0.466080199445025545
0.471941062722585625
0.473126404299468728
-1.40136957871684764
-1.36821163086202802
-1.35136655351543578
-1.33398572968508278
-1.31413116436927524
-1.29348829420673495
-1.2734492975351337
-1.25370285362276257
-1.23403015672927174
-1.21452946382824556
-1.19516376816108072
-1.17562656173119429
-1.15479992813867027
-1.13239094918894856
-1.1092859711228702
-1.08690149954335569
-1.06621726811534989
-1.04759394338209821
-1.03101708022075544
-1.01583300597868043
-1.00016836375196139
-0.980811112185130174
-0.95331563582145229
-0.913161209017191555
-0.856074042460466922
-0.777907322846627225
-0.675438284052150006
-0.549692395799479927
-0.406401265435706982
-0.253949494700923761
-0.103392045177587377
0.0327045053664543062
0.142637144941611282
0.220188439036631434
0.267544147246995268
0.292392218001585769
0.303554630410578397
0.307564892264272749
-1.50680411475316878
-1.47871251602242637
-1.46947185835648275
-1.45754021912509568
-1.44138847831328532
-1.42272962689397442
-1.40359633695130204
-1.3841622189545717
-1.36424398957622972
-1.34380639656038925
-1.32289945956795685
-1.30135978637331395
-1.27870393903543822
-1.25497188744334487
-1.23088790865898901
-1.20744781851037963
-1.18540166924805002
-1.16502693221357001
-1.14608095269872434
-1.1276619246327424
-1.10789802866454035
-1.08396455142961612
-1.052254710761936
-1.00901222218862241
-0.950672003859647563
-0.874155202991151459
-0.777514891994885327
-0.66206479774575655
-0.532505877885636303
-0.395711090699120027
-0.2606882473786305
-0.137545291008189019
-0.0355089083631733304
0.0400680389414731497
0.0898283641678689904
0.118948648689151448
0.133981958116417443
0.140171375823089583
-1.61755919751728738
-1.59337144089488936
-1.58977065271555351
-1.58151935494420881
-1.56806430355639947
-1.55097309860504429
-1.53253665778600578
-1.51320221114574638
-1.49292909936444573
-1.47165490065572246
-1.44946400139483722
-1.42635919593837368
-1.40223852288598594
-1.37733340731147891
-1.35226977787516534
-1.32779133387227133
-1.30444137816885686
-1.2823584725899877
-1.26116685476931045
-1.23985993357399371
-1.21665957058310914
-1.18908276509033595
-1.15412072168642155
-1.10866073292643041
-1.04984357845027443
-0.975416202904727525
-0.884275112300364152
-0.777736192443909236
-0.659751014742571362
-0.536165714996495568
-0.414397355077712914
-0.302573694905277968
-0.208082654141990231
-0.135517066888037441
-0.0851042517641877883
-0.0534438822915161982
-0.0357683130301069685
-0.028003271612719427
-1.73141790767301429
-1.71156756083951667
-1.71262192080368658
-1.70674217028838782
-1.69504092568751918
-1.67894354532535628
-1.66077926863873837
-1.6412659170134567
-1.62049869418201586
-1.59840708588497438
-1.57508330399280494
-1.55066470600263462
-1.52528935285628187
-1.4993093233322492
-1.47328390686777344
-1.4477869079196235
-1.42319439884975996
-1.39951779759371542
-1.37628881833715888
-1.3524727678812849
-1.32642149045241298
-1.2959617297487549
-1.25856131233042801
-1.84935892894074483
-1.83365327921260723
-1.83814873389071365
-1.83358146797895016
-1.82274824993292195
-1.80696630005041792
-1.78865079538150384
-1.76868001037237432
-1.747237362708977
-1.72426118723508592
-1.69985908644211436
-1.67425674000414437
-1.64774839375163218
-1.62076171058382035
-1.59380658592909663
-1.56733282362806481
-1.54158211294730507
-1.51645895269192477
-1.49143226098610704
-1.46548289541719701
-1.43710638717976047
-1.40440526038447255
-1.97117646805592761
-1.95978645978315891
-1.96645464825842753
-1.96217550372098426
-1.9513709307659437
-1.93524213244374121
-1.91635727092719099
-1.8956396299599314
-1.87331126945695092
-1.84934452687673878
-1.82385394519101296
-1.79712259010196274
-1.76954834444173992
-1.74160787661321681
-1.71376935799248975
-1.68638416481831621
-1.65958275822059331
-1.63317980512398142
-1.60660394294373576
-1.57887808114591355
-1.54864381739357748
-1.51424800352386191
-2.09863440628283771
-2.09008387338039858
-2.09772886612891751
-2.09253489411771465
-2.08088430429889115
-2.06380167138456727
-2.04394674692030609
-2.02220144288903647
-1.99878684535628759
-1.97371152641858161
-1.94709126110392483
-1.91924953087206984
-1.89065616138987136
-1.86181658835089658
-1.8331567948716101
-1.80494499819831855
-1.77721629121323366
-1.74971091764144515
-1.72183225252736039
-1.69266330384269792
-1.66098595914051139
-1.62536275133912933
-2.09737242722819595
-2.06957260488749517
-2.04062889608595288
-2.01106284384951062
-1.9813894913663852
-1.95198587665964118
-1.92304724306677244
-1.89452490464943302
-1.86609775238754527
-1.83715107952105394
-2.16127745422768536
-2.13078677062740329
-2.10036075001083367
-2.07030330424744236
-2.04074542798453162
-2.01156562805144912
-1.98239745027639147
-1.95260021428333164
-2.21876116866317785
-2.18814854451703145
-2.15808178546697471
-2.12837723761781206
-0.454311515855121528
-0.490668076997491098
-0.527493656828585622
-0.482400496881978946
-0.43208094666182234
-0.41108705241620952
-0.395948964351256483
-0.379237868367015174
-0.360275266795603455
-0.292634543790040724
-0.195020013477208431
-0.0404190765198635116
0.0560868721671129999
0.0634306152051095085
0.0462243852628122509
0.0309664483426087545
0.0184206531526350248
0.0126162293043065588
0.0329918773918066455
0.035331141810991229
0.0358863611704755003
0.0611072418374218884
0.0987772310306737067
0.144897731982367994
0.221252980367435376
0.336902377099489503
0.481793147394310894
0.647284485831669198
0.811008114904432031
0.950954776695723591
1.05166147521865372
1.1076217560577124
1.13053971562944033
1.13493818534119195
1.12887286805684495
1.11834769392039957
1.1085883490306605
1.10280588582470163
-0.629481543274699407
-0.666438401975576467
-0.69341501252727078
-0.673986024038610743
-0.658106566732133746
-0.633272802782842925
-0.621442241007913898
-0.621392757369256921
-0.629809677968074189
-0.628567238522462768
-0.615853651733704988
-0.578269905178920962
-0.533725565477537689
-0.495489541814768453
-0.470415402368916324
-0.449029556741037228
-0.430907099245239178
-0.415429294127400595
-0.408945988771477476
-0.412815014058238228
-0.417318188801190426
-0.412034958282385066
-0.383986224651621522
-0.327928656659809026
-0.245218129983285016
-0.125397346514380809
0.045386909894460814
0.258179519356807163
0.484955613931132345
0.691433691888751367
0.846575412956885986
0.938654046820623589
0.982315844059669763
0.996803505559457959
0.99534122549993298
0.986982770501377948
0.978306799361742252
0.972815684732954766
-0.81849114271467116
-0.810307521560033273
-0.812832249591449285
-0.79441033428141794
-0.784147635439515378
-0.765804606748821115
-0.753133881621679491
-0.743783820820429487
-0.742209465137438129
-0.739115010246109816
-0.724719639165798513
-0.705961843247807641
-0.681827980394205557
-0.654287873494112993
-0.626854199586088567
-0.603431558016022995
-0.582768127552241388
-0.564401245467367696
-0.551580649165945291
-0.545007923067060918
-0.540180252147626216
-0.530453448916979431
-0.507547037928526956
-0.463553043976303147
-0.395668408288582241
-0.294690746617938371
-0.15017341630264669
0.0326051645434035087
0.235421246494063985
0.43770340993386897
0.610624678401703203
0.733760144734045827
0.805381698695940118
0.83783090332131005
0.846790424537602449
0.844484827257527604
0.839211464585239875
0.835195753003236896
-0.958895644966672678
-0.944933831893925547
-0.938036095765486966
-0.921717570885032367
-0.904945934523131656
-0.887938387436622234
-0.875155592987955977
-0.864337659165566485
-0.856327613442335212
-0.846780258378597273
-0.831597463279492577
-0.813082690961893562
-0.791240973455790253
-0.765854606914825542
-0.739757523467658551
-0.716180207807284419
-0.695002615599260132
-0.675591286998881047
-0.659831168421340375
-0.648158105763519843
-0.637381981488606142
-0.622036843186675958
-0.595698149140132749
-0.552242418539024893
-0.488086433221328164
-0.395346447517051613
-0.268426034864111485
-0.110635575199142411
0.0648284263148279916
0.243497975668779176
0.406004208890503926
0.534212338621232186
0.619585273076402543
0.667052714143743009
0.68764637462154965
0.693220480602509515
0.692690513754261827
0.691068868295916072
-1.08051774935014322
-1.07076346724795046
-1.06236133183979442
-1.04865315735615616
-1.03340596256020434
-1.01775400488887602
-1.00403053951428278
-0.99070062136875614
-0.978015074594437039
-0.964028168323907586
-0.946973931652480116
-0.927525483112647153
-0.905172709950224919
-0.880186437461071947
-0.854434396560000309
-0.830142229381737984
-0.807843522835926198
-0.787358630238816692
-0.769431178759071854
-0.753937830463893177
-0.738347114248296466
-0.718305578463808381
-0.688501774481354523
-0.644034458804231713
-0.581109856400505387
-0.494054089790746054
-0.37907459752238426
-0.239211192966686526
-0.0839163954458754247
0.07491363893993086
0.224216923314631833
0.347937243876959013
0.437399235047174706
0.493406187122114925
0.523144164704425152
0.536086060928358865
0.540419077197223041
0.541330895969112991
-1.19591041248416241
-1.190843720526503
-1.18457338854969318
-1.17386124689982063
-1.16071082879450094
-1.14616411123232376
-1.13162842455503143
-1.116726838864462
-1.10147123521944623
-1.08492207075264702
-1.06621569165105279
-1.04550370102634971
-1.02249275508581827
-0.99754000603179549
-0.971918168786586323
-0.947178667809721153
-0.924002024892225826
-0.902489251566112594
-0.882692795685815712
-0.863973677532998474
-0.844307549554749071
-0.820244333779164725
-0.787421828042425775
-0.741636145396646906
-0.679357672148043101
-0.596576343887269989
-0.490954546469513975
-0.364720787016619752
-0.225145272396216678
-0.0821841204594014885
0.0538268867519516858
0.170473048361536983
0.2597844676483545
0.3202937189213938
0.356405014343922799
0.375310588185708172
0.383943194172070346
0.387073136805757834
-1.31032802763836687
-1.30907030187798457
-1.30612687564852448
-1.29853163082115963
-1.28732454268669128
-1.27364542591699981
-1.25876360567573875
-1.24284586196593816
-1.22596575635107774
-1.20768814314551087
-1.18762583086954754
-1.16577596153192764
-1.14205257805897609
-1.11682282757818885
-1.09107195124732836
-1.06590740654888405
-1.04192007716707291
-1.01923509805321921
-0.997657926170745446
-0.976328749373602256
-0.953396767848708304
-0.92599954243639071
-0.890593747622284715
-0.84363556477685131
-0.781971920440627022
-0.702763688828994093
-0.604675303911462292
-0.489637281630402987
-0.363335392861955819
-0.233649227618085376
-0.109435267826318627
-0.00036344361479179188
0.0865209925724752527
0.148851586627994914
0.189095280702628599
0.212491313246602309
0.224623649834791217
0.229612923310618333
-1.42600248783440398
-1.42743324125415816
-1.42785796121146502
-1.42307348211508145
-1.41363031069660661
-1.40070820280839126
-1.38570123820236279
-1.36909891365230307
-1.35109270823256167
-1.33153566602518381
-1.31030548208508502
-1.28743837600265332
-1.26298517639901586
-1.23734059756079562
-1.2112755465172016
-1.18560948331276483
-1.16081086705538628
-1.13694417447302487
-1.11368482827400883
-1.09010508352826974
-1.06448627268461515
-1.03437093757555854
-0.996832045924808119
-0.948933894821603285
-0.888039671759339733
-0.812062580298669512
-0.72029449179705507
-0.614556244165357479
-0.499424419442357881
-0.381262366980006373
-0.267502816161449664
-0.165954397557008915
-0.0826737159214648853
-0.0203259788826841703
0.0222580910191805259
0.048781509356533248
0.0635753847509905601
0.0700553557106278202
-1.54386349076411999
-1.5471581578751179
-1.55057364842746614
-1.54800790671775523
-1.53996473141380341
-1.52762349601216574
-1.51251509952029006
-1.49535253624185382
-1.47645572414420978
-1.45586075956386596
-1.43360522404734358
-1.40980663436938602
-1.38463392055576917
-1.35849240890128864
-1.33200398965701572
-1.30578116220052176
-1.28017391827763394
-1.25517438574655982
-1.23037030307706985
-1.20481738404153216
-1.17694823374660151
-1.14464110522233931
-1.10543989635057871
-1.05690755785435564
-0.996921098153983665
-0.92395793532917847
-0.837710325007876788
-0.739866455318119787
-0.634240345906595726
-0.526105696679122103
-0.42165877813517405
-0.327315140376067792
-0.248229687521464126
-0.187064932789635763
-0.143494884005960999
-0.115003488368890516
-0.0983311328082179248
-0.0907368747346242177
-1.66394238705820197
-1.66884672902068498
-1.67481122801231397
-1.67379750809109584
-1.6666536212423475
-1.65458681931324048
-1.6392470937357928
-1.62150970486086332
-1.60180652814450886
-1.58029045932559042
-1.55710076733336944
-1.53243441474834041
-1.50655056889525918
-1.47985909957531425
-1.45287580845202413
-1.42606357344820434
-1.39966463749981607
-1.37360139280954385
-1.34740850961527481
-1.32015678999670771
-1.29042434410214701
-1.25637624782778135
-1.21594451946574877
-1.78673599761742552
-1.7930050437605547
-1.80094478919209244
-1.80074843695626363
-1.79391499096619711
-1.78172334116391662
-1.76593455164804158
-1.74752779359792254
-1.72700674721535408
-1.70460145588156031
-1.68051991617503993
-1.65502298451179608
-1.62843319132343067
-1.60116021927418983
-1.57364138351182281
-1.54622897171252394
-1.51907334801938299
-1.49203418487765282
-1.46461588755510541
-1.43592685134072018
-1.40468202643990936
-1.36929031440759674
-1.91276601652409806
-1.92018207295806054
-1.92929228535895092
-1.92905251203546557
-1.92187858360175623
-1.90910359519964645
-1.89259957950999924
-1.87337938852152752
-1.85196907067224825
-1.82865471255853973
-1.80368681458829228
-1.77737355362947413
-1.75008093119927777
-1.72221388009549758
-1.69414769315082592
-1.66614881278221438
-1.63829032016882903
-1.61037884857922631
-1.58190315303821682
-1.55202243333742573
-1.51958030193202775
-1.48319700839136148
-2.04559010635572758
-2.05119493575371958
-2.06025562610831336
-2.05884188427210368
-2.05059197744811916
-2.03674181765228823
-2.0192308705018478
-1.99902302555088829
-1.97662454909278784
-1.95235259905214686
-1.92648295566938921
-1.89935485160548723
-1.87136565186670878
-1.8429099365431163
-1.81430869390686578
-1.78575859707721296
-1.75726725848057375
-1.72859791742998681
-1.69923288824661012
-1.66839268291022669
-1.63503756435247216
-1.59797217957387661
-2.07561837173536201
-2.04882308339599462
-2.02087802307008912
-1.99220869613533003
-1.96318770896713923
-1.9340829589553945
-1.9050333476040453
-1.87599141676441716
-1.84668506108213681
-1.81659269506984855
-2.14190589572990975
-2.11257616423465899
-2.08302970755212158
-2.05346613180016657
-2.02397929649180863
-1.99447576312127106
-1.9646587109494642
-1.93398992345296161
-2.2024230779462135
-2.17245826963490662
-2.14260306268615386
-2.11272920450461532
-0.493484768755270919
-0.50595445340860512
-0.507168295504032085
-0.516612155375754556
-0.498650545802817258
-0.458487307564605928
-0.423680826182046055
-0.398952625996026489
-0.375184395752324651
-0.335228507497303263
-0.273546074013615192
-0.194161915911843341