/*--------------------------------*- C++ -*----------------------------------*\
| =========                 |                                                 |
| \\      /  F ield         | OpenFOAM: The Open Source CFD Toolbox           |
|  \\    /   O peration     | Version:  2206                                  |
|   \\  /    A nd           | Website:  www.openfoam.com                      |
|    \\/     M anipulation  |                                                 |
\*---------------------------------------------------------------------------*/
FoamFile
{
    version     2.0;
    format      ascii;
    arch        "LSB;label=32;scalar=64";
    class       surfaceVectorField;
    location    "0.209999999999999992";
    object      Uf;
}
// * * * * * * * * * * * * * * * * * * * * * * * * * * * * * * * * * * * * * //

dimensions      [0 1 -1 0 0 0 0];

internalField   nonuniform List<vector> 
20390
(
(1.01675096696729605 -0.199868881861599901 0.179902908070427525)
(0.506794543318497603 -0.70749860358664507 -0.152799066693943164)
(0.724187775673185041 -0.141598000503703053 0.370172519343731521)
(1.23668847750105404 -0.084380364099522584 -0.0280783050603858192)
(1.12779224416834167 -0.208704897711114307 0.291078211282091159)
(0.452841688626788974 -0.0793478981249697846 -0.0781124026290315743)
(0.635646280486871107 -0.166114400381833005 0.243910443967432722)
(1.32298823801847054 -0.156153418868140853 0.196236046418399285)
(1.30539120194139557 -0.145904210125424927 0.337776060083161467)
(1.0302591480564316 -0.082434114917486756 0.224850274387462412)
(0.970961499405890383 -0.131226398551078954 0.221644923621202222)
(1.51433920583148129 -0.115972968679183358 0.234374822300372626)
(1.45867279368821423 -0.125109624081540582 0.454688662933737164)
(1.26642832707448294 -0.0721955177933366471 0.405115817738642747)
(1.11421699938045649 -0.123930604716882456 0.337778430868359791)
(1.6704725778190479 -0.0995890521974539672 0.346672137781608436)
(1.60594256980506511 -0.117790528129381677 0.551598561870148218)
(1.39470584118974794 -0.0720802448687816177 0.505680255995621164)
(1.29100838386191752 -0.121700177240084556 0.450412664452885747)
(1.82608292597460675 -0.0939440277657507261 0.453522885603674542)
(1.73486102146239651 -0.113856880134322686 0.606920723138854479)
(1.44853325938458077 -0.0728430339419493394 0.550443151836850664)
(1.42465329397787643 -0.121227282710545128 0.528398486491772235)
(1.93853860825457014 -0.0921598339532729849 0.511632509033103533)
(1.85226245283941893 -0.102381180390109239 0.637137828172385179)
(1.4809244554360379 -0.0811440561219308465 0.559056386506877168)
(1.54568625564910977 -0.116007017725980668 0.588425528895458183)
(2.03417683632028368 -0.0880779138645047116 0.543539220670909096)
(1.92670561066407631 -0.0856931858326376028 0.64924813117971325)
(1.48919785840964769 -0.0709796012332096493 0.562383560009857675)
(1.643690936832644 -0.102970819261136631 0.627827263155551152)
(2.10708811970254484 -0.0782213034151145459 0.560310174522912763)
(1.94848114794661731 -0.0762527051013755092 0.649108459468676346)
(1.47485091655251344 -0.0575429348340559949 0.55084659888115084)
(1.69638561254266906 -0.092284131195623495 0.657049611695142532)
(2.14954463617875291 -0.0688162448720464753 0.563738707305218467)
(1.97583576675025352 -0.0743667623200352512 0.636776240014096273)
(1.41112294287666407 -0.0940032406993523417 0.527903611562637987)
(1.73274102508193195 -0.0855427462353648277 0.712055268016941412)
(2.17782512654205629 -0.0650265443199648657 0.551402584861073852)
(2.01290215419351926 -0.0728548940976040116 0.61515963293864806)
(1.37169513624972916 -0.112537687853742532 0.505142420487422861)
(1.7739942585046371 -0.0810715385619403123 0.725727841564629328)
(2.21566097436998133 -0.0620480506403478307 0.537718335278062454)
(2.06117132784213153 -0.0698248983842195969 0.594648065001587733)
(1.39564756673095269 -0.117637166044884875 0.492281045005678541)
(1.81438576013777064 -0.0772474769067536121 0.716402236436935902)
(2.25887218087776276 -0.0583025736187159985 0.529397022774905079)
(2.1103360504901274 -0.066751540065531495 0.580468734607945791)
(1.46032600024544701 -0.112938021640414735 0.496689492572772118)
(1.85805171032386207 -0.0729055274659388131 0.703248749764375458)
(2.3023743447840177 -0.054792304665215473 0.526537474056857357)
(2.16298098484085255 -0.0640604569368415366 0.571945656040663719)
(1.53197292167690868 -0.112952360142365843 0.509936744793188956)
(1.90708763269042514 -0.0692141618494719474 0.696318976922703614)
(2.34580314373343102 -0.052074855644308686 0.523058910120181575)
(2.2149340244430773 -0.0610724624323904369 0.568115276339072772)
(1.60167434908584694 -0.108324892908863046 0.525049380030128909)
(1.95742246078769622 -0.0662417332330969971 0.687386032929024116)
(2.38880926877343569 -0.049609792653168755 0.522689033518507262)
(2.26250066146572948 -0.0576201712157851306 0.567144967968863822)
(1.66768114101002229 -0.098318237534657571 0.540639828608604267)
(2.00905547107483295 -0.0639090550258989559 0.674746192007954604)
(2.42982353403151796 -0.0472007879160980595 0.525676165301863008)
(2.30803872161420687 -0.0540039935670012031 0.568531563041427823)
(1.72623183811985736 -0.0905963010213264031 0.554516954202860735)
(2.06118687892067998 -0.0614946461764669314 0.663933774606290439)
(2.46788115637403527 -0.0445527644890166274 0.528278864530102088)
(2.35151037740096802 -0.0503203573866644605 0.572444165098074276)
(1.77311349108613103 -0.0833890672979163972 0.570805657703744695)
(2.11054356907144491 -0.0588690499793892083 0.656454480895568793)
(2.50308850939978988 -0.0423720664265360078 0.533147803327606473)
(2.38837704178741417 -0.0463124630113341401 0.576965795378591384)
(1.8120717293989006 -0.0729526775011220818 0.586201487417034928)
(2.15667525289070339 -0.0561019187600364719 0.648620103188164099)
(2.53511412468739739 -0.0402121563112207564 0.539581492067821689)
(2.41696896531305017 -0.0423073128139091481 0.580925726593385483)
(1.8471824294507404 -0.0626750930143275403 0.594564651152793222)
(2.19881648563565779 -0.05260412820484376 0.64084323753767003)
(2.56222883079244479 -0.0371079599159859427 0.544085091282213607)
(2.44279299919211734 -0.0383993360851956414 0.584143578434615396)
(1.88326645089592337 -0.0570652085602987441 0.599662015450093344)
(2.23457025586942404 -0.0487284544421739615 0.635871553997410022)
(2.58430346047696169 -0.0341148675571095739 0.547565193093055846)
(2.46321943013881883 -0.0337758103948196178 0.585644773366590154)
(1.92071933875033074 -0.0502989806032387646 0.601766337198667234)
(2.26525194001858221 -0.0442763359240918308 0.63097013085255782)
(2.60281110653677406 -0.0306101527412664248 0.550798563368615657)
(2.46936050589809764 -0.0278498020701206522 0.584583686689556403)
(1.95818125204554661 -0.0402604762184460563 0.600165465600480896)
(2.28666879071935369 -0.0386881409851663957 0.625809912006597857)
(2.6117292477988534 -0.0252228858804756616 0.551429909051669553)
(2.46367065964707432 -0.0213906564293738395 0.580975811149063937)
(1.98477171468562053 -0.0314560847554109513 0.595299180581987164)
(2.29153004790484882 -0.0317071820537776147 0.618518406415756838)
(2.60552586786622609 -0.0191193530706206399 0.549916176255400124)
(2.44613789110374702 -0.012911299425923322 0.574954423572048401)
(2.0004670310655186 -0.0219214037834240504 0.588174859138552275)
(2.28216618499736157 -0.0247237967293385229 0.60742522051274217)
(2.5870793943206305 -0.0119849651857393599 0.546049403443944481)
(2.39435143739724898 8.16991067710423841e-05 0.56519940219892717)
(2.00907119316990457 -9.01515287481460814e-05 0.579627403481367209)
(2.2587693201931085 -0.0143267595323494056 0.59401384827535586)
(2.54818192299540458 -0.00196750046370330976 0.542046923951563286)
(2.29516787965336677 0.0163032736036693333 0.550336243015000504)
(1.98380073068347174 0.026640471467339201 0.566335796969898886)
(2.18379712973661144 0.00253497202858895664 0.577753959200248746)
(2.46857196666335232 0.0115207053281915495 0.531851224553124613)
(2.14364397746967095 0.0372336988579029179 0.529874563957068001)
(1.91551962992233582 0.0526333291751345453 0.549370880408957207)
(2.05569428785126274 0.024065310691252919 0.559896334359816006)
(2.34551316700554935 0.0275446082749764357 0.51363894894647244)
(1.9206498175252702 0.062643901422771292 0.505022599026125452)
(1.79724642736978102 0.0930463274207995322 0.52834616713342919)
(1.86415993508557132 0.0497607916514730339 0.531003933230491443)
(2.16801223458852288 0.0463981200926694426 0.494102200562557492)
(1.63121502500635351 0.0848643008108765501 0.479875529030648895)
(1.62729727282307879 0.13148558910218977 0.50397617884694268)
(1.59084574939016199 0.0783405051432975452 0.498956106712529213)
(1.93266175949762675 0.068071857911587888 0.472492522816645999)
(1.29219866470661082 0.0951521127230252062 0.45967964621259555)
(1.39939896658521135 0.16013912010799411 0.476488894358825854)
(1.25392367547959771 0.0953125885604229478 0.470818184005945051)
(1.63948091342082281 0.0861263761370686665 0.452080754796163664)
(0.935330069734058189 0.0892032457882670077 0.446245048007113454)
(1.11735736911862382 0.168798234622546395 0.453651436954018716)
(0.896947849878618197 0.0908229450720959286 0.455718055202595618)
(1.29505420160278173 0.0928396419946878604 0.436446951987567888)
(0.60619447630046519 0.0710609346416036514 0.430110234454119278)
(0.806164248962542906 0.154234318380102875 0.438421663358037339)
(0.577363009955349837 0.0720440514474189747 0.445985811983566682)
(0.926774188844707636 0.0851133686470468553 0.425319500452383703)
(0.357958002038611556 0.0493740355379214263 0.396197035031344957)
(0.511033164602064049 0.121446588429625538 0.418751823748297614)
(0.339121489731900649 0.0505540612551577395 0.41574325893901104)
(0.584028830587435932 0.0675843112393226669 0.410400057627313408)
(0.209324178906270447 0.0320979893614621731 0.344093186279678775)
(0.300635621281298282 0.0828247755313097772 0.37850806776373197)
(0.201345356640057871 0.0328595286827705127 0.35942649796209003)
(0.332759638007960046 0.046307665556249808 0.376442635716937868)
(0.123999401964645595 0.0228553851478208066 0.291973089124225815)
(0.177630032329865239 0.0550259045059161012 0.322529149714812224)
(0.127956272925023984 0.0227270522115363693 0.299740762223583479)
(0.193161182617754557 0.0296196055373780416 0.324469797365412205)
(0.0601733004174901595 0.019704748503574121 0.257605021846161075)
(0.0978898028632132489 0.0426210714292829945 0.274143311801101297)
(0.0746280438916056832 0.018766732385106108 0.256967866982093063)
(0.107607235971990275 0.0221488685759065052 0.278387546253868801)
(0.0317390362146625707 0.0391106250641256106 0.247715543825603013)
(0.024706720647995218 0.0178151474517159146 0.236384032122616522)
(0.0352213699505157726 0.0205185458312496793 0.254435746973633303)
(-0.0895399486329692684 -0.416268790904955943 -0.410814377393402153)
(-0.0426122404772558486 -0.412307356487676802 -0.527514464955893381)
(0.197804088680722107 -0.401609553462621172 -0.445582739933585714)
(0.502213626416466385 -0.4403496031853526 0.0552758019278776214)
(0.377112016400326544 -0.093631929159833524 -0.144340339523661987)
(-0.0916231569666935142 -0.232010887774397601 -0.236290775010622789)
(-0.12089772761469611 0.0281912419477992893 -0.406006796379917656)
(0.681914665961964039 -0.118045525882779001 -0.244662695965664478)
(0.966987073825964605 -0.124072249385315539 0.29219003204294286)
(0.692390414123268738 -0.241472101521750249 0.2487303965756269)
(0.277787764445370844 -0.0997519041255260502 -0.0654510689861684397)
(1.36919532519093012 -0.159675525794496231 0.206336136279445859)
(1.20898461394516854 -0.112083074546550893 0.456107410800526636)
(0.826318070851423281 -0.173021636646772586 0.400963767238560198)
(0.640224031421200657 -0.0770165490780798656 0.340918630342517015)
(1.62206108642846125 -0.15461194655985247 0.381251708408866019)
(1.24197849201354327 -0.0982231342294178633 0.50452484596232372)
(0.772976268772160302 -0.102274878753786685 0.409605522518869614)
(0.810968337842141174 -0.068760867280802454 0.461785569669342033)
(1.65654713371409912 -0.143851824711904552 0.434380768972408959)
(1.19411978567613297 -0.0859183395586987919 0.502578815204873686)
(0.642424385155658029 -0.06659581690742164 0.377850421595529173)
(0.835254277900677411 -0.0420288602261831151 0.481468053284258235)
(1.60012579417174639 -0.1255022278062215 0.446100032579576811)
(1.11697818432306306 -0.0831401131563455492 0.484302118344349553)
(0.586539882096575038 -0.0588531241775108668 0.352356474822553833)
(0.796960560267960361 -0.0316241880416245347 0.463991996011132724)
(1.51886747573973668 -0.115912593504995776 0.431429899776227477)
(1.03801021415437189 -0.069600880704553364 0.463982027711295486)
(0.542408326648738837 -0.0488788975966555767 0.34468362904182992)
(0.73413486399916239 -0.019533445198674431 0.444320692334575496)
(1.42802148499720438 -0.109208180514691139 0.409550767628287626)
(0.93410349672056292 -0.0709308907791676019 0.429641750975112313)
(0.530800256701896567 -0.0208971822473482394 0.352461939028682059)
(0.691633234571418232 -0.000113715415534305822 0.423381634445367361)
(1.34757209633576513 -0.0977024602075978882 0.392765402366435867)
(0.808575766720424749 -0.101279045933344886 0.396269792035964352)
(0.473670178687109422 -0.0338823574891614979 0.341282793648974903)
(0.625924995090293756 -0.0159694228214233881 0.384376011465610401)
(1.25767841157113258 -0.102229470542203882 0.379088719616031411)
(0.756421369124717691 -0.126243438403911779 0.382263832554453509)
(0.447559044503396453 -0.068959520811040162 0.335862868129937431)
(0.526102748687155231 -0.040453120766768623 0.343461213468407578)
(1.20963195079742913 -0.11013207670161311 0.378462217742178586)
(0.795099793714153402 -0.13422452876201782 0.394322472576863203)
(0.471551080946104428 -0.1022179225803104 0.346614042278137247)
(0.486632143638836445 -0.071981308578314987 0.318530161739499607)
(1.22737597806879184 -0.109974699910782528 0.388050411170251019)
(0.881038260191198908 -0.135259344776903739 0.426157502758015172)
(0.543483547251679577 -0.117433360712798293 0.37920585260125983)
(0.534084430361336016 -0.0953891638611641113 0.335337020774329975)
(1.28263004599372898 -0.108021570036778522 0.412287105820304978)
(0.970285266321789241 -0.133628184843924303 0.46304046878265398)
(0.623679396874125658 -0.120043936979493227 0.419367638172539359)
(0.613060014889648563 -0.105379693174422126 0.369846550009662767)
(1.34428347667234593 -0.104935132343526 0.444909885508276148)
(1.05458228534479437 -0.126070025454302542 0.497573932299660349)
(0.700864878251528101 -0.115348774245191063 0.453128852018084449)
(0.692762335718412614 -0.110174781140993119 0.406148742487392245)
(1.40669590430861025 -0.101243970152182478 0.476398516988179643)
(1.13136159703187578 -0.114145558326164021 0.528011814842601179)
(0.773612458147333149 -0.102944464395848048 0.480721073109371622)
(0.772563608922690825 -0.108611136314203147 0.440493427768104295)
(1.46304375566038702 -0.0945047853479047684 0.508019299623583165)
(1.19050789270811253 -0.103390339715726351 0.556791048865178051)
(0.836180229166689215 -0.0890026971236724807 0.500803444947509391)
(0.844803859958772607 -0.103837891016210909 0.47108548617808621)
(1.51144671448543244 -0.0864221698663857202 0.533416966630281819)
(1.23409262820750398 -0.0929525392807379197 0.584562980022705347)
(0.883417212482221381 -0.0774973462781037292 0.516784926413170753)
(0.903491119135697796 -0.0970913022449026442 0.502563569215800143)
(1.54521726346412147 -0.083067146971456729 0.557932203844752284)
(1.27173574830422087 -0.0811691688053109289 0.603800343191236655)
(0.919181777602857131 -0.0690567028752475942 0.526098221415814415)
(0.951271912072357617 -0.0885454082920968388 0.532471188369023962)
(1.57017627546377025 -0.0799357186189599972 0.577908386485240122)
(1.31323899715069814 -0.0718067577793572581 0.613300940009501083)
(0.953932270640929003 -0.0626812376605768024 0.525604325287832075)
(0.995570191749069577 -0.0781320362759733572 0.54865369171412981)
(1.59747726716908378 -0.0736400731350346227 0.590145935122368126)
(1.3610577240954671 -0.0654479291112409628 0.617284774214145182)
(0.991670744073613664 -0.0613592298268275591 0.521813369274659045)
(1.04978245425581362 -0.069730169921724261 0.559059999557016352)
(1.63296007530170106 -0.0700662345326653613 0.59829093042401793)
(1.41575290496695194 -0.057563627055717867 0.616287029432557865)
(1.02745373947732488 -0.0618141863160095451 0.517436519336272438)
(1.11292699858537336 -0.0605352090674609669 0.568698647894534504)
(1.67348586734071381 -0.0655341556947353354 0.600363151407072193)
(1.47360780637546362 -0.0475578546182518561 0.610880959492911546)
(1.06517787615305659 -0.0570926533312189621 0.513364069024705993)
(1.18835394029293484 -0.0473970429155785924 0.574939432973818776)
(1.71902724442565935 -0.0571190167099466586 0.59912935799664413)
(1.52233744640157331 -0.0366848091599641726 0.602498228571475503)
(1.10333001871989778 -0.0450499628331204674 0.50955941101290303)
(1.25985092121640685 -0.0326984742690734839 0.573278090552882813)
(1.75966878774582947 -0.0476059039016707708 0.594819360506911643)
(1.5646107133608429 -0.0193605642188208853 0.592847839047871195)
(1.13233711071995513 -0.032093001828332246 0.504851065409060329)
(1.31409546223086604 -0.0190801423811014816 0.567606583338027715)
(1.791807968923254 -0.0347753770715839225 0.589536404408769532)
(1.59693890177377917 0.00903050407974872842 0.580763798252339147)
(1.16703275556381314 -0.00518463944115581631 0.500811441753550857)
(1.36144594430132049 0.00661779872176487816 0.560142837773739855)
(1.82207736474345405 -0.0138578030205155096 0.582282108671274279)
(1.60221277362788506 0.0428339619645579234 0.565370434363855368)
(1.18610680494710397 0.0345174168811753362 0.494328563428574175)
(1.38952038914615561 0.043777077859331659 0.548518377638585464)
(1.83152316720409192 0.0164015766288745646 0.569546266341066754)
(1.56884657963715113 0.0819887641984098081 0.547842483585318507)
(1.1761495967645732 0.0806493816094549093 0.485746548527934086)
(1.38535163097828629 0.0819782324854786693 0.532765425930471603)
(1.80394487874999321 0.0498038829637799801 0.555431440469488336)
(1.50449186659380829 0.129099436583740457 0.527299746954246196)
(1.13840065434070126 0.13480710671284199 0.473526915589868702)
(1.34935200917935427 0.126110791829465718 0.517006712871333374)
(1.74283093607345618 0.088665485847679637 0.536174293084655584)
(1.39185309163495852 0.17806047426054572 0.500589544175119583)
(1.0885601210699849 0.195616251899465299 0.460358792131922545)
(1.27595878165279064 0.176574013760630699 0.495811096612565783)
(1.64781303273851965 0.135162689986664475 0.511435570185091781)
(1.21751742146381026 0.21539152209306564 0.470460685100249076)
(1.00835890415299612 0.253316086235272131 0.441361491873966505)
(1.14425288827097305 0.215516941707577431 0.469271880984022449)
(1.49725241560344102 0.184139103110851049 0.481292502671048894)
(0.984404261555138604 0.226345886253927014 0.445828052304942324)
(0.880540326462067702 0.288049607774807703 0.421893834021441538)
(0.935227393903970472 0.225566450462893364 0.446701012022600652)
(1.28185862946823814 0.220178533278321265 0.452092218840376869)
(0.716972464810943788 0.205302396907589391 0.427063252652215508)
(0.70221350298367391 0.285727621536797705 0.408660340466718786)
(0.682092205118534078 0.204679923021446053 0.433894178577044043)
(1.00867333207578636 0.228748648759648232 0.42944987902523446)
(0.464589993689141501 0.160426839441467378 0.401062856480685792)
(0.494464439082332341 0.245546267228434062 0.396525003571168655)
(0.443176272960976614 0.162137355502491254 0.41568551905321427)
(0.708657011555155369 0.204058315535486534 0.411504232504592671)
(0.275644883154534448 0.11243590476535123 0.356944031198865974)
(0.311362807801110419 0.183006090631661122 0.368110816135267249)
(0.267404373833312392 0.114486572757188237 0.372116356426489214)
(0.438809642506404862 0.154562883190843742 0.38353893342010964)
(0.153757118896427125 0.0795282787312392297 0.304699372391687096)
(0.184525761006981731 0.127475416913595041 0.31986800086482442)
(0.158172681991644942 0.0795949815418060813 0.314201541434277476)
(0.250691024629574877 0.105278153859836549 0.337221397742498985)
(0.0706612746071651476 0.0643043991524172021 0.264253833780542791)
(0.0996442787157943571 0.0955710941294485722 0.273109159494130005)
(0.0866322425888126357 0.0620094891144610041 0.265997247440010687)
(0.13022656262395646 0.0761646731961779788 0.288811056345534778)
(0.0320083615888944253 0.0836737563121240785 0.244552925118174586)
(0.0280722478272450865 0.0556267079194272679 0.238926534905148841)
(0.0408765305597242612 0.0655570274218140459 0.25739870790916175)
(-0.130414119374204385 -0.312336945860320681 -0.352990862573118291)
(-0.217787623579046963 -0.2116731503652865 -0.728936445083083306)
(-0.100728928969635298 -0.238290687684304836 -0.605301004305268564)
(0.584834013000896769 -0.234655939241752487 -0.334408251140717594)
(0.27329842713351804 -0.258036628456781991 0.156779961088664932)
(-0.170958673492471624 -0.254383050022415236 -0.0389117635341283893)
(-0.191303724048289742 -0.110441886146679685 -0.276431719153356514)
(0.796923372299309207 -0.256348655701581774 0.0824865368943402955)
(0.525727517563440272 -0.202058383534548525 0.357504131771243572)
(0.110201110117566115 -0.218531524088385276 0.188671955905328342)
(0.150676510483678916 -0.13075092627821841 0.0289951464635217621)
(1.10157729406548643 -0.267629132422376403 0.32730075930322361)
(0.397277618499870366 -0.0965231608452130352 0.354461878956902843)
(0.060251178631351654 -0.0479906790467885744 0.200864798572635422)
(0.15272579005735662 -0.0762262445486355661 0.25924419578330804)
(0.926406389702124189 -0.2081771429639242 0.380875176986096409)
(0.17858461263066297 -0.00411049612493977548 0.282931098152075178)
(-0.0241952293017588249 0.0596183990775470199 0.153422653246692048)
(0.0320384009525871913 0.0138564079951331368 0.231088741298700412)
(0.689304380761318836 -0.116417050470755415 0.336183384724531409)
(0.0383344437088625617 0.0218982541307896558 0.227628081213209765)
(-0.12719372420804595 0.0603685254416031561 0.137059587724588511)
(-0.107200677491155444 0.0560966370778809981 0.170521900529326448)
(0.462220062890427941 -0.0523072921804509094 0.284219445217023525)
(0.0100317232123261213 0.0149582293969128411 0.212737985520034117)
(-0.134675717045014076 0.0151462032823309126 0.145431464149625655)
(-0.117531928740005981 0.048602431306061511 0.139498694372882509)
(0.379432515446587904 -0.0421561756303771018 0.259202676593530579)
(0.0299498679468033838 0.00897221306254128957 0.23316354035921677)
(-0.126214927286536632 -0.00834657198844677463 0.159284522247062799)
(-0.111063579812905294 0.0338933577597217844 0.151681147640246844)
(0.359205252308642364 -0.036221679506317217 0.252675533876239533)
(0.0724007608244569695 -0.00776909557373515244 0.264102981702544426)
(-0.0930687165434514463 -0.0112323056770845756 0.190720175213914017)
(-0.0718435157938783764 0.0207845760088964174 0.19866046821482225)
(0.376405839260840147 -0.0433122447944249492 0.260441693207270952)
(0.114895869873920906 -0.039538098621100512 0.280875869742947704)
(-0.0675359388702232999 -0.0233692279727860421 0.206999618152641895)
(-0.0405733696218295928 0.00227158839505297314 0.216440684317430881)
(0.399712529106962866 -0.0670796197361433616 0.279949133509114989)
(0.165109400349158664 -0.0748511670785800276 0.300213077853621224)
(-0.0231915072965087343 -0.0489004449960352 0.221663681857364459)
(0.0120012738614047008 -0.0132933137435489335 0.215879431499792274)
(0.4476840103885249 -0.0868857868136682227 0.306207742202951549)
(0.219249003858443675 -0.105098576329704582 0.331497422302534206)
(0.0186564256404041229 -0.0729776831473523679 0.247233054364726257)
(0.0520704852747738006 -0.0537358019591457625 0.225945864312919048)
(0.492684772703274987 -0.109887679390167622 0.338570012235583917)
(0.285348322351407613 -0.118794291178199521 0.372415988015784072)
(0.0734686915411598418 -0.0886060460304523984 0.284417554395891614)
(0.0912256727075457241 -0.0804764175993437775 0.256657149806825802)
(0.550451523196839654 -0.122181828687032284 0.380403705981247175)
(0.353957084800223309 -0.118648974933391202 0.409456021407969772)
(0.1346217556182287 -0.0899211323400092993 0.319717230210887382)
(0.142669656296757597 -0.0878974167500916337 0.293858818041928149)
(0.612134096070758416 -0.126300980374417504 0.422708973494248408)
(0.419051424466780453 -0.108649237503433374 0.436275992827795611)
(0.194914706218492523 -0.0827931691033567257 0.343700664764341357)
(0.20165015968288813 -0.0840846654024798301 0.324636845813717212)
(0.67158342443031549 -0.122559621497992169 0.454838535744878703)
(0.478602139591838505 -0.094320482895288521 0.453512703214279667)
(0.251905626197610477 -0.0698541751360986507 0.358492436057392672)
(0.264554630588443807 -0.0756240598702945521 0.352409415556883598)
(0.723197595241653612 -0.115451577813681566 0.47812740463855774)
(0.528710471488516798 -0.0803785151495420014 0.460797322495502371)
(0.304262320572460832 -0.0549050776722236206 0.366210744851096837)
(0.324246869103374746 -0.0640841372209499383 0.372051502034690007)
(0.764351822196401631 -0.103617933762315914 0.490345966283037171)
(0.568247850916762554 -0.0693680740827909564 0.458320167806279599)
(0.350443483143675183 -0.0423733194573260377 0.368190943192975295)
(0.375263679520047244 -0.0520178267985945755 0.381560130380105833)
(0.794480618837784647 -0.0972415623243211708 0.491348586134521315)
(0.601816281945704579 -0.0621601973278645553 0.447902203512409613)
(0.386571574054323297 -0.0338272132453222921 0.363226960148206213)
(0.415488263153559301 -0.0440383524665082723 0.379913607892351457)
(0.816399667201417434 -0.0928312808367168923 0.483946661477558271)
(0.633376101478736908 -0.0593786813464215121 0.434116754552990092)
(0.417157455644505348 -0.0285185137398217305 0.353257488537245368)
(0.44937876733040405 -0.0406919387596876708 0.371562572957597925)
(0.84266306431726945 -0.0882258397719744847 0.471449611484250741)
(0.658119728896657707 -0.0578088899883032609 0.421965114396786245)
(0.444204387898209374 -0.0247804294943582311 0.343957877872247297)
(0.480284177611031482 -0.039751631749651177 0.362460265359919487)
(0.868146231119581668 -0.0863266253239036024 0.46036113676128787)
(0.677951624268285369 -0.0530686982961691978 0.414513558928420567)
(0.464544603949515578 -0.0229804970688724484 0.33912351184922096)
(0.505079084012391322 -0.0363751896864272298 0.356949766373054922)
(0.88875977452682331 -0.0812901834111203342 0.454447660424510735)
(0.695245830903624462 -0.0439646860366636402 0.412042520544697533)
(0.479085204058540604 -0.0154952765337328484 0.33758826396787367)
(0.523870451904507872 -0.0290303821705806854 0.352727003512424531)
(0.909280133062323692 -0.0703953686075223239 0.453213791068900362)
(0.715092143565387972 -0.0315446481058378886 0.411912247850487689)
(0.490560484084565318 -0.00450193617366557476 0.33811197861091985)
(0.543981140987474743 -0.0177097549077073965 0.352672640809513882)
(0.933024420638003726 -0.0561515239355047865 0.453613845128787718)
(0.734743073343398501 -0.00999551358308722014 0.412814668114740102)
(0.492431242679363224 0.00904988147106267071 0.337826446423862503)
(0.562955913619926807 -0.00108050956560515332 0.35303427114230429)
(0.952003612306673408 -0.0391279182358109309 0.454971706415955912)
(0.754202343784079798 0.0273039161094404369 0.414376206929786162)
(0.498788844559659661 0.0327505612304690025 0.338788306979584619)
(0.58694167459528046 0.0326418416757223925 0.358720265732810517)
(0.974187085448548151 -0.012491557732078034 0.454051599758352686)
(0.759570666884198054 0.0764266375987216473 0.414704677592652782)
(0.503507721045538981 0.0773181708154756092 0.341979449256996137)
(0.596241088264177543 0.0769881464792541992 0.36332666730798141)
(0.990991752577845997 0.0292049949044902446 0.454297990048112721)
(0.74407990297457105 0.132239647537145399 0.411430980532484225)
(0.50085847444890641 0.130592493385200653 0.345657927838540158)
(0.590564308461881682 0.127238057646707342 0.366724559418031282)
(0.980590858223347794 0.0809724472132727358 0.451121344146270031)
(0.720946672851847992 0.191275454064168432 0.406585960767544774)
(0.483670966049729034 0.18184385460491248 0.3462841827754779)
(0.575150904875062707 0.180947152464936312 0.368593631708579228)
(0.944447192446478678 0.136820434576737815 0.439535624277200832)
(0.700401568636741634 0.250498307110694318 0.401130739830769301)
(0.471166251123351643 0.232750371349824597 0.348574980835568704)
(0.576263012262953844 0.238520722013767172 0.372393122769803964)
(0.897547043453491455 0.199138283118540066 0.426118487897456544)
(0.664906297852680739 0.301012674751990617 0.392794640795158967)
(0.464679447284048752 0.289253389508978442 0.34981134559360505)
(0.577227687377918852 0.290569665709507596 0.374562724410597014)
(0.84459963184264053 0.264314199579421483 0.410944058035488391)
(0.594247578848524305 0.323462970482190526 0.384726122183217722)
(0.448271035589594025 0.334265610164707849 0.349685572347272267)
(0.533637786135433334 0.313650343098031192 0.374204692513918358)
(0.770827206927511943 0.316557913568730864 0.395979010947329679)
(0.482810897340026024 0.306003304307682578 0.378122091385671988)
(0.401174827290369129 0.34530052887608087 0.350898344622059266)
(0.440845024213453007 0.299928098120489151 0.375793557093787645)
(0.657892227400012075 0.334554261664109009 0.38350299628942297)
(0.350364991291565731 0.254148841944418502 0.363572963225750778)
(0.320710859140432569 0.313390018745989818 0.349225929770199117)
(0.324340168906168791 0.253199215002335332 0.369553396467171114)
(0.508301603649468414 0.311186253341268371 0.372796151204629223)
(0.228664225447537645 0.189662853641620138 0.331034785801225917)
(0.228204316102252419 0.249629794748118972 0.331690354393093911)
(0.216931534392048819 0.191055085672514613 0.341461577010680362)
(0.348441464659862088 0.250279292221066929 0.353012084245722779)