/*--------------------------------*- C++ -*----------------------------------*\
| =========                 |                                                 |
| \\      /  F ield         | OpenFOAM: The Open Source CFD Toolbox           |
|  \\    /   O peration     | Version:  2206                                  |
|   \\  /    A nd           | Website:  www.openfoam.com                      |
|    \\/     M anipulation  |                                                 |
\*---------------------------------------------------------------------------*/
FoamFile
{
    version     2.0;
    format      ascii;
    arch        "LSB;label=32;scalar=64";
    class       surfaceVectorField;
    location    "0.149999999999999994";
    object      Uf;
}
// * * * * * * * * * * * * * * * * * * * * * * * * * * * * * * * * * * * * * //

dimensions      [0 1 -1 0 0 0 0];

internalField   nonuniform List<vector> 
20789
(
(0.0622691300184762611 -0.0146680259787240301 -0.00875005176381588555)
(0.0312496540313250276 -0.0277601560421002098 -0.00836287737917425222)
(0.0309419714877166227 -0.0134192647154261335 -0.00827316389587066763)
(0.0311915243274078213 -0.0134470301777435686 -0.00844313818922239404)
(0.133899070274273835 -0.0159735854949224279 -0.00974028916724900204)
(0.0972307037249387218 -0.0319228404530905799 -0.00908809012800748314)
(0.0966927381687904403 -0.0158819358808771835 -0.00902647729864821356)
(0.097485602296018159 -0.0159233224841554173 -0.00920102964068934999)
(0.205693968518113057 -0.0163215577916376135 -0.0113545842083680303)
(0.167387041329621483 -0.0319993322929897905 -0.0102918967575352186)
(0.167571189842662394 -0.0160175671549931606 -0.0102307879670639566)
(0.168988253725536469 -0.0160723914679386792 -0.0104116992709950059)
(0.279662836387573832 -0.0169372873755838163 -0.0138424086718430522)
(0.239914603501796109 -0.0329716505506379501 -0.0122827777400039365)
(0.242197866115122812 -0.0165624246877648998 -0.0122279153383466205)
(0.244440072836680622 -0.0166364067992530382 -0.0124210375363990825)
(0.356735304137184239 -0.0178195732142648958 -0.0174302247229313895)
(0.313552645496331217 -0.0343605523352521272 -0.015219731940703354)
(0.315938219858630909 -0.0172286460119250411 -0.0151672166356311301)
(0.319181535570328967 -0.0173258650941937389 -0.0153793774934272917)
(0.438953104989138476 -0.0191418974085566899 -0.0224928946271428024)
(0.392430025221379875 -0.0366664226817414729 -0.0193943414593925056)
(0.394863586605532391 -0.0182977002064378114 -0.0193462711508951002)
(0.399448047030746434 -0.0184315949603075964 -0.0195965367978133374)
(0.528020310595497366 -0.0208030435674007898 -0.0295868707622230706)
(0.476466515636773058 -0.0397318696669875029 -0.0252448160319775697)
(0.478436827232676165 -0.0198245526320360577 -0.0252021995499309391)
(0.484860363377083048 -0.0200220349857988256 -0.0254949992897801903)
(0.624728362896092237 -0.0225440791553496375 -0.0394374043485857112)
(0.569603259416630814 -0.0431816829299299862 -0.033425222751213006)
(0.571935647419853366 -0.0215439994414520948 -0.0333809874739399229)
(0.581007492816813742 -0.0218278527140871523 -0.0337815596738901963)
(0.729142437639225371 -0.0248352525989110479 -0.0537036452341122239)
(0.665883428145221945 -0.0466285241155656241 -0.0448173423465250131)
(0.666183284708519619 -0.0231816171023221246 -0.0447217078406362684)
(0.679114223132044947 -0.0236569979523305295 -0.0451661887515538707)
(0.844018257660238747 -0.0263726388699066505 -0.0732979645872603586)
(0.777434095327346197 -0.0515929394358492777 -0.061456588382166305)
(0.777917920247443551 -0.0259349469095575581 -0.0613085177842328313)
(0.796713920184867863 -0.0265299606516278541 -0.0623825414011332791)
(0.961945253967769864 -0.0269209229840600486 -0.103900568907051044)
(0.887703131648455823 -0.0528028089954724264 -0.0842791577162709249)
(0.883652413066869813 -0.0259192230342644575 -0.0834291967526882144)
(0.911828165620381603 -0.0272298536699903879 -0.0842108522465754294)
(1.07849493818024933 -0.0281126932459442036 -0.148237888644540766)
(1.000960815685771 -0.0543639548514089216 -0.121510667251620921)
(0.988555227418376092 -0.0263334496862152254 -0.119827519488528086)
(1.03228434400169244 -0.0281681091112613094 -0.124955777195226311)
(1.19684970270534974 -0.0277007524514193762 -0.222773746560155583)
(1.12354403240138545 -0.0548208325104954583 -0.173699562365796173)
(1.09975484102279752 -0.0278101127872661495 -0.168647594922392091)
(1.17441967246201484 -0.0302362231343020794 -0.173085087356297407)
(1.24885137615863218 -0.00446789126252173079 -0.358746111306166626)
(1.23976378135415932 -0.0459462096666979833 -0.271338890527198617)
(1.19452010501043682 -0.0235148101081860544 -0.250442850589182142)
(1.30353561630513726 -0.0277808225881490262 -0.29611159206016463)
(1.07572199361628185 0.0562897126573482509 -0.887521219822646312)
(1.28659096168783527 0.0354380982823203974 -0.468224434103014786)
(1.18129320650977454 0.0196257190464488827 -0.389336371894722533)
(1.46500649954543372 -0.00141680983329386251 -0.47235298997220565)
(0.997097473991766847 0.188898559507723079 -1.36860053811916682)
(0.9143165867124875 0.105402892328657752 -0.886753924662218584)
(1.37419658035671421 0.071073899440112373 -1.46515426032355722)
(0.0632210997189023433 -0.0445403194712606018 -0.00870091574336584982)
(0.0316112210894217566 -0.0559456981622680344 -0.00832925033074297452)
(0.0313078592927270097 -0.041296063637403041 -0.00825473590001218893)
(0.0315577780758146687 -0.0413808112284437812 -0.0084291133924391682)
(0.132688424215062967 -0.0475737561398921344 -0.00963969771829369798)
(0.0973101931957121302 -0.062885949196232499 -0.00901501102517948509)
(0.0969795384705006286 -0.0476756553561636792 -0.00893000165933442031)
(0.0977673614783525491 -0.0478021566725424091 -0.00910726795176341683)
(0.201411747552315723 -0.048123136872489064 -0.0112200902891711266)
(0.165877949554075949 -0.0626346118934768548 -0.0101959259006391047)
(0.165789133598526706 -0.0473269510989512837 -0.0101124672192173786)
(0.167204890478502455 -0.0474860981368078333 -0.0102953924001810693)
(0.272457130924761981 -0.0500459552985565923 -0.0136601010088642384)
(0.235736037695841893 -0.0646444404130044337 -0.0121453582300245604)
(0.235430722022958339 -0.0487356203361466109 -0.0120651272821402037)
(0.237601550211809315 -0.0489442290107383604 -0.0122589919969909242)
(0.348079853201949119 -0.053005171970420685 -0.0171838486771644754)
(0.308666992639953952 -0.068076829218900542 -0.0150314246109319663)
(0.307987637107787204 -0.0511155246575575595 -0.0149533408030509945)
(0.311120384865427868 -0.0513937877562626044 -0.0151654149706832754)
(0.429108467069596766 -0.0569877802301545222 -0.0221462628642272799)
(0.386659727140553799 -0.0728030005817009579 -0.0191287789785538585)
(0.385512369396567023 -0.054566648936271514 -0.0190535667357905648)
(0.389925969712729414 -0.0549541749493096393 -0.0193010073237912666)
(0.516227469617083212 -0.0618407834658285735 -0.0290831680209675154)
(0.470037734084048697 -0.078598514720681259 -0.0248567314068136591)
(0.468221512275249219 -0.0589401403144744901 -0.0247832201116318374)
(0.474402885508142969 -0.0595066392470977798 -0.0250771489546494052)
(0.611075424230790643 -0.0669854851682804703 -0.0388051607491522871)
(0.56144325212673396 -0.0855234367393078732 -0.0328505614872657142)
(0.558455392369399894 -0.0640569674483221912 -0.0327751403717421938)
(0.567105171232441641 -0.0648776728694357013 -0.0331491831347686672)
(0.712895185226315675 -0.0731636483015414285 -0.0525702854945790943)
(0.657625291343973184 -0.0921431531910939516 -0.044050502790391334)
(0.653015409343533637 -0.0688768670668890304 -0.0439687103896924183)
(0.665363842177001841 -0.0701911893937995635 -0.0444914645147773541)
(0.824161701868856733 -0.078203357277395899 -0.0724377815111768852)
(0.766548392072567086 -0.10143609210795583 -0.0600273369228962461)
(0.758935432919353614 -0.0758944675185736772 -0.0598357562491089595)
(0.776611102038528567 -0.0776644221462667039 -0.0606185815648367168)
(0.94156055099304059 -0.0807673163130156468 -0.101889256060840802)
(0.876855192138501049 -0.105791857880451465 -0.0831057695128899487)
(0.864815745291980353 -0.0780366498638955519 -0.0826338879831604312)
(0.891253398420924214 -0.0813973679704851072 -0.0842576379725926555)
(1.05971696060325038 -0.0836000943316028144 -0.146972340972876342)
(0.991541116469316308 -0.108364049138886198 -0.118118288479415731)
(0.972817412833534401 -0.079267270284282515 -0.116796287491220244)
(1.01284538407087399 -0.0841727953588512906 -0.119768738427589769)
(1.18701666452145105 -0.080026060866772053 -0.22226470633283904)
(1.11696906723280609 -0.114818505668694296 -0.1717732941149194)
(1.08359335111530819 -0.0825405266882668215 -0.168481642328373926)
(1.15193665263787581 -0.0884892239103101663 -0.175321816573113215)
(1.27486657570778195 -0.024033743651792748 -0.380817213324047055)
(1.24260622316661973 -0.100376890803174509 -0.27150786528865789)
(1.1955250029187019 -0.067123765843629099 -0.254069772175366082)
(1.29231832538341629 -0.077733797121644882 -0.284842459651722724)
(1.17978196046605377 0.168362379846187848 -0.949303752399532685)
(1.30449512032437998 0.0253036971823000674 -0.499495495445517801)
(1.2237236513637455 0.0429432719197221785 -0.424219784984129267)
(1.47218763556441834 -0.0143858222349394441 -0.529008630150842984)
(1.07638908195114924 0.449820166117885833 -1.42944936050470095)
(1.05893656780784884 0.338788410116645955 -1.01460218045809869)
(1.48613546609952274 0.226131180161258827 -1.541454778947283)
(0.063971021132643982 -0.0741526471782545937 -0.0086433456125566098)
(0.0318246103192498103 -0.0844674504903428908 -0.00825639837962904681)
(0.0316653785098338636 -0.0700193302213059643 -0.00818739699200169563)
(0.0319141253912865186 -0.0701646582030909377 -0.00836764251003343888)
(0.131594813588038734 -0.0780677344404505785 -0.00957123920752489012)
(0.096952209329472086 -0.0930319122487373584 -0.00893652319111309587)
(0.0968591786153988887 -0.0781034498469340699 -0.00886540204455833931)
(0.097636639975734546 -0.0783081671926801892 -0.00904712102534641592)
(0.200012844459662664 -0.0791820238243763908 -0.0111211938414925385)
(0.164398880244950307 -0.0931357870219717832 -0.0100897155140397092)
(0.164566417462292308 -0.0777964565308383177 -0.0100256966390991752)
(0.165956588351543477 -0.0780518092950962528 -0.0102118360991106452)
(0.270940544827996344 -0.0826492781754252642 -0.0135166818320922866)
(0.233760415839618901 -0.0962655174668610586 -0.0119945278018969079)
(0.233895053191149532 -0.080272679878142017 -0.0119410754737443673)
(0.236027335368452273 -0.0806047572252057698 -0.0121361791702286684)
(0.346199350177666676 -0.0878443980867954222 -0.0169763549123213495)
(0.306318957244731072 -0.101631265552923747 -0.0148187352424723768)
(0.30625029842716206 -0.0846397387428404896 -0.0147775725235873966)
(0.309326581553760471 -0.0850869597552282586 -0.0149895083168487299)
(0.426842284058137178 -0.0944324512059052101 -0.0218392475211402412)
(0.383840197676775463 -0.108766915006459547 -0.0188229721972615789)
(0.383451334027154589 -0.0905201683351501002 -0.0187997231860603728)
(0.387777294511858661 -0.0911452484527701806 -0.0190447233683959938)
(0.513758414933269125 -0.102364873977740453 -0.0286241248731118579)
(0.466671418255447612 -0.117371589311046215 -0.0244058182539275657)
(0.465766365437617069 -0.0975925881514443233 -0.0244071080006728058)
(0.4718139547900847 -0.0984967483308792774 -0.0246942780704847847)
(0.608208374409661134 -0.110860319951236588 -0.0380959035285047543)
(0.557825476499389072 -0.127686582971401175 -0.0321756531970497778)
(0.555929821903345833 -0.106042828623123836 -0.0322112341419700798)
(0.56435642154392629 -0.107362967632268047 -0.0325818706173630346)
(0.710291544849711909 -0.120734026643547987 -0.0515075542187084998)
(0.65345253272576409 -0.137754344674705154 -0.0430139191765652115)
(0.650132137526183151 -0.114030715878641345 -0.0430957418629077868)
(0.662178481885819736 -0.116084109627958981 -0.0435774905669774129)
(0.821841458938888492 -0.129470438004231997 -0.0706953249246092819)
(0.763205921829261946 -0.151426356098327108 -0.0584720942017897538)
(0.756952924114539738 -0.124990395355009942 -0.0585198737386076126)
(0.774030472981114492 -0.127853109881567256 -0.0593449977392047356)
(0.938693358743648232 -0.134399525426869448 -0.0993348019314648778)
(0.873859622435020356 -0.158421529790128746 -0.0805253101982364716)
(0.863285908325854168 -0.13004446428065175 -0.0804865591600340408)
(0.889012130865048378 -0.135074640211978431 -0.0818776976186404437)
(1.06086200246783569 -0.14106181963541628 -0.14291924162145897)
(0.989477157952542763 -0.164018314454228903 -0.114620894836758136)
(0.971947985440241746 -0.132366411698572106 -0.113867919288115224)
(1.01090631748004434 -0.139963227716955685 -0.116582244777370878)
(1.19611687266691225 -0.135707400172396131 -0.22101645307073825)
(1.12103740053605327 -0.178299520612468593 -0.165385935915266624)
(1.08977087292782748 -0.141958951074959622 -0.163551002941722173)
(1.15492045940362997 -0.149158540934836159 -0.170286580053523068)
(1.2762883664945015 -0.051568066325919433 -0.390186147410129303)
(1.25186096860032769 -0.147869886194902489 -0.269426551889278776)
(1.20587554464900348 -0.111432371531790669 -0.258264972587758657)
(1.30073783049981784 -0.131385762444569371 -0.281987551715290996)
(1.15762264542339111 0.292862740093617235 -0.979641103550686232)
(1.30896626278486261 0.0240633564079997149 -0.511627130915713213)
(1.2191997216008843 0.0527612681530546246 -0.436194246401315933)
(1.47613461298445481 -0.0381446994344331741 -0.54415593947604457)
(1.03901570218319117 0.702554100758268629 -1.46747746855915739)
(1.02633503064710729 0.605032773559882608 -1.05320597005088645)
(1.44483706701931647 0.400043542952894904 -1.57673658263924699)
(0.0640994679459562372 -0.103285876711256497 -0.00854957595818553115)
(0.0317667563672481626 -0.113050843491087946 -0.00815606292734367619)
(0.0317369692298044084 -0.0986429511405365889 -0.00808931809605283395)
(0.0319814334157716498 -0.0988464275642211149 -0.00827868442097799695)
(0.130189477429523304 -0.108056981883978026 -0.00945499949762791322)
(0.096151317703629488 -0.122499226644949083 -0.00881739449871139606)
(0.096276948472544352 -0.107674885739960924 -0.00875756209742396471)
(0.097036254489987428 -0.107950175784061408 -0.00894536213283727601)
(0.197931240836235506 -0.110157697338825578 -0.0109630494744440803)
(0.162463452811207804 -0.123338059739974262 -0.0099331165034527661)
(0.162860542230767236 -0.108116628049105365 -0.00988711831442665341)
(0.164214595319760542 -0.10846465718261171 -0.0100765963622257461)
(0.268366672724347666 -0.115181545423284626 -0.0132965812122770016)
(0.23104111849132572 -0.127667318950925451 -0.0117804362456006544)
(0.231524765541714417 -0.111795264448252954 -0.0117530976238933837)
(0.233602161831293592 -0.112248184037531895 -0.0119472413128809633)
(0.34300867752390124 -0.122519388147352679 -0.016665352527412601)
(0.30293184305349663 -0.13490965553676329 -0.0145227831705956514)
(0.303359525320464174 -0.118041725507277817 -0.0145174181999395292)
(0.306354131476000657 -0.118651344184910967 -0.0147255495035568413)
(0.422996123398332202 -0.131722357335421675 -0.0213895429300489104)
(0.379731479799790272 -0.144435422207972647 -0.0184034909033314389)
(0.379977644900520106 -0.126278442400566904 -0.0184305621919585993)
(0.384178938778416579 -0.127129008605804283 -0.0186674252496370242)
(0.50938220435762771 -0.142758378223752425 -0.0279573465778654891)
(0.461791532462662468 -0.155902632018006415 -0.0237969148722538548)
(0.461651990870384832 -0.136148706379295825 -0.0238697576494549119)
(0.467503197739270404 -0.137370391228483546 -0.0241440387884800448)
(0.603234208326530741 -0.154730844989068472 -0.037093668845110242)
(0.552398606158135741 -0.16957403426372758 -0.0312627500707051281)
(0.551471652470465812 -0.147889122926663369 -0.031408269960653587)
(0.559594904137077132 -0.149687217933696853 -0.0317590475973971303)
(0.705337564352815916 -0.168701105437354837 -0.0499784591596464586)
(0.64739804186878791 -0.183353589643079823 -0.0416538236406360785)
(0.645079855751630404 -0.15935637356639934 -0.0418906876464324521)
(0.65666111754301415 -0.162102742572008185 -0.0423306086926772129)
(0.817463245290286356 -0.180832716311231129 -0.0683020794754169158)
(0.757832392411966316 -0.201661909649926724 -0.0563383962353580237)
(0.752892985220438238 -0.174734681271588338 -0.0566391309208300678)
(0.769167026587498137 -0.178613737861467642 -0.0574430397564076878)
(0.934094832821722454 -0.188773699289152719 -0.0958114031035297298)
(0.868711243774684894 -0.210823850112564354 -0.0773009823633123705)
(0.85977225812396163 -0.181635593440422516 -0.0776734273124453645)
(0.88450044400101635 -0.188537698031015305 -0.0788056849624916289)
(1.06132240909913023 -0.201871282170510785 -0.13708758913056579)
(0.986424421822976405 -0.221971442184961787 -0.109700314795418891)
(0.970235641557146922 -0.187532308389322527 -0.109531557713025779)
(1.00725781846397888 -0.197292282826209753 -0.11234677016909328)
(1.20227523249552659 -0.19179837557863838 -0.213796034733807233)
(1.12456268101214141 -0.243883484675767953 -0.156799120367296235)
(1.09421291451213043 -0.205600602605771204 -0.155920326698461231)
(1.15728559148900856 -0.215025804201997045 -0.161796971853110955)
(1.28428719552315318 -0.0747575524282840381 -0.390867535394862853)
(1.26181695316382436 -0.195132310128173836 -0.2611971277837557)
(1.2156667255451874 -0.157017088661778659 -0.251539527538434671)
(1.30414384848288667 -0.18473297962212637 -0.273165055093887887)
(1.15332464147360736 0.423317447309032258 -0.999463495924185263)
(1.32221455096781071 0.0296722894758124772 -0.519625830522350562)
(1.23355799642356545 0.0642326959294936828 -0.445393590893688962)
(1.49246327532325318 -0.0576125130338518213 -0.550587338775006541)
(1.01177003895846207 0.960936336923864598 -1.49693699230764699)
(1.00179812179062822 0.875577562553759181 -1.08247900136964703)
(1.40005181949111224 0.586360654722455465 -1.59089247467701855)
(0.0636869020573792716 -0.132166681071765102 -0.0084238814678695411)
(0.0314933718875838736 -0.141458180029603059 -0.00803272966411955509)
(0.0315548112678968734 -0.127152129573083833 -0.00796205411641117376)
(0.0317915908637652553 -0.127406010507293749 -0.00816604063118992092)
(0.128496044169181756 -0.137686704142648914 -0.00929551150453624721)
(0.094960606059850225 -0.151401810201778148 -0.0086621983438672865)
(0.0952779040977273367 -0.136858272366756073 -0.00861007136426223882)
(0.096010790167709123 -0.137196454805897761 -0.00880696814438385739)
(0.195309730977270168 -0.140812752577753775 -0.010750503274609342)
(0.160089704695512147 -0.153129996540554009 -0.0097297980203295692)
(0.160734345893934011 -0.138108518201809249 -0.00970025002264055664)
(0.162041663021246091 -0.138543812214649537 -0.00989402385856765626)
(0.264974234558758681 -0.14737995921899863 -0.0130066382039193094)
(0.227667805412030883 -0.158724711388712358 -0.0115077989157482963)
(0.228515395846049074 -0.143009679953460367 -0.0115064242205994288)
(0.230524009339075159 -0.143576340280580944 -0.0116970320013346264)
(0.338772785506966434 -0.156835438562026336 -0.0162609215465144875)
(0.298628503759293118 -0.167809204513614973 -0.0141511566658341931)
(0.299565652764185453 -0.151094956078335785 -0.0141806588916858888)
(0.302458020696018459 -0.151854334462364043 -0.0143808591869545102)
(0.417890100785252516 -0.168669795271404688 -0.0208108628455363903)
(0.374467571178868808 -0.179709077982627558 -0.0178822517458604377)
(0.375371513162697346 -0.161687314399238363 -0.0179575561670569199)
(0.379417356063730893 -0.162741769200792391 -0.0181781806687215698)
(0.50347679795536171 -0.182829336659118269 -0.02710231836509348)
(0.45554379032833292 -0.194068814606166512 -0.0230452424559512217)
(0.456221929932623282 -0.17440046640793852 -0.0231857337458074783)
(0.461823515821220054 -0.175909051869649391 -0.0234408722317551131)
(0.596659492489310384 -0.198409278160537855 -0.0358229048662309646)
(0.545312409323347236 -0.211144846930859442 -0.0301404307702292582)
(0.54540833238196762 -0.189443386672776826 -0.0303899421726286714)
(0.553167876068471731 -0.191669070127002267 -0.0307023966948443937)
(0.69865574283599996 -0.216650466858997026 -0.0480137607163476365)
(0.639780481415999636 -0.228887224969909209 -0.0399924909590235883)
(0.638579156729376929 -0.204656635450282676 -0.0403715814222922048)
(0.649518579057513312 -0.208017453317071971 -0.0407754972152464742)
(0.811008037522803704 -0.232159239206418261 -0.0653372991232534922)
(0.750196485330334006 -0.251935948709087809 -0.0536840923107826384)
(0.747034091615591089 -0.224544991613292083 -0.054261688897231361)
(0.762395827271746596 -0.229408459799918057 -0.0549411364895228266)
(0.928108699804041204 -0.244697774841551779 -0.0911898940552014758)
(0.861667430368211029 -0.263361523241822715 -0.0734880372216743377)
(0.854288928373098333 -0.233262443488948923 -0.0742281246417027946)
(0.877679343137887757 -0.24186545399310741 -0.0752141264325355968)
(1.06265342882436542 -0.265122224460291434 -0.129411846032149336)
(0.982551003165735293 -0.283076836008369748 -0.103201232773677695)
(0.968295581615962853 -0.245893408988654194 -0.103667995677363844)
(1.00254581831826295 -0.257716521144181365 -0.10628360136974925)
(1.21000267558483121 -0.249660671328171879 -0.204200213417244786)
(1.12794081083826891 -0.311913808339157272 -0.145960324314045709)
(1.09970597098766465 -0.270883230419489029 -0.146637611616666885)
(1.15996384333843761 -0.282984582880838886 -0.151721292434711635)
(1.29623919111548536 -0.0967487180463188629 -0.389955422911242855)
(1.27467465033526839 -0.244770204726739049 -0.250871003973097362)
(1.22946898043151376 -0.203452961454290371 -0.241298896188660045)
(1.31180200542139058 -0.24375264944877631 -0.263920259195363216)
(1.15145786211258616 0.556402187607844656 -1.01709932690581417)
(1.33104258663366171 0.0422661443036249987 -0.531218703708799977)
(1.25027604885574561 0.0777750013641223537 -0.453731709393159988)
(1.52873413904025601 -0.0707257242236118827 -0.557238886837321035)
(0.992993820213537992 1.22092779963372999 -1.53363277810967125)
(0.990364368296466124 1.14762604571611093 -1.11354238252695326)
(1.36063524964425775 0.788141503545567224 -1.61707775087364092)
(0.062909088798388621 -0.160630773309376307 -0.00827104654011730049)
(0.0310629078861262321 -0.169531569376992153 -0.00789302455030953601)
(0.0311979701640598614 -0.155400878080004495 -0.00780763056495669371)
(0.0314234999522022967 -0.155692084722137025 -0.00803511855388870828)
(0.126455502011517978 -0.16679441066723158 -0.00909648485966060676)
(0.093427689425978025 -0.179749813278596515 -0.00847549437927879942)
(0.0939231760618934597 -0.165471836153549545 -0.00842605914263763398)
(0.0946208723365788845 -0.165861675121947133 -0.00863622895463964958)
(0.192136297501618813 -0.171027749730425033 -0.0104870936614685235)
(0.157262468658631333 -0.182421254675184885 -0.00948317388071309372)
(0.158160262156019193 -0.167629159526805793 -0.00946753687905697167)
(0.159410374000472171 -0.168144666684832245 -0.00966697736960030543)
(0.260766141659778128 -0.179158848926032954 -0.0126523173776631834)
(0.22363328660510659 -0.189318414151660286 -0.011181188474449117)
(0.224847731240495757 -0.173821207165194919 -0.0112052815792103074)
(0.226775362559439697 -0.174492538328691965 -0.0113882187440318139)
(0.333482481754335258 -0.190712974957006703 -0.015772486865180145)
(0.293409323793741239 -0.200220901454558453 -0.0137119124111697525)
(0.294859248987729416 -0.183726781469152278 -0.013774208654897058)
(0.297632364330333909 -0.184619659687842413 -0.0139606832626837738)
(0.411491362551158701 -0.20518045298617979 -0.0201166313562752726)
(0.368039812883576012 -0.214478661925448011 -0.0172725525907263984)
(0.369614659714590621 -0.196666904726258696 -0.0173915873455769386)
(0.373477574525794775 -0.197897076528748161 -0.0175893572054495427)
(0.496024375165980858 -0.222519224700470086 -0.0260833548610869999)
(0.447880144484666898 -0.231752293370140999 -0.0221696892414576553)
(0.449413097461417221 -0.212250672196521217 -0.0223706431635835694)
(0.454724594999727338 -0.214005330533166338 -0.0225969961120183888)
(0.588398661277098722 -0.241829938727342708 -0.0343100168630218957)
(0.536567203303030427 -0.252327194130443466 -0.0288473504238637296)
(0.537708564472304307 -0.230703777332384063 -0.0291856904340296146)
(0.545030865306210033 -0.233283277116352578 -0.0294398119283827073)
(0.68985459984292008 -0.264483877087694608 -0.0456628225534585555)
(0.630308628583373221 -0.274156108820447164 -0.0380587760355851831)
(0.630506978067561175 -0.249823728717182669 -0.0385633339514208084)
(0.640672046588472877 -0.2537204925326077 -0.0389180343884542035)
(0.802311577287524447 -0.283647256699334049 -0.0618348304092035117)
(0.740326320452160624 -0.302163958876629113 -0.0506044160701463602)
(0.73864862161331557 -0.274386025666261024 -0.051453731859869567)
(0.753017993360597493 -0.280164177162358363 -0.051948074828858784)
(0.920996121202610429 -0.302484923668058237 -0.0854993759401505016)
(0.853149374332092481 -0.316543216156222718 -0.0690791382277438221)
(0.847329272540871425 -0.285337028467085585 -0.0701308883415956846)
(0.868870725673636657 -0.295419941004539999 -0.0709970303088569149)
(1.06373065389393218 -0.331158739700854854 -0.119749711055574193)
(0.976968611672955678 -0.347494573791771844 -0.0951032620674324286)
(0.965420554308804579 -0.307835583261184209 -0.0966050051438492735)
(0.996276771286895624 -0.32134868771187669 -0.0985654664777352862)
(1.21815008350029319 -0.309827849415024892 -0.192631114869898368)
(1.13006029624765936 -0.382422623022209807 -0.133266140921210863)
(1.10537741989397542 -0.338190884845430306 -0.135445872516163274)
(1.15973915254293614 -0.354812010602751859 -0.139201933751330248)
(1.30823308978380126 -0.114298244486627676 -0.392134284770654207)
(1.28470384395842885 -0.295388843950719904 -0.240339964469722112)
(1.24407281985568585 -0.249587779458521425 -0.231993949992253312)
(1.3250113842065907 -0.306614176198204358 -0.2531576552500448)
(1.14436296079106281 0.694760609986155742 -1.04775215491265805)
(1.33372384571353608 0.059177977240391276 -0.551070771396746983)
(1.26123659038571767 0.102651160800406371 -0.468708726283247556)
(1.52625448957627552 -0.0733698084699458825 -0.580547404398463085)
(0.969250863357237202 1.47086516033318992 -1.5925827221404647)
(0.975380985322172211 1.41777998829456142 -1.1562752831237888)
(1.3240472709404385 0.999173525530409057 -1.67361170309590479)
(0.0618504190924833303 -0.188611180003160017 -0.00809747238947103667)
(0.0305072970252101491 -0.197153016859702795 -0.00774629465641921491)
(0.0307038456086791041 -0.183251874870270948 -0.00762950250679952056)
(0.0309137402154068819 -0.183558568405053191 -0.0078941521975805836)
(0.124049950872517939 -0.195347996565753773 -0.00886218340033128466)
(0.0915837994235178671 -0.207508595917493682 -0.00826270600344909331)
(0.092246860583586221 -0.193519930129006867 -0.00820908840515780294)
(0.0928994405349993224 -0.193946245382534022 -0.00843805306024688825)
(0.188414069011107577 -0.200709986431743037 -0.0101772686936936873)
(0.153982657880992579 -0.211131032666212581 -0.00919750003220994039)
(0.155133925374985132 -0.196609127068852335 -0.00919178728532089179)
(0.156316566595843864 -0.197196711510275902 -0.00939865643463473274)
(0.255757899774812891 -0.210400139268998226 -0.0122407835079556861)
(0.218941477563663195 -0.219333467896639517 -0.0108063574645500607)
(0.220522794095153851 -0.204114843400310497 -0.0108553657106687622)
(0.222359820295106453 -0.204879527838846581 -0.0110241389901947449)
(0.327143442018100861 -0.224031951497127929 -0.0152119781367160128)
(0.28728179205227361 -0.232030167425482575 -0.013215330563846172)
(0.289245548245463502 -0.215821352715996506 -0.013307255134858028)
(0.291886911675105998 -0.216826654192417451 -0.0134718120905571483)
(0.403786358777226406 -0.241136349521505366 -0.0193256104759087846)
(0.360444812391713887 -0.248625434013125424 -0.0165908113522323999)
(0.36270120712990217 -0.231100401708725339 -0.0167455202826759554)
(0.366359944461845222 -0.232471553751426724 -0.0169118703050741663)
(0.487014759384208185 -0.261703263270034625 -0.024933684804234385)
(0.438777618927740476 -0.268833738735417938 -0.0211989636161725552)
(0.441182089634009844 -0.249593552769226734 -0.0214479957851433749)
(0.446174412795139586 -0.251539142315602537 -0.021629950518471202)
(0.578257095401436327 -0.284882843635188676 -0.032596109596427017)
(0.526113378232434425 -0.292967416657632096 -0.0274329325273534701)
(0.528394977635838314 -0.271547573786680485 -0.0278327094813859838)
(0.535204203648176113 -0.274393081250946302 -0.0280087726207365328)
(0.679125281284270299 -0.312193506161380363 -0.0430003695522729532)
(0.618782898404393489 -0.319137081103696429 -0.0359010317139239893)
(0.620372376517756674 -0.294790061619248867 -0.0365054147608718238)
(0.629715636269889467 -0.299124989174133493 -0.0368067511474182429)
(0.791912350073829652 -0.335537063430835947 -0.0578487238886867053)
(0.728297917410508422 -0.352416222933294776 -0.0472249673598734432)
(0.728545692153468982 -0.324345539577694575 -0.0483041866486363936)
(0.741669626363188006 -0.330866378004174677 -0.0485536303657363583)
(0.912544142677861103 -0.362274803840448245 -0.0786830243550258324)
(0.842540124175939931 -0.370538821977176247 -0.0640527497109512622)
(0.839132786708192135 -0.338282938488519591 -0.0654117974969898874)
(0.858203381159415191 -0.349550764195642238 -0.0661748746370586644)
(1.06293266655740659 -0.399760497792042258 -0.108619691933069307)
(0.969022304954016644 -0.414921997673775744 -0.0854174504913672722)
(0.960463959486717256 -0.373437931421501057 -0.0883661557202298775)
(0.987405768277639151 -0.387977155915152139 -0.0895424259736355005)
(1.22322403109893485 -0.369401388543945663 -0.180974990521034579)
(1.12911162810998156 -0.454437296730824059 -0.119941382602067922)
(1.1096949530506599 -0.40601543149123076 -0.123781907242545675)