/*--------------------------------*- C++ -*----------------------------------*\
| =========                 |                                                 |
| \\      /  F ield         | OpenFOAM: The Open Source CFD Toolbox           |
|  \\    /   O peration     | Version:  2206                                  |
|   \\  /    A nd           | Website:  www.openfoam.com                      |
|    \\/     M anipulation  |                                                 |
\*---------------------------------------------------------------------------*/
FoamFile
{
    version     2.0;
    format      ascii;
    arch        "LSB;label=32;scalar=64";
    class       volScalarField;
    location    "0.239999999999999991";
    object      p_rgh;
}
// * * * * * * * * * * * * * * * * * * * * * * * * * * * * * * * * * * * * * //

dimensions      [1 -1 -2 0 0 0 0];

internalField   nonuniform List<scalar> 
29184
(
2896.76857580305568
2896.19488507634878
2891.22155717786518
2883.44318476951912
2874.12658017381591
2862.59202267924366
2849.15601746384709
2834.37198814535759
2819.02969382150877
2803.68715195736331
2791.32193883159562
2781.22191602291377
2778.25073475696036
2771.04442757420475
2777.80650929803096
2585.98945669830164
2895.93046170512935
2894.97064498971667
2890.0389993216836
2882.25468672582156
2872.66017906646857
2860.97404014602989
2847.34475597273922
2832.2601633282452
2816.41896782140066
2800.63899720514473
2787.21145631103536
2777.01857551946432
2773.49048379037185
2769.51453632811672
2772.98580675635731
2600.21854575523321
2894.07732542192434
2892.55169751150697
2887.57284625013699
2879.72904425644401
2869.81651994457752
2857.7934257025272
2843.72251928223159
2828.01540148292361
2811.32254487486034
2794.556255279163
2779.7851379036083
2768.85707307994062
2765.33641789409012
2765.36049074897801
2769.45800985518281
2603.85130631593393
2891.12913621519829
2889.11044279692624
2883.99011379664671
2875.98611998921706
2865.65179735968604
2853.08272452283836
2838.32512430768656
2821.70242748512374
2803.77576649987759
2785.49787404459403
2768.80260149261585
2756.35011491578734
2752.65341483126576
2756.4715677015588
2767.65156098588886
2610.78773397590749
2887.12909757296256
2884.71868081292314
2879.3429753391697
2871.04154697968761
2860.1644312139706
2846.86571849511347
2831.18326012082798
2813.34006297021233
2793.77570705977178
2773.40863842716863
2754.0603552298162
2739.2032286151134
2734.49533917396639
2741.65404863595541
2767.71855865159569
2622.23761081001294
2882.1379545582281
2879.39867360274548
2873.68577526010404
2864.95442332683297
2853.40129725197039
2839.19394316029184
2822.34850321659178
2802.97506964457943
2781.35066109317631
2758.25986629715999
2735.38490883958229
2716.9299945054513
2709.74044489644439
2719.05010105065458
2758.24922941659679
2633.68311967431237
2876.22276571531756
2873.19457995670518
2867.0788130685105
2857.78657153382164
2845.41377814931684
2830.12128946606708
2811.87926115461823
2790.66429801058939
2766.53583067769296
2740.00872260866709
2712.54945068160077
2688.94205476723209
2676.96679693726765
2686.55048827516066
2725.10972830924266
2638.02315555090991
2869.45573774596187
2866.16144382207722
2859.58248821646794
2849.60270963982975
2836.26307318410409
2819.71134125708977
2799.84320505177038
2776.47517381155239
2749.37478301842111
2718.62915688360363
2685.29659697511488
2654.47508251790077
2633.95591576567858
2639.81768904899309
2686.00451655747474
2631.10608143852551
2861.90691129553943
2858.35915250586959
2851.25714676166444
2840.46591080765575
2826.01059514027065
2808.02610807295014
2786.30331860743627
2760.46403260056377
2729.87652704497214
2694.0069524540304
2653.35254275706757
2612.43025410936298
2577.11472801516857
2572.85029681258493
2649.31239810381066
2612.65005641401558
2853.61361704154479
2849.81448771404393
2842.12776157362578
2830.4061680569157
2814.68550329936625
2795.08914160606719
2771.26792908318203
2742.60963770104263
2707.94563124193246
2665.79026226834503
2615.85216982840575
2561.28313805203106
2503.16318156742136
2458.26270355206088
2556.92830531400796
2643.47247441947911
2844.54536984551942
2840.45669478404579
2832.10428727415547
2819.34979290250203
2802.21865257043828
2780.81481230437066
2754.60018731376022
2722.68753907526161
2683.20081962469067
2633.39684733787317
2571.44202212964547
2497.15587920511052
2405.60434529714257
2325.89983932115229
2362.16680740891343
2514.75752266690733
2834.61244960854719
2830.10868440881632
2820.95238257407755
2807.09622934230765
2788.40931571507463
2764.95763779922345
2735.9546090477329
2700.2190467927071
2654.94806091931014
2595.66566971449447
2518.92086853014825
2416.36768810825788
2274.19936222878323
2094.87094954179065
2156.75170969519195
2304.08083757214354
2823.61647205162217
2818.51038169978256
2808.32806538557497
2793.33828703229074
2772.88554858117595
2747.01117107503615
2714.68059188479401
2674.41499906938543
2622.02750173814729
2551.21257062651694
2456.76740316151427
2316.27240148276132
2101.53545624330945
1790.9381686152517
1714.07905688308551
1923.15412893284315
2810.75416755594415
2804.84855133759311
2793.40627964085206
2777.28361635102601
2754.70623188982745
2725.76593627542161
2689.32044954403591
2643.51368939484655
2581.85403127932659
2497.14716071420889
2382.8235953696967
2189.84194607355766
1780.70989915180508
1246.29260134326796
917.438452148131205
1893.00694057424471
2793.46286895609683
2786.49607043455626
2773.73442843191151
2756.6655990347931
2731.56877352264519
2698.53863989802721
2656.72436227778508
2603.35715290889584
2528.94469009490422
2427.54199340721561
2287.7182663895428
2027.90027484047573
1113.55647789512523
395.022596114738178
601.43695914777004
1805.337192549983
2767.15313554428758
2758.72087190559023
2744.8387156365493
2727.47150964015646
2699.33976762752854
2660.64257962310694
2611.34686006176116
2546.82859226919891
2455.12952599266191
2334.59330476439618
2159.27227592669487
1833.27774623985283
384.580084168254018
178.011336580743745
329.029862403784648
1637.44262006433769
2898.65713543023594
2898.28287194424092
2893.83713418184789
2886.97230588925004
2879.05415386635968
2869.64855047475839
2859.36869974637148
2849.23775786296028
2840.67883691034285
2835.53899434581353
2837.78395594050971
2850.31048628561075
2880.01159069072855
2929.69958047884074
2997.66110533244955
3043.67817390359596
2897.81820920530436
2897.06537741089369
2892.65247950641378
2885.7718509585643
2877.57826461124705
2868.01252379940706
2857.52564968410434
2847.06739838532167
2838.00500743791417
2832.31151663547189
2833.63654273011798
2845.94732272853298
2875.46289101078628
2927.1323541911438
2997.24080766194311
3046.29969156069319
2895.96696985911785
2894.65704006013448
2890.18653453977686
2883.234125487445
2874.71758607439278
2864.80226311676824
2853.85457079523394
2842.74652523066061
2832.80259569741611
2826.06715207173465
2826.09738504016514
2837.69282756431039
2867.31095866843316
2922.41826085799903
2995.32970503362367
3038.42407053285979
2893.02678667789905
2891.22817441635016
2886.6019302920563
2879.47389955701965
2870.52533805297753
2860.04757097106358
2848.38797504921877
2836.32670244656765
2825.09815527099136
2816.79361445049062
2814.90324687746079
2825.06139005697651
2854.56334783772945
2913.19404157838198
2988.07684573275674
3031.34364739675493
2889.04192782896098
2886.85025937620958
2881.94918394147498
2874.50685971458688
2865.00156038574551
2853.77248353811046
2841.15688477477715
2827.82612770230935
2814.88386218141295
2804.41613978687974
2799.84757154655335
2807.7044549459215
2836.33465111161058
2898.10380877278294
2984.66128675441769
3024.50551119058719
2884.0737117973049
2881.54650827016349
2876.28120597065026
2868.3914505184257
2858.19276240666522
2846.02697726139286
2832.21231135736116
2817.28727454226055
2802.1743358326853
2788.87525358287121
2780.71876936806575
2785.11037377443608
2811.46396327340562
2875.32451453855901
2971.46932328711455
3015.61777493449699
2878.1904800510315
2875.3614493334303
2869.65677258455025
2861.18968825033062
2850.14990028523789
2836.86300092808051
2821.61204368338986
2804.76041626593587
2786.98334556772897
2770.09052548928685
2757.24523975837883
2756.63937219125864
2778.4810141124226
2842.62598345148263
2936.73559680904464
2997.15898060577183
2871.46732055358461
2868.35131730075864
2862.13556247990846
2852.96732090593014
2840.93231749868255
2826.33975273259648
2809.42116497388542
2790.29584402027831
2769.31247229734117
2747.97684022114481
2729.13389442796142
2721.42849325391353
2734.97307714289036
2795.49869854935378
2891.19986470898812
2967.95465802555009
2863.97748326207557
2860.58119453971767
2853.78062111402687
2843.78976055954581
2830.5964617830773
2814.5096200034518
2795.69221079978115
2773.91852699286801
2749.11602243563402
2722.32334650136727
2695.97250993099078
2678.34322927399899
2677.40510010260732
2728.36950928377246
2843.21751461490703
2921.50990405683069
2855.76102680055146
2852.08481852939713
2844.62738643811372
2833.69268403041224
2819.16195717565643
2801.37681014832424
2780.40262466439935
2755.52862702033235
2726.23262703560613
2692.83398994921345
2656.93558974955067
2625.46106285850601
2603.1431819607642
2619.42576920887404
2751.43244888456366
2930.03582226075969
2846.78793661288955
2842.79580586730935
2834.60781723953005
2822.60935715625646
2806.54129410638689
2786.81597931846181
2763.33782284583913
2734.76797215093393
2700.14695111221636
2658.97291835366741
2611.00159462886359
2559.27938572868334
2505.08110607668823
2469.67330641463377
2593.1438626075178
2818.37511545224197
2836.9643568673273
2832.5578856614311
2823.52711605650074
2810.32842023363764
2792.48931011078002
2770.4893409549677
2743.98911549440118
2710.9691916766933
2670.12878228294085
2619.43237262613775
2556.83881378022943
2476.18329993712905
2372.22801720942425
2256.36134471614741
2342.30103744863118
2609.52261645334602
2826.10229297900332
2821.18752890938731
2811.12595341273209
2796.49044830091134
2776.52830145745065
2751.69107687322366
2721.41137147297104
2683.12223673080553
2635.0512085622272
2573.09529426527342
2492.00143202090703
2372.863685866369
2195.77834950353645
1905.74963827003216
2018.01778063495681
2266.46429188944649
2813.42461260758864
2808.01524798742639
2796.74080392469705
2780.23566904397194
2757.51063337657206
2728.8906554845048
2693.69340101399121
2649.18345809692846
2592.57929789737591
2517.32215691819601
2414.75772308550313
2240.37082527924304
1924.32586986317801
1523.99699290399167
1401.91666352452103
1886.9660709833272
2796.32827474610576
2790.53242491613355
2778.16304025647696
2759.25727861573114
2732.82325979966026
2699.0843683624189
2656.99856955556606
2604.79485003624768
2537.88690762571741
2446.79342745901067
2315.52544912457915
2066.90587366171212
1259.84800670092886
614.342764623483276
681.37871269069467
1981.99050370459986
2770.03028258055019
2764.02479718854238
2751.093018406184
2729.20280495648831
2698.07635151720842
2657.1322800228636
2604.70550039420141
2543.17667546611438
2463.87175796012116
2353.27682550845611
2181.37251235170106
1855.93290164631776
453.434859076376313
218.768468965725162
379.499249063522882
1809.45855550268379
2900.46398318807951
2900.28259267755584
2896.33060754062444
2890.31338456471485
2883.68494998061442
2876.2287764533512
2868.81206450205173
2862.84706162863131
2860.26425111402523
2863.81291182184941
2878.0675171099092
2907.87987492951379
2960.46366748405126
3042.30842554279297
3151.14456458519726
3264.4821795093535
2899.62218061168869
2899.07044551667332
2895.14458638821907
2889.10355499059369
2882.2017207535132
2874.57621833982876
2866.93710110972143
2860.61951184999134
2857.52613724892581
2860.46452307476284
2873.92910351220689
2903.47223354167136
2956.15247438921733
3039.67563244664643
3152.43762503888684
3266.83202628155914
2897.76885737259045
2896.66901114444909
2892.68040416460735
2886.55817590934157
2879.32780484326213
2871.33805092256807
2863.21383999775435
2856.21364312386731
2852.21153556498984
2854.07676968773103
2866.30635164969499
2895.13514095068422
2948.03803754430737
3034.73726746650073
3151.34153079507951
3259.44904690393469
2894.82865195983868
2893.24545499675833
2889.0968078782771
2882.78708980034207
2875.11340632439442
2866.54140965012675
2857.66984161836263
2849.66719589921422
2844.33412157075918
2844.59496316683772
2854.93162364334012
2882.37780927403946
2935.24452828204676
3025.2590551542271
3145.26423226291581
3247.81728573001556
2890.84423735989549
2888.86941198709155
2884.44338410695855
2877.80578949755181
2869.55994411085658
2860.21075784726281
2850.33363936035039
2840.9933199435286
2833.88013925014229
2831.93237136985499
2839.59782248592956
2864.82632858591978
2916.90320622935815
3010.02259039267983
3133.96324673890467
3234.19933117505707
2885.87438635600802
2883.56375765592929
2878.77270886677252
2871.6713292132531
2862.71400209047761
2852.39583546769154
2841.25184163448557
2830.2256608457692
2820.85408031654424
2816.01397853620165
2820.0731954955877
2841.96920885267991
2891.91785846646735
2987.08552236437708
3116.38194970979248
3217.94474974573586
2879.98559568134488
2877.37289475718717
2872.14364155011162
2864.44469327306115
2854.62814016347102
2843.1498622523518
2830.47717848062985
2817.40556269589888
2805.26292446140997
2796.74811139547637
2796.05862117982042
2813.02549787072303
2858.78024537548799
2954.10013723514794
3080.19721175433142
3194.18641120943494
2873.2534711153653
2870.35477165248767
2864.61658313771341
2856.19088704943169
2845.36453222489308
2832.5335684534657
2818.06829893197119
2802.58378560859455
2787.11875754549237
2774.03512898951658
2767.20844815404598
2777.17866062853409
2814.93299217507411
2907.58802548820859
3045.33181553426539
3170.88471752595706
2865.7547428253215
2862.58202693265775
2856.257373374483
2846.97575405968246
2834.98420281745575
2820.60128992655473
2804.0749593137175
2785.79794936961707
2766.4285252139257
2747.73061965169882
2733.08114631571061
2733.23617848035792
2757.7236362261865
2835.6175154437542
3000.22408131552811
3186.03122028569123
2857.54086363571832
2854.10620881997465
2847.10900437721193
2836.83978863316361
2823.51536524248195
2807.36323687842832
2788.49141714044117
2767.01273842589126
2743.05743417621943
2717.55445771047971
2693.01691391336635
2679.31394026284761
2682.98724018831717
2733.71148268743718
2901.51331745717334
3159.15160669647821
2848.61014977228933
2844.89096289057579
2837.11425593426748
2825.72310818944152
2810.87681438861819
2792.70682685855127
2771.16370012843481
2745.98886026272112
2716.6219032087406
2682.73385672184122
2645.8705829581545
2612.46547042749717
2585.39245518114467
2581.36446507115261
2751.67926000352372
3020.71516053070945
2838.92592323164581
2834.81818767449931
2826.08717577845209
2813.40808557755463
2796.80882062665523
2776.32702997615525
2751.71113232267498
2722.21374270164233
2686.3675943586868
2642.23322835751742
2589.651619936099
2528.74856796883932
2453.82469143280014
2364.67758453823353
2519.5848034423625
2819.84491910641282
2828.40029525491036
2823.76929411040328
2813.78335016674237
2799.51877986672298
2780.83034431877832
2757.6393674182309
2729.43777540395286
2694.82186547284755
2651.12959847739467
2594.36127964421439
2523.13133048563077
2423.30232106748372
2276.85624631242581
2042.98214349264072
2146.8182493979316
2544.55646362310063
2816.44450362013049
2811.20412717261206
2799.55334234958855
2783.20671181384796
2761.90921545834954
2735.37816636968546
2702.85215401396772
2661.96088311371204
2608.30704832442234
2536.54144538867422
2443.33140290923711
2290.31379920857489
2000.43271724440001
1616.84338912746853
1862.84695969415066
2089.48216667006091
2800.74721463054675
2794.73503082284833
2781.19312510634381
2762.18289881902001
2737.56182800707484
2706.71514628378145
2668.66288421348327
2619.35408338257093
2552.4657563127289
2463.1612303503257
2343.1616331975938
2115.57307696194357
1400.59363713860262
908.54547015978369
830.824146321832814
2069.02951586339077
2776.78739067176593
2769.54166025763107
2754.54726352609669
2732.06192398303665
2703.08711959413404
2666.59807027785746
2621.02012651262339
2559.52807698176048
2475.46974360159675
2365.81591815061029
2209.49636370253575
1901.76833895064237
468.974977322503946
258.888057247413428
432.72428213910581
1910.33534482710343
2902.13201622278348
2902.12219138201635
2898.60574118588966
2893.33299496782274
2887.83152791490556
2882.07129452406116
2877.12499353264093
2874.69886065576293
2877.09842185173193
2887.59127792351319
2911.1494309454456
2953.32372602753594
3020.61191663307272
3119.12960649909792
3241.72576522089003
3357.3225329874731
2901.29287457359123
2900.9203013200954
2897.4215607161791
2892.11591818812985
2886.34268494824528
2880.40519493516922
2875.22429276137518
2872.42930607684139
2874.31043672293845
2884.18214962054344
2907.01243341027157
2948.90372886058003
3016.45904626979336
3116.59346825365765
3243.88666083308544
3356.27429530442623
2899.44843884419333
2898.53652814860015
2894.96565247377657
2889.56760881170476
2883.45999275958275
2877.14547564146551
2871.46100980398023
2867.9605899790572
2868.91280868374133
2877.69497775478339
2899.32441569235561
2940.51003335304767
3008.36307504363094
3111.42773109981272
3240.8029526740379
3347.36821041405256
2896.52720512974702
2895.13612971211342
2891.3931645743628
2885.79334290479619
2879.23115224072035
2872.31723426929784
2865.85926127845278
2861.32127220655275
2860.90556716910396
2868.05239044305154
2887.8118178891973
2927.65288442460269
2995.54314062078492
3101.73273924500154
3231.88451880237562
3334.25825518293914
2892.57379702346771
2890.78877182372344
2886.75301415221429
2880.80929102849041
2873.65950638846789
2865.94569935403615
2858.4471198351107
2852.52216225362008
2850.26776620441933
2855.15312676774056
2872.25158632258945
2909.95846439825755
2977.16624523286964
3086.23077855280235
3214.57221451387841
3317.14824645365934
2887.6487489534893
2885.51808015919187
2881.09753994924722
2874.67286812692964
2866.79224733619776
2858.08031020821363
2849.26992195967341
2841.59231630164231
2836.99027446967648
2838.90034541865089
2852.38258800058657
2886.77887977331693
2951.77045814401845
3063.0195308709076
3202.90723890233176
3297.23585578224993
2881.82045169026969
2879.36840458015968
2874.48608993952212
2867.44661498111964
2858.68311046869439
2848.77457008216379
2838.3799066973852
2828.5679904649196
2821.06346837665978
2819.17554760464918
2827.86977491007201
2857.49600226036728
2917.85767979000684
3027.25690006012792
3184.90492747763301
3286.36942446618696
2875.16553722899698
2872.39582580629167
2866.98030916366497
2859.19776796822134
2849.39552907666757
2838.0900714956183
2825.83679099411029
2813.4913026657091
2802.4818575747795
2795.85325757731061
2798.34270024430953
2821.02079610647297
2874.1798032092629
2982.66257372234622
3136.78920808679732
3291.77110766710803
2867.7612048124347
2864.66609233136705
2858.64663303585485
2849.99386299675643
2838.9918347903722
2826.08335967528274
2811.6924323413914
2796.39630107224593
2781.22032825955785
2768.785370222658
2763.37777306944963
2776.29779098446716
2818.25831875308086
2919.00600873478697
3079.60962528256368
3235.89492008643947
2859.65664813576404
2856.21900193727515
2849.52776050334842
2839.87606054658954
2827.5022235872525
2812.76868921342339
2795.94657919298288
2777.23679391612632
2757.1700810996972
2737.67581437195349
2722.36910740518169
2721.66712989024609
2743.93500769522643
2818.60882182811292
2985.00222182381412
3225.76369708237507
2850.84455923369114
2847.00174715855655
2839.56494357646079
2828.78332183013526
2814.84818338960804
2798.03856487782286
2778.45103684188462
2755.78480622587813
2729.9522938627988
2701.98809552555213
2674.20376041037071
2654.49292506800703
2645.34152971663661
2670.785531256995
2852.37644911489497
3106.77728881277517
2841.2796830483453
2836.86546248996137
2828.55642504708794
2816.48726626735061
2800.76988013903474
2781.5906273352216
2758.833064616907
2731.54812363494375
2698.9537175636251
2660.77002687121785
2617.47801510136378
2571.04749708140844
2519.39250589390531
2452.47291973888105
2648.47230739402949
2920.15447136219791
2830.85516450257273
2825.62655422171429
2816.20531519350789
2802.59020013729787
2784.77815866164019
2762.85433076714571
2736.4237820099338
2703.7197994285516
2663.21690201480578
2612.85966417896134
2550.7796783008107
2466.87251656049693
2348.24991107166397
2201.84404481644151
2322.4738949489315
2660.42236806210985
2818.91975648599464
2812.65188241202486
2801.7970894848504
2786.24288970283715
2765.83027544803326
2740.59468350682346
2709.83141101062665
2670.58641962571437
2620.32865920946142
2556.25382675182163
2472.02885189601466
2335.21449090816304
2092.20413237228786
1784.28590404865781
1923.0854625605341
2293.80322606716527
2803.00430475731127
2795.44293603671349
2783.0111391164246
2765.15349714379681
2741.41486713283302
2712.03831247465541
2675.78137399200705
2628.13922774099956
2565.07565440395774
2484.76712314702081
2375.25045249609821
2164.65020760005973
1503.36967187218511
1160.64887155669135
1307.07260385679069
1858.18710664311902
2778.37575654966986
2769.21616835692612
2755.21727084063787
2734.82832905385203
2706.758683087603
2672.21626008416661
2628.32853357925615
2568.88662362113155
2489.83262215833975
2389.98718455587732
2244.6298734066927
1957.2689914240907
560.233208997968063
297.513195459595579
481.871773281585149
2066.9174506084014
2903.58900208728937
2903.70519861104458
2900.5521502850529
2895.89530763835819
2891.32239315232573
2886.95127947350193
2884.01238511023848
2884.4162449024152
2890.7185850435485
2906.47748872620741
2936.7713665947972
2987.26648254256406
3063.52138134853067
3171.06825388350262
3296.46495979718793
3411.70276271250032
2902.7498807883776
2902.50997428252458
2899.37076977722108
2894.67642457987313
2889.83184249008082
2885.27622373678469
2882.09356627348416
2882.12222392494505
2887.91104927241258
2903.06302321315479
2932.71111295676701
2982.95900614482616
3059.61243014491538
3168.15050936280522
3299.78506118220776
3409.44674544418467
2900.90584303551441
2900.13685523009872
2896.92286498955582
2892.12809930910998
2886.94203618299753
2881.99730246976333
2878.29637591790879
2877.60549480536611
2882.45841327382004
2896.52638296147506
2925.01440525290718
2974.59647914163043
3051.61565819282396
3162.86449875829157
3296.53682740642398
3400.34554577202971
2897.98566167195486
2896.74815674489855
2893.36087023289974
2888.3527520715329
2882.69914177771625
2877.13848793751185
2872.64270711694144
2870.89096812586104
2874.3589938216096
2886.78850601811428
2913.439897326964
2961.74515684447624
3038.88395577315669
3153.23127632250771
3280.77971277590632
3387.16492900182038
2894.0306698246668
2892.41244309811236
2888.73347773886599
2883.36610242731786
2877.10594006197744
2870.72346773059917
2865.15878716451789
2861.98765741736088
2863.58992326530733
2873.74440020424709
2897.76700174822236
2944.01136874909753
3020.57315514604716
3137.78681352952208
3260.24602498665081
3370.05302713170431
2889.09662197074658
2887.1541778222977
2883.09271962326193
2877.2230736334277
2870.20666092712327
2862.79871216429638
2855.88707013686962
2850.92196539762426
2850.13879596858305
2857.28953598461021
2877.73097655078118
2920.78755651126812
2995.09883857766408
3113.81832683075891
3254.30309765768015
3349.36809421170392
2883.24657240192619
2881.02012383246119
2876.49712009635368
2869.98230977041294
2862.05071657780309
2853.41419200935252
2844.87730557813484
2837.72768450923058
2833.99379886307133
2837.29419444635005
2852.99226564936089
2891.3988673973613
2961.38556832553149
3077.63302826633526
3240.51770701095847
3346.60052788008989
2876.55171363347745
2874.07161113978736
2869.00594773812645
2861.70514406358279
2852.69555619953735
2842.62785479666718
2832.18773352620565
2822.44815195125466
2815.14344896585726
2813.61636252800054
2823.17817838566179
2854.79062665861466
2918.73182341884149
3038.14096045169481
3178.96600379692745
3366.06118536903978
2869.0831474067686
2866.38230854344192
2860.67836015573221
2852.44879729257082
2842.19527054723585
2830.49474471178519
2817.87234379360825
2805.11902537201786
2793.55568388771371
2786.08110071349893
2787.86151183754237
2809.8070445048329
2862.11583061222018
2973.4309495930429
3112.23823095887974
3273.75298229211285
2860.88631605165483
2858.00400927428063
2851.5426794020118
2842.23828430179492
2830.57228088484362
2817.03621882745801
2801.94011757118597
2785.69360379107775
2769.09286718693102
2754.39164936456291
2746.40118357965639
2754.7640744932537
2788.5688041882363
2880.28289456727271
3046.91379684277535
3192.24117171536818
2851.97460096494933
2848.90102284810564
2841.52635428599024
2831.00220009965187
2817.75924758401698
2802.17263939208624
2784.25726130639305
2763.93313016531647
2741.36598773483774
2717.98050768920984
2697.68154336787893
2686.80149693501426
2687.47414788360174
2740.83689102124754
2921.93496622211023
3163.92388763152667
2842.36533941117887
2838.92526784068014
2830.42269052967413
2818.51756157385717
2803.5461594760086
2785.65295816342041
2764.45274184262144
2739.3074848905394
2709.75791387079153
2675.95524535500363
2640.10744752770688
2601.62212277751905
2563.8539619374933
2522.24897749243155
2730.86975526919605
3004.66210740839279
2832.01000248187574
2827.84950712823047
2817.91240074109828
2804.35506758214615
2787.50648151046516
2766.95113193081806
2741.82149537652094
2710.92385746969057
2673.2667693897256
2627.14948866239365
2572.08832163992884
2493.43838223625198
2392.69545390954045
2285.89751937415076
2425.25459349663561
2760.81187248963533
2820.3032998790618
2814.99420092444416
2803.23303668392009
2787.54683182139024
2768.67438686663945
2744.87224295950136
2714.87896198939779
2676.92905823257024
2629.49681182621498
2569.49076804799006
2491.16826737092924
2354.41270563776652
2129.76171132878289
1948.12989161328028
2046.10598172114692
2371.13290993181636
2804.9538610300342
2797.88719155295985
2784.1699869050567
2765.81996566203497
2744.84167270831313
2716.83647856990501
2680.24033380422588
2633.20197715039603
2573.58272446966066
2497.42678441797898
2390.06122147885981
2172.43424766356065
1509.10019648662137
1281.38719982165208
1587.60903670957259
1927.4415355329736
2781.82021833308681
2771.63475610820478
2756.66922168583369
2735.12684290957804
2712.17010015664891
2678.00601127638129
2631.79788458564235
2572.51165125218995
2498.66129332107994
2402.80612524477283
2251.78487698754907
1948.14301712513361
720.222548640701802
328.275033531857162
552.069188601242104
2138.30390877318996
2904.78512986873466
2904.97409097293894
2902.09770242211607
2897.90857099601317
2894.03641402128142
2890.71544036837167
2889.28802935334033
2891.79919728354753
2900.96929500459964
2920.4770929551355
2955.49636122791117
3011.32122903528443
3093.23571641060289
3204.50659978374733
3329.76617167385348
3438.9282459113906
2903.9533100296394
2903.79097785796966
2900.92063449486659
2896.68846545817814
2892.54554293164665
2889.03608463003275
2887.35962889003576
2889.49351653668464
2898.1513677326634
2917.07538549215678
2951.45236097655561
3007.10090985055012
3089.26029176371594
3201.58893226844884
3333.91388142809865
3436.61199244705085
2902.1277080466466
2901.44031235433113
2898.48394436062654
2894.14008576626156
2889.64947255399647
2885.74243377459652
2883.53750467752207
2884.94218077070218
2892.65947572263804
2910.50952724597755
2943.74242943404352
2998.75391023637303
3081.22795739739513
3196.35298592328945
3331.36919133467836
3427.51812628361495
2899.24085154347677
2898.08354889622251
2894.93718502596994
2890.36318596228102
2885.39418590092373
2880.86005802334375
2877.84531693242434
2878.17162388610905
2884.49272548848285
2900.71048458000769
2932.12831643262098
2985.92447458015067
3068.65853354748879
3186.50175863548702
3316.85931031850578
3413.48770049317909
2895.33783274998268
2893.79019063679834
2890.32842272683638
2885.37347768776954
2879.78359813010638
2874.41400136230595
2870.31051030027902
2869.19046706857489
2873.62705261271594
2887.57378867085663
2916.38545242443161
2968.15303467771719
3050.32834257354216
3171.01839713011668
3294.57167551254588
3395.7302849898465
2890.47899365985177
2888.58464149213069
2884.70862230499097
2879.22493650704837
2872.86258252570588
2866.45286028052533
2860.97733636145995
2858.0234243909581
2860.04655908821633
2870.99192148114525
2896.24358167015407
2944.88501055544975
3024.82600144495382
3148.00701763932739
3287.0169530812741
3374.14300511563397
2884.73211959102946
2882.51059017315265
2878.13539640868794
2871.97593735465034
2864.6827967729655
2857.03099085883878
2849.89841490575554
2844.70125326978177
2843.73502251057016
2850.83106380399113
2871.35115052261199
2915.4167160050024
2991.22546229278305
3114.16066889723561
3262.67284294208866
3349.05023263337125
2878.17211572095539
2875.62225241744318
2870.66825392752526
2863.68863673819487
2855.30615451420954
2846.21325661291166
2837.13513864058996
2829.26088914624415
2824.67808617005221
2826.94349130512455
2841.30675610988055
2878.67791696986433
2949.02890877473419
3072.36091868081303
3189.44161316915097
3328.97044506449129
2870.87228435690122
2867.98062610292936
2862.37030821206281
2854.42295978529137
2844.79507381877784
2834.06461509300561
2822.74245660722954
2811.72982157995921
2802.8437504971148
2799.14359823961104
2805.62789940484299
2833.47020749805051
2892.23379121782364
3010.86128134917908
3107.53725562276031
3290.49509090335278
2862.87286744765424
2859.61801636867267
2853.28067020320395
2844.21127381501401
2833.18616944126052
2820.61807089674039
2806.72707248205006
2792.05495449384898
2778.11023307745108
2767.09979788536975
2763.58012867110256
2777.94389044904574
2819.08921457245515
2915.0615719478601
3079.63720734311028
3239.67515736626274
2854.147535888927
2850.48179701664185
2843.34575507171894
2833.00244453142159
2820.43105357030754
2805.80043644797206
2788.95083312593897
2770.01864936831134
2750.10826476854936
2730.18907189920674
2713.88467410038356
2709.11489680871591
2717.6349800247699
2790.68450526577226
2953.20883332299036
3200.79961353828048
2844.62221653694814
2840.45026635701015
2832.38333308374013
2820.6200972733709
2806.33587216151773
2789.3530721689749