/*--------------------------------*- C++ -*----------------------------------*\
| =========                 |                                                 |
| \\      /  F ield         | OpenFOAM: The Open Source CFD Toolbox           |
|  \\    /   O peration     | Version:  2206                                  |
|   \\  /    A nd           | Website:  www.openfoam.com                      |
|    \\/     M anipulation  |                                                 |
\*---------------------------------------------------------------------------*/
FoamFile
{
    version     2.0;
    format      ascii;
    arch        "LSB;label=32;scalar=64";
    class       volVectorField;
    location    "0.239999999999999991";
    object      U;
}
// * * * * * * * * * * * * * * * * * * * * * * * * * * * * * * * * * * * * * //

dimensions      [0 1 -1 0 0 0 0];

internalField   nonuniform List<vector> 
29184
(
(0.0276281087454740386 -0.0115916033532764366 -0.0183845344733808216)
(0.0888017197984724005 -0.0155458156602405126 -0.0202996544844278003)
(0.156570932518287076 -0.0157954267067038773 -0.0228497329295868322)
(0.230228863928010369 -0.0159337427880601665 -0.027149500252613111)
(0.29741317655982269 -0.0157582167488474513 -0.0334684415834520521)
(0.366251997839979138 -0.015932013809529251 -0.0424760759780161701)
(0.436961804813347454 -0.0164706114917274396 -0.0549106577542625984)
(0.511388709066816993 -0.0171840302573861327 -0.0724600201531034327)
(0.586241938024723908 -0.0173809310381827196 -0.0953687552992471405)
(0.662045220297752701 -0.0177169695409339356 -0.129812539404943139)
(0.735790650076419639 -0.0165774994881319748 -0.172306557325863419)
(0.798923448979506512 -0.0148944327916648248 -0.242952353010346511)
(0.84773571205941467 -0.0108991190355744727 -0.323496841655486977)
(0.86875307569576854 -0.0108861157497852912 -0.487408960898197852)
(0.870105082516224759 -0.000295421796051103212 -0.66816374353033281)
(0.504364497260386235 0.0226199388562035308 -1.45436754485675346)
(0.0284999937984562988 -0.0366210134964258596 -0.0183581438545686176)
(0.089997048869208604 -0.0467464293444057322 -0.0199816109179770558)
(0.155870263865001663 -0.0459747120488961936 -0.0224782926369309285)
(0.220894444792329558 -0.0456693448230418783 -0.0266599454304407013)
(0.286177458512884897 -0.0458466862427261285 -0.0328955243904426667)
(0.35379924116656053 -0.0470357253729632649 -0.0417451427833101379)
(0.42387464457608226 -0.0488285775315541598 -0.0540345773849229272)
(0.496664965638389966 -0.0508139235520315841 -0.0709480543996226232)
(0.570961054614968821 -0.0516569554983219645 -0.0942080517080312041)
(0.645972215930461613 -0.0520928045250136779 -0.126503165553933261)
(0.719310815815850546 -0.0496694811231746872 -0.171420058556286559)
(0.786204499576950266 -0.0449134029263144885 -0.236138257027440013)
(0.840484762148030695 -0.0358183544728812933 -0.327569593775101198)
(0.866667921677568232 -0.0331539297624221033 -0.476063039291840295)
(0.876541649399170786 -0.0195099895771800314 -0.684762739358518613)
(0.581755935837601657 0.0784940026624708909 -1.49443834129579622)
(0.0294512634812516792 -0.0631888786672422653 -0.0182049549245400545)
(0.0908816083981698331 -0.0758812583178680583 -0.0198631721148626351)
(0.155256199561436492 -0.0746370210564730463 -0.0223105078634439659)
(0.219970009997140531 -0.0743411315295401665 -0.0264025246992106062)
(0.28541182007655197 -0.0755600359029949542 -0.0325364474795445807)
(0.35315769147420123 -0.0780161492813717522 -0.0412513947208078685)
(0.423329497443319214 -0.0810209203934625227 -0.053340699929521819)
(0.496558016576905015 -0.0842011203711158368 -0.069973292052069383)
(0.571357954330482198 -0.0859180757857181676 -0.0927876390331435347)
(0.647469428859348106 -0.0864885549587914998 -0.124512962853210479)
(0.722339537586256353 -0.0837603509805217583 -0.16842899226017824)
(0.790560780134953678 -0.0756367112587029988 -0.232332061128520201)
(0.844650592909104825 -0.063421873132214715 -0.321965410863764401)
(0.874085962521860216 -0.0551014082555461374 -0.468779485402260165)
(0.868373834678489831 -0.0394373902745943083 -0.682385149650095002)
(0.553411631391659942 0.14481631150867455 -1.49456812444807663)
(0.029989342556265116 -0.0899789534991984469 -0.0180251730042932413)
(0.0911927516670516802 -0.104046853766791819 -0.0196543536539325499)
(0.154343671979697117 -0.103234355692149837 -0.022018100176181804)
(0.218445825456426185 -0.103315819854307114 -0.0259871733139784358)
(0.283749669918852254 -0.105450696258973145 -0.0319758882116995269)
(0.351434956514364905 -0.109068205452015093 -0.040500101436879328)
(0.421609684081366898 -0.11335714677184161 -0.0523169434411734566)
(0.495177952289855117 -0.117889390346103504 -0.0685388532192963695)
(0.5705815099663607 -0.120615671107718647 -0.0907621468483994082)
(0.648098439987002117 -0.121879444564438361 -0.121613889354304519)
(0.72499576948188249 -0.118499470565398168 -0.164279238514844494)
(0.795071597476740499 -0.106901376203413265 -0.226794028120229418)
(0.851343106735913846 -0.0909811985014128549 -0.314326953568712653)
(0.880413829314769192 -0.0744898672953971386 -0.457665207880719738)
(0.874117598952374952 -0.0470287741769552098 -0.671047063598935956)
(0.539227314271883973 0.207227361037984559 -1.47351276941048681)
(0.0301908687991434589 -0.117021944122222304 -0.0178350069373755249)
(0.0910434076839856665 -0.131901228893290368 -0.0193793433869498787)
(0.153216841961168332 -0.131540753996964022 -0.0216186827410525979)
(0.216694194768477899 -0.132091934694641339 -0.0254287195449560549)
(0.281710927710514425 -0.13514159672416115 -0.0312320372064914115)
(0.349219739527061757 -0.139994320501318964 -0.0395149449751663606)
(0.419361577296334054 -0.145703446537015946 -0.0509879334136254803)
(0.493254587636724029 -0.151745746073793486 -0.0666896313008079056)
(0.569516682572496546 -0.155739688414188893 -0.0881607701324165632)
(0.648831985183080495 -0.158098876485846279 -0.117862051639316776)
(0.728314127218809948 -0.153973787135761264 -0.158974966492786862)
(0.801260571938032018 -0.139406495983626894 -0.21955614949799801)
(0.861716353630181731 -0.119355297106567809 -0.303946694004562645)
(0.892095217960262143 -0.0929481324902344253 -0.442970592913981442)
(0.886022300199430735 -0.0482131463555182035 -0.654058115149885433)
(0.538008139895165494 0.274959318596494084 -1.44339153009681964)
(0.0301802091554517413 -0.144138959389846999 -0.0176561901142667996)
(0.0905413247558742584 -0.159305466066230139 -0.0190569205686580839)
(0.151842249045946703 -0.159483793031125892 -0.0211188524495409639)
(0.214655604607386086 -0.160661411799655346 -0.0247276370513935806)
(0.279235189627534852 -0.164662131750174912 -0.0303100071582370727)
(0.346429932499223603 -0.170800929894441622 -0.0383099102896685625)
(0.416447732953305561 -0.178056613272334435 -0.0493810448417380671)
(0.490629642187316473 -0.185831656217550378 -0.0644832722647496193)
(0.567915586991231236 -0.191467076737919933 -0.0850621774719308166)
(0.649358941522390043 -0.195426380118265186 -0.11335177173677595)
(0.732159738937897764 -0.190755212415126385 -0.152577279990883719)
(0.809377422474121144 -0.173917512562184962 -0.210486283554806114)
(0.876157858061518913 -0.149248711908560205 -0.290928561273449904)
(0.910235845078704475 -0.111055581363742217 -0.424355352901286342)
(0.905245159922729803 -0.0422050763960578751 -0.633923865658144958)
(0.545653800961804047 0.350838493664827056 -1.40852059174253585)
(0.0300084818583074737 -0.171184490048413046 -0.0175146175063809785)
(0.0897256696784853314 -0.186358666571224296 -0.018709217587482084)
(0.150199037588005568 -0.18709060052130061 -0.0205223699296634594)
(0.212309885985626667 -0.18894850259024587 -0.0238827181883370585)
(0.276305409079848796 -0.193910018559781322 -0.0292171355693425366)
(0.343022394156894339 -0.201387875735942717 -0.0369050358727727179)
(0.412777859668775837 -0.210339093709278807 -0.0475487318772586931)
(0.487155196541259994 -0.220120905914600845 -0.0620239815147674567)
(0.565548901511959246 -0.22792056938598293 -0.0815826562250246967)
(0.649560182998664026 -0.234098244973676872 -0.108155959541008831)
(0.736358983704111902 -0.229398449820952199 -0.14503134082762778)
(0.819604439786687955 -0.21129789042786945 -0.19945015788127804)
(0.89545426803832362 -0.18170175991550086 -0.274744422002182409)
(0.937169955998641502 -0.127030131421442344 -0.402313702381267013)
(0.925021414869165115 -0.026767407187423535 -0.613832903087900172)
(0.5560669631952595 0.447446697245313274 -1.37495255408943051)
(0.0296710518001440486 -0.198047206995121017 -0.01743383383318272)
(0.0885909954908217223 -0.2130563043354681 -0.0183569451639087125)
(0.148254670064438154 -0.214348368104864573 -0.0198214540686550526)
(0.209638183201538542 -0.21688226490613427 -0.0228880557810109582)
(0.272905203426979936 -0.222784583617851389 -0.0279615329567676069)
(0.338951903574904234 -0.231645666949638285 -0.0353309077989820836)
(0.408243296396041455 -0.242440730475012189 -0.0455841697351064071)
(0.482626442545824763 -0.254585900629208162 -0.059450694164995474)
(0.562263054923102246 -0.26524797082936874 -0.0777891756447300076)
(0.64914930723827946 -0.274331612966692062 -0.102184574506293493)
(0.740486522818264215 -0.270569171300225564 -0.136140895154326036)
(0.832461644623203378 -0.252838209872464581 -0.186168226332603853)
(0.922184218843034365 -0.21833900977207521 -0.254826317469435182)
(0.974089494674805323 -0.141355664768362754 -0.376136674584459652)
(0.954768587934501589 -0.00231538885905892278 -0.588343149605185411)
(0.567773271264013668 0.556650102288902326 -1.33689599528024727)
(0.0291285377320145145 -0.224613922589589732 -0.0174257039851803408)
(0.087064098688353353 -0.239372816305118641 -0.0180038787034070939)
(0.145975819996267853 -0.241251776817128838 -0.0189866947510647713)
(0.206655558505183273 -0.244374879735467787 -0.021733765623303123)
(0.269045802599280404 -0.251131530938847991 -0.0265524291038801777)
(0.334187927520701034 -0.261398846019928244 -0.0336368643233192488)
(0.402719244922627118 -0.274196231610353003 -0.0436162604714444568)
(0.476887159268685856 -0.289203852376712367 -0.056851740243083794)
(0.557896178062439296 -0.303572950472602354 -0.0735491319223279816)
(0.647675109490921441 -0.316331164567705381 -0.0951441583328617585)
(0.744405130189509601 -0.315114428673983205 -0.125733597156642174)
(0.849125420807238518 -0.30041275937411116 -0.17042284526453888)
(0.957515449688105313 -0.261010073902179618 -0.231392608317184389)
(1.02121922621268535 -0.154414337817116665 -0.34839220448119429)
(0.992800545022689107 0.03371620727322195 -0.560300332634648623)
(0.582910600771272436 0.698137122811576916 -1.30283862352445134)
(0.028339042469957075 -0.250773116281310549 -0.0174738699952730475)
(0.0850539145428893112 -0.265308011922710363 -0.0176129671584673193)
(0.143378718457942089 -0.267832742106789368 -0.0179685707271787405)
(0.203438498862200112 -0.271320704314176653 -0.0204103377166117705)
(0.264776859829371658 -0.278751790657331688 -0.0250015961561018997)
(0.328714601326501044 -0.290436760395709592 -0.0318924525577992529)
(0.396097520264562408 -0.30544845679415733 -0.0417543956294372728)
(0.469845762041771808 -0.324023063290798385 -0.0541292729539207054)
(0.552212483945452748 -0.343048012203101271 -0.0684836562744329247)
(0.644535290282762241 -0.360445198361257435 -0.0867982779194324261)
(0.748051884736749217 -0.364265591822507173 -0.113984110854892018)
(0.869714788725914789 -0.356105971084731354 -0.152512088173923255)
(0.998587115357022825 -0.309247632921489768 -0.207057678564795511)
(1.07574954144240964 -0.164377377044783779 -0.3230425065743186)
(1.02896288179144513 0.0854779907373012515 -0.537924397654754749)
(0.59681399927480272 0.858627090059847164 -1.2746032676801109)
(0.0273267377034684747 -0.276409639526257467 -0.0175204221101008598)
(0.0825326548625221479 -0.290950035945091834 -0.0170862795319149212)
(0.140589347028790446 -0.294233963655486708 -0.0167226613548907103)
(0.200138363767861815 -0.297631916822788389 -0.0189095827100071376)
(0.260187584824634943 -0.30544267724613261 -0.0233271350633780863)
(0.322527786257527482 -0.318566323969449672 -0.0301708337731123807)
(0.38830377298335822 -0.336111552655612211 -0.0399961021419953933)
(0.461428431730991628 -0.359179974132713131 -0.050940313770750395)
(0.544699547780687299 -0.383812121495293201 -0.0622004885822195208)
(0.638883909863041888 -0.407112619480114846 -0.0773961396316680678)
(0.750869835572721023 -0.419486780968473139 -0.101540179071934814)
(0.892101767329052442 -0.421217417042357156 -0.133575751319805036)
(1.04161248570303666 -0.363129712471571608 -0.183103210093712748)
(1.13145627727982179 -0.174422379268408978 -0.29837412303433819)
(1.06194944115811518 0.152108299626716931 -0.518888659070257607)
(0.603511207684876094 1.01916862624574889 -1.24735585802699256)
(0.0262405643719071449 -0.30127396377530119 -0.0175073750277876423)
(0.0796013712224760694 -0.316323529551734983 -0.0162456066307694914)
(0.137852581299353044 -0.320534481541932037 -0.015252990453382723)
(0.196964069320018337 -0.323096887955370948 -0.0172165585790937728)
(0.255399117627622074 -0.330904112473429268 -0.021563527009495511)
(0.315620438045890017 -0.34553928166100828 -0.0285141501291845574)
(0.379293978322109537 -0.366067148684568688 -0.0381708460481342063)
(0.451440588904318707 -0.394648642911408942 -0.0468373355363676871)
(0.534410354281748101 -0.425601674068946167 -0.0547165161829598415)
(0.629526647911356485 -0.456321888293241995 -0.0678449964230411068)
(0.751267702450359454 -0.481096347510183431 -0.0893022756187661221)
(0.911624328672971607 -0.495298369139038686 -0.114518009758348735)
(1.0797923409937642 -0.421225363661267727 -0.158714516525057137)
(1.17466274174156671 -0.180328735652869526 -0.273477742931544365)
(1.08505762939293926 0.231236218165242757 -0.499421227538769941)
(0.606210052200174987 1.18967916313468702 -1.22034546076328221)
(0.0254282078498022507 -0.324867968693510811 -0.0173552092620752434)
(0.0764995760549476711 -0.341093778594556474 -0.0148765534331009985)
(0.135457094270432926 -0.346335612293565909 -0.0136424239675687411)
(0.194111503385937412 -0.347124292850970739 -0.0153124146665528961)
(0.250516634307639263 -0.354592777128501069 -0.0197941424999261775)
(0.30794423940250637 -0.370965160870436461 -0.0269102288663494171)
(0.369030531657592753 -0.395001205904367492 -0.0359920366068908204)
(0.439443600878340446 -0.429950852043399778 -0.0415687075060396927)
(0.520046292207038241 -0.467557527167286657 -0.0467216669810727528)
(0.615257617482087182 -0.507100583817361783 -0.0593276875890130367)
(0.746666721402618472 -0.546780035652841723 -0.077814562102227397)
(0.920802044832535027 -0.57516314535664359 -0.0952862640234623665)
(1.10274094795873134 -0.477989967216094658 -0.132426539273710953)
(1.19824063613798426 -0.181331262571809121 -0.244554528092302992)
(1.07413025313464772 0.323940986326199831 -0.47850235538963537)
(0.593657977932420811 1.37409274561966965 -1.19845672539314374)
(0.0254618536644597472 -0.346998753694952367 -0.0168861187816724476)
(0.0736180980450305 -0.365033625931600658 -0.0127719472200730471)
(0.133590521235038895 -0.371075952198283709 -0.0120314266897271118)
(0.191596376963934417 -0.369198893118099392 -0.0132254996809894748)
(0.245481289598787872 -0.376122908205063389 -0.018212931909048137)
(0.299327846031003431 -0.39469099774190386 -0.025310017284441301)
(0.357406532496453322 -0.422708080730113067 -0.0332029903911045046)
(0.424650601014125273 -0.46466641407452175 -0.0353316600261009556)
(0.500352385878655159 -0.509198938705068938 -0.0393750619685753547)
(0.595526947343803847 -0.558351123287478934 -0.0525395661780470868)
(0.733462598664892607 -0.613667797550852545 -0.0667544984258132135)
(0.909916433349656439 -0.658756299917827359 -0.075212588459355717)
(1.0992543131939867 -0.53150440260518439 -0.104632254549174075)
(1.18324547147074632 -0.16452910147021263 -0.212999153395894925)
(0.997834951308541163 0.450019727873386954 -0.44994359566354214)
(0.564833195048742076 1.5374442669738495 -1.16584146512605047)
(0.0268751838363860962 -0.369347283636671797 -0.015712090880295182)
(0.0714104278155117261 -0.389360038530041419 -0.00994731161846487341)
(0.132142252985694375 -0.395343492847821831 -0.0105513181875174517)
(0.189008040124497234 -0.390011641665249431 -0.0110869496904345364)
(0.239847404760444638 -0.395955100452529629 -0.0171011799497165912)
(0.289324318062852248 -0.417285094556478331 -0.0236291168636306066)
(0.343954516724988613 -0.449645492106728772 -0.0297367329152919135)
(0.405800784945407444 -0.499470226243311277 -0.0288006413225948138)
(0.474522246421105298 -0.551346832207750381 -0.0336328661731656181)
(0.57013433331396457 -0.610142620809998482 -0.0470951390987643589)
(0.706114327045058943 -0.683109974517628227 -0.0551049503033627999)
(0.870002617395600142 -0.749941835164107173 -0.0543711626184429989)
(1.0610850218649901 -0.580045133194555973 -0.0757266353307782664)
(1.10954261457733261 -0.0966831709790906824 -0.196711293622073569)
(0.88836212102557599 0.559156000425835797 -0.417989169894651791)
(0.531442422805856851 1.68129917106955906 -1.12715980150695994)
(0.0294899097258700879 -0.395385851239974384 -0.0133578206284609095)
(0.0699281397114699388 -0.415611449289951917 -0.00712294148325776262)
(0.130289989303553982 -0.420086258475719732 -0.00923940079874367194)
(0.185088103245612257 -0.410454344863740106 -0.00911564755542385724)
(0.232386104654025483 -0.414635850936238115 -0.0164487813172063992)
(0.27677467020647134 -0.439104763672485687 -0.0216442703313155828)
(0.327133050334754427 -0.476099943993091856 -0.0257748137399542582)
(0.381348718712862078 -0.53505261860045128 -0.0228745656043106566)
(0.442426632475344694 -0.5932367442202513 -0.0294152352616127086)
(0.537355381365413498 -0.660501846238816026 -0.0414812790155873953)
(0.656406428462996128 -0.756203125819970845 -0.0421823814980142736)
(0.796333835600349205 -0.84202938008490158 -0.0344414214534909391)
(0.964605560837315745 -0.613123793952514706 -0.051332336755214994)
(0.962999229441622306 -0.00234334390084023347 -0.205108431349804887)
(0.740035078965063708 0.682250664206178525 -0.423506259540443741)
(0.483412191357874166 1.81269787780390157 -1.0910601944933187)
(0.0271094241202004121 -0.0115455293585327249 -0.017707995921856845)
(0.0871358697500396046 -0.015465206134259224 -0.0195627404661679501)
(0.153620820530494501 -0.015670087309371368 -0.0220264026812949376)
(0.225410818805367785 -0.015755828931021558 -0.0261715088210793291)
(0.290415654738003848 -0.0155406161812697858 -0.0322547051441278848)
(0.356462158492732439 -0.015655582191086849 -0.0408904801678020083)
(0.423430942558143897 -0.0160996429414513968 -0.0528455684360595868)
(0.492800748785875875 -0.0166447369726135039 -0.069362387106035206)
(0.560379489681310794 -0.0166476448125368916 -0.0915970923850105007)
(0.626370453361618784 -0.0165406520021075462 -0.122647865893357327)
(0.68493124248234627 -0.0150830111299515533 -0.164580085176500968)
(0.726718611260796288 -0.0124680104822240574 -0.222931994435092123)
(0.744741554589874344 -0.00847052828757713025 -0.303724321600036706)
(0.73199082693792461 -0.00602522608573961924 -0.418787093632208229)
(0.657578737574978756 0.00227434100378126787 -0.570325681113192484)
(0.518760310552080939 0.0345058358429089218 -0.762549458628600796)
(0.0279764590486364165 -0.03647665780286867 -0.0176695044746382028)
(0.088341086045604339 -0.046483161593806846 -0.0192491713960318001)
(0.15285948322786555 -0.0456051269650849661 -0.0216676162846172853)
(0.216252157189063626 -0.0451846099064534545 -0.0257060638531021804)
(0.279487292984175961 -0.0452475909780537533 -0.0317111057552987435)
(0.344451890589622556 -0.0462610896207274816 -0.0402066040542843686)
(0.410974508930774807 -0.0477756762953975359 -0.0519560158495429789)
(0.478984113538658607 -0.0493260728962891387 -0.0680585519806983508)
(0.546553215598682751 -0.0495643974710504864 -0.0900330310256006877)
(0.612274167561898564 -0.0489801007909857894 -0.120283418367163247)
(0.671983221500028094 -0.0455286483119868995 -0.16162820750125545)
(0.719950415948272471 -0.038583312094645876 -0.219438043606563576)
(0.742453886113043859 -0.0287523357307069363 -0.299186894660615765)
(0.739490347315410967 -0.0217710924253282923 -0.412152953830588198)
(0.662656961232172659 -0.00126774166115054009 -0.55441862164155209)
(0.57008025551099506 0.102917320352589117 -0.871015980524368905)
(0.0289259314467524009 -0.0629273609495323294 -0.0174947423042991941)
(0.0892407025852611085 -0.0754472840036067849 -0.0191172162118133995)
(0.152297816629858668 -0.0740455432158373256 -0.0214990369744192181)
(0.215401204503199939 -0.0735859115569689193 -0.025462657324423061)
(0.27881805670862958 -0.0746121817499415529 -0.0313766182340751432)
(0.343946439018579853 -0.0767817190989604215 -0.039741224639164921)
(0.410629122765296395 -0.0793465111007603668 -0.0512945647293407553)
(0.479165810729498431 -0.0818761148523930726 -0.0671070869179043045)
(0.54737459896037699 -0.0825861517570261189 -0.0886872670100510713)
(0.614350279827253432 -0.0817654693059007148 -0.118343681342981288)
(0.675804335576545179 -0.0771425729151883066 -0.158930829362939646)
(0.725075443288228261 -0.0660213963646630181 -0.216005292335035015)
(0.748275350926737692 -0.0516236353450029023 -0.29412515324674593)
(0.747703617773279428 -0.0384053522984781903 -0.407287303662959843)
(0.656778541465641852 -0.00577069901223446063 -0.550205135409592039)
(0.546028708128220686 0.180795718796025739 -0.855307959641712579)
(0.0294705186340174438 -0.0895981273985664017 -0.0172640922695557232)
(0.0895899837826451689 -0.103458935471991822 -0.0188791454128481237)
(0.151462190826167298 -0.102422605256247773 -0.0212048507417556091)
(0.213982670291648885 -0.102286287951969479 -0.0250724959557308349)
(0.277298453711167514 -0.104161387264886982 -0.0308585623717194807)
(0.3424271570833472 -0.10739424871080458 -0.0390385682039202653)
(0.409207694887140427 -0.111100062644714531 -0.0503148173227037157)
(0.478226837846754016 -0.114764981776750541 -0.0657156627761352891)
(0.547243327968288451 -0.116113918500783758 -0.0867253442670866403)
(0.615900363217614544 -0.11551159974249825 -0.115533003769003273)
(0.679642695328471214 -0.109370914813201797 -0.155063753203270399)
(0.731230274733727703 -0.0938768873792696357 -0.210900685714683511)
(0.756787668198322772 -0.0744112424049222787 -0.287022719347204691)
(0.757945417158657708 -0.0521066922417245809 -0.39759022270372657)
(0.664510838532333614 -0.00303146465796224566 -0.541720555341670851)
(0.532565258134711894 0.257436084019416866 -0.840356361391624507)
(0.0296877450564388932 -0.116531161823211563 -0.0169696296659000122)
(0.0895039456780896969 -0.131172777025015563 -0.0185480682162508445)
(0.150439739971063413 -0.130508113514371832 -0.0208001445921899911)
(0.212360926307823855 -0.130797408582843139 -0.0245522988597015844)
(0.275433287837677176 -0.133539242241223516 -0.0301783439195161575)
(0.340462559923514096 -0.137926484078149447 -0.0381238529887812372)
(0.407326785750989906 -0.1429357796731969 -0.0490444601655782922)
(0.476863795713628691 -0.147924471587010303 -0.0639198931574383872)
(0.54700353815690006 -0.150181812602862536 -0.0841677524678191707)
(0.617828233419232986 -0.150173259645005552 -0.111876689699344556)
(0.684534402730158753 -0.142398092356722406 -0.150021227903407189)
(0.739479040358692608 -0.123015393257654593 -0.204116370145399684)
(0.770050007082469179 -0.0981348739819230126 -0.277320524942407498)
(0.773166626824293601 -0.064494124828074581 -0.385843046320957006)
(0.684353785325950925 0.00544638352432641037 -0.528459748815242936)
(0.52969198526647665 0.340207616730178242 -0.825904848675708791)
(0.0297005718306825803 -0.14355638540456675 -0.0166015964314242988)
(0.0890924515565651859 -0.158458462268236705 -0.0181338576546255029)
(0.14919575877466279 -0.158226376858532747 -0.0202917391340077455)
(0.210468652194099576 -0.159115266678620082 -0.0239073787759714398)
(0.273154153708558278 -0.162784331118238479 -0.0293487921414138445)
(0.337958903975919267 -0.168397971998524743 -0.0370205071201286789)
(0.404831071544456467 -0.174880711954052442 -0.0475178593507637817)
(0.474906200794684541 -0.181463991420411086 -0.0617571870099114933)
(0.546402147653104242 -0.185008666217089029 -0.0810437990529558061)
(0.619856446627137569 -0.186090688305199703 -0.107403162478215852)
(0.690340727062515258 -0.17678409833617803 -0.143789009302300153)
(0.750252133323812909 -0.154268114972616943 -0.195548486286929363)
(0.787988713115691852 -0.123368884739105872 -0.26541452650295877)
(0.795694439373992202 -0.0755356776135200497 -0.371796528696711814)
(0.709866925237574331 0.0204596828914920502 -0.515334036326889233)
(0.534057628846022148 0.427444532970196023 -0.810711727309786578)
(0.0295558324899631991 -0.170541702588378807 -0.0161500590597004751)
(0.0883983544866778215 -0.185428537870540144 -0.0176558814413075547)
(0.147705573799858741 -0.185596771209674827 -0.0196867660207035097)
(0.208273791556942311 -0.187170713679625317 -0.0231457741678191518)
(0.270433019868938307 -0.19180910712708904 -0.0283948035817725708)
(0.334850211550139776 -0.198727550464923547 -0.0357707868984728644)
(0.401598255150621697 -0.206905522190250768 -0.0457872209974294619)
(0.47218363252636214 -0.215434326754198185 -0.0592694733459134676)
(0.545228715805199493 -0.220793288952921329 -0.0773783625528696867)
(0.621892551577312713 -0.223569498082548695 -0.102124570398141629)
(0.696917908526453633 -0.21313472511033929 -0.136363857841908215)
(0.763738744937857428 -0.188493609499379322 -0.185176508322933059)
(0.811105826889770398 -0.150626830071778517 -0.251503352588069717)
(0.827908358132586786 -0.0837750307512343528 -0.35446155754164077)
(0.734996678157296524 0.0445101398737641207 -0.503849553171744402)
(0.539233995562035884 0.536473895246756483 -0.798198411588336709)
(0.0292407010660366631 -0.197389069868534689 -0.0155920911799597856)
(0.0874203760816558428 -0.212100201074372996 -0.0171392072040543013)
(0.145931168639734432 -0.21259045267796553 -0.0189858022098064599)
(0.205743599920789055 -0.214901532040779886 -0.0222817447892387256)
(0.267237061762317707 -0.220531747773523246 -0.0273618239604907013)
(0.33105005693026196 -0.228830891607392367 -0.0344371689963363925)
(0.397477222516326112 -0.238979263851921669 -0.0439112487366236925)
(0.468490456211932693 -0.24992832642033827 -0.0564832058548020849)
(0.543393262768278817 -0.257775913092725906 -0.0731825395533272915)
(0.623670781595844326 -0.262871899695578282 -0.0960610034088558162)
(0.703869983466766658 -0.252088429320233565 -0.127755535515016672)
(0.780327170457314812 -0.226824849730442757 -0.173034403872860482)
(0.842507653526293199 -0.181959046700384791 -0.2347901465680583)
(0.870521423411960704 -0.0897725198955620363 -0.333643694225366216)
(0.769056350472333783 0.0787414400110594825 -0.486873838459253139)
(0.543379963499720953 0.653936476450266757 -0.790260349022905095)
(0.0287032034304631548 -0.224001162166043016 -0.0149287083424214963)
(0.08609463674057731 -0.238468159596876034 -0.0165766725556821815)
(0.143838358646344838 -0.239163349083377968 -0.018179263463766155)
(0.202877375601358295 -0.24223379175916937 -0.0213481897076569505)
(0.263547236412407293 -0.248826651859756304 -0.026322820943631399)
(0.326468434107118288 -0.258573630806987531 -0.0330928043700097277)
(0.392320629408073163 -0.271072637181959786 -0.0419347734964887892)
(0.463733836917014086 -0.285090957334657447 -0.0533961799681489518)
(0.540845608571419612 -0.296132392127408717 -0.0684656029697948698)
(0.624749143977559762 -0.304117124363676328 -0.089243867422327261)
(0.711057422419627994 -0.294296235369772341 -0.117970840399592103)
(0.801133094474352103 -0.271300458694791691 -0.159011110168382347)
(0.883659269633625066 -0.219451888020194386 -0.215511314299531243)
(0.922693850549424432 -0.0941147838526175118 -0.312105809883502339)
(0.817567632856879389 0.1231306263713845 -0.46557061271436978)
(0.553989244369817002 0.790660122330301141 -0.780137265184055018)
(0.0278881735084856239 -0.250293469532158752 -0.0141858006990575256)
(0.0843557275863772438 -0.264546653093610418 -0.015943825914550562)
(0.141459867204901502 -0.265275625046294705 -0.0172660237468930874)
(0.199727842856448873 -0.269088011635486013 -0.0204094959299654967)
(0.259363956730064182 -0.276535691772490322 -0.0253702999886516144)
(0.321041525397657068 -0.28781404697908608 -0.0318008266032236489)
(0.386070863478348736 -0.303243133192921122 -0.0398705735725239374)
(0.457972360240819054 -0.321131920665433057 -0.0499790734013672369)
(0.537483721774430712 -0.335887963464859385 -0.0632503698731325115)
(0.624503007297392942 -0.347331717605892931 -0.0817027034623304116)
(0.718379232228445463 -0.340834052450227798 -0.107019036604682705)
(0.826232432265855743 -0.324320131351667873 -0.143409126147120647)
(0.931058377954097294 -0.262046769902083976 -0.196166703554537997)
(0.984150624102230864 -0.0965297202112201796 -0.292251778749758329)
(0.866134396121530648 0.185744324391153015 -0.448810574698562947)
(0.565171224906125147 0.950549763271933856 -0.769106820570292671)
(0.0267872384662103842 -0.276195230632768129 -0.0133525264102355434)
(0.0822386807302031148 -0.290435304752931556 -0.0152263314069740249)
(0.138975383232470662 -0.290980426658608571 -0.0162899349755636011)
(0.196402458934311575 -0.295430516202724147 -0.0195606225848186932)
(0.254725277797319516 -0.303512579163965013 -0.0245915132299502591)
(0.314790191791553042 -0.316472277667573354 -0.0305952924413138705)
(0.378808925377217554 -0.335684721664461339 -0.0376892931390223826)
(0.451329094738524172 -0.358188047820651001 -0.0461849383812961353)
(0.532890983727537182 -0.376728441018258475 -0.057577699954701668)
(0.622028356926619508 -0.392515003907097482 -0.0734590091012272267)
(0.725193891927426781 -0.393440681228237277 -0.0951040195287373158)
(0.853703981225180764 -0.387350490219371013 -0.127546713592449096)
(0.981274804978987003 -0.311280468139231825 -0.178533809734038901)
(1.04849996850121574 -0.0974989235052057812 -0.275582092281708935)