/*--------------------------------*- C++ -*----------------------------------*\
| =========                 |                                                 |
| \\      /  F ield         | OpenFOAM: The Open Source CFD Toolbox           |
|  \\    /   O peration     | Version:  2206                                  |
|   \\  /    A nd           | Website:  www.openfoam.com                      |
|    \\/     M anipulation  |                                                 |
\*---------------------------------------------------------------------------*/
FoamFile
{
    version     2.0;
    format      ascii;
    arch        "LSB;label=32;scalar=64";
    class       volScalarField;
    location    "0.930000000000000604";
    object      p;
}
// * * * * * * * * * * * * * * * * * * * * * * * * * * * * * * * * * * * * * //

dimensions      [1 -1 -2 0 0 0 0];

internalField   nonuniform List<scalar> 
29184
(
1138.54710768434666
1141.67067568527318
1147.97005829907175
1156.5707117341608
1166.2729211012379
1175.75417945884942
1183.78677610420254
1189.29513117061219
1191.99057783147373
1190.47188829020524
1184.6926353445981
1174.49105207194157
1159.12047669890444
1137.02583047439339
1112.521932456287
1045.3592255647718
1015.06527995010515
1018.30187851821711
1024.82580480776573
1033.68998131173157
1043.60719741928688
1053.28080809769699
1061.47932481638099
1067.12820461762522
1069.59056184329415
1068.06237620895649
1062.11038379355705
1051.58748082093848
1035.8117615619617
1013.53481218875186
987.190839505602412
922.524122468263386
890.739530125410283
894.26857441539255
901.221298539956479
910.572837901422872
920.961713857216864
931.035909914346803
939.519549652248998
945.287806085766533
947.582066455611539
945.871661798360265
939.509710496629168
928.424728955001797
911.842952404109155
889.224046517050056
860.458104406661278
797.933573373801096
765.649170548110533
769.544956334411609
777.150888825792208
787.232140745858715
798.326233727882254
808.995249809290044
817.896526373145434
823.806768018648086
825.904619020538576
823.883564906214019
816.873430043812846
804.93582357171681
787.154697832782517
763.953039390897629
731.587566137777912
673.000389309608863
639.75032873409782
644.083550426624015
652.575278372978573
663.657170118056797
675.719637140015493
687.19834309140299
696.665407979514839
702.752536169887662
704.662591790472106
702.026754941326431
694.227488795560134
681.117486787970051
661.807092698202837
637.676861641544519
601.565062909958783
548.375690602492
512.980853810914027
517.81624527356098
527.459211082514798
539.829194958567768
553.15442606572276
565.661336359752909
575.854084654468238
582.136124789053156
583.738215403325626
580.395689401806067
571.581568590390816
556.97202999534386
535.857459257360233
510.346663247694551
471.3565316932511
425.698557936227076
385.150460651681215
390.814796421666642
401.761361211069698
415.711572745769786
430.605979192355449
444.358300906919226
455.437937106882146
461.887523106643584
463.04817485157821
458.884555226659359
448.929570843736087
432.529020651652786
409.395294782303949
381.733405961894846
339.735674332729786
305.794040308146236
256.438411886060067
263.288878506282117
275.630486296239155
291.466093837429526
308.129045758910479
323.269266112606147
335.556812419020616
342.252970346303982
342.945771462901575
337.856878231807173
326.494120990789384
307.862580042413697
282.408238168251387
249.798671695007783
201.506819483741651
183.663580212430361
132.071266438200496
138.556808797618828
150.669812979389462
167.296813180111712
185.790721209626554
203.426979511627906
216.882709032787716
224.13930852277349
224.194230970647141
217.811941604907815
204.594281959736463
183.331538748795538
155.23938529303723
120.78715438497693
85.0960010076767048
76.3787616872850776
49.8030058241866413
49.7406925198798717
55.491628145488562
67.16253979036685
83.7966218316379354
99.9889491991923478
108.633943442874624
110.663894571195897
107.717146547219727
100.875338534447792
89.0511894892435976
71.3769915158757158
53.242920058570121
39.6084868820759652
37.1192931578382286
25.0984524590679996
24.5641049506037064
17.8748778468223293
15.8884915918438168
18.7573101722125557
25.553286188277923
30.3714071940306667
30.0638420762089709
28.2497848714972406
25.7169177426419537
22.4712810556432601
18.0986444141351512
11.9759252103837923
10.7217330427168065
17.1033511087908892
24.5072560935232175
14.247659675917177
19.3222582612344027
11.5100276491041313
8.15102814744847137
7.1881251769072847
6.01385196742674566
4.35742523235084889
2.78259492077540216
2.11637092895136192
1.70729340966481935
1.2826365289495163
1.26615431421785907
1.42410364719363258
3.47593852786296154
10.2257574040303076
17.2299838380382155
9.98312689385856444
14.916144663505051
8.31229461821602911
5.46580012568388796
4.05094514483897683
2.20505364056437614
1.29128448555712794
0.936700938170905495
0.860487864063040675
0.886315066363235537
0.782523952532851119
0.517358071768032168
0.252109636486460786
1.01617237886783496
5.1757211569135837
11.1165176515855464
6.86298454758622967
11.6210602687005533
6.19413598474161731
3.16167866917723828
1.85147237151009492
0.659858936632002013
0.239779471651123899
0.168273370095381125
0.397470784782138153
0.475837325327057137
0.4058173975472954
0.153337826888908069
-0.200069472698066519
-0.0715265188468450219
1.6375491309529675
5.0047425999152324
1.09603854850657001
8.48983516872007726
3.87772672833156662
1.41796416567732564
0.31361251503924592
-0.125614696661981995
-0.427393659652260283
-0.51070960273375654
-0.246497532356581672
-0.0382783114624096754
-0.0165396047282522218
-0.204475421292434678
-0.514087282206383112
-0.59090936488745438
-0.19038393649199481
0.109350998536207555
-7.90231507117445631
4.56901704308342005
1.22895166467729666
0.207286327018335825
-0.527816751264060358
-0.511112159827748158
-0.675165656085615407
-0.803996003986693575
-0.823534509458151209
-0.637707737765735416
-0.510347532203609511
-0.551753458176136746
-0.760833261029503216
-0.844576907939276422
-0.800867115565470522
-1.51739003382580151
-11.6530043116961508
1138.74205615628694
1141.65567233207162
1147.57735374363006
1155.64942334380657
1164.66203277732893
1173.30904780098922
1180.39069595012757
1184.88115584047819
1186.1089485693094
1183.65277252253145
1177.1730893323961
1166.82864785308107
1152.57812686237662
1135.23757078106951
1116.53155151736541
1087.35519975171906
1015.30513463549642
1018.3370348394958
1024.48441094502391
1032.805278425913
1042.01975877260088
1050.84638800912649
1058.05710014035822
1062.59177478310085
1063.77125515117814
1061.15961006125167
1054.45406035546375
1043.82757283442129
1029.06695081073804
1011.34037197390694
990.750035564865016
963.179459400468204
891.060384114375211
894.397845596941806
900.964247580530127
909.756042652159977
919.420722380217626
928.62185384409338
936.077470998318404
940.669573526267868
941.700135378256846
938.795061012924634
931.642519763564451
920.415426233625794
904.753632651314888
886.335197770382933
862.791934821559039
836.572398809270908
766.094170294168066
769.822738199439982
777.029337955621827
786.519327185114889
796.848702060596793
806.607966297042935
814.43369798534593
819.094453182709231
819.889859051327676
816.523055661951048
808.702381225995396
796.558184047320879
779.599102560754773
760.123778080127067
732.72630750369035
708.445526711176285
640.374226407462174
644.571046800117415
652.634400198835351
663.084777618242811
674.325409975350681
684.84917234826537
693.176143931099887
697.90562993063736
698.376253336558875
694.372678915086453
685.655705233151821
672.278646181811951
653.689304027566322
632.635858332647786
601.241195613310538
580.222638535094688
513.830573536279189
518.592226500747415
527.750590593966649
539.435264809386013
551.856357450137693
563.36552000861434
572.33043010706956
577.103359536548965
577.119387924457214
572.311988728636607
562.520130069127049
547.61683739052512
527.156444464740275
504.057424251584848
469.145090259959716
454.500979017873988
386.393797679873842
391.851748238822779
402.328220834953981
415.5451579800432
429.431915166048839
442.153890345672039
451.889957954251599
456.61016149482623
456.016695157280083
450.273319724106273
439.320253280465863
422.642475294430824
400.173879584535371
374.291454144120962
336.607621472940423
331.617775793348301
258.114664324775845
264.718634643708583
276.631337920749274
291.566580769193479
307.100819367693816
321.31097834560012
332.086099726001407
336.766184796642278
335.477284285197015
328.63330992595013
316.269783430252232
297.474293910735355
272.674780692212153
240.321397098849388
201.003934490591405
207.342618938130045
132.94516814622807
139.633588982385163
151.599969032562512
167.658064919391563
184.967807899012314
201.489253783070353
213.654558490499994
218.402660499218882
216.100744121237767
207.674078615702683
193.602043537980308
172.799366979626939
145.690659398993716
112.022009289604057
87.1969391351969989
92.5066195189174323
49.5696773888624307
50.4918257729063384
55.8532065427074258
68.1629321480513681
83.8585702480679629
97.6324037918413978
104.206790945019293
104.103540726400752
99.5436923217082494
91.6483965273046124
80.0547544879725592
64.5028347461382054
47.9315686923375779
35.8482514301749688
38.1318729524624445
30.1607447330926561
24.6031048950057993
18.4275614059964568
16.0783986953641715
19.1387987332743705
24.7702872317063338
27.7417628816426713
26.9861780947802572
24.5442618510604689
21.5083827081842855
18.4736678967101966
14.4321135200148092
10.167011881248186
9.57444197294930177
16.6839941804763683
25.47526825706192
15.4068077806359227
19.2532845187740662
11.7777213361909219
8.7572893499462765
7.20914963618725224
5.45473045462087214
3.51382774746004856
2.33918648259229656
1.66016645777130378
1.31222455918732628
1.10111065220977355
0.879219032373087295
1.24148144681229233
3.36663713894353478
10.6107755856192014
18.8658189074058988
10.7633181540733958
14.8758878428734107
8.65689258329186373
6.26373921100917741
4.54468996196683861
2.476262584977583
1.33682433735494399
1.03224358748751577
0.954656948127225569
0.884843615254940374
0.684517472369889912
0.40941284058156846
0.235596412400620459
1.31659753869372231
6.2128460099462739
13.0636120290289739
6.81667384812566013
11.6564189355850303
6.58839227786936732
3.98930923183231556
2.29174216519520613
0.780389286792676273
0.254862504997170447
0.20089625731017513
0.451848545491848164
0.470287586946046332
0.319256356107998851
0.0504562470615637082
-0.207689248142659544
0.201689195237754415
2.79496912616019166
6.78094490729198185
-0.240890690416136977
8.19479223074898755
4.68816920749765842
2.02506038258507814
0.764330922622754372
0.0378910372790501881
-0.359151073553848565
-0.474153954705317293
-0.174212462582556071
0.0183406341862877298
-0.0382829573544940516
-0.286127502956876167
-0.528547051996669293
-0.455837342378282884
0.352796837511887063
0.719818376940850158
-10.4359575361986998
3.56389391770052555
2.04023534011093943
0.718227366428887848
-0.194413387522232028
-0.336464004975483455
-0.606722955399645603
-0.747531658168742341
-0.706184957153843662
-0.447025879882966493
-0.423884464327382915
-0.586793079694960085
-0.789199222745020634
-0.8231730925874996
-0.714984572381300421
-1.84650010782685037
-14.0921028540723086
1138.93193924677257
1141.64886353972065
1147.23064967095343
1154.81886954445531
1163.21140682904888
1171.11225171923343
1177.34317703814895
1180.92669914015278
1181.19860270820709
1177.87471599745322
1170.92805796608036
1160.73821300017721
1147.39910017474426
1132.95814465498597
1119.05880298473721
1103.76656782882878
1015.52330123771821
1018.35993353896174
1024.1534540516102
1031.99254883986123
1040.5818823681509
1048.65837273919556
1055.00256661781259
1058.59704527497115
1058.79836808970163
1055.32957057646263
1048.13032307988783
1037.60664953283163
1023.77394668093473
1008.96407883464531
993.299602195864509
979.020178109387189
891.315437464960723
894.469373862253633
900.688875989296548
908.985978162676929
918.01602331702486
926.453783681315144
933.009826080438643
936.608247967865736
936.633987750018832
932.846648876819017
925.172707528668184
914.008851257245055
899.246322361060038
883.604388214062737
864.943969115105119
851.479650921629855
766.399232041742266
769.956322606243816
776.823126609923747
785.818586095980891
795.495300368585617
804.473610661121597
811.34997655606594
814.940711423563357
814.680052474742752
810.396789592602317
802.030694557008246
789.918581174624478
773.809498667332264
756.858625256290225
734.322890776762961
721.818987467639772
640.748103304896972
644.770682747918841
652.511544802688718
662.465779453571486
673.040175697686323
682.762198931692524
690.078004739110384
693.64594551875723
692.975916493446903
688.007540770066385
678.723910833292393
665.360777619934879
647.551442518304498
628.74927264039377
601.87099041613078
592.588990706756931
514.278344817429002
518.845602639019376
527.720791083917675
538.923437781619782
550.658282058078157
561.344953420543334
569.223630056684215
572.721204085124214
571.492596720191045
565.651994520713629
555.293630220559976
540.391339509699492
520.6820049090569
499.558232965735101
468.671365391554446
467.618298888917479
386.944473045654831
392.07810544307381
402.38765394328982
415.17094318299803
428.345935268828271
440.236422494372391
448.794404408438709
452.085395758001937
450.127149752516175
443.286740692492572
431.786772597112531
415.161682437738477
393.410459631269532
368.591023052692549
336.923641858693031
345.315791760282536
258.680709336704012
264.904994169533893
276.77929328114476
291.339182839755495
306.170169583443339
319.589614828922208
329.056364355382129
332.105021688950501
329.268440793456875
321.238310397003715
308.401176552025163
289.825583335004922
265.820849531840508
233.426628490365715
203.509916809904098
221.601727926434592
132.591630254043821
139.199339944211715
151.58000632305891
167.556210972308463
184.349745220986733
200.056445073129908
210.806205053999065
213.567691547763616
209.403385823409963
199.681798057062224
185.449276860477994
165.435679692023768
139.423285270145584
106.47870057242983
90.8313061092039788
104.828213561056145
48.5386710691026906
50.258262525778548
55.418411877994572
68.0907342106361284
83.2461531918871742
95.4361106581121703
100.714046791218948
99.0675768072994742
93.3696039688784367
84.8518049051288017
74.0447325460246475
60.031932127814116
44.7945460163807638
34.4884511719415343
39.9675976802293889
34.9997401280836584
23.8087297961110735
17.9897676775850357
15.4143325205026258
18.7745294240960447
23.9567173234138977
25.8588969204014916
24.7943235904207313
21.8038886269068826
18.891019433233339
15.84572970861268
12.511516241697791
8.91479502627009879
9.02390449972888575
16.5027356690677109
26.2948191805829339
16.6383032112849634
17.8134131123090569
10.9327099502534431
8.4079852150784653
6.79738240928062964
5.19375221646196295
3.19639989908377942
2.03853625748083545
1.29387011155906517
1.2102308806200246
0.965589423925007573
0.678015364346442162
0.864877816425154933
2.98707861316930234
10.2903285454642344
19.5592206292932467
11.8172048108455776
13.644934308484288
8.14982465017070368
6.22862484398039129
4.58664138312301972
2.64753686471020799
1.40343584745187933
1.02276143373757744
0.93997394774889198
0.817299625894030601
0.567016686029660821
0.280841562314810389
0.0794187179385215103
0.997321733634075613
5.91138982498259224
13.6100937916983398
6.84049981748903235
10.8527963906306688
6.31670446967934041
4.36852221444751976
2.57379591288896492
0.806351219040198686
0.258422121960736106
0.224573264056058264
0.49820406371565884
0.43726751647092188
0.234043675989437983
-0.0400741198395087039
-0.280323996837218647
0.00874926766576589188
2.51701806143539919
7.05909852963777951
-1.63642652572418967
7.66294809390227272
4.63605040939301816
2.52090471699918695
0.993642770675460696
0.0474392709427178261
-0.352335742368254046
-0.441656212563377615
-0.0789663918225098627
0.0586102573608391353
-0.0701257270396191679
-0.355514834195313156
-0.557954212467966837
-0.516716153170094117
0.104672811910294428
0.685115541810546347
-12.2726191617863023
3.24641474184493006
2.33400331573306374
0.959098135047327105
-0.0514412396896446467
-0.313420019465013411
-0.59865881611112437
-0.72428670636445025
-0.632793905309428695
-0.343093099994576711
-0.390521204852543491
-0.645034610270797781
-0.8000321240215853
-0.819413326018016752
-0.812222119633120521
-2.16897816293897883
-15.4849829134506081
1139.05084398317626
1141.59744654527162
1146.89239668579353
1154.07543543858287
1161.93961953080111
1169.20719994956744
1174.72515472162468
1177.56247765968897
1177.12937650921981
1173.22537542872487
1165.94299846398417
1155.84331479993148
1143.15212477260116
1130.49585882274323
1118.61869848324977
1106.97141231453065
1015.65550186039422
1018.32060830265675
1023.83120842612198
1031.26037993258115
1039.32161297960306
1046.76199594391051
1052.38034574117864
1055.20811110646446
1054.68072377036219
1050.61480997366289
1043.09027206086807
1032.65869221832145
1019.46764868725927
1006.39183567737109
992.788184407524682
982.291521778771425
891.46453601324788
894.452646182941862
900.385826389374643
908.281291176183231
916.781326063582583
924.572109901895828
930.37416540911363
933.173684244926108
932.445479012268379
928.039128843063054
920.028317573675054
908.951230894056152
894.791962810634459
880.79213636613099
864.213494490209769
854.664903247942789
766.566157890816839
769.962075664960366
776.557435495297113
785.14991961405849
794.298124774729558
802.615091890284248
808.697933679206358
811.44577444091226
810.399717016820432
805.468216693905106
796.749465934301838
784.736622399395628
769.130879622187649
753.742425325528188
733.250997776697659
724.704598138631354
640.922624006455294
644.790775729586699
652.284224464018621
661.855423550399678
671.89636672342283
680.93817557776697
687.409816594770405
690.080603784623008
688.571794029443254
682.913868480535712
673.27515107229101
659.98752950949995
642.606260836478214
625.367971549689059
600.193862739906422
596.04309691451715
514.427625638307518
518.854421860296043
527.528336591332732
538.37788947384638
549.585178582982849
559.571842617200218
566.548470140824179
569.080193117220688
566.925397744759152
560.351139382403062
549.638747758929071
534.782202694738885
515.495190024501085
495.875269948528171
466.606939828481359
472.617316862891585
387.009528386589409
392.032002376165678
402.222534055335245
414.704722580264729
427.354029555804118
438.53840192143889
446.12182477551255
448.35953697736079
445.37506260855298
437.759091704151501
425.907091965851578
409.37015528560562
388.362766262828586
363.877586514548398
336.250994615121385
351.912600649487331
258.594168691923187
264.700750865920213
276.61908319150632
290.969102013468273
305.298439451649642
318.007044529587233
326.383679615791038
328.277064220076682
324.30884746692675
315.453853208540636
302.30436515522274
284.011626657642978
260.68185119791849
228.158492678639391
204.696870744262355
230.030855663768307
131.921399280607943
138.495476843673146
151.280235006961675
167.266359346631361
183.707626566807676
198.561592462240696
208.188205490876726
209.632155309805739
204.161261318636207
193.667398509070608
179.363447827383879
159.95045391416761
134.7558292425947
102.347977672868296
93.0205891022336573
112.904974935690575
47.3632027402944118
49.1344666228683309
54.9140264675044136
67.8165565992349002
82.5653148775063528
93.16378237871902
97.5645657348130726
95.2698555844610837
88.8987579833610653
80.1001009764810306
69.7613320027750206
56.6372810532993753
42.3650498587340962
32.8729042418372615
40.9346435451442545
39.0106817203676428
22.4439790236416741
17.1894476255735782
14.9677521742377451
18.3626337118694494
23.2466680796981109
23.8136075926294097
22.3274007122952298
19.9765762425075195
17.1618222447200424
14.1321226942536669
11.1536662909958864
7.90201635137719904
8.49326699520987916
15.9063345118423314
26.4006056479785443
17.8049962900004601
16.4178330383441562
10.5004182885784658
8.20852352788250883
6.3586849121338247
4.90348512955882043
2.75951340038741932
1.37538027670356655
1.10360247771693309
1.00737369243365738
0.727984876615699328
0.392829366824485327
0.530998771831621141
2.6843882775518928
9.78813448227348104
19.553584719961961
12.5341203102507315
12.5451862223235437
7.79692564653749187
6.25932776667863067
4.58828237515933779
2.79678831672013573
1.38508831089807494
0.893336451981306734
0.825441507207484548
0.66608467430404783
0.372276155475648185
0.0693004429787058562
-0.120612839483309919
0.694489350164822383
5.46959131501292539
13.5472027326296178
6.99833296452840159
10.0283108229863522
6.0628039256783417
4.60706595463331681
2.78131881314978102
0.864064745252665745
0.245896969037236346
0.257676144084221903
0.443138347092607354
0.325978077574961222
0.0783478206472962846
-0.191901211339728484
-0.427047130112252038
-0.24479451031973376
2.13155442617820334
6.85203411925870398
-1.99462664095273112
7.22756341748443276
4.33374499340491681
2.82580503223741175
1.04750336692211476
-0.00391651017678551483
-0.363590079520796028
-0.407614554878667157
-0.117094584092424014
0.000698314654069775997
-0.179872780039620928
-0.45320500173422662
-0.655900735693568882
-0.691133221569604217
-0.205140011895533547
0.624438300975725724
-12.4746639611758781
3.46295904477366889
2.355620619390141
1.14045808676102567
-0.00461429707436167291
-0.400292990700986895
-0.615794797146457462
-0.732176617062012092
-0.684926086016158564
-0.381427616889284948
-0.453514049963021471
-0.704162878207872378
-0.850144766930065687
-0.934250101190651216
-0.983337834066417837
-2.16412919227046707
-15.3842184509921083
1139.11142586746519
1141.53115988738091
1146.60772421568709
1153.45206041808319
1160.87964943116049
1167.63641291905174
1172.58701803103099
1174.84157592225233
1173.88490269659178
1169.56029264046697
1162.05399476131697
1152.02139823134553
1139.65323214615387
1128.14973403474232
1117.21651783693665
1106.84847844577575
1015.71604888521472
1018.25968102312925
1023.56322966658024
1030.64601285832646
1038.27380821937413
1045.20019237447764
1050.24299854907918
1052.48920071187604
1051.4366411873159
1046.94159457006936
1039.18432683861579
1028.85324610776524
1015.95660112055441
1003.99927736376731
991.330857708079293
982.291931529754947
891.519433717542142
894.399435983914373
900.102431644282433
907.681105725730959
915.748784307745836
923.014607962892114
928.227538560216544
930.441152099073634
929.171723925996957
924.312900133393441
916.054768388404909
905.027815809162576
891.254170189800448
878.293715221605453
862.697847800381851
854.78889858688683
766.61232320630279
769.918672419229779
776.305154026031914
784.570316781575912
793.287321618311353
801.069132790308004
806.546363605631541
808.692805474539909
807.073636832500142
801.663247685397437
792.683971815505174
780.641797124685127
765.485315964293932
751.168158554868
731.633822491600881
725.246633818239957
640.956934764884977
644.752338975793805
652.059799006059166
661.318901426598131
670.915162885222117
679.414217367104015
685.2531978422561
687.28108621638512
685.152346770620511
679.00144592989875
669.093184707862406
655.713474194559922
638.748468258874141
622.731170573328541
598.446218036818891
597.276992224501782
514.439993403192034
518.811676062428319
527.32680414152037
537.875622676349963
548.636732982026274
558.078599525860341
564.371589391238899
566.185481571166292
563.358908811897322
556.296784227137664
545.312507415048913
530.39016690551216
511.724427947540221
492.458192244662655
465.645491779018812
474.311778001111293
386.986186573539612
391.983782087515806
402.03930104074368
414.23898026311133
426.437057342379603
437.07229799941797
443.880189024770516
445.315927414679436
441.626756129193495
433.531221974059463
421.418185290072302
404.897614218590661
384.329790592602762
360.171135302940229
335.990553936059086
354.670126208034617
258.522949467683588
264.618428611484887
276.431354807610205
290.528731388878782
304.400054713481495
316.576357499052051
324.044174183774771
325.081514648111806
320.368400020625472
311.021720149739281
297.658698211310934
279.524076374326569
256.381471607594221
224.114194766983587
205.293937469876937
233.888369912136113
131.563496751635171
138.225998826625982
151.040554803309078
166.765162839037203
182.813248147016111
197.147345256037852
205.752388580066508
206.285131865509584
200.023974054751989
189.146080613720187
174.803627072477866
155.698865316184538
130.789353772856202
99.2593611620736738
94.4016246961496108
116.519231829137652
46.4406811783312605
48.1232590109743796
54.5865947493059593
67.2281746394515949
81.3101149751429375
91.1281685485944308
94.7768897194451938
92.0808716690544315
85.4977575476767697
76.7616552709407642
66.6848963235852352
54.0535630176661925
40.4310904794264729
32.0773992664618959
41.73654401419941
40.3957735964726226
21.1698841386850063
16.4964318528866869
14.6748645919218887
17.9617027147126862
22.1678690545013524
22.2266252585322945
20.5980166964662885
18.5075548063510382
15.7950665121203428
12.9047010358802936
10.0665192001532375
7.21803871833714084
8.22459913375783458
15.6772964700813731
26.504420464479189
17.7879002131074344
15.4224638407648911
10.6995143638299197
8.001329491867466
6.16111107583595441
4.63075987727986238
2.54163668355571737
1.03789108028204957
0.90059108489760753
0.701813603335364355
0.390665315764486376
0.0613999172450072628
0.285980341469075583
2.53616512022046692
9.53483939144505399
19.4531387491571053
12.3915283417008268
11.8766812186385948
7.8843491841600013
6.18538280520462891
4.57663109799412737
2.86988178195208832
1.3073125277122255
0.713700130827614299
0.636373596650483098
0.40389257964086589
0.0999539828852404888
-0.182690347242428608
-0.335058312463414776
0.516430058840324335
5.22109348747853197
13.3361425014747219
6.70249801473262607
9.28848458430411839
5.69148849003432744
4.58109523487430792
2.83352374782706917
0.973923253314332271
0.235495400750034278
0.220164677230022754
0.242895721283276522
0.0797775408554448617
-0.162600868362183348
-0.403182545242846135
-0.584918899928926983
-0.394500087356060458
1.9214146088269306
6.59096091174286869
-2.36189913333507207
6.73868519253607445
3.87273274263478484
2.84943715863742852
1.02477285583161049
-0.0453313102536920809
-0.367481901437904934
-0.406909092249605919
-0.310902212531522615
-0.223487942239837256
-0.391125742012915945
-0.614105412962149266
-0.776695093114814439
-0.802558494628451191
-0.310346239726071005
0.596352963857228247
-12.7111189257496591
3.74207653711361843
2.16864221751331954
1.19512748605123775
-0.0358967744592977311
-0.460464363755849426
-0.651623316912263384
-0.779696600856040645
-0.769883523063597419
-0.525829833311354022
-0.590487528501410175
-0.793669568123662517
-0.946190064696991406
-1.01036567050164905
-1.0241480265876477
-1.97675060778079459
-15.4908675240624234
1139.12673758954816
1141.46632871068186
1146.35677414970405
1152.96450106893712
1160.06833052763318
1166.4456339514486
1170.98083748217027
1172.82625895803289
1171.4965222627909
1166.84171374873631
1159.14108519696015
1149.07456188519427
1137.16542920238021
1126.30542347790993
1115.5379937221187
1105.08581875536447
1015.73225376697428
1018.20292310392574
1023.32797266832085
1030.16994570247493
1037.47226160515947
1044.01974474555936
1048.65334929837627
1050.49044986775493
1049.05202652927255
1044.21959675507014
1036.27082486246854
1025.87455093221797
1013.45445883213335
1002.09928012411638
989.617165326174018
980.376669176241876
891.556656988516806
894.359271293754773
899.91820848956354
907.225437313088037
914.95701837540139
921.838052959161359
926.64251667665053
928.441168031606367
926.769563150189924
921.565840740591966
913.11642161418365
902.029818084283647
888.597760249707108
876.351243852715015
860.936826781270724
852.883764398985932
766.681400127245297
769.907509801735841
776.136768670892707
784.136528525879385
792.506019848898291
799.897451166315932
804.959120389005761
806.677009198885457
804.635103788592914
798.88120495209489
789.696967301844779
777.560934587872566
762.595344282659084
749.241182514644265
729.803328498202973
724.197167663641267
641.039792479031007
644.781943628883937
651.925120118649488
660.891408593668189
670.139465395750676
678.241915524284082
683.645800332721365
685.219942691016513
682.657034773646046
676.168790630410285
666.028663727442222
652.528743545489078
635.947867111812229
620.451278546279696
596.553488677724317
597.675408012041771
514.525448034235296
518.886566897651619
527.226782398664341
537.462347889013699
547.849805264964857
556.876929171411234
562.693247131976818
564.019870099704235
560.774022733508673
553.38384543032862
542.147048011531865
527.087394485167238
508.705358722582901
489.706099080504032
464.643055446758012
475.37272116407712
387.051323853541589
392.094923394712396
401.959173517918089
413.816683533378637
425.597505345651143
435.786854360398252
442.046695142792487
442.974946443193971
438.899828423239001
430.503549747074885
418.130925586435978
401.467230503488736
380.923616008154113
357.048595869099927
335.8176532774213
355.741661038192774
258.6489436147574
264.618040527090102
276.312025360802977
290.050553345996491
303.452109500305369
315.16025116195533
322.010512020164583
322.519917563844842
317.42096139480293
307.827181762767282
294.216443807619953
275.953536151724848
252.39652405234699
220.539963967636481
205.418345304588001
235.282567793837188
131.840086890635916
138.199366036220567
150.852349307291661
166.174453697590025
181.775445253223097
195.599700743805442
203.515430192883969
203.485700584539018
196.874423014271315
185.865792715357657
171.332853862292723
152.162663279798267
126.858765098886693
96.1897072078199926
94.4267208798922866
117.757078653854364
46.7934807436709548
47.3362151419560178
54.1204949696292488
66.1736942144830209
79.7430237083806333
89.111479943871359
92.3837294723350624
89.5264933706555439
83.0550460413359133
74.4665566878778691
64.3761799785214635
51.8897605245796285
38.3289047834308008
30.7369660013624468
41.1869728896208755
40.4446380515822739
20.6864235427270984
15.6386251868339201
14.2727187700377272
17.2758853989627141
21.3261442475752006