/*--------------------------------*- C++ -*----------------------------------*\
| =========                 |                                                 |
| \\      /  F ield         | OpenFOAM: The Open Source CFD Toolbox           |
|  \\    /   O peration     | Version:  2206                                  |
|   \\  /    A nd           | Website:  www.openfoam.com                      |
|    \\/     M anipulation  |                                                 |
\*---------------------------------------------------------------------------*/
FoamFile
{
    version     2.0;
    format      ascii;
    arch        "LSB;label=32;scalar=64";
    class       volScalarField;
    location    "0.930000000000000604";
    object      p_rgh;
}
// * * * * * * * * * * * * * * * * * * * * * * * * * * * * * * * * * * * * * //

dimensions      [1 -1 -2 0 0 0 0];

internalField   nonuniform List<scalar> 
29184
(
1199.85960647611137
1202.98317449130218
1209.28255674130173
1217.88320853421601
1227.58541789330002
1237.06667722744487
1245.09927499145988
1250.6076303099876
1253.30307731506036
1251.78438776702205
1246.00513480566747
1235.80355146404304
1220.43297582717582
1198.33832874916379
1173.83442422468079
1105.73494838243619
1199.00277641083062
1202.23937498632472
1208.76330014484734
1217.62747235920915
1227.54468787096721
1237.21830242491183
1245.41682111026671
1251.06570187826469
1253.52806017634771
1251.99987460223724
1246.04788217171131
1235.52497841024319
1219.7492569007884
1197.47228810397178
1171.12802832029752
1103.03443612129195
1197.3020242169132
1200.83106642270582
1207.78378499562314
1217.13532029362227
1227.52419618718227
1237.59839716486522
1246.082041331146
1251.8503006689109
1254.1445626902605
1252.43415588922176
1246.0721983592814
1234.98719707451642
1218.40536377937292
1195.78598901097484
1167.01535383785927
1097.31602714262726
1194.83665873332484
1198.73234304175207
1206.33819735701786
1216.41941801151256
1227.51352856417793
1238.1825929094166
1247.08393151651239
1252.9942283978578
1255.09208990769912
1253.07097469056293
1246.0606707695797
1234.12275627024292
1216.34078598031647
1193.13334264306559
1160.72925181884648
1090.79373089750061
1191.56279778815338
1195.89426971472267
1204.38473691211993
1215.46595720321716
1227.52856600003156
1239.00817637173554
1248.47636535418656
1254.56440632307999
1256.47458277988494
1253.83792088896257
1246.03650319336975
1232.92283461516877
1213.60548485344975
1189.43178634007404
1153.09716579650603
1084.54922346482635
1187.41413211756048
1192.23313825225932
1201.864216556879
1214.23112885117212
1227.55652175685418
1240.07072692616703
1250.27320203114368
1256.56611896356844
1258.16920053452009
1254.81859748202419
1245.98539670740524
1231.34835827793904
1210.18536811202853
1184.45308405043011
1144.43055811804743
1091.88821435198315
1182.1770551016732
1187.77862944206163
1198.70172242797253
1212.58975377000274
1227.47998531238977
1241.24788057339538
1252.37513563218954
1258.88494910117834
1260.04763530506307
1255.82242417308817
1245.73940598196168
1229.17912944305044
1205.80552309518362
1177.12245485453923
1130.98924888743613
1090.86736717715235
1176.11749718563487
1182.96596756693179
1195.3024561458767
1211.12615255770083
1227.70405790489258
1242.3834161934933
1254.96496202003959
1261.63777943470905
1262.17188915259726
1256.67468308496677
1244.63111174049732
1225.23197489762947
1198.78984473143692
1162.58007227262965
1074.61336018011571
1076.14131159019553
1080.25283863272603
1115.02879488522467
1156.64984585771504
1199.95408264580624
1227.93166185765995
1242.86886285349692
1257.93227626792327
1264.37138903424807
1263.35771101964474
1255.0048999996834
1238.82612714747529
1214.38932565605865
1180.48370166234895
1004.77886631381637
596.086857194703498
755.291396084782264
466.663693877297078
565.609722803351133
662.887045013156239
767.419907047059041
847.482725007384147
937.858551232273385
1072.23893324838423
1174.6918417356253
1206.54479170381364
1181.18657812730748
1115.6301555696632
989.682977313704896
735.692535502584633
343.820474407092604
126.356082282710588
156.570570437649963
79.8606886100156856
100.589917638422051
136.955033380758977
207.488207575315812
363.84592657497268
509.899966209500178
550.66959632459816
546.247068523771532
514.283190906599316
459.136855390351798
359.926237248518589
212.298282673485375
109.89182159210344
62.6904373537601316
59.1975296021431134
58.1030791186359252
63.7576547834558269
47.0725740733440787
34.46763036181963
40.7252701370207078
68.6896581229350716
62.8035930702851246
38.2978729546326804
27.0468866416337939
15.8559383595699632
7.57994940376401249
13.3592728814883603
16.2273412063703049
24.1764200431438141
29.1734047775756231
36.1776138156055751
36.2046646210044329
53.3401261835111313
37.0694376738909952
32.9363690575547494
36.1437704256474532
22.2674526119283058
10.0063614023949068
6.04136187517865952
5.62474733893867906
5.47331679712815511
5.17064813830003533
5.17228457480616299
5.2347869342806348
7.12472420350929792
16.7367199742240835
49.7244032655764983
36.4609917604325275
56.5915924122457383
32.3652333910380889
27.6697679438250184
23.9446034366393583
13.916557006762309
13.6877820224109943
10.8092437780130304
5.43274841666172925
5.24006089052987534
4.90819964286180355
4.48754817646582183
3.68624040038247713
4.15996671957503494
11.8094774946400829
75.210392699769443
90.3766207544210829
80.7771664496818147
59.8703077120694971
20.41672830412789
20.5183820344622347
4.55060081080214207
2.46227166238630124
3.1741947631850489
9.65097268046365109
8.78295666004849451
6.2772005532038273
3.81873952304420827
3.03810099718277904
2.32789646205902434
5.83944520516676313
45.2867326518205431
74.6185725814031002
78.6010760088207405
53.2313205652186738
15.0806013327800592
10.3795614283032513
5.76463398731431109
2.11184666653426056
1.39537025939197767
2.74933860031717137
8.200096450006221
7.44524426953001139
4.57492788781318538
2.14722367990587903
1.60606257451719237
1.97225538338779649
4.66744347798724668
66.4752809693894875
1200.0545549274425
1202.96817112555823
1208.88985222165707
1216.96192052503829
1225.97452972765473
1234.62154605811247
1241.70319489727558
1246.1936551974045
1247.42144805844396
1244.96527201166714
1238.48558879322786
1228.14114718106521
1213.89062576150559
1196.55006830091497
1177.84403755337689
1147.63432727073996
1199.24263107420643
1202.27453126483283
1208.42190605605947
1216.74277055183029
1225.95725162418103
1234.7838832240966
1241.99459699782733
1246.52927271546719
1247.70875361858134
1245.09710845356858
1238.39155853622697
1227.76507069146169
1213.00444390419079
1195.27783097926249
1174.68715423206891
1143.6651022348608
1197.622878156566
1200.96033735171841
1207.52673374413939
1216.31852537225473
1225.98320651205631
1235.18434314768956
1242.63996472153872
1247.23206918064784
1248.26263136771558
1245.35755251526984
1238.2049997167187
1226.97788668113139
1211.31599794026033
1192.89675979255867
1169.34741400480721
1135.41957527935392
1195.28165851761014
1199.01014205764636
1206.21667291352696
1215.70662076644885
1226.03601171064474
1235.79534188644061
1243.6211426582463
1248.28192612170642
1249.07731254603436
1245.71040725579201
1237.88948059516542
1225.7448127818891
1208.78455180685432
1189.29970878962422
1161.84595054553301
1125.29111836658626
1192.18670557869882
1196.38211961948218
1204.44443071038381
1214.89420642683604
1226.13488439913931
1236.6596470223235
1244.98770789546688
1249.71770471519085
1250.18800838326774
1246.18305677042076
1237.4629997874747
1224.08103655943296
1205.48048760432198
1184.35945859165213
1152.4966637434095
1114.82774275035126
1188.26470216966459
1193.01282338794977
1202.16194036373895
1213.84359125625838
1226.26549606033791
1237.78109407603233
1246.75630507800543
1251.53548475073899
1251.54780901759705
1246.72729669552837
1236.90945929619147
1221.96914409087071
1201.4392510810228
1177.9684133917317
1141.5535085965073
1111.40267030522386
1183.41913015120326
1188.80579804920285
1199.268950002368
1212.45124085587895
1226.31674195590881
1239.07505659711137
1248.87400258412094
1253.61804018178304
1252.99356703517856
1247.15423000690362
1236.03457672222521
1219.1488121957359
1196.31783552176739
1168.53129739828569
1125.01117782003962
1112.17933518088944
1177.79175338542564
1184.3921509080883
1196.29609300651055
1211.21629259167207
1226.63488303669601
1240.55320119409362
1251.51636981398019
1256.09577583871305
1254.50976708703934
1247.10553819277334
1233.88858618974109
1214.14194905907812
1188.00531058730348
1149.82858612667928
1075.95658740558065
1100.34884819445165
1102.12267209439437
1126.80891145365149
1166.51746872959552
1202.65799220219446
1226.66987899074365
1238.50804919576285
1254.29967081919585
1258.05060127696311
1254.22096247806326
1243.13295344909966
1225.46602249293437
1200.8501169371068
1158.49392635808567
937.357304912569589
620.15443855442345
859.817468807287582
466.370773513132804
560.631828259600184
666.83152082714571
757.594406119313362
834.310736878680814
947.379269092288837
1088.3829371863435
1171.07434132215485
1180.25610233357793
1128.95093449637852
1053.4801589509043
924.330605956103568
658.559753350450819
289.960768814270466
136.022745047677063
239.268580144358793
76.7309404237391988
108.759869023089877
127.800084532193864
233.126831153346217
388.623713557527424
493.452442823847321
512.839064828502842
492.187756485561636
441.161020745188409
374.557641628577414
292.278959119176761
179.197704848905857
100.570218656132027
64.1325196579506525
62.1423234087725476
66.3485005944197042
61.4370175769358511
45.1068342514590555
34.1964318013667707
31.7336496798023475
42.2407400395878909
38.3675762831361453
24.8493961603086717
14.0908279900422819
5.55630327632247223
5.47191145037964244
5.90467787649108899
16.8038595729387978
23.3420387187252167
31.0771566458418249
39.3321949032323559
38.9810657772297162
51.1089154762735731
36.5220085386258901
32.4627681314669303
36.9986666993611095
29.3623080693556417
12.1294286531894357
6.65768224119299301
5.37514372314796951
5.08349492215404286
4.66431371214872836
4.45355524850699513
4.64435234698670651
9.52223623981842948
18.0883954438026819
42.7843702774873336
41.7136566855304167
47.872269351684352
31.406564032973904
35.8110779186630097
24.9072181268129249
12.4408280558801678
11.7241024401201308
12.8231556926296957
7.61799002704324391
4.68685149758635422
4.07647559661714709
3.76228407708615009
3.22109049666116221
4.1590929718987022
12.070308131149913
72.2423140806469632
71.9341114275507465
78.0201244327255381
42.8824950559779055
25.0756693694215151
19.8409212281512666
4.74136991265266694
2.3559244562838817
2.80385434821222512
8.78522935721085929
6.7565876602997097
3.93017958645557863
3.11663028351317095
2.41138280839493113
2.39834087653035111
9.23322235124329893
65.296998830755939
64.9043893512449159
75.5360911508677049
67.7859597539955701
16.8023487510448675
14.5352985276457645
4.58759541915293667
2.0438668679073122
1.80884593054151765
4.83462382362761023
7.64540723530575761
5.65349389769131783
2.55744776673840013
2.12013917973341215
1.53479777860794808
2.03590948248509518
5.92784939014505241
64.226464843828623
1200.244437930819
1202.96136231926675
1208.54314814654367
1216.13136722275976
1224.52390458835248
1232.42475024621626
1238.65567616796397
1242.23919863551009
1242.51110220045302
1239.18721548087365
1232.24055739972414
1222.05071223009327
1208.71159877290825
1194.27064086935957
1180.37128065506477
1164.22582821773585
1199.46079766305525
1202.29742991139074
1208.09094924605984
1215.93004185036602
1224.51937610747336
1232.59586864832136
1238.94006406291828
1242.53454367100244
1242.73586653995972
1239.26706889067714
1232.06782090364254
1221.54414650842682
1207.71143813601498
1192.90151330754429
1177.2366533165482
1160.5034132421074
1197.87793140125109
1201.03186583631691
1207.2513627398755
1215.54846120018533
1224.57850907905868
1233.01627492911211
1239.57232104758828
1243.17074447315667
1243.19648272578343
1239.40913718680576
1231.73517742313561
1220.57128821298875
1205.80864120361389
1190.16548583065378
1171.49916224809158
1153.33486811899979
1195.58671915918922
1199.14374716405882
1206.01047900108665
1215.00589815406829
1224.6826338776043
1233.66101664606481
1240.53744139743048
1244.12818651305224
1243.86748239144868
1239.58407495773872
1231.21762963399965
1219.10489115609039
1202.99402102760291
1186.02952748692837
1163.44157262943713
1142.85797713819693
1192.56058371639074
1196.58219300019846
1204.32206741799359
1214.2755857315226
1224.85004790373273
1234.5731225076554
1241.88993632628876
1245.45802274579592
1244.78734206367153
1239.81708384351418
1230.52948175562256
1217.15980281992461
1199.33535960591576
1180.43521434332933
1153.24419515297086
1126.2243863675892
1188.71245003122363
1193.2709680166347
1202.13637076000441
1213.3346154397932
1225.0678865288362
1235.76375798597633
1243.65291541332135
1247.15307625243599
1245.91772228948389
1240.05973716565131
1229.66952110502893
1214.72093023112257
1194.90777552017175
1173.19099836467308
1140.92572669882497
1114.62594028786202
1183.98829287350259
1189.053063856996
1199.36337472408377
1212.09254035387221
1225.23169934817543
1237.17218743117337
1245.79254126961814
1249.08991568367514
1247.07773114155179
1240.11378803521188
1228.41698732322698
1211.54736673773346
1189.23114174224224
1161.93853797985753
1125.13063191782226
1121.35379810145923
1178.35484525507991
1184.57707347682663
1196.44437115686696
1210.99337400665718
1225.69024835147025
1238.94458344833856
1248.48213789457895
1251.35511107824959
1248.12462991076518
1239.39298958357995
1225.58163900713271
1205.94783234050556
1180.2104052688926
1138.28945532209855
1080.28162530433042
1110.3924979910953
1115.76418747593698
1132.13077500134318
1169.53082703830933
1203.78626084239454
1224.59116713819867
1237.92629038753739
1251.14515725514525
1252.71816634943343
1246.52793850687931
1233.57789817764865
1215.38564359707016
1191.35275821540972
1140.8545665513991
892.851572007897289
631.155670550978925
933.289302811185848
457.764185598928691
546.136432198789976
669.098976148573684
756.804317363017049
838.041826477818404
964.703710460348361
1102.55334604868494
1164.34840471006714
1150.86668478396541
1085.58728632026305
1009.81371821459231
886.735009166738564
610.312175077437814
256.819085271438269
151.785777938071249
300.722332645952974
83.5005990751134277
127.196621870473166
125.017022894743192
240.984903676019115
388.241696842518934
471.989185590304317
482.01478648320284
450.113194121661252
385.239671247748902
318.911926475622749
256.330371266690292
165.71646870311244
96.4142986758959069
62.2656414679936177
66.7178495662625153
72.0559181266078213
58.2388704859807902
40.775233144451974
29.2138915671737607
27.1589766080908106
30.4015518679956749
27.2633975616924502
18.5649503069217729
5.16977259660014177
5.19693057401970115
5.19057415581710657
5.96145839848853765
14.1875568711283755
25.2088013883603814
33.4277394418034248
42.6966306601090864
42.8585917098702183
46.0336943483785745
30.8430309108532263
25.7563380021226962
31.7759742363443571
31.4648204537206446
13.6723585008677055
6.99422762953799726
4.94874360677462732
4.54265327502739336
4.04195978182467286
4.28218241156664536
4.61306215792470109
10.8409467048910813
19.3055570013741864
44.1073675108071583
54.5281415910849816
39.7551195266163333
27.4062296212071423
24.8158829038991513
22.5899465650823075
13.0879292520789257
11.9646755823576925
12.9263273882403915
6.5649045559290844
4.14932425184484011
3.30384338990827908
3.38762041923701096
3.05311864584906134
4.25676400554917844
13.6226485651591513
74.1235247813415157
68.8371413306242204
74.4509435820594518
30.179416135633975
26.1226104898836091
19.754593332492913
4.28365654527968243
2.27755578589235652
2.93565166403121225
8.43125870723296522
5.35355023852066747
3.27321385288338584
3.53970094364676058
2.40165134589772
2.37807459433149626
11.0035331678167072
70.814160675778723
63.7315688708033505
73.2519860649103975
47.3853371342612277
20.2429495050443613
15.7296051693287904
3.17821811339090932
2.0343328196418442
2.14000160974006537
5.86490795928433872
7.11851197774040045
4.92088360722363483
2.39777758783646622
2.19221911100419931
1.61214619338345799
2.0483362122382105
7.32178895563311372
65.051250048722892
1200.36334262891546
1202.90994529132445
1208.20489516864541
1215.38793319393358
1223.2521174945557
1230.51969868508877
1236.03765399961867
1238.87497715504628
1238.44187600457713
1234.53787490648028
1227.25549784989289
1217.15581387441102
1204.46462268536698
1191.80835351733936
1179.93116708426987
1167.28990878595823
1199.59299821240393
1202.25810455832789
1207.768703632285
1215.19787320422279
1223.25910722923368
1230.69949241475274
1236.31784349973532
1239.1456095925364
1238.61822220362615
1234.55230815095615
1227.02776940404988
1216.59618745886655
1203.40513605476576
1190.32924645981325
1176.72512014652602
1163.23469742504312
1198.02702976366618
1201.01513809784115
1206.9483131996999
1214.84377541199297
1223.34381374916507
1231.13460258313103
1236.93666099597158
1239.73618088267062
1239.00797264641847
1234.60161230618814
1226.59077462720711
1215.51363465899976
1201.35419854293445
1187.35275438867143
1170.76802300837039
1159.40962997334623
1195.75364594558187
1199.14950248928835
1205.74478783304039
1214.33723339939411
1223.48548200774076
1231.8025170664514
1237.88540365449944
1240.63324599358384
1239.58711888931475
1234.65541130011343
1225.93619578014909
1213.92250183684882
1198.31435400424721
1182.90801449856235
1162.36732031642759
1149.48843757911004
1192.73510565628658
1196.60233148915722
1204.0947545816764
1213.66522492581794
1223.70650938150516
1232.74930742564129
1239.2217978348167
1241.89261172020133
1240.38286009139415
1234.72236215986072
1225.07862444605257
1211.78296691345236
1194.38014724965319
1177.0207942435145
1151.55525480141978
1131.89553075591311
1188.86169440426579
1193.28082185801463
1201.94401387709786
1212.78854802481806
1223.99483820418641
1233.99123003474688
1240.9782759676491
1243.5111636276356
1241.34719483382514
1234.75017954991085
1223.99916313455606
1209.09014739671875
1189.64073532462294
1169.25595968163407
1138.68825451363841
1118.21079155267785
1184.05686844321099
1189.01428307722244
1199.2023028729584
1211.61452606063631
1224.23258243365467
1235.47530741455216
1243.11850222907719
1245.35850091923385
1242.30108677340991
1234.53014575822613
1222.44984851963545
1205.64819251274321
1183.87766593728793
1156.47506395156461
1124.0404970025586
1124.33652997365675
1178.26876793604583
1184.37458467312126
1196.28775557772792
1210.62886232755841
1224.71767483583199
1237.3474821019779
1245.79744866784949
1247.47320785081956
1243.01322185135132
1233.31595108959391
1219.08557034843966
1199.69418437739887
1174.11923679523011
1129.89952694901308
1082.00499126164777
1116.59860272650621
1120.01831803419714
1135.20732079972959
1171.00223741739001
1204.12434610438277
1223.82201286703412
1238.38848876566931
1248.40657667424171
1248.43587387516595
1240.48517037023066
1226.28866973166737
1207.76104304420596
1184.310102665356
1124.08886673562574
863.047139729230139
638.422809303834697
968.411017102208461
458.242283561271449
542.907765701229891
668.586400939964619
757.785894640018455
844.55414646715235
982.236065846712677
1113.63322979572285
1157.42446344164819
1127.45329209586203
1055.24293130612773
978.721711989101891
855.121585676568429
573.295460811582075
235.874599007344358
165.437194157627658
345.135305473594315
82.9347832762110784
117.833737451277187
123.719464890238086
245.417977259252353
388.250283398337956
447.965060316577819
453.645500199039475
415.402200032991971
352.475915569613164
287.069476739752474
233.518019087399551
153.573505812538713
90.6078930473708368
59.9407461081880228
69.9253079873862333
80.3639435500089121
54.9714342230582957
47.9679604345405437
27.8816643352001918
24.108901606919769
22.9492156606139162
16.3202461241596311
7.97486498960949941
4.41195962541472397
4.42549389534230553
4.34520194831048912
4.96054606517988361
11.9765276044855256
24.536067765614245
32.7438155982913059
42.5092658359797824
44.130319668200201
42.5914444468221873
30.7592379119913417
24.805316309882393
22.9658321710384676
32.0988261611167331
14.1187443893484659
4.77823317262781089
4.00359575956516611
3.80306731540471032
3.20843791762507147
3.27810165702788892
3.54348154182014108
9.74265179104125068
17.8599993052048092
44.7804400935920839
59.2353788865147664
36.2155618820145406
26.0922419778993593
23.1357101441712274
24.3425209554401576
15.4466685915776676
11.7752203738122887
10.5811455720450418
5.6083840814088548
3.78102930935203352
2.64415996934896791
2.42558234869236466
2.26208447296919912
3.27847249005846919
12.1778357558249386
74.3737263389271419
68.774699965185647
69.3547945758348447
28.1116437292214272
27.2952330803319185
19.7619541634007128
5.54344751944727232
2.26593446744619254
4.21605990803064667
8.25247652309304058
5.11445129786645403
2.57663018600630744
2.77530590865173377
1.779340908446011
1.61949364704550502
8.52133953119186138
66.6351890147338253
63.5717759805529852
71.6887562203009168
31.7149203463464815
25.7881085721516108
10.9750411954539988
3.08850673448436819
2.07450320519802789
1.93878656305362052
5.62027110499127858
7.03789919914066342
4.51561053688613789
2.95861780760946713
1.53165399257785784
1.16817865245984875
1.48704924007705896
6.24999024318544016
65.8616395600869282
1200.42392451446563
1202.84365859830632
1207.9202226443399
1214.76455825746939
1222.19214749411003
1228.94891173481506
1233.89951734867395
1236.15407541760965
1235.1974021888177
1230.87279209822145
1223.36649406699371
1213.33389695449682
1200.96572932229128
1189.46222678783693
1178.52897597533138
1167.1434531437867
1199.65354506191238
1202.19717717237199
1207.50072476058517
1214.58350642469895
1222.21130281402952
1229.1376890540821
1234.1804964276082
1236.42669918855381
1235.37413956062801
1230.87909253223529
1223.12182347574162
1212.79073902011237
1199.89408233882477
1187.93665823540437
1175.26368689780224
1163.19466748901868
1198.08192734173417
1200.96192787899395
1206.66491816248322
1214.24359087164271
1222.311272756476
1229.57710101572138
1234.79003424698863
1237.00364825073575
1235.73421526710672
1230.87537622752711
1222.61720891780419
1211.59018429778439
1197.81628899955149
1184.85378599172964
1169.24825162897741
1159.30265260957958
1195.79981409924744
1199.10609966604875
1205.49249769215589
1213.75762560151588
1222.47468013261482
1230.25655696501576
1235.7338314218548
1237.88026587127911
1236.26099164837274
1230.85030899223443
1221.87044220557959
1209.82723203224396
1194.66734193128218
1180.32851059056975
1160.743052236945
1149.66313450997109
1192.76942087112434
1196.56385156393389
1203.87016037132344
1213.12862507474256
1222.72526429226741
1231.22533138030826
1237.06514102271922
1239.09294942231372
1236.96281460849787
1230.80845143118495
1220.89412521792156
1207.50524695019612
1190.50639273819411
1174.33947931138437
1149.78687939633801
1134.54397384086383
1188.87360035366146
1193.23748351582685
1201.74146753500327
1212.28572246796057
1223.04686171068875
1232.49818543025799
1238.80145040843786
1240.61502011292077
1237.77531277430762
1230.68406904179619
1219.65540341662586
1204.67485087291266
1185.78747164825768
1165.64003766481437
1137.22822984234858
1118.76247991271362
1184.03918648851709
1188.9700609145093
1199.01400690414152
1211.14401998753601
1223.32576245729024
1234.01220608958738
1240.8791245336613
1242.30550574434346
1238.51612311827148
1230.23256687137109
1217.86813634275472
1201.06182168058353
1179.49629465122484
1152.13468171633508
1123.19622169353829
1121.98477317698712
1178.19847362286737
1184.29302785560731
1196.10174754216905
1210.17881043819011
1223.76243646452303
1235.93286470286898
1243.45082392880704
1244.20027165848933
1238.87993928582227
1228.56051898383021
1214.04628346334221
1194.75779513811017
1168.80389537728774
1123.05981684160906
1082.05661096740073
1115.27360962705325
1123.89791441149782
1138.60896867182601
1171.49611475852203
1205.46517611586864
1223.70895119962825
1238.36800250589067
1245.85251502483038
1244.69777677397883
1235.53504799318398
1220.54980839791483
1201.81878429569451
1178.5605156742788
1106.79752270495237
836.087776830293819
639.967295573262845
987.879808879454231
464.839990698621307
549.020541921047311
668.500168487109704
757.308678792494106
849.951598816388241
997.880575559323461
1117.3672124588154
1149.5308410743653
1108.9519934063469
1033.13674017028961
955.419071973197219
826.37129961266055
539.595095003315009
219.123513536533608
174.550070831812434
372.962874083340523
82.7027298908685822
100.98041286183998
123.989722919877892
243.554426871533195
375.200890989532979
426.041417891820572
429.319283868434127
388.979043650304163
329.466547959244679
267.878101394133409
217.935962403509762
143.593061207117785
85.9792642315072584
58.3268856279645433
71.9305380389069029
82.5966223754624167
50.6454701358895818
42.7567051960146429
26.5568516506347763
22.9721842772259848
20.4831051109452211
11.4516432107808921
4.38957618337516831
3.77592438901629279
3.57369754116112404
3.31252598017191291
3.59737205287436979
11.4375774012428337
23.7065396034070659
31.7666895055082108
41.6849877059794878
45.5145795960557891
43.4698137515019809
40.6073184675622514
23.3235591942172213
22.4087013250666622
28.9916149613597973
15.5610210163481995
3.93256228360198001
3.42017926781780934
3.07509829430127635
2.39944902143848271
2.14233054956128077
2.32502003476636609
8.82678082446527768
16.4404923673814203
45.2042444739639819
61.0199708631787701
38.3520651880798837
32.5323066799061138
21.3217362223481217
25.2873926415801087
19.1697093673408041
9.80795986942668208
6.78615663277018211
4.96600911927715405
2.84925009334872525
2.08146584630840881
1.70684176595767489
1.36528869672519337
2.3502192007261149
10.3664695046094142
74.6727261443941046
68.4399587434469652
51.6758124101055856
24.7452438299501658
23.5592935337316831
21.0648385582291624
6.26136551133892816
3.48968555037521488
7.1911965252996044
7.89044964709001828
3.15162356708455915
1.87908725345078786
1.49785025441979647
1.21355732084897538
1.15893733827643408
7.41782327715485135
65.10268130132431
63.3353210159792042
68.4660104755803047
21.2133968594986726
24.2486305511502387
8.93091732172733543
3.46745228819893914
2.11865081337507366
1.20490795391309247
3.13130987615806911
4.56569932596410322
2.61574597090700811
1.81333261680438507
1.15017203825718006
0.991486374084896371
1.0693197796416205
6.10976842508050932
65.8001594949164996
1200.43923624378522
1202.77882739332676
1207.66927236554761
1214.27699874224368
1221.38082852957587
1227.75813274657435
1232.29333678669263
1234.13875845025882
1232.80902174609878
1228.15421317673167
1220.45358440942573
1210.38706045561457
1198.47792620953192
1187.61791472742493
1176.85044272715868
1165.36974585287908
1199.66974988653237
1202.14041914343852
1207.26546716898542
1214.10743901387809
1221.40975613864748
1227.95724141969708
1232.59084713846573
1234.42794831768151
1232.98952481672472
1228.15709445644939
1220.20832083752521
1209.81204228571505
1197.39193452988593
1186.03663273183702
1173.55283321403272
1161.31858364013237
1198.11915048211222
1200.92176181286823
1206.48069347914247
1213.78792252904896
1221.51950662170157
1228.40054594532785
1233.20501215915283
1235.00366336256252
1233.33205139908387
1228.12830917580277
1219.67884783685031
1208.59215510934314
1195.15975596606245
1182.91077814712662
1167.48822416602616
1154.98583125860705
1195.86888784961388
1199.09489200900589
1205.32407490566447
1213.32381100899715
1221.69336445450767
1229.08487082714169
1234.14658809164052
1235.86445043452977
1233.82239539737543
1228.06812931297804
1218.88321721169814
1206.74594847124126
1191.77565667549538
1178.39637982558247
1158.91344641313594
1144.67555388814662
1192.85219730915128
1196.59272995185302
1203.73475844914992
1212.70055846732203
1221.94935472447855
1230.05302297684898
1235.4577402862576
1237.03155545032587
1234.46670225759021
1227.97429516666489
1217.82747826818877
1204.3167359755962
1187.69069006578866
1172.01446219521767
1147.88579162958763
1130.8907289550973
1188.96101904398324
1193.30699309674696
1201.63547534170061
1211.86872710763896
1222.25996450670505
1231.29769386232624
1237.12353604382838
1238.44712212735044
1235.18334255636341
1227.75952299129062
1216.47521863540874
1201.34822918027362
1182.6801210964245
1162.72573280666597
1136.29280510969465
1124.50827501837762
1184.06874771193566
1189.05097571385704
1198.90736335412407
1210.71148219066754
1222.49803419237719
1232.74027913217719
1239.0515254869274
1239.94429215178479
1235.74290331887642
1227.13714739253783
1214.50210261538223
1197.51629377294876
1175.72712126439342
1148.41337723586503
1122.72253939360962
1127.17502943071304
1178.32354285887982
1184.28985601193926
1195.97681420790582
1209.6684015735882
1222.78946436875344
1234.59787444998483
1241.37715134505925
1241.50999223909776
1235.70159878071945
1225.05872855274174
1210.26310508846927
1190.73231594480717
1163.76087216902442
1116.80385740301267
1083.21376291045385
1120.01409332479761
1118.16674906573894
1137.77844035938188
1171.84376909574348
1205.68188629695351
1222.28152835279116
1236.75494840121132
1243.34718212656026
1241.33745117225112
1231.4883473420291
1216.15486320514447
1197.12347470121904
1173.47654118812829
1085.78223674083051
811.141358062075824
642.905148658345752
1002.70121931774781
464.957150162951962
562.766589743638633
671.308091536252618
763.007044512256357
854.441503359506214
1004.17146292825066
1114.98083878867578
1140.82542957257056
1094.71581195854606
1017.66374303010355
934.481268478665356
796.32577490019878
505.493692459244699
204.455890774598828
179.630150856703693
387.931277699403324
104.570972859901389
85.1336595366309297
122.991074162057885
228.619212538747064
352.276105402048017
403.196498367416609
412.23495380133744
372.213665141860417
315.476059498397944
256.941510074432927
205.062139293324122
134.21837502750617
81.4173039482457597
56.3284749971549843
71.4983493947158166
83.8801519654404046
49.2779782033178861
37.449216794058195
25.2897713140989673
22.5163015661493588
21.5101015381726057