/*--------------------------------*- C++ -*----------------------------------*\
| =========                 |                                                 |
| \\      /  F ield         | OpenFOAM: The Open Source CFD Toolbox           |
|  \\    /   O peration     | Version:  2206                                  |
|   \\  /    A nd           | Website:  www.openfoam.com                      |
|    \\/     M anipulation  |                                                 |
\*---------------------------------------------------------------------------*/
FoamFile
{
    version     2.0;
    format      ascii;
    arch        "LSB;label=32;scalar=64";
    class       volScalarField;
    location    "0.930000000000000604";
    object      rAU;
}
// * * * * * * * * * * * * * * * * * * * * * * * * * * * * * * * * * * * * * //

dimensions      [-1 3 1 0 0 0 0];

internalField   nonuniform List<scalar> 
29184
(
2.81491643409665565e-05
2.76958567442855975e-05
2.75350528742302659e-05
2.73737030292461131e-05
2.7311177995274915e-05
2.72255379130846205e-05
2.71025223427266002e-05
2.69848213401567598e-05
2.65497017529433487e-05
2.55986984217580609e-05
2.44721012766984861e-05
2.3201541535966142e-05
2.1908179661113834e-05
2.02763732625116453e-05
1.87695509751186409e-05
1.77894696463196761e-05
2.74681547385828059e-05
2.76443717349790296e-05
2.766512386466715e-05
2.72715107895888825e-05
2.69940407773168422e-05
2.67505320747367781e-05
2.65164894647064077e-05
2.62979230385026456e-05
2.59835536538898395e-05
2.51316347508869537e-05
2.39123813347625077e-05
2.25875678684763115e-05
2.12458995959100366e-05
1.96068795325175178e-05
1.76919192947565976e-05
1.75984558951771764e-05
2.70174751309258979e-05
2.75815147314444241e-05
2.77057027656783636e-05
2.73159401210228917e-05
2.6924287588682386e-05
2.6542220820642734e-05
2.61587207913380903e-05
2.58034215669819761e-05
2.54332388884713403e-05
2.45404602889969695e-05
2.32723575795102828e-05
2.19228745962509152e-05
2.05813949698074755e-05
1.88828225739898998e-05
1.68637067907932822e-05
1.78058269884690071e-05
2.67040841585926759e-05
2.74949247958346767e-05
2.76372567983666694e-05
2.73667847585329966e-05
2.68691135856203538e-05
2.63198959561063064e-05
2.57642746425515863e-05
2.52577878305046427e-05
2.48544666668217353e-05
2.39775201788155976e-05
2.26699779459934415e-05
2.13230300709437572e-05
1.99892733059444462e-05
1.82649339967060226e-05
1.63176333240002308e-05
1.80769812999413034e-05
2.65280615895500739e-05
2.7409960677322433e-05
2.74972620736710035e-05
2.72756929217662087e-05
2.68928873244622274e-05
2.61369815810524913e-05
2.53795882890119417e-05
2.47163454904473762e-05
2.41902653553508352e-05
2.33412372475148456e-05
2.20779324184284026e-05
2.07609834311560943e-05
1.9459315661224845e-05
1.78378513210851961e-05
1.60324874540053065e-05
1.8078831059751251e-05
2.64855300927955743e-05
2.73037541903870316e-05
2.72581696363244735e-05
2.69660494235335088e-05
2.67805758884567791e-05
2.59861346973120182e-05
2.49898720788468914e-05
2.41605690196414326e-05
2.35221911441792194e-05
2.26926406336385778e-05
2.14773670793040781e-05
2.02163122375726579e-05
1.90185916825090147e-05
1.77113734345546858e-05
1.59789742232755873e-05
1.74378171103386156e-05
2.65640218042121004e-05
2.71186766702479616e-05
2.686708135197826e-05
2.65017466073390826e-05
2.64022652391860654e-05
2.58257492231116867e-05
2.45588989343072182e-05
2.35891399908305671e-05
2.28831474739968791e-05
2.20519093826215393e-05
2.08606615935011139e-05
1.96922214716343402e-05
1.87281536971962302e-05
1.79489064759091815e-05
1.62023380034247063e-05
1.69675549544360549e-05
2.65572211136091491e-05
2.66737779003451051e-05
2.63014172665666168e-05
2.59037532380521138e-05
2.59178017929935468e-05
2.56261791240413831e-05
2.40545904101113008e-05
2.29583234929090579e-05
2.22149265788473076e-05
2.14377873119861897e-05
2.03189366189025712e-05
1.92956661388797246e-05
1.8702217929189978e-05
1.8544448006717479e-05
1.66594206664326275e-05
1.61971241384559108e-05
3.05215761944617532e-05
2.89623267556390477e-05
2.73726164865155146e-05
2.5985151428085094e-05
2.551991655807216e-05
2.53676304970897177e-05
2.34907573958157564e-05
2.21779406659319898e-05
2.12658487781889251e-05
2.05579276632574593e-05
1.99217585302594383e-05
1.9388844026401658e-05
1.92816246669524899e-05
2.10508723720986858e-05
2.55179363887845418e-05
2.05111477970161153e-05
7.2367228074726023e-05
6.32430742247793896e-05
5.22172814489135981e-05
4.36235598997776835e-05
3.78903576950214682e-05
3.33575936955760919e-05
2.61948243009728368e-05
2.19129614846447188e-05
2.0055189587946735e-05
1.9422972168540773e-05
1.94260117047859171e-05
2.05319819866059019e-05
2.47826683450407361e-05
4.51447054613940882e-05
0.000103708968517793028
6.69434721385981822e-05
0.000321769121582903266
0.000344296339481200866
0.000198974575597899919
0.000128441874389152553
7.5614266935232217e-05
5.16418350571465617e-05
4.14062310838025615e-05
3.638478486484683e-05
3.46914356184890453e-05
3.51508422627018515e-05
3.9198400069554538e-05
5.4954193001742466e-05
0.000110739137048171827
0.000239862860948946875
0.000297664883460510045
0.000294986243922823357
0.000339131782366016484
0.000680434521893514025
0.000717795772959474443
0.000572093721344037859
0.00039245911079927834
0.000327438203406463214
0.000330016628141565379
0.00034932762756128378
0.000383753162705083263
0.000432859223684890337
0.000432278318900234857
0.000561393571208179806
0.000591804155886242311
0.000561709384368940402
0.000406376304667627512
0.000594192249578439735
0.00039509167026397868
0.000778448833885220367
0.00127473524564785095
0.000939683131033889436
0.00112049574662041978
0.00213614795196740955
0.00411088093956080928
0.0053193710663992904
0.00467455115003945817
0.00406574370491670761
0.00340285911154089701
0.00251177423152528726
0.00156460743766201555
0.000765606447358015813
0.000328990990162015293
0.000589409204358460866
0.000391514158373301973
0.000733859174012490081
0.00140073749717388712
0.00137117520358894223
0.00179611727586537315
0.0017491341720528397
0.00212453480431692727
0.00444253434239504433
0.00544212187015206614
0.00538939536876637069
0.00485278769799933271
0.00442452390169688261
0.00285340665319428919
0.000948253919703351267
0.000239583639506744163
0.000276821969961507772
0.000326601860040427858
0.000530433678004183689
0.00173562984979409082
0.00215237511915173643
0.00557793660478468189
0.00833930525444003326
0.00562004592567073771
0.00302971966311772235
0.00342605817922637945
0.0047480980667914648
0.00565387543527664203
0.00588958291884743995
0.00422574437698427889
0.00161016639587573855
0.000285471670458776799
0.000213495800118429019
0.000382115774275349547
0.000628022641642511908
0.00232046113944720011
0.00429732736756334617
0.00645624560600711276
0.0126870680210991495
0.0133855915765508249
0.00642734948344599998
0.00357112691828721839
0.00397352796006095535
0.00541522115192307005
0.00822080240644696911
0.00632373471669088905
0.00306583592911881123
0.000635187214534380443
0.000221359868386600088
2.81454876218771272e-05
2.7674513929631446e-05
2.75058987422248968e-05
2.73065721004528361e-05
2.71969366081675205e-05
2.70532660047921983e-05
2.68780429831210323e-05
2.67154722693920919e-05
2.66160409227167303e-05
2.60927943187567081e-05
2.507982178023759e-05
2.3913530314669219e-05
2.27430122517987532e-05
2.13641055690825564e-05
1.9836293880470575e-05
2.01729533906666246e-05
2.74590558831944809e-05
2.75885851866503992e-05
2.75960414839868404e-05
2.72242458815040905e-05
2.68946009451005397e-05
2.65983925296116133e-05
2.63061245544446884e-05
2.60414590046134081e-05
2.58503085034645532e-05
2.53942259077111485e-05
2.4431120907610601e-05
2.3199720501442765e-05
2.20007222170137318e-05
2.05406915296965633e-05
1.887107542163286e-05
1.96703234545148064e-05
2.6993549756916186e-05
2.74896777236031562e-05
2.7562296820616315e-05
2.72965591551307707e-05
2.68258492586088732e-05
2.63632279855613834e-05
2.59109592126812801e-05
2.55102006954086847e-05
2.51889806823556689e-05
2.46850059906467553e-05
2.37188350186805457e-05
2.24652536975115824e-05
2.12413167382698272e-05
1.96932364279422529e-05
1.79778830049539904e-05
1.97183785976133494e-05
2.66451647913645377e-05
2.7337734021592002e-05
2.74209239204658044e-05
2.72295654584747484e-05
2.6746460339895578e-05
2.60922039152402606e-05
2.54536258233999943e-05
2.4914526367504124e-05
2.44927627189718382e-05
2.39898647492117078e-05
2.30625807842295678e-05
2.18115065681097776e-05
2.05647609935387581e-05
1.89768002344317818e-05
1.73681610659608213e-05
1.99227286240205375e-05
2.641104432356424e-05
2.716507787653405e-05
2.72024923336114689e-05
2.6991717476331398e-05
2.67141531379491348e-05
2.58408857470155959e-05
2.4996021412515823e-05
2.43070816309093511e-05
2.37923907917010642e-05
2.33168097128911462e-05
2.2432635960008523e-05
2.12065761835276542e-05
1.99669911264239355e-05
1.84834237107208494e-05
1.70072204446311315e-05
2.04985530961378756e-05
2.62877861997391215e-05
2.69738055511772742e-05
2.69066921785584544e-05
2.66699375063643916e-05
2.66045070643830302e-05
2.56044910316561968e-05
2.4521473794340344e-05
2.36892009463867103e-05
2.30903974631536381e-05
2.26378700982967168e-05
2.17939401357723283e-05
2.06171126548102267e-05
1.94929076368709205e-05
1.83198709605058297e-05
1.68678396583004792e-05
2.04950017949602777e-05
2.62513316067666159e-05
2.67327854350268703e-05
2.65037075603314452e-05
2.62594110120176202e-05
2.63169063588491319e-05
2.53486686678998743e-05
2.40077060761706849e-05
2.30608963708737389e-05
2.24182729553172041e-05
2.19582502900677806e-05
2.11242851474512169e-05
2.00433747353244879e-05
1.9221412567172172e-05
1.85746432427283272e-05
1.67929168041925316e-05
1.94839845252518879e-05
2.62679546109317364e-05
2.63966380328073492e-05
2.59616183238074768e-05
2.57554034132404383e-05
2.59369850978806115e-05
2.50634359130409716e-05
2.34472524279336119e-05
2.24133652335630694e-05
2.17116457636748971e-05
2.11897101820323597e-05
2.04451838448813774e-05
1.96187197346217253e-05
1.92534908546954484e-05
1.87015642149294592e-05
1.6484905301660202e-05
1.79092426442633829e-05
2.9585085706370307e-05
2.84744016350951012e-05
2.68038086859880919e-05
2.58165116728041782e-05
2.55867286763560423e-05
2.47938137481341751e-05
2.28075384413122212e-05
2.1570327538639513e-05
2.06916395421479952e-05
2.00203925170839923e-05
1.94884284411416957e-05
1.92039713329346874e-05
1.92369540338891985e-05
2.13043836683142121e-05
2.38010693759322633e-05
1.96946702639199361e-05
7.66640954697388817e-05
6.40244278685784808e-05
5.12089698405908812e-05
4.30770723789825963e-05
3.78889276640993598e-05
3.16051965508794334e-05
2.46120540867387744e-05
2.10561067668696335e-05
1.96347183794379458e-05
1.93465383878013184e-05
1.95280275219370406e-05
2.0803888611380734e-05
2.61861142530836477e-05
5.04338785994166598e-05
8.93002315906553737e-05
5.16323265454792584e-05
0.00034926219244600285
0.000298607663210231683
0.000202686324908256106
0.00011695840967175545
7.00414616953520233e-05
5.07522852525246155e-05
4.1920988981290564e-05
3.810110787926522e-05
3.76057171262489238e-05
3.92552127632517963e-05
4.43726045715756986e-05
6.17790858250535723e-05
0.000120142182018863756
0.000248820830420846473
0.000272784972756509657
0.00021731553954823949
0.000354765865868783895
0.000648861680423883612
0.000767187475229034088
0.000832447547192540784
0.000642213692935780247
0.000474207829211819904
0.000422446985196117003
0.000482473992068993172
0.000542159591216447826
0.000514247331087406634
0.000538642738441918382
0.000549969044112981909
0.000571722226318642523
0.000569787964645250816
0.000399593486688573619
0.000404132853707007294
0.000394056317101073856
0.000792088739062715469
0.00116517909671121577
0.000941117184937793265
0.0010260720034449603
0.00205107075741181588
0.00391584921752495541
0.00549968984887605743
0.00472811858869520707
0.00406692133304812839
0.00337434405002510433
0.00245823735286540643
0.00150898485410154415
0.000833921957448907646
0.000407819554241746485
0.000482700184494967884
0.000391054193543228211
0.000752637798305901646
0.00125576299858220683
0.00121908359764720596
0.00198609796029271474
0.00217318939543975501
0.00201758091050495067
0.00355311111829108685
0.00523256900654178909
0.00555771006749750628
0.00541295398015306621
0.00467344842025567333
0.00301510907294329309
0.00113709570005098796
0.000272848132761547646
0.000284543985668797832
0.000316173536395304472
0.000636908066819569241
0.00167222417050541397
0.00175581139823420703
0.00534331913532604032
0.0101786421377117794
0.00607879520389498652
0.00341259033925210217
0.00441154983469543502
0.00548373687764313038
0.0065523313000461561
0.00707797167150592006
0.00455230027973035738
0.00163632957517184261
0.000244452293114483027
0.000223420560257613847
0.000369583734196311429
0.000538993779241198566
0.00204373802291941964
0.00241229768749635053
0.00621643846665982137
0.014534256569020446
0.0117284990587724573
0.00533789045132166979
0.00440597872231897943
0.00467048665469850088
0.00695284715400242784
0.00894478125905034602
0.00693910946122029866
0.00313946529738785189
0.00046649119589925014
0.00020871902272320795
2.81662942797687977e-05
2.76576980364667664e-05
2.74748257435195834e-05
2.72580793572795017e-05
2.71247534895065706e-05
2.69680440950006339e-05
2.67786263219270104e-05
2.66075993942043799e-05
2.64757001471590434e-05
2.63553920276072363e-05
2.57681940448591278e-05
2.46918466026833886e-05
2.36268420143198039e-05
2.23686080803431247e-05
2.10496004054702495e-05
2.21509828192243534e-05
2.74505757069926438e-05
2.75129892046063062e-05
2.75091848890153564e-05
2.71666882667012449e-05
2.67934044001111924e-05
2.64727885882140331e-05
2.61695454669856832e-05
2.59167533795405224e-05
2.57252324488439851e-05
2.55784714848324194e-05
2.49989947617762513e-05
2.39019458190137534e-05
2.28127942867851455e-05
2.1453131995993782e-05
2.00431824382863283e-05
2.12485830870779875e-05
2.69277405691882436e-05
2.73474110349585864e-05
2.74127454635680122e-05
2.72091958841123803e-05
2.67034404836419337e-05
2.62033548328367578e-05
2.57361418581427547e-05
2.53442550735821121e-05
2.50353173042666527e-05
2.47805861744348273e-05
2.41796586663749346e-05
2.30909499151239948e-05
2.19627353176057758e-05
2.04916005978013855e-05
1.91080107706578309e-05
2.1097770388060343e-05
2.65041457787338235e-05
2.71101403265794745e-05
2.72035340819165167e-05
2.70948833720079467e-05
2.65922110266391686e-05
2.58944692810183584e-05
2.52537252118883243e-05
2.47317285076206203e-05
2.4325531935923618e-05
2.39804247383652683e-05
2.33964235942193265e-05
2.23780445817895725e-05
2.12006777160018925e-05
1.96837432133521904e-05
1.84662086125937614e-05
2.11661057599816442e-05
2.61829188844354037e-05
2.68500325398810701e-05
2.69357037701981432e-05
2.68484650201030698e-05
2.65075659997041149e-05
2.55887665970858048e-05
2.47605686425758605e-05
2.41180179140295112e-05
2.36289371990163655e-05
2.32201860993703716e-05
2.26623349535173736e-05
2.17301538449304612e-05
2.05404602316480356e-05
1.91393252517211292e-05
1.8070298734162883e-05
2.17763837789643942e-05
2.59751373019102769e-05
2.65943795947127826e-05
2.66284792139021824e-05
2.65548678058971058e-05
2.64675177758258521e-05
2.52902827887365533e-05
2.42503660562348641e-05
2.34938300542116949e-05
2.29485052693812945e-05
2.25015576869315811e-05
2.19527976215684022e-05
2.11051950456027483e-05
2.00552414181296621e-05
1.89835206707464074e-05
1.78915343983333941e-05
2.28351916385691975e-05
2.58798338465557113e-05
2.63404544333321663e-05
2.62577483094368284e-05
2.61975115084983181e-05
2.63607778295681686e-05
2.49810454664501241e-05
2.37085226858545361e-05
2.28510203831768039e-05
2.22685417200435358e-05
2.18076410914191851e-05
2.1249310863494769e-05
2.05010265839210173e-05
1.98176686227650375e-05
1.88417765273774724e-05
1.70077355457164013e-05
2.14540718449562181e-05
2.58789252591002353e-05
2.60257791371484645e-05
2.57675696401898925e-05
2.57470495640055921e-05
2.60568845406737687e-05
2.46507940417745687e-05
2.31220115413957009e-05
2.21727347085373022e-05
2.15137455059599761e-05
2.09974034315989855e-05
2.05361270982070178e-05
2.00764650501615258e-05
1.9676186826447961e-05
1.86599993146510472e-05
1.65708821215442592e-05
1.93190864812808793e-05
2.87525580290217153e-05
2.80243080497758544e-05
2.65830008276243082e-05
2.57668995936601744e-05
2.56809834398997616e-05
2.43432697548887219e-05
2.24202717069262101e-05
2.12446594693223972e-05
2.03951089181125734e-05
1.97693298506396236e-05
1.92859951998362423e-05
1.90777944385399336e-05
1.93143483450242584e-05
2.16421953774353577e-05
2.33602143697030699e-05
1.97215754235999226e-05
7.91431960637701838e-05
6.45705243584549448e-05
5.04343844776006275e-05
4.25845729878443369e-05
3.76206392690509392e-05
3.03607728018027965e-05
2.3721581286259116e-05
2.06278623362097915e-05
1.95301602380354744e-05
1.947066947637105e-05
1.97655652055547032e-05
2.11984326573768708e-05
2.76394701059755614e-05
5.44094123575807056e-05
7.99687183714185346e-05
4.376594915985294e-05
0.000344521983108071381
0.00024924296173157995
0.000205296146816991366
0.000114328361070602772
7.03870093358544252e-05
5.21625155892101536e-05
4.34258408084791479e-05
4.01166232496856525e-05
4.04194204227508263e-05
4.30611837197057015e-05
4.81692874577936854e-05
6.56884547620830648e-05
0.000126624002758624207
0.000255408418581403308
0.000246048648367777666
0.000169272333831591969
0.000375082777771982233
0.000702605198085994682
0.000895893887273389129
0.00106682569782574985
0.000803885189239648642
0.000604951028138700627
0.000526876501964279186
0.000685014275065838445
0.000630265488689671165
0.00058043506515332373
0.000539180779653634619
0.000534657063557191859
0.000563877713366556211
0.000539123927775525861
0.000375736312887923465
0.00033018759317013
0.000401105415959633399
0.000908115327948062507
0.00142939349564431286
0.00116726707066286623
0.000972683879067347788
0.00188868751108660251
0.00390520966913718987
0.00606506368560569623
0.00520039217085564113
0.00429354374168674537
0.0031439007059140601
0.00234084571115931615
0.00148232612483004535
0.000831974087557910765
0.000401998089972640323
0.000354856050617347138
0.000427582183794245313
0.000830927953129674004
0.0017056284921408483
0.00147356810083839359
0.00191600804471963671
0.00214330046569994942
0.00206969837329051397
0.0041229607095139521
0.00559382527720028201
0.00664020600214657551
0.00609069763682068381
0.00523436136483213573
0.00339623449342552454
0.00117417947600312561
0.000275708737554620402
0.000241763723545033792
0.000313587027903719582
0.0007161037214882532
0.00146568183253198946
0.00159891669329009561
0.00689112463403838277
0.0103220032902946873
0.00585734013088480207
0.00386294672101492433
0.00507780566754325365
0.00631459468124408261
0.00682553837979868547
0.00875880914302056002
0.00632882242569395015
0.00167822207243758007
0.000237521020415556105
0.000208168274341206927
0.000348506708367838129
0.000651757855282251368
0.00174256602926399495
0.0020522986004965476
0.00945412297788175357
0.0166758549926234213
0.0116712502137531274
0.0056329279127520105
0.00440679828168147238
0.00468512577922142442
0.00748280583431828496
0.0100508120322166349
0.0104703657642053298
0.00406223801616479099
0.000432615854630639713
0.000197249246964741553
2.82248669947148341e-05
2.76778922280983625e-05
2.74836059878591705e-05
2.72489308358259573e-05
2.71111710230426534e-05
2.69469778879839224e-05
2.67519313425064342e-05
2.65795537462239989e-05
2.6441922692559327e-05
2.63357658396253735e-05
2.61677551975564528e-05
2.55200193427012244e-05
2.45663141109071709e-05
2.34244128822011268e-05
2.22059318659654093e-05
2.35831844795941724e-05
2.74929346753634503e-05
2.75259690659679379e-05
2.75104473385128095e-05
2.71255410379122175e-05
2.67600428411141075e-05
2.64512923841469583e-05
2.61599656053710808e-05
2.59181088295483376e-05
2.57347722147817105e-05
2.55806321561922228e-05
2.53478751375650454e-05
2.46349934810346877e-05
2.36406074771372348e-05
2.23242262957169895e-05
2.10569813154715393e-05
2.25364667905082979e-05
2.6945736440345782e-05
2.73330426211886294e-05
2.73991977838336086e-05
2.71745003412386158e-05
2.66371696176116221e-05
2.61549487362144584e-05
2.57092617153740402e-05
2.53320718431285742e-05
2.50286097302950028e-05
2.47599724278529471e-05
2.44736782015373772e-05
2.37556176388261805e-05
2.26986608062996349e-05
2.12483590916546629e-05
2.00594209464488056e-05
2.20601013801576653e-05
2.6495024184565093e-05
2.70631864076043841e-05
2.71817359613584242e-05
2.71184724378459008e-05
2.64959141818905471e-05
2.58238078592282709e-05
2.52210994449052401e-05
2.4716674779447181e-05
2.42996979774471362e-05
2.39294891496879116e-05
2.35811240465276105e-05
2.2930640390245297e-05
2.18501086875236308e-05
2.03558840480086371e-05
1.9368321452766686e-05
2.20873902917574026e-05
2.61341953711420625e-05
2.67669901549534823e-05
2.69138439351518793e-05
2.69248850298863134e-05
2.63809988693728736e-05
2.54971492177088204e-05
2.47197872371820335e-05
2.41036086647382392e-05
2.35905657983481311e-05
2.31375947501267542e-05
2.27205179241856889e-05
2.2152092532965513e-05
2.11265826660096052e-05
1.97762836661509918e-05
1.89612699032159644e-05
2.28483112440582284e-05
2.58842608083092261e-05
2.64975024517140891e-05
2.66268186947210377e-05
2.66632912872102154e-05
2.631249023188447e-05
2.5179602772325279e-05
2.42060527265998078e-05
2.34835518777213601e-05
2.29043899135555475e-05
2.24016821759787148e-05
2.19590789476425765e-05
2.14584101852890214e-05
2.06261149009059712e-05
1.95466934220706439e-05
1.85186105240135954e-05
2.41690558678135443e-05
2.57533448893863293e-05
2.62581497817021796e-05
2.62868265839885103e-05
2.63220141139154262e-05
2.62946096877877227e-05
2.48645657995554495e-05
2.36781036879045142e-05
2.28633488620816528e-05
2.22472707591912676e-05
2.1722369336372727e-05
2.12719977128916538e-05
2.08657343390030825e-05
2.0241967475770685e-05
1.89821232266220543e-05
1.73201197711887658e-05
2.28591185621225585e-05
2.57506231667663403e-05
2.59884231304781271e-05
2.58310432878087222e-05
2.58747573116297917e-05
2.61386215670466892e-05
2.45360218400297781e-05
2.31019592064831811e-05
2.21879056903215471e-05
2.15105032692036742e-05
2.09443612042767054e-05
2.04809668813439984e-05
2.02083918813079185e-05
1.98838011995326278e-05
1.86649787327051511e-05
1.68272479126866563e-05
2.03255966242065374e-05
2.85524320990745424e-05
2.79670830788880091e-05
2.6611850616303617e-05
2.58563847055480551e-05
2.581586999726185e-05
2.41779483222337582e-05
2.23767126851772888e-05
2.12362406622090956e-05
2.04022181748040716e-05
1.97807347445808139e-05
1.93387874705040743e-05
1.92271492032011661e-05
1.96937877374818111e-05
2.20915650670567774e-05
2.32951334192039411e-05
2.01173013219594568e-05
7.86142521186427386e-05
6.43286585246252631e-05
5.04598494566778084e-05
4.26527305036207601e-05
3.7609348356507552e-05
2.96208557313563036e-05
2.33002346855288201e-05
2.05388758951094759e-05
1.9681991267945938e-05
1.97686238162598595e-05
2.01983365821844551e-05
2.18918297677454511e-05
2.93678112002969192e-05
5.74518687482290379e-05
7.42236467624495427e-05
3.95922619152574095e-05
0.000351833556527689131
0.000260329496630292128
0.000206632498947505893
0.000113931658894193713
7.13005171528359612e-05
5.40428211205378582e-05
4.54243269654313779e-05
4.21775237414384355e-05
4.24649264901787578e-05
4.5831460580524263e-05
5.13778649077452362e-05
7.04721291308880559e-05
0.000135651305709545385
0.000263444319150806471
0.000229351915463618384
0.000144411736620129311
0.000405753719208135121
0.000627897335881403076
0.00094552264632832882
0.0012109230827999592
0.00100295475839931223
0.00081789570493519541
0.000733405556640204541
0.000838028621927747685
0.00073176610188249063
0.000610359061296099803
0.000551427684095516946
0.000545032267320610074
0.000574205356760059261
0.000552696387790043656
0.000370325641033991963
0.000311309592235727321
0.000416125686508534039
0.000934426281612238548
0.00145407558673239182
0.00167166266489296379
0.00102795726629532989
0.00197265315135160962
0.00559334102401727509
0.00720905301046222049
0.00611995317309807323
0.0051322636319487934
0.00336766090979816364
0.00245518498793563088
0.00149517755648100417
0.000882530299285624246
0.000408536691106594458
0.000334211420907424043
0.000445706828082406226
0.000894498220032504451
0.00161644186055739892
0.00151901406303702391
0.00174144167191931818
0.00214830334041695532
0.00272435003506711973
0.0051130522848771582
0.0067156781407976306
0.00885667014281448298
0.00811893805534844894
0.00626952048100408096
0.00367972635935131165
0.00128421556566237611
0.000279320480341579828
0.000231570930395630988
0.000328314588500901237
0.000759886229236765402
0.00149323575639990027
0.00188067234061425198
0.00699973210641216363
0.00990272115260460578
0.00493428947953172825
0.00367080004171341625
0.00573023746256500974
0.0081536010188311258
0.0093841099285977142
0.0119514190107273804
0.00826720712885548915
0.00197518412127594637
0.000247898449193734974
0.000204160742457811509
0.000338422441616446001
0.000766013243026310298
0.00155694656735709818
0.00322785131165895765
0.0112833565139596522
0.0159572615045265979
0.0122818432857884161
0.0053576381941298672
0.00469159330986719438
0.00558590076225686828
0.00815257196411393013
0.013959365350479494
0.0157818929281617719
0.00564375710128143474
0.000458892504161621004
0.000195248076075015507
2.83047100655325955e-05
2.77359765198001972e-05
2.75304440588031857e-05
2.73014119083223532e-05
2.71799683895593596e-05
2.70211124668185943e-05
2.6831456457835645e-05
2.66727541079121879e-05
2.65647565801673633e-05
2.64818915793969397e-05
2.64358062761914893e-05
2.61936696888518566e-05
2.55741408618921844e-05
2.44768061126971769e-05
2.32682837201770535e-05
2.48222637089566496e-05
2.75309507397524173e-05
2.75750088187766308e-05
2.75666260272500248e-05
2.71516002466040061e-05
2.68114360766134057e-05
2.65190699526219706e-05
2.62308302686648291e-05
2.59865467560767352e-05
2.58083683073053973e-05
2.5670698693989265e-05
2.5565299312935768e-05
2.52190849419264414e-05
2.44731971969703425e-05
2.31487003982768713e-05
2.19541977506004747e-05
2.36535191841125875e-05
2.69336111617241489e-05
2.73664628890954877e-05
2.74760853382357854e-05
2.71772770931798366e-05
2.66758637570390596e-05
2.62187289126166316e-05
2.57745958954956648e-05
2.53883402456460717e-05
2.50710959732040385e-05
2.48086880579462615e-05
2.45907636924694283e-05
2.42341784057312506e-05
2.34282034739130217e-05
2.19633148903964452e-05
2.09070997660260424e-05
2.30212795822355082e-05
2.64133584103324078e-05
2.70769098970495714e-05
2.72680619672274619e-05
2.71711485719024864e-05
2.65309383278047772e-05
2.58870306055086005e-05
2.52823606246059621e-05
2.4753881164065408e-05
2.43100838956404002e-05
2.39406412400251946e-05
2.36380423950365506e-05
2.33240125239497582e-05
2.24816524422197545e-05
2.09987409638486117e-05
2.01940837018114021e-05
2.30185747536443248e-05
2.59751943036121652e-05
2.67634973333314737e-05
2.70030918359296644e-05
2.70367403487359879e-05
2.64184478841804678e-05
2.55565631612174011e-05
2.47712854096368259e-05
2.41039211610826193e-05
2.35457390423337518e-05
2.30911955500029174e-05
2.2737438618648061e-05
2.24252755699303861e-05
2.16443501620148943e-05
2.04259260344949406e-05
1.97926265353413723e-05
2.37989264744836264e-05
2.56703594732467896e-05
2.64949157731016013e-05
2.67241524868067714e-05
2.67725665799202116e-05
2.63444432542863811e-05
2.52254469148378296e-05
2.42394929479972505e-05
2.34482199460891125e-05
2.28097757364405357e-05
2.23037842193262977e-05
2.19285329019426435e-05
2.16166330218084786e-05
2.09461974570657559e-05
1.98275483127071804e-05
1.8980711977113975e-05
2.51114244756510911e-05
2.55383109746998501e-05
2.62900873219643607e-05
2.64135826639085692e-05
2.64363499585493278e-05
2.63111222397084163e-05
2.48891670296166953e-05
2.37015377925301493e-05
2.28265568552021012e-05
2.21455296301472907e-05
2.16103067687166081e-05
2.12260857122031225e-05
2.09531169374147591e-05
2.03883994444628633e-05
1.90494144379054721e-05
1.77392094540234756e-05
2.40590204493213079e-05
2.56400395592775034e-05
2.61185031606543155e-05
2.60059079089017621e-05
2.60050748536445052e-05
2.61983868473696545e-05
2.45607931973907907e-05
2.31553809251914019e-05
2.21986375049605032e-05
2.14696283009923973e-05
2.08833444092613267e-05
2.04760946887616822e-05
2.03024818745356078e-05
2.00661054425195777e-05
1.87785103052256939e-05
1.71901665535490149e-05
2.13489502769126396e-05
2.84628750045465745e-05
2.80904597913785248e-05
2.68288912107441405e-05
2.59587116592004226e-05
2.59508789794356681e-05
2.41807283240550938e-05
2.24788144476098216e-05
2.13287937501050789e-05
2.04810043454292654e-05
1.9851207016275294e-05
1.94522933305483745e-05
1.94446007583983153e-05
2.01753376526090713e-05
2.26713858119409348e-05
2.36070192983213836e-05
2.06550564960531102e-05
7.80466375576775143e-05
6.38783974206943495e-05
5.06289230727899206e-05
4.30970828503298928e-05
3.77855683514027163e-05
2.91164071654412153e-05
2.3240516168446277e-05
2.07292403790061534e-05
2.00291438912254195e-05
2.01941654430247925e-05
2.07033664212804517e-05
2.27009334533638327e-05
3.13151417823100212e-05
6.07074624720803051e-05
7.16098425350288032e-05
3.77165797763778836e-05
0.00035788949225270438
0.000302274983202288411
0.000213803738708520229
0.000115524854668132125
7.39457730592085234e-05
5.6456884076135937e-05
4.7380208973501586e-05
4.41886358402031527e-05
4.44056559618849204e-05
4.81891013806456681e-05
5.42861725640019486e-05
7.56371882856323054e-05
0.000145606390943773802
0.000271472138093856966
0.000219424848872392753
0.000134258396859360073
0.000459023571049444086
0.000703747883466780103
0.00103401257612104514
0.00136165396824560348
0.00143813394526026033
0.00125472037564615282
0.000924598194709598704
0.000905875805271737959
0.000798707503157147086
0.000634180994915800275
0.000579391507936312757
0.00056538641288281634
0.000590116611783091647
0.00056271731931804576
0.000362203098294085343
0.000302533401217209208
0.000465467282295506856
0.000881938996149393088
0.00146200374579553375
0.00174441299095023363
0.0012716123864653533
0.00195481756888684017
0.00809266446702471866
0.007890254861013574
0.00700213993650001393
0.00581118512511814671