/*--------------------------------*- C++ -*----------------------------------*\
| =========                 |                                                 |
| \\      /  F ield         | OpenFOAM: The Open Source CFD Toolbox           |
|  \\    /   O peration     | Version:  2206                                  |
|   \\  /    A nd           | Website:  www.openfoam.com                      |
|    \\/     M anipulation  |                                                 |
\*---------------------------------------------------------------------------*/
FoamFile
{
    version     2.0;
    format      ascii;
    arch        "LSB;label=32;scalar=64";
    class       surfaceVectorField;
    location    "0.270000000000000018";
    object      Uf;
}
// * * * * * * * * * * * * * * * * * * * * * * * * * * * * * * * * * * * * * //

dimensions      [0 1 -1 0 0 0 0];

internalField   nonuniform List<vector> 
20390
(
(0.681802699175813709 -0.177904927644872091 0.292718299591159081)
(0.38404283741445211 -0.399629887019879282 0.224977982723500614)
(0.325564293375025016 -0.117163101996765537 0.257258590563824829)
(0.89584670267944988 -0.102784953605304333 0.13980152191891404)
(0.978315703177691898 -0.192013210247639982 0.338630131738520301)
(0.823897004591413018 -0.320643060202278174 0.294069551199450607)
(0.633945554143730106 -0.206000202469881433 0.529362083132845274)
(1.11478659120555168 -0.130713470542681315 0.18458916068727943)
(1.22983924954993462 -0.166265743990923087 0.396846050861954791)
(1.20101436530513062 -0.294957528515622791 0.400736580197211978)
(0.841565156989876995 -0.180776214892397813 0.605939407396561491)
(1.31870300274049734 -0.118070280103606567 0.267547561831763869)
(1.50295881338097059 -0.138534464508577815 0.484544055174638277)
(1.48918306769021891 -0.264497583270973058 0.498199991208896131)
(1.10349715290763273 -0.164646847426789172 0.618058442239987182)
(1.57784156108682594 -0.102887341878535418 0.362181757671267313)
(1.7534349134345808 -0.114012992620858497 0.567970251598007403)
(1.69910755169484906 -0.222276187445582446 0.578247721401256021)
(1.39230312653821642 -0.148166047631472675 0.664830320937035646)
(1.82281063492136486 -0.0902219914602116202 0.470753555690117287)
(1.92631752447325999 -0.0980083993977383244 0.617876019463106774)
(1.82875103573108544 -0.176322585903943896 0.629036180736753492)
(1.62151220302685251 -0.127794593963083652 0.710432297595101625)
(2.00931566667279116 -0.077137674276268442 0.5306698480265023)
(2.05653736325691483 -0.0901401870786739945 0.644522935428105126)
(1.88936160898094818 -0.163419731555185799 0.647546064724670245)
(1.7763062909280507 -0.112125545709765614 0.760027907380703693)
(2.1336165389070012 -0.0699906902716270901 0.563409167676633071)
(2.15576920237067116 -0.0844802174031633879 0.656570690586045003)
(1.92754812615951154 -0.153772474191101433 0.657477445460446619)
(1.89046883894348161 -0.102302127246058652 0.792084974128561159)
(2.2306199583334041 -0.0648887333614544121 0.583772149285015418)
(2.22949278234335724 -0.0776462076780290861 0.658372847708825315)
(1.95990663512596508 -0.144094594507081397 0.659820702470196641)
(1.98094891011212937 -0.0959060221680023972 0.808018863344905358)
(2.30665811927181741 -0.0605329111712926762 0.593553460978522684)
(2.26623165432891582 -0.0706374593491360669 0.652539640039039193)
(1.98683515189614024 -0.117360528308490114 0.65522193638847348)
(2.0591259492488736 -0.0904993756104823383 0.793752208412010218)
(2.35972829381809257 -0.0557431413187361099 0.595770358185196969)
(2.29928279982674288 -0.0660132119960151198 0.64390832629165784)
(2.01000045868965227 -0.10970855390208939 0.649903222137357739)
(2.1484494495221016 -0.0860938991250085883 0.772741287498398877)
(2.39668465209676729 -0.0521075030014429494 0.586375597993005315)
(2.33234576998494569 -0.0625482311915047107 0.63476964069825581)
(2.0277509058722023 -0.10303031995062413 0.645213780359575662)
(2.21043760838455716 -0.07711189134568458 0.75190306590976197)
(2.43235850686252775 -0.0496347405751791301 0.578905589009288013)
(2.37065833998244324 -0.0593962433351294256 0.624836292185074194)
(2.04839315902971597 -0.0965567377515879066 0.640342480412664394)
(2.2373408834803028 -0.0726998259864159307 0.728638042604465741)
(2.4700540582366366 -0.0474416912234063917 0.573837348198433683)
(2.4104667879804782 -0.0562315650762797298 0.615878516785838381)
(2.07636833919177377 -0.0905874674980310796 0.633853624618807232)
(2.26397036459232481 -0.0702973926342329719 0.712263386847085567)
(2.50737092438980724 -0.0458696930102542033 0.57089715187837653)
(2.44379196075106675 -0.0530897884794329714 0.608150492882827409)
(2.10587073854661622 -0.0807731388206062301 0.628479499252036833)
(2.29148382356834901 -0.0676291456626290644 0.697079278031418004)
(2.54203505166648025 -0.0444326335631982927 0.568858409264955123)
(2.47459234624400803 -0.0504425135000476019 0.601583475277980506)
(2.12829720907808095 -0.0743538598136593287 0.625290754305455221)
(2.31899694208309803 -0.0650467765429354056 0.682844335213061537)
(2.57290374520753806 -0.0432846367001473789 0.564937223281871459)
(2.50465976007803226 -0.0482681315730464494 0.596388014656910825)
(2.1462856699551498 -0.0704721329615818348 0.624817663626862196)
(2.34907087345291687 -0.062592133089629548 0.671557174120636091)
(2.60194451264565396 -0.0424659113266533453 0.560680456932658999)
(2.53346610308950027 -0.0462549000721501624 0.592096854296700448)
(2.16055332827191249 -0.0671054695745653407 0.627156904918595659)
(2.37773539002650658 -0.060111981464363036 0.662091287910807957)
(2.62968203004020662 -0.0417504877987133066 0.556686750327030522)
(2.5586611111792017 -0.0445764496174920893 0.588458747047250319)
(2.17287627902121638 -0.0611804010110643531 0.631628888304461622)
(2.40581394810022786 -0.0577380899777008572 0.651571868780380092)
(2.65519168112040616 -0.0411782273493433021 0.554406086258825925)
(2.58697681435646887 -0.0432919843876119828 0.584890532434376387)
(2.17803629993134429 -0.0614185198029998936 0.635633747527545756)
(2.43438597973904125 -0.0556410166119607752 0.644726445287361005)
(2.67917272727746703 -0.0409883395125117261 0.550205138679759509)
(2.61420522268300815 -0.0421703816636695705 0.581565302072176715)
(2.18044732779688166 -0.0591612031978715619 0.638678852328742774)
(2.46431576109550132 -0.0536853124262927431 0.636814038003489569)
(2.70359898614515481 -0.0406285336253343413 0.545720114086846952)
(2.64087341444802881 -0.0412055502433976359 0.578979501672210461)
(2.18021509141631498 -0.0575682346237899531 0.642350111478325658)
(2.49329728056943889 -0.0517827090832669035 0.630644312211650404)
(2.72700258978021548 -0.0402741787909414103 0.542176103157474665)
(2.66655801736320264 -0.0399342694057168782 0.576336020765842449)
(2.17918271345066739 -0.0558836839526770518 0.646076147802284728)
(2.52043118558133239 -0.0499517154163253013 0.624541223050151251)
(2.7504880042688602 -0.0395507869420885019 0.538458496023799915)
(2.6864391921927897 -0.0382890093925631961 0.572205090164691565)
(2.18076679822215258 -0.0502722589890777852 0.647927612856350144)
(2.54704214649828575 -0.0478685771176016531 0.616508521362765016)
(2.77293686785921834 -0.0384401809147700418 0.535845181494027045)
(2.70546833580097479 -0.0365176466256198901 0.566844596630348585)
(2.18021832737149257 -0.0510453248668759837 0.645403729063327436)
(2.57133698433000735 -0.0456636949176559837 0.610837369693811083)
(2.79458132634662215 -0.0358735335855875637 0.527775850884691478)
(2.72653149267290829 -0.0346329173962734438 0.562238125957435719)
(2.18215966566903852 -0.0527407716268310581 0.640175144733563517)
(2.59457589556283619 -0.0432781455803575577 0.605728035826617162)
(2.81455759989968257 -0.0329960989847460917 0.52130963079557624)
(2.7498034632088002 -0.0317432399031028767 0.558443717688919539)
(2.19215100253186979 -0.0529075578558582116 0.633898476239550757)
(2.61825941666184869 -0.0408218589459948336 0.60084103471141237)
(2.83551034233838273 -0.0305516458980186027 0.518297849036702729)
(2.76299236751443722 -0.0279108696586768922 0.554348359531718127)
(2.21502064944608046 -0.0449494135340763878 0.626451393259039535)
(2.64090642084004878 -0.0370968193908231478 0.593731375380182835)
(2.85617823248972291 -0.0267789959196936371 0.517021398153976075)
(2.77626106520232785 -0.024749894258733883 0.549626862764841739)
(2.2368616328281572 -0.0449653337670412323 0.616272324982911512)
(2.65583545406494714 -0.0331544149201801752 0.588508480531647726)
(2.87046025929949256 -0.0228008461527157702 0.511846468535302579)
(2.79288759737121861 -0.0213232650713924034 0.544091803544057617)
(2.25852331251175142 -0.0458113423363059741 0.60535382092231671)
(2.66873349175880126 -0.0299451469237706561 0.582231112244290583)
(2.8824019265444778 -0.0195659160943262474 0.507234958958437065)
(2.79797022132957851 -0.0160260036295697648 0.537639282276954344)
(2.28816290037969328 -0.0364539312053903178 0.595501397723702697)
(2.68398910374863942 -0.0259992182965255725 0.573165915656287273)
(2.89278545032139878 -0.0153128037578350532 0.505340717586560961)
(2.79120285188142869 -0.0112313371943000076 0.52992633693764668)
(2.31161572252799496 -0.0288821565340779476 0.584466006248225312)
(2.68812920987526827 -0.0200517626677811332 0.565296830239690351)
(2.89062529983509098 -0.0101967103426025187 0.500765240009933721)
(2.77928744979771114 -0.00562410266969061001 0.521673639786848553)
(2.32328851053739438 -0.0259265210154033601 0.570532150001300309)
(2.67767745203911067 -0.0150325527398370903 0.555649290035162946)
(2.88043780065030575 -0.00564295485272423274 0.491881003825444807)
(2.72762620577148107 0.00833000655359123973 0.518284437601514103)
(2.33039764060042032 -0.00171122103367177779 0.557856756524866881)
(2.65527102907060897 -0.00771914071014578266 0.543651418709358292)
(2.84515759779546551 0.00423197402061963567 0.48856792054068876)
(2.58082276823180301 0.0491766002816036579 0.536629250717016948)
(2.3013184599349179 0.0491021797820457712 0.555574771537873047)
(2.58301174456110827 0.00920447772970271055 0.542163224418088951)
(2.74339699680553961 0.0285144885902103261 0.493564222794914687)
(2.19178938803961554 0.166803031597504148 0.569884891278169436)
(2.18425218561179957 0.177040101565369895 0.580264725314675767)
(2.38989508486920421 0.0632758218516409343 0.571748083188098)
(2.50772381547159284 0.0986508171065527129 0.536794669226195342)
(1.2781866450786088 0.289102374639035209 0.855311854387393211)
(1.83532669708807528 0.450441897923269219 0.658824669328200385)
(1.88968823406793107 0.226740816487366881 0.592519373038658648)
(1.9497540095919681 0.265687764574060237 0.579799759513457746)
(1.01342808121911832 0.589625132361869309 1.16633745602887196)
(0.815806017872953815 0.31582299454043522 1.17313924195864705)
(0.892388044322703244 0.322286494834311821 1.07420203291554106)
(0.507971277236371255 -0.443242409033861751 0.226329234331791918)
(0.0381256509809888081 -0.485276429914676899 -0.284711856686197251)
(0.191083605088373909 -0.185488286505509248 -0.188420687149466359)
(0.604556028195412765 -0.313066939240729813 0.148259786911196512)
(1.04942542170153486 -0.438879794232081288 0.356175999658141951)
(0.85378814961934546 -0.476755998918206025 0.202357387001361355)
(0.358337336295465658 -0.149112088503992685 0.016971047031988401)
(1.10881371406502294 -0.353542593519553194 0.246196896571691359)
(1.46117836994183103 -0.406185109320836957 0.502090520544152819)
(1.25353850449643711 -0.454049607502921504 0.470774862459366394)
(0.964037253177602027 -0.319598251150429558 0.304382321708664305)
(1.60169692503533323 -0.347330412843874892 0.397948589032390165)
(1.68373626361757212 -0.356910811433366226 0.591903657435513875)
(1.36573793980617331 -0.377148290611545534 0.504827991539868126)
(1.30076102183117714 -0.337930765340224926 0.479837106845002415)
(1.86650922184834855 -0.310300076674958347 0.477092881298655291)
(1.77581478192325815 -0.300309686626875183 0.639313650540002332)
(1.36828413171032071 -0.286121026548966539 0.499117126459143801)
(1.45116773192171067 -0.300295825370925806 0.557655096179902499)
(1.98288115876933491 -0.280617620188037598 0.522046140397345648)
(1.79005484115078128 -0.252183458502435398 0.658706225998317074)
(1.33241798131328548 -0.213360882605886704 0.507070660033614895)
(1.50327488611783289 -0.236104695586756869 0.60119145134290497)
(2.01952410614551425 -0.237356818721827373 0.541356066555439885)
(1.76133387650959561 -0.225959041707007924 0.660500574757011849)
(1.2932599350709002 -0.183029152945441004 0.511828673014149693)
(1.50364696635550144 -0.189812299828315045 0.610625558318649286)
(2.01951356734448462 -0.20829942774548052 0.542684695258918715)
(1.73302468313229197 -0.209206827312645782 0.660727457344598257)
(1.28059266956596973 -0.173514719036919035 0.532360741455388142)
(1.48273888519568176 -0.162382390783684882 0.616809812238887978)
(2.01521659122802799 -0.1875461314182717 0.549014978268202669)
(1.71847409111075833 -0.18789458118827243 0.656669791149844584)
(1.28068584383165085 -0.166790247008828857 0.557111358963139902)
(1.45659368282685286 -0.149916764098229266 0.619441795191693956)
(2.01787604471594273 -0.169484339711134524 0.55949783971273237)
(1.72794718975938566 -0.16375273931731979 0.652585518486791916)
(1.28519532620534016 -0.148287358856974638 0.568790286274498125)
(1.43934431098518623 -0.140792832800852669 0.621212670071676687)
(2.03112521799626577 -0.149071841802633165 0.568830329078943486)
(1.73846987711795053 -0.147564368615010988 0.651208676205275672)
(1.28756265791053015 -0.131679840206385096 0.574648647642733823)
(1.42030231024462994 -0.145121326258469185 0.613354215578831519)
(2.04914217217781092 -0.134193239252493463 0.579932579998707065)
(1.74423970277443807 -0.136504483983055452 0.650786620073984245)
(1.26165070789025302 -0.119861396537155288 0.576286089762719889)
(1.42482894095606571 -0.120422825826724547 0.611609761448317135)
(2.05862266889446444 -0.12304528770889539 0.583715980688690905)
(1.754739225853442 -0.126674396051660504 0.649359812846397544)
(1.2302010428699901 -0.111982714318562188 0.575709197731608224)
(1.41096271788166217 -0.116190045592431498 0.609404783209243628)
(2.06342864825365346 -0.113319509638109411 0.589050254160912834)
(1.77242913279602043 -0.115525047577672291 0.646454607085005684)
(1.21902398078530272 -0.106629486291235823 0.580655709281462373)
(1.3955579212772331 -0.116236243079939558 0.604676849852534115)
(2.06788417990927353 -0.10506236860000942 0.590279787390259214)
(1.78987122063174908 -0.103109580057074407 0.645619760674664755)
(1.23161760120449149 -0.0973549919480583836 0.593610432969170376)
(1.39815925432182375 -0.11246289255283419 0.605151704163993998)
(2.06869847625077119 -0.0961849062868769672 0.589428490365291546)
(1.79962704353603131 -0.092913661348848528 0.648524942654336911)
(1.25689410259758549 -0.0886849110737710361 0.612629958917637163)
(1.4139330585946368 -0.109914394878786417 0.611647910002575235)
(2.06093828264520651 -0.0872957703462152318 0.592740514970328425)
(1.8022663934598897 -0.085986054207966664 0.65558655388854703)
(1.28508280709559042 -0.0836021668522857059 0.634023921835433879)
(1.4394941447029117 -0.105839081572840693 0.624379009771640625)
(2.04622057164171745 -0.0808567961931233592 0.600757380434885357)
(1.80023750288396878 -0.0788367209352963255 0.666688938926356833)
(1.30781528268065861 -0.0799170084253394142 0.65444389007385928)
(1.46485354802878454 -0.100992940131627795 0.640770573134160082)
(2.02814401686391799 -0.0756828752355381135 0.613117959797135015)
(1.79167958175653474 -0.0735563068948639764 0.678803888784756948)
(1.32648503412872198 -0.0728421645497565745 0.673959613293223514)
(1.48614060022954364 -0.0949754941217691578 0.659525831016892883)
(2.00798955210946506 -0.0711756655031825503 0.62764414282535308)
(1.77186901449894174 -0.0714027130567995993 0.689422067421912255)
(1.33258603368854955 -0.0685433326319288133 0.683382072374626448)
(1.49638362390579704 -0.0906786092987522385 0.675205572127470566)
(1.97895869212683917 -0.0705156364216154574 0.641145714973343606)
(1.74637656772894356 -0.0697685333473964803 0.699463661734891939)
(1.33168321314329319 -0.0641603260768545541 0.686840416230283468)
(1.49507137472232987 -0.0871168843260897163 0.688879176653283909)
(1.948554858826542 -0.0697671877965992948 0.653389231466284803)
(1.71858108155911138 -0.0692205015796083234 0.709446757608400036)
(1.32436348492818068 -0.0606854736264245201 0.68659023883219561)
(1.48650509894177341 -0.0821934013291074211 0.699595992798611843)
(1.91925051672237901 -0.0720259065971359524 0.665566768472568016)
(1.6939204252976181 -0.0668111786829557741 0.717667739892792422)
(1.31229200899104148 -0.0598212443312097567 0.682150075542026335)
(1.4725083612089338 -0.0779281219659784946 0.709253445125934578)
(1.89407545058266491 -0.0742584387792685069 0.67671815650449485)
(1.67387171794003797 -0.0646349669611702704 0.721126251754986014)
(1.30185378214490965 -0.0563572733290686745 0.67029248422809895)
(1.4585228056165318 -0.0730944832112120635 0.715597611042517401)
(1.87605598517981287 -0.0753333598307737717 0.683379192244089162)
(1.65661011372367217 -0.0667281394392188754 0.718734277166542479)
(1.28905267542727509 -0.0578877469781229059 0.652048424021229645)
(1.44159671484905472 -0.07054164792570225 0.716069507120537962)
(1.86816446971055505 -0.0748172507371736017 0.685123407209532687)
(1.64846156505098373 -0.0708389555267281285 0.711835495015678665)
(1.27847345168964233 -0.0630303455714397998 0.631440285129887036)
(1.42269649402164511 -0.0705995038547160975 0.711736333656616926)
(1.86901191372884679 -0.0762184528479892126 0.683008972542710313)
(1.65872073774917461 -0.0703301054755437471 0.701906151809670642)
(1.27166349243999477 -0.0702691266170183543 0.608448581497012198)
(1.41147104982989102 -0.0704678332041455691 0.702424313843904247)
(1.88058002999498619 -0.0790756930104839911 0.67796065078791401)
(1.68668117489569758 -0.0676079217547970179 0.68837535871023281)
(1.27832224744019674 -0.0705392283005749215 0.585976910007547813)
(1.42881584582412002 -0.0635771508641457678 0.692369113216097065)
(1.90638967338626797 -0.0757471192549741962 0.66915021427744914)
(1.7194046822843958 -0.0677034325328511738 0.671999283140386261)
(1.28993993664648898 -0.0735502970297058634 0.563682942923353081)
(1.46311370698287835 -0.0608096409018732825 0.678807256681370208)
(1.93583073959367402 -0.0731929217908098839 0.654361306297339795)
(1.75540218184319907 -0.0637522005494233351 0.656763415101961789)
(1.30403452390335417 -0.0719599089394152153 0.543200904907119031)
(1.49961395388333196 -0.0605116364930839284 0.658116188112598866)
(1.96422372249748589 -0.0698353417348581834 0.641817228631445302)
(1.80133984180568629 -0.0552903322576876258 0.642328121694973553)
(1.32828179237307853 -0.0639421462330415913 0.525541866945216096)
(1.5476333612409825 -0.0554661934851404595 0.640087112704248451)
(2.00030142029115376 -0.0626392664313348002 0.631049249746181817)
(1.84434464912619189 -0.0475904856733999695 0.625071819311878607)
(1.36098930402020435 -0.0537965830130128081 0.509611005690828289)
(1.60691576081271781 -0.0447507951347743127 0.62306692558727006)
(2.03862116130620485 -0.0549296693203378261 0.616243965968784946)
(1.87900191963466767 -0.0325177443082112425 0.606715266739318748)
(1.38452898011915826 -0.0436180084973012069 0.49221654000029702)
(1.65164730175884511 -0.0356717523449063614 0.60062328458877412)
(2.06548681073283591 -0.0438143912417682871 0.59989864610429422)
(1.91954835408236235 0.00525049990838899732 0.595147090461225825)
(1.41646573512914786 -0.0215901183581323625 0.480929988474934456)
(1.69376755462933337 -0.0171806338101933402 0.582946874883993771)
(2.09420463691058156 -0.0196799288530388611 0.583736130241127804)
(1.93519372209795271 0.103701831961669544 0.599210246135531532)
(1.42913087998414601 0.0414247968873231731 0.484569778126403561)
(1.73637787232146756 0.0329653890792587501 0.576859343718090112)
(2.1067285847069348 0.0365430269673171007 0.577149495006306523)
(1.81820782606964526 0.34577315360871802 0.669204503364707826)
(1.4550010450156412 0.239814535212435509 0.537905475839778546)
(1.73509323672594906 0.169704157792605392 0.588193692983552507)
(2.05068945182540352 0.183337020637710818 0.596755071285019478)
(1.33337942701523859 0.690180768412173462 0.969850270969688011)
(1.39299222708242842 0.688307624586823263 0.70841539325964209)
(1.62144991851651854 0.504458707860701905 0.730845420394259371)
(1.84734618468801459 0.519048832076559719 0.721746641055482696)
(1.05717207951501524 1.22881895155165455 1.21142464027043051)
(1.10264440934902241 0.839980611575919522 1.2286769833387805)
(1.23567558941350408 0.882346784227446057 1.17368428308047523)
(0.383738657369645964 -0.55898378976218499 -0.308683704016634586)
(-0.176636940213778959 -0.417570740569649879 -0.598410921116685923)
(-0.120687729880340378 -0.269538629025858789 -0.822659646511555098)
(0.62310977533980727 -0.457468069046177817 -0.303501758990351922)
(1.05525335520629415 -0.5126378178174541 0.316956249802585299)
(0.694696752089514535 -0.545446773704920229 0.203437439823723309)
(0.348053622739205815 -0.269541197832968815 -0.357054243929864179)
(1.36339407405705026 -0.491596342512119311 0.177068441073567895)
(1.15509381015267265 -0.450526947112454723 0.473512333455081424)
(0.678164104239624921 -0.467131871825792244 0.308885746870491973)
(0.791777582383542011 -0.415071915041811457 0.304127093735196863)
(1.54138200424982452 -0.471720476768367647 0.3778169366838805)
(1.05294263167819602 -0.346799749326711426 0.412041460563497663)
(0.536890534836985456 -0.309478643063066272 0.242776978910108243)
(0.756937956389727606 -0.32383273556334391 0.337266038557024583)
(1.47648111069660581 -0.398245460261606732 0.370463383132973056)
(0.922462870968751569 -0.238115000505646907 0.36687413595275653)
(0.424035416875803817 -0.1780600243678023 0.179664289619094558)
(0.577554560013674001 -0.179423624229474027 0.261915898314674545)
(1.35389829951950191 -0.310240546828474961 0.347552432093610308)
(0.837240197917112572 -0.175622844768003578 0.36019310704944757)
(0.434046999340081119 -0.127750350121534711 0.248616628071563983)
(0.446694348949886966 -0.0930433027104719396 0.270074041398069564)
(1.25508125335967913 -0.238970159521796816 0.356070475077112647)
(0.81260613557936745 -0.16100243574914766 0.383688839712526097)
(0.46836327713234116 -0.136041880708985485 0.310034655122027103)
(0.422298960519603139 -0.07225282120056635 0.313037992268537457)
(1.22097143777779293 -0.211012809759628522 0.382373395267615601)
(0.829565333272690997 -0.158961999524597247 0.428744643073929899)
(0.507807257084010422 -0.142873567394881412 0.351398180245917846)
(0.454396608674493607 -0.0732946202907238109 0.35137638994667969)
(1.24488488384715246 -0.202683041953778981 0.429615386202682636)
(0.846066197764110739 -0.14492547923009988 0.469231854087793276)
(0.50141102495399037 -0.129794500246726008 0.377428256001991036)
(0.496055325937332037 -0.0753460406327916277 0.390482659608656968)
(1.26899776815917309 -0.188998164128880375 0.480975860427566571)
(0.845590286453282602 -0.125422556273323771 0.49085341543043981)
(0.469073947926835544 -0.101487058225113433 0.395802087924517043)
(0.518215517403554982 -0.0681730727441252765 0.421366046675562655)
(1.26867106421856413 -0.165688849774076191 0.514496181947016407)
(0.810260145384662178 -0.109658343616461193 0.499726061200178151)
(0.434971316444281719 -0.0739222760504884141 0.413578188025294891)
(0.510040199715480091 -0.0652761241196936348 0.439932192924419208)
(1.23070819492903571 -0.149625315884745702 0.520124290322736327)
(0.747636259037896322 -0.0969680676698542743 0.501208667420343978)
(0.404133427566135184 -0.0576406621801739405 0.431540001729712075)
(0.493352786590688763 -0.0380783167437237155 0.454227020319685093)
(1.15239028617665618 -0.132232229328029638 0.516050840494109098)
(0.694944897756105018 -0.0912153577654570002 0.507005094166673165)
(0.401064497124794084 -0.0583593722868647052 0.449426945218349749)
(0.454915232680221826 -0.0374183321423915485 0.456996697896672077)
(1.06592270805030398 -0.118719495581724163 0.511557914582823292)
(0.677773264773498862 -0.0884461833157749733 0.527811535165627177)
(0.425181405363206255 -0.0719740561666594031 0.477066745583511143)
(0.43472777227726489 -0.0439871000181262239 0.468631407090933538)
(1.00377007098290449 -0.11037820176494928 0.520775321784282652)
(0.69883001799978739 -0.0851624474730425657 0.560620631212142673)
(0.47473369090804951 -0.0842665829498900343 0.514563777351068063)
(0.452641651685888102 -0.0512048332604911338 0.497055908952507786)
(0.977619363045721168 -0.10193352030592355 0.544293237836010357)
(0.742425221410681235 -0.0836377241578906278 0.598128938098733798)
(0.534723333670409029 -0.0895493244698180452 0.550180005488691615)
(0.496588689097871794 -0.0639646865392188707 0.534655527221909788)
(0.983577598623691651 -0.096511017034233787 0.576524016005425466)
(0.790550492075630329 -0.0827994923724995752 0.63288125802074624)
(0.591462925257099648 -0.0897166819945846017 0.579878773674587289)
(0.555668623330089262 -0.0722059959192602047 0.575541317938310315)
(1.00766906012832802 -0.0944836944673914381 0.611437887762158794)
(0.833563057922661499 -0.0797634342809312447 0.661714564440726183)
(0.638362734737354609 -0.0841792501178147273 0.603872915689197542)
(0.610624342889136917 -0.0728931324165494193 0.607634799530998637)
(1.03540061347768675 -0.0935878333130880508 0.642122835335304232)
(0.86779262068073304 -0.0754867373673289432 0.678537796883093014)
(0.6731185775802907 -0.0739508473006519479 0.612858784569162207)
(0.657671788661723378 -0.0693908693374110513 0.635034929331777076)
(1.05920740402722013 -0.0923400650354123664 0.667047642473304392)
(0.892319849864470549 -0.0707502717508132761 0.680800421182997773)
(0.695719151114065681 -0.062975795971218218 0.604651696622133361)
(0.692560155363368346 -0.0634518017678814272 0.644216308059292864)
(1.07599645813125422 -0.0909206389830725936 0.679880091774861528)
(0.909673641882143169 -0.0652130664460478376 0.673966993327587138)
(0.713780255882297654 -0.0516191903115769957 0.589648120764649342)
(0.720934088364825199 -0.0571094443368968391 0.639890527601161163)
(1.08907043672864479 -0.0883386624769974121 0.682328496532224604)
(0.918188021395093701 -0.0609723658108810226 0.659293556765822242)
(0.724598619487529572 -0.0407207141543075163 0.568440830172920131)
(0.742506124778637422 -0.0490141965695060286 0.627111098993592742)
(1.09500913937470812 -0.0882294474401481843 0.675556125710478073)
(0.919463191844363537 -0.0573073478028489555 0.634774819877333085)
(0.730407232177031851 -0.0326121770847073097 0.541721736020305489)
(0.755567524975920835 -0.0429221434002611535 0.605329835082673462)
(1.09524037415088538 -0.0887664374768453168 0.661023034895091621)
(0.917042409275678261 -0.0561344244798749406 0.601214656494342692)
(0.731186398946427007 -0.0259650177073968841 0.50808860734976935)
(0.761472083944395361 -0.0376885741327270332 0.574864105172044559)
(1.09011375740441196 -0.0899253680870128608 0.633227110988424657)
(0.910955281906699055 -0.0592313612167810824 0.564754431984573979)
(0.726552081999225052 -0.0222210090555054543 0.473043256069630491)
(0.761448333478170425 -0.0360640149671188695 0.536100446531090236)
(1.08483959712320588 -0.0903870100998927645 0.601346288753011993)
(0.902680255526606801 -0.0638203307087792798 0.52805337161122079)
(0.719085881923323567 -0.0214475931474644027 0.44043889607542025)
(0.761306673648567855 -0.0356283464371003333 0.498318384084645793)
(1.08195691823651918 -0.0922275306137056994 0.57320882969211373)
(0.890620495638631438 -0.0653270160201120248 0.492519339694889424)
(0.708437162848558843 -0.0214194545620496855 0.409185433891650074)
(0.755520357640113716 -0.0378160514011103704 0.459905696352008231)
(1.07431896769059798 -0.0940098986261270614 0.545545556927247377)
(0.881187215778997723 -0.0658718854633972145 0.461284494220667973)
(0.69824588556024425 -0.0195046550331897696 0.381085439495268574)
(0.74827853567378988 -0.0389953023472602023 0.424844878333067333)
(1.06633445507764457 -0.089394237629141754 0.517481393784803179)
(0.875187885788447306 -0.0668495626695188722 0.434884564690085407)
(0.68684615506932134 -0.0212036691734386364 0.35711200162156409)
(0.739771235722956333 -0.0432615025903912362 0.393903633300810019)
(1.06538717011935224 -0.0828602740599747867 0.49259915875150978)
(0.87718888898185865 -0.0618018207616988016 0.411979356750372894)
(0.673565561274538593 -0.0233898085403255115 0.335637108146312535)
(0.737210879833146371 -0.0451261695804446236 0.37027686252353359)
(1.06737264136458543 -0.0780169533679497262 0.469420958406539413)
(0.888486522704675874 -0.0509827031002561201 0.392824750941070944)
(0.663681491498854581 -0.0215866343825911813 0.315217434484511561)
(0.74064897308836164 -0.0397663194622977639 0.350911844814373097)
(1.07442499370194922 -0.0713945770313845485 0.446924194049720058)
(0.903381863572067845 -0.0399938959258605911 0.37675572637924637)
(0.663501664744223674 -0.012706699049239158 0.296451498415329751)
(0.752159987759033921 -0.0291348372053685106 0.332965189885537916)
(1.0922695304559924 -0.0586735715968158891 0.430044142539920737)
(0.924316738312080832 -0.0242034303532467805 0.366431261735912728)
(0.661238332188377353 -0.00412131468264242528 0.278281900917780711)
(0.760073735754938973 -0.0203161791186346578 0.316104225455318633)
(1.10889150230743927 -0.0444899499675954005 0.416035721929448821)
(0.953532558004844044 0.0194489190208718514 0.370352676140112136)
(0.660993251621420308 0.0135048249362492521 0.27128245066686929)
(0.774772730689464728 -0.00438882158488869498 0.31068631897625798)
(1.13737385536282209 -0.0203219226980589224 0.410093411342501102)
(0.996041908221288574 0.156282920666031028 0.423265007830650242)
(0.644069277829591447 0.0698618260576965022 0.28938607990583054)
(0.773637191309054062 0.0569914500700416174 0.323259156539125792)
(1.13714265289678007 0.0560949671642710992 0.422640951606362225)
(1.04761044298976369 0.507667459594583481 0.577116365734715031)