/*--------------------------------*- C++ -*----------------------------------*\
| =========                 |                                                 |
| \\      /  F ield         | OpenFOAM: The Open Source CFD Toolbox           |
|  \\    /   O peration     | Version:  2206                                  |
|   \\  /    A nd           | Website:  www.openfoam.com                      |
|    \\/     M anipulation  |                                                 |
\*---------------------------------------------------------------------------*/
FoamFile
{
    version     2.0;
    format      ascii;
    arch        "LSB;label=32;scalar=64";
    class       volVectorField;
    location    "0.149999999999999994";
    object      U;
}
// * * * * * * * * * * * * * * * * * * * * * * * * * * * * * * * * * * * * * //

dimensions      [0 1 -1 0 0 0 0];

internalField   nonuniform List<vector> 
29184
(
(0.0310666126721000496 -0.0134334538660340289 -0.00836741527880790342)
(0.0970885725572032537 -0.015902598091414033 -0.00913268824882386768)
(0.168278570073827127 -0.0160445728984308263 -0.0103478900856741364)
(0.243315908439998507 -0.0165985426848444008 -0.0123612783310619208)
(0.317555661635504527 -0.0172760320663232353 -0.0153235390126241836)
(0.39714829472735419 -0.0183631143622065528 -0.0195369104332385919)
(0.481634224656011134 -0.0199206804549068202 -0.0254488788210469989)
(0.57644804643196601 -0.0216854066798947559 -0.0337248627033991111)
(0.672617395659050765 -0.0234027516308045157 -0.0451499459937723044)
(0.787193380423339306 -0.0262677535670175835 -0.0622573444744521504)
(0.897588025010352175 -0.026477524172795714 -0.0843385847000685251)
(1.00970920277189458 -0.0273643217953243867 -0.123462553114033563)
(1.13251347616233433 -0.0288610646965641628 -0.173013224175048247)
(1.24246477521877163 -0.0265404402062745411 -0.272534268945263169)
(1.26515759359280122 0.0176046576812311228 -0.444957953667070361)
(0.898572835071761111 0.0949747676334658369 -1.33008448597822748)
(0.0314326953905500056 -0.0413402232410713527 -0.00835833947954060102)
(0.0973728348926742038 -0.047740415701449844 -0.00904349200719109861)
(0.166495512585415811 -0.0474070965783344178 -0.0102359034293962991)
(0.236513298563593738 -0.0488391771666437102 -0.012204277148945954)
(0.309549629357157852 -0.0512527334304694812 -0.0151159248687825244)
(0.387711755715405559 -0.0547576105103718749 -0.0192517724855464194)
(0.471298806617534982 -0.0592179499499371625 -0.025040753242908137)
(0.562758472401295728 -0.0644636169817199844 -0.0331255827990269008)
(0.659149460631393014 -0.0695073533548409839 -0.044484738699277715)
(0.7676748102313532 -0.0768199432482418731 -0.0606558322898804597)
(0.877818238286559471 -0.0795867713065499249 -0.0842197307324733246)
(0.9922124285996472 -0.0819478613194813549 -0.11955878138920828)
(1.11457458864043679 -0.0852523273437241352 -0.174385900556544071)
(1.23706278748954679 -0.0747997943898200124 -0.27014351210913401)
(1.30802432978286909 0.0267323070862341139 -0.491490914538959212)
(1.09562211291177247 0.309992452606141611 -1.40711659026010616)
(0.0317897467882935075 -0.0700958299444278538 -0.00830016118194534976)
(0.0972475514987500567 -0.0782094644120813476 -0.00898653004316787157)
(0.165260386522736086 -0.0779260044688197956 -0.0101559483718819104)
(0.234958776828090021 -0.0804380431799329859 -0.012086439311103165)
(0.307784355922749997 -0.0848605131709175425 -0.0149469243530814064)
(0.385607698565702095 -0.0908282830026733018 -0.0190057854715612977)
(0.468776661550562357 -0.0980366194091371185 -0.0246727095707191778)
(0.560128031852172192 -0.106693128546343788 -0.0325755401755045276)
(0.656101122056553465 -0.115027511356129361 -0.0436162668815049531)
(0.765421973913780862 -0.126440541930966599 -0.0593988415559120325)
(0.875892145990442517 -0.132500334077497395 -0.0819918082933065728)
(0.990869804338985527 -0.136298716776241474 -0.116677795569623183)
(1.11936354582517539 -0.145824922494591142 -0.16916068767329473)
(1.24814965884369267 -0.125589877850201148 -0.272872218468181771)
(1.30096591086589064 0.0224537451983619907 -0.50750007635207639)
(1.05715605099052579 0.563271734988872508 -1.45178213074929596)
(0.0318594738502061131 -0.0987523107319392551 -0.00821263557731274213)
(0.0966568671601941154 -0.107819442690573725 -0.00888651633905832017)
(0.163537373967164529 -0.108294521077382327 -0.010023482656197508)
(0.232562054851147781 -0.112020873600268828 -0.0119026162926906508)
(0.304853558566712091 -0.11834221724630041 -0.0146905461318633471)
(0.382072696787848831 -0.126696559048404961 -0.0186401589229618567)
(0.464566174960332867 -0.136748155622438361 -0.0241389269371359502)
(0.555522921146605952 -0.14876860082506646 -0.0317757662185950279)
(0.650803943394974715 -0.160693089153070456 -0.042411571471625463)
(0.76098986974474303 -0.176709121721639245 -0.0575453468476674682)
(0.871827098879598306 -0.184956310900823012 -0.0790588121031663704)
(0.988084511566099888 -0.192591087677482398 -0.112563994103893089)
(1.12271125524693094 -0.211151476663539145 -0.161611184157238519)
(1.25557227835696272 -0.172445274493737782 -0.265980885310375781)
(1.31696661470383458 0.02293016963716972 -0.515754185479349925)
(1.02087535337585655 0.823704724980893199 -1.48317280636901883)
(0.0316740388842902121 -0.127293657543196909 -0.00809949027737461025)
(0.0956457682470648607 -0.137039704600333295 -0.00874827265836447196)
(0.161389531655251051 -0.13833370368496456 -0.00984275035070802419)
(0.229520182131503658 -0.143291801470542962 -0.0116582561985106581)
(0.301010127540281225 -0.151468116967454269 -0.0143550202093279573)
(0.377390262811731714 -0.162202760156598402 -0.0181668228837010212)
(0.459016889964992125 -0.175136830386210945 -0.023454902807371756)
(0.549274291169665529 -0.19052184293202562 -0.0307497339228152249)
(0.643992140342601105 -0.206296713389050063 -0.0408960758096466939)
(0.75467491507918949 -0.227004220328943962 -0.0551314456230485861)
(0.865595388669771371 -0.23731425808389256 -0.0755431526234583706)
(0.984764332079853033 -0.252081291599211055 -0.106836635486944706)
(1.12641410677735188 -0.278163157321371757 -0.151987056577353979)
(1.268061627970686 -0.221158185334971891 -0.25641337025713562)
(1.32746248723178706 0.0276607492423351642 -0.5234974755653512)
(1.00266472454106781 1.08514362597335223 -1.51070117824627514)
(0.0313127048908775282 -0.15557362637014327 -0.00796596905086449994)
(0.0942754438726355753 -0.165687920248609344 -0.00857612402937010104)
(0.158789877735773216 -0.167900901085853843 -0.00961684568995111247)
(0.225815428692558107 -0.174154598374996222 -0.0113573416329859327)
(0.296246879978305011 -0.184163099477069686 -0.0139472931223404307)
(0.371544879546005902 -0.197262850436943693 -0.0175976806080198542)
(0.45207069069167366 -0.213098055535415859 -0.022635582104530684)
(0.541350527477028942 -0.23194039386552423 -0.0295311276176432949)
(0.635568822489398166 -0.25171948358916113 -0.0390889061084004757)
(0.745718055581478523 -0.277248270586228196 -0.0522367389985166838)
(0.857739472066650688 -0.290046242812439903 -0.0714329218198903049)
(0.980337674251617552 -0.314923604523676515 -0.0995658300604106983)
(1.12946751489918618 -0.347393874878033138 -0.139933592050737438)
(1.281287672699851 -0.272261823952016757 -0.245328637689059076)
(1.33462268603553658 0.0436653349787607947 -0.538939931852248755)
(0.983322915886008175 1.34585588499355069 -1.55656437797306735)
(0.0308131108813749395 -0.18345429748849007 -0.00782008004975457381)
(0.0925799349793204607 -0.193768062517829992 -0.0083748647291874978)
(0.155735059581489421 -0.196927930613677554 -0.00934950207147507324)
(0.221451144517655102 -0.204492042249808548 -0.0110050353159123013)
(0.290571767609177467 -0.216308236288187905 -0.0134765316999990725)
(0.364534746221146178 -0.231755666706067925 -0.0169474245734329461)
(0.443689598277660191 -0.250517032336942835 -0.0217037963783846266)
(0.531783879129031911 -0.27288949420312647 -0.0281635732300841643)
(0.625048434677348275 -0.296876193067250993 -0.0370286459627698905)
(0.734934585322842615 -0.327510819255509733 -0.0489720931417760297)
(0.848559276597534273 -0.34356330760616216 -0.0667253546355973393)
(0.973599549094293804 -0.380986300074734108 -0.0906406940744541728)
(1.13065307759613254 -0.418534695509350241 -0.126598689791684288)
(1.28812001521700692 -0.320268081578540864 -0.23535129125038512)
(1.33282500539153559 0.0701564608712788307 -0.563201610941245212)
(0.955178810828466229 1.58998484878434887 -1.62860106630786183)
(0.0302014831690453588 -0.210829417502581801 -0.00767250926308385515)
(0.0905876638677152735 -0.221226760217202029 -0.00815054727771068882)
(0.152230256180495738 -0.225329593835843528 -0.00904549799294480927)
(0.216431810609671288 -0.234189501500065039 -0.0106076796131878183)
(0.283991816495369753 -0.247787469267655741 -0.0129541294276932714)
(0.356354878562281541 -0.265559777610704428 -0.0162341981310318503)
(0.433865639577820761 -0.287260643097003554 -0.0206941308539604837)
(0.52044287733583694 -0.313224537365636324 -0.0267022918246227758)
(0.612517362131438814 -0.341674607399590713 -0.0347734174650780881)
(0.72166124949817434 -0.377722253449031986 -0.0454778415779708706)
(0.836520971754345588 -0.398062533905025606 -0.0613801447863051922)
(0.964445060813739596 -0.449576750739694775 -0.0801942069082803854)
(1.1275701786238308 -0.491082077505291148 -0.113284075412451585)
(1.28647266724734921 -0.365832494401745312 -0.227097750408776222)
(1.31814222565772377 0.0839608105752516765 -0.576026329790918723)
(0.918549746851995974 1.78572157379256002 -1.6792315856567912)
(0.0294929633792122801 -0.237612141699911267 -0.00753616396662418891)
(0.0883159477757181066 -0.248006351784446577 -0.00791147680636952733)
(0.14828254016862652 -0.253034060449240261 -0.00870975785112335608)
(0.210766495124827813 -0.263142154479493129 -0.010173132275029079)
(0.276517479504399144 -0.278487051349427528 -0.0123945297165544595)
(0.347009436540082428 -0.298549863781889246 -0.0154842385907432677)
(0.422572464093813382 -0.323180087533056049 -0.0196608922308571729)
(0.507284924760418199 -0.35280388828110959 -0.0252165251477197774)
(0.597793979281930232 -0.385926965612776673 -0.032382823724972129)
(0.705645478672937809 -0.427612409478813682 -0.0418203031061377822)
(0.821665807383999525 -0.453871081427333845 -0.0553607600199220867)
(0.95351889653714883 -0.519932633175820946 -0.0687701058700408291)
(1.11855654053768694 -0.563734660527747344 -0.0996138888148211804)
(1.27166622012547892 -0.398015109071656936 -0.222593723933462995)
(1.27135477231933791 0.133557254260820213 -0.605220258138116196)
(0.865210127699240994 1.96259992458367982 -1.65654220362904181)
(0.0286806610710556749 -0.263745071554843391 -0.00742532443644896515)
(0.0857599661152315951 -0.274047350465572437 -0.0076695118402199695)
(0.143893446858659513 -0.279965486663646679 -0.00834375421131767353)
(0.204471243417043397 -0.291238396368416308 -0.00971154546605842474)
(0.268166790422250556 -0.308280727529043952 -0.0118157945445825103)
(0.336508187919925872 -0.330580015149019413 -0.0147377080839061238)
(0.40979317713362251 -0.35810884473729615 -0.0186816498612391996)
(0.492272131532000001 -0.391454123419657574 -0.0237615773886935625)
(0.580767549326827837 -0.42939690870592695 -0.0298902225280091305)
(0.686559222177186901 -0.477138321737158311 -0.0380021537387622496)
(0.804502389867884471 -0.511065723751776058 -0.0487934849219975389)
(0.938523566230810014 -0.591883399115157971 -0.0580963917602936655)
(1.10377071412708982 -0.630241727444300293 -0.0896110374361182432)
(1.2443017366750948 -0.414615120499663148 -0.221640472106651304)
(1.19528465402194306 0.170037204505812001 -0.617626079465266042)
(0.802569417089408876 2.1156476096624437 -1.58428004407093437)
(0.0277274435368675166 -0.28919718659635707 -0.00735512188708543381)
(0.0828790176901161857 -0.299286575836013924 -0.0074417042156420584)
(0.139064862401777706 -0.306032484975450103 -0.00794030358593292643)
(0.197579008283556151 -0.318335425034424524 -0.00923615627637583252)
(0.25897040951309569 -0.337006833090310653 -0.0112379352952717091)
(0.324869199420577348 -0.361468233701097708 -0.0140517653104001508)
(0.395519233799058623 -0.391853467342290485 -0.0178397858075898877)
(0.475416698266810211 -0.428977208590840042 -0.0223417943735311972)
(0.56128762286882572 -0.471879729218511068 -0.0272700967431026564)
(0.664480341700301791 -0.526396010909366385 -0.0339910077687618217)
(0.78496221987663739 -0.568982417712222355 -0.0421493560963121031)
(0.914084720784837046 -0.665934733592652428 -0.0489947993086022465)
(1.08385874780847202 -0.688787926044805654 -0.0852335730058696034)
(1.20946504942217881 -0.413755823116289667 -0.227384679743755702)
(1.12270006521247101 0.191100321949616792 -0.594218794282657781)
(0.738244004986092217 2.24733004655480073 -1.50159016044272597)
(0.0265566676433735688 -0.31385491556039008 -0.0073432831551066835)
(0.0795866820556823257 -0.323684630889418679 -0.00724569465942154819)
(0.133822014788345822 -0.331214149940281422 -0.00747907969141511572)
(0.190154160362100144 -0.344304349493120943 -0.00876230101777123772)
(0.24897448244089801 -0.364523211384845447 -0.0106823097747237323)
(0.312120337057263275 -0.391054716373393119 -0.013495853236869193)
(0.379774224484676237 -0.424245308134885646 -0.0171888834481358811)
(0.456776927430616986 -0.465166805436110609 -0.0208711976249004762)
(0.539220667720102687 -0.513202253077832293 -0.0244352787883030664)
(0.639799868810320582 -0.57514319510846168 -0.0298434891417561216)
(0.761178166085151653 -0.626826633687405765 -0.0358825606675913442)
(0.878232657552328044 -0.739366246131412108 -0.0410121079265549221)
(1.04943354428384694 -0.738482372213732474 -0.080173697164350341)
(1.15878945955729384 -0.396627123014647198 -0.230125309583984916)
(1.05194447440186201 0.242806634931747201 -0.567992208239747054)
(0.676285117124802548 2.38592779180272485 -1.43380509466218453)
(0.0250469828252280688 -0.337354531530983437 -0.00742718420719354171)
(0.075713070020120371 -0.347250723345332857 -0.00703218064410573475)
(0.12823628795537334 -0.355641620403524206 -0.00692566143769050152)
(0.182307915307029417 -0.369057735906248352 -0.00829872344256703254)
(0.238243561465862896 -0.390741065363070406 -0.0101782322299422204)
(0.29831039638665896 -0.41922566581332632 -0.0131366764901539954)
(0.362660627446011741 -0.455139118940694143 -0.0167183109202688925)
(0.436484974632677547 -0.49978516125608663 -0.0191553870793192381)
(0.514554253466147471 -0.553077518968775439 -0.021319327331348694)
(0.612786250305840108 -0.622327135777222762 -0.0257807550830854715)
(0.73058644120903149 -0.682399671143980924 -0.0299940212574722406)
(0.83122449868587589 -0.806405778824037411 -0.0332674502937428326)
(0.999430729315008093 -0.778254479825514101 -0.0687888454742455191)
(1.0941186234244078 -0.371629399789126236 -0.213251196683686806)
(0.981298884628239665 0.311584659971276934 -0.53952534023561749)
(0.619549230737190593 2.52498230071703889 -1.37953340423922377)
(0.0230914260343059452 -0.359319143548949949 -0.00763119818299545956)
(0.0710451315030069391 -0.369947871115426707 -0.00670399170074017451)
(0.122443903947401095 -0.37933375200757069 -0.00625369115718493393)
(0.174209901009409945 -0.392348347415918175 -0.00781707310421804469)
(0.226877464623513214 -0.415420080510691792 -0.00976924784923187753)
(0.283527982478389007 -0.445766127153684633 -0.0129965820743834469)
(0.344412662689717208 -0.484306113925564607 -0.0163410001272520367)
(0.414727687312886673 -0.532586344224685648 -0.0169429059794346699)
(0.487440827587742875 -0.591329456935079878 -0.0180118522626940558)
(0.583610299017971568 -0.666307411628906054 -0.0220963597382186523)
(0.691180688376830443 -0.732519064924021746 -0.0241485089937720776)
(0.773080899787705889 -0.864081754056520324 -0.0257870315722174073)
(0.940394038673283528 -0.811537829831706414 -0.0547201431846269098)
(1.02405691373795249 -0.34897817244441881 -0.182955663474654806)
(0.900703710157244597 0.390465986685275268 -0.511006183615554832)
(0.565576032949890006 2.66228371354950122 -1.33588035277380057)
(0.0208949568405685307 -0.380407425861336634 -0.00793306959078079847)
(0.0656622552004954285 -0.391822458011893915 -0.00606804149888519849)
(0.11665509120435931 -0.402064532305159872 -0.00551000370335668569)
(0.166059864657409073 -0.413789036643636421 -0.00720238964556589763)
(0.215017405675487105 -0.43820147740322013 -0.00950921063573021558)
(0.267858760371185667 -0.470526377350213021 -0.0129737712083499886)
(0.325330928743614189 -0.511661406706927613 -0.0154197552579663309)
(0.391439883580438241 -0.563832840833053961 -0.0141851075525325498)
(0.457965918546190176 -0.628513368041246245 -0.014857071467797172)
(0.552260121885480126 -0.706438029208418916 -0.0189720871147467246)
(0.640817886128935199 -0.777997761902539775 -0.0184239406776382994)
(0.701167883786946278 -0.916480492027650473 -0.0200306994565762238)
(0.879049616867427663 -0.843797890132507167 -0.0427340083786845668)
(0.948330399372465993 -0.326969280708913013 -0.159365532359908857)
(0.792947327684146441 0.484610721896005958 -0.486471046454026834)
(0.517144185665650236 2.78585889252250185 -1.304239812847382)
(0.0193515089172686394 -0.402756120601901968 -0.00828106623513769936)
(0.0603394617145707052 -0.413724146173153673 -0.00491868482510913856)
(0.111066262226279022 -0.424243275855455682 -0.0048805544301271115)
(0.157950346087504495 -0.43340215634377971 -0.00625866960273199768)
(0.202737383490596695 -0.459318780647447189 -0.00947349184207169244)
(0.251188511203828679 -0.493830402748058006 -0.0127583372406649045)
(0.305437245612653119 -0.537426681644930238 -0.0139993758493461053)
(0.365740160148303795 -0.594407273896524035 -0.0112109188836269306)
(0.425461903814734921 -0.664371317386403426 -0.0123499876912716126)
(0.516794908573594336 -0.743132154531567779 -0.0164340310458552172)
(0.576169925754065892 -0.824465345799859306 -0.0139079278022286017)
(0.633800606680371303 -0.967201487489878775 -0.0181820108239712334)
(0.810887742850118665 -0.878260351492999081 -0.0355746859188981746)
(0.853866926607901977 -0.274261353300540245 -0.15196223708428569)
(0.64309319059707315 0.552818139103846584 -0.466674644297316421)
(0.452813238393143691 2.89425677657172908 -1.25876066992552382)
(0.0308173303033331958 -0.013405075564818238 -0.00803264364968326282)
(0.0962969037803776268 -0.0158612736703403305 -0.00878031665243459922)
(0.166863809611497688 -0.0159905614115554949 -0.00996104536489682973)
(0.241079823790247089 -0.0165263066906853953 -0.0119153182115305824)
(0.314320778081757346 -0.0171812599575268468 -0.0147868190070473103)
(0.392578878483710592 -0.01823228605066907 -0.0188649824035745303)
(0.475239429809341196 -0.0197284248091652986 -0.024571104988773896)
(0.567423248407740832 -0.0214025922030094337 -0.0324963356925470626)
(0.659749173757988472 -0.02296048257383973 -0.0435118534390255274)
(0.768642460071547684 -0.0256021402520975327 -0.059237649125190181)
(0.869716801123387451 -0.0253609218957331975 -0.0809464452187281802)
(0.96740125206485772 -0.0253025775771060744 -0.113658787143148782)
(1.06699620588326072 -0.0267591608779681397 -0.1602115574602542)
(1.14657543480210222 -0.0204891800100975748 -0.227280467701995476)
(1.0974288194267483 0.0216467804116667155 -0.374126320877538887)
(0.930060338353213778 0.115831017023849625 -0.627467766430048424)
(0.0311830231949040172 -0.0412519040337347292 -0.00802005536781520353)
(0.0965862420483270395 -0.0476108950108775075 -0.00869112933854809117)
(0.165082754611637628 -0.0472468056195681427 -0.00985077341707504481)
(0.234348145482322939 -0.0486320635056495185 -0.01176212021815627)
(0.306425644858416613 -0.0509783158846456377 -0.0145851675694428848)
(0.383312983077728486 -0.0543756873621711462 -0.0185874106807498857)
(0.465144217932963455 -0.0586623306790118246 -0.0241715673253023733)
(0.55415231233750406 -0.0636503179149243981 -0.0319300096797260416)
(0.64688135805567426 -0.0682463807789370769 -0.0427492721777057647)
(0.75019605560735414 -0.0749689917889054813 -0.0580309843953114302)
(0.851813252297401236 -0.0764865284212411928 -0.0796231040910908849)
(0.953422397067421601 -0.0765866792490836612 -0.111675960247116818)
(1.05261211359017959 -0.0798287260328094939 -0.158486042023888468)
(1.153987218347857 -0.0594477372974381649 -0.234603023160916885)
(1.13942297294462191 0.0591542367532101321 -0.392472116153687711)
(1.02225102270392498 0.367584367627150244 -0.803847876967608621)
(0.0315410102313742127 -0.0699428304981840609 -0.00795719202513114551)
(0.0964708057320477208 -0.0779974352817867922 -0.00863134554390992612)
(0.163872448401848531 -0.0776669085928568259 -0.00976995110353908076)
(0.232831329554209016 -0.0801073165763510481 -0.0116456249958022083)
(0.304716240931574067 -0.0844189643147634228 -0.0144192977010310017)
(0.381294969488607083 -0.0902120536676268847 -0.018346317124579091)
(0.462756069324671782 -0.0971485568937515281 -0.0238150260639237582)
(0.551731611954519585 -0.105392528699903884 -0.0313949403209449404)
(0.644163152995812727 -0.113033920401153315 -0.0419499327552137341)
(0.748483874315298725 -0.123540248779053299 -0.0567839853460984714)
(0.850679670661265819 -0.127588594483806134 -0.0777372723977976798)
(0.953026166541497854 -0.128434106620902766 -0.109101300961587377)
(1.0601782000304798 -0.138092979655328102 -0.153917988100333247)
(1.16360143045431408 -0.0972748652133801628 -0.238860963597944342)
(1.13743353233587796 0.0830687911077472585 -0.403910667701463444)
(0.995514010303689134 0.646793812130892487 -0.822415997382829334)
(0.0316144646094027107 -0.0985335915491339365 -0.00786122059844629462)
(0.0958970297848945746 -0.107530328789348123 -0.00852667773864519349)
(0.162183710494369943 -0.107938735020828416 -0.00963703593299850697)
(0.230487476232281052 -0.11156965529623708 -0.0114653963419430825)
(0.301865492074216202 -0.11774123376825521 -0.0141692555225137132)
(0.377882593013191381 -0.125860325752728847 -0.0179898199560913075)
(0.458737806780436741 -0.135549257136153262 -0.0232961486475098088)
(0.547420383794325671 -0.147009645028260277 -0.0306242562278267114)
(0.639355768108285982 -0.158019657979728223 -0.0408140027188841834)
(0.744796100696133445 -0.172760240821537459 -0.0549872552234778114)
(0.847717417368324955 -0.17831487598002202 -0.0752105326596143875)
(0.952386771548194067 -0.182473529101162685 -0.105013820019730975)
(1.06571457377733014 -0.200049728548003292 -0.146592289114002655)
(1.17576117273341207 -0.141588902829819618 -0.231459607739371853)
(1.15014937814329543 0.105535222221818062 -0.413692936740224337)
(0.98272089020540021 0.927450400126625052 -0.831119436525483035)
(0.0314355836515035417 -0.127010601602970785 -0.00773201459032515394)
(0.0949100399483898266 -0.136676840133178878 -0.0083799801214915412)
(0.160079160132616971 -0.137883332718653967 -0.00945551419492817596)
(0.22751060956059449 -0.142727558436377772 -0.0112265560478354287)
(0.298121177988089625 -0.150721795189217272 -0.0138426404670478464)
(0.373352763513662977 -0.161171868641878296 -0.0175287315685462401)
(0.45342696990025444 -0.173664102429666067 -0.0226286667159043553)
(0.541542373594269599 -0.188364930413528031 -0.0296418360246810814)
(0.633166173116152642 -0.203016557511515289 -0.0393528215070105547)
(0.739393268151992689 -0.222085762897640204 -0.0527246156557622664)
(0.842982468076425406 -0.229210628894005286 -0.07203546704929642)
(0.951826831152072672 -0.239705526378097306 -0.0993837271873786593)
(1.07299783519797742 -0.263603303517606247 -0.138166188417245178)
(1.19087633289234152 -0.185747737573608795 -0.223301907667114607)
(1.17308961047970417 0.127889253485909626 -0.419441885501819489)
(0.978064012051864218 1.21010846545886919 -0.846005133470802417)
(0.031083235437242198 -0.155228129789865721 -0.00756878281661956843)
(0.0935709082511513579 -0.165255752058489774 -0.00819330208547138124)
(0.157530646576265171 -0.167357417967757743 -0.00922777784204023739)
(0.223880033788433408 -0.173487815955393615 -0.0109329589655427217)
(0.293471617997153877 -0.183290463461234898 -0.0134459447457671057)
(0.36768443988317534 -0.196070959015573726 -0.0169732294030157348)
(0.446755504231160727 -0.211403288857626576 -0.0218277605021062922)
(0.53406660146757956 -0.229467160799243869 -0.0284712810665134104)
(0.625445133645724183 -0.24792797384520418 -0.0375943582682053135)
(0.731579187645152729 -0.271523780746293908 -0.0500810093384873103)
(0.836919073015092163 -0.280627814121731267 -0.0681369871952426653)
(0.950503434365991606 -0.300747561998691959 -0.0926592927232123137)
(1.08128732488876467 -0.328987894812827419 -0.128843332854277404)
(1.20685796701152048 -0.226913734965026037 -0.218549128087857841)
(1.18785049473589899 0.161636986622051754 -0.436250094844066516)
(0.967439054758336359 1.48970409159557171 -0.873614207726709391)
(0.0305945803359832721 -0.183049452252051825 -0.00737073312592663975)
(0.0919137861878519813 -0.193271797740183743 -0.0079689367496129284)
(0.154532791168480871 -0.196290323524027116 -0.00895656773302910304)
(0.219594443672652573 -0.203737644550812419 -0.0105896409536508172)
(0.287919328881749537 -0.215334469143805107 -0.0129879266078629495)
(0.360867668038658107 -0.230445136711382753 -0.0163366963568039314)
(0.438674580990359497 -0.248670073201510633 -0.0209143319506112854)
(0.525006076142644718 -0.2702056533702345 -0.0271411826350614685)
(0.615696318358165184 -0.29270393017124674 -0.0355826594021688841)
(0.722156798984095349 -0.321180259899879417 -0.0471180582497307751)
(0.829706296818849998 -0.333002569370876966 -0.0635536881679753529)
(0.947328369879140819 -0.365889562768268062 -0.0851984839424315965)
(1.08873682850518705 -0.393496167473111336 -0.120287233867608798)
(1.22159444906484738 -0.26342177350079593 -0.217226229025498929)
(1.1936061118499155 0.20889140506603357 -0.464098139998416426)
(0.94404039483855573 1.7530116900487609 -0.913290169672782648)
(0.02999393527809565 -0.210369141381731128 -0.0071366342361749175)
(0.0899667869624571626 -0.220672954175459263 -0.00770988809155980035)
(0.151087238338401153 -0.224592263213246102 -0.00864506552512183182)
(0.214652033465990155 -0.23336950287692651 -0.0102030472617839936)
(0.2814647772820984 -0.246744947222301392 -0.0124807548004811641)
(0.352885886447421748 -0.264187032214060868 -0.0156377221163600637)
(0.429159963509258779 -0.285359381309054472 -0.0199151285385760768)
(0.514211402090093195 -0.310472065001089037 -0.0256835956868192092)
(0.604004756707822943 -0.337287492550184143 -0.0333685374341186614)
(0.710401078983475376 -0.37101049159734717 -0.0438931227195715964)
(0.819745492059620995 -0.386635127194928874 -0.0584352777482434402)
(0.942164705859489304 -0.434159740047624698 -0.0772595993065528369)
(1.09275690069981612 -0.459931943977590352 -0.111468323005991354)
(1.22890121133937202 -0.298974061968391658 -0.214871092795182461)
(1.18118749762876751 0.257158977220454887 -0.492067204131429237)
(0.90471160736546985 2.00090265032967407 -0.961017849412256209)
(0.0292908951372718926 -0.237099959119402792 -0.00686014738088638453)
(0.0877460207513685725 -0.247402591000656591 -0.00741776682996011984)
(0.147194739814523468 -0.252183321552009121 -0.00829649149630810878)
(0.209053722033480438 -0.262289353265959924 -0.00978219939543532521)
(0.27410832701357013 -0.277416695017533355 -0.0119430373419405385)
(0.343724248065788329 -0.297191385947554731 -0.0149016303235471759)
(0.418165817336028089 -0.321364677765787199 -0.0188608184352656687)
(0.501627041705147825 -0.350176054135943049 -0.024129082920347357)
(0.590193316998967377 -0.381529356999311509 -0.0310008134752064804)
(0.695996619623753476 -0.420773346086120714 -0.0404517908355777195)
(0.80702565974049667 -0.441737158924024875 -0.0529324735274232863)
(0.935629249797252371 -0.504843530551590258 -0.0691581059704124423)
(1.08981268834979583 -0.52944874347310944 -0.102699285689627204)
(1.2179355519784052 -0.324760324419017699 -0.213118841867274811)
(1.13162898121419109 0.332638043813368645 -0.515139597891471124)
(0.848989694746078438 2.22819174935961861 -1.00166081998433909)
(0.0284680976360213479 -0.263183605043532942 -0.00654630507292172648)
(0.085244820956600173 -0.27340321969567638 -0.00708200722981516644)
(0.142845870365827882 -0.278976901242586339 -0.0079135409734741799)
(0.202804833492947256 -0.290400011524652002 -0.00934139672339882876)
(0.265850308900259513 -0.307231582133365599 -0.0114035217812893767)
(0.333364224528455433 -0.329339180661719244 -0.0141591638691409005)
(0.40565983356671903 -0.356583019481131025 -0.0177801008879312564)
(0.487217000712309001 -0.389216573581781522 -0.0224979985090829476)
(0.574165271870308302 -0.425215425540614977 -0.0285215907801595857)
(0.67846944624114891 -0.470364761604208925 -0.0368405886173893277)
(0.79204917469076519 -0.498301340838747553 -0.0472251010802119259)
(0.924246774064331644 -0.5787671280403206 -0.0614609397431020582)
(1.0805781804537038 -0.589856583677962343 -0.096844044630380946)
(1.19389267263087051 -0.340470498472956962 -0.21432258759879011)
(1.05855256061334191 0.399011686986124881 -0.5181064176119623)
(0.782667751374213738 2.43197556787020863 -1.01729574978168724)
(0.0274744349662095419 -0.288590328650413785 -0.00619895286149159397)
(0.0824243587616382417 -0.298617829614842956 -0.00668882148338411069)
(0.138026245357241784 -0.304863749114864357 -0.00749920283295568701)
(0.195922666194892403 -0.317580461616167375 -0.00890335638563623938)
(0.256689746727616408 -0.336037023029874815 -0.0109011785217024287)
(0.321789666560726551 -0.360494680665444045 -0.0134404907211749403)
(0.391637284498355276 -0.390930695442657961 -0.0166907400993124358)
(0.47102185713339273 -0.427482520383062836 -0.0207947935632636569)
(0.555767939797435218 -0.468081161092534892 -0.025968553817872813)
(0.657763556370736024 -0.519712704827645311 -0.0331037475017560839)
(0.774395122209451281 -0.555920132323843408 -0.0415895706117121247)
(0.902830191600337062 -0.655962356554834036 -0.0550859855591258399)
(1.06772172825550671 -0.641530894139226371 -0.0956898140886455889)
(1.17036512969972106 -0.336493207917665793 -0.222299133354016965)