/*--------------------------------*- C++ -*----------------------------------*\
| =========                 |                                                 |
| \\      /  F ield         | OpenFOAM: The Open Source CFD Toolbox           |
|  \\    /   O peration     | Version:  2206                                  |
|   \\  /    A nd           | Website:  www.openfoam.com                      |
|    \\/     M anipulation  |                                                 |
\*---------------------------------------------------------------------------*/
FoamFile
{
    version     2.0;
    format      ascii;
    arch        "LSB;label=32;scalar=64";
    class       volScalarField;
    location    "0.390000000000000124";
    object      p;
}
// * * * * * * * * * * * * * * * * * * * * * * * * * * * * * * * * * * * * * //

dimensions      [1 -1 -2 0 0 0 0];

internalField   nonuniform List<scalar> 
7248
(
0.611038287395714974
1.04067988983592841
-3.40378884760022515
-1.39121509476217398
-2.22457307781721303
-2.09637430595672614
-1.26477765615273796
1.23408484252831485
27.1159577696000724
-2.82249015768514688
-2.50120672113856202
-2.22104387380899837
-3.18172096307745056
-7.97731414679467576
-3.3194348546919592
-3.23697870384865283
-3.27478235797783324
-3.52756502194344268
-3.81624279439569802
-3.77618782387961271
-3.84281902340548642
-3.95826768945629714
-4.04265893924573572
-4.34104505962635923
-4.21889260879545169
-4.30594430682961882
-4.43063027124078612
-4.5831263986430848
-4.77847302258682483
-4.66106362093670246
-4.74175102245601998
-4.84607762798175656
-4.9671085529676029
-5.09819557364445508
-5.08782743850170949
-5.15719645083590628
-5.24220745568324986
-5.34213118069145665
-5.45956114759807143
-5.49670370966809685
-5.55486635999414791
-5.62512725080117804
-5.70761719156074498
-5.81227001082857342
-5.89021174912280543
-5.93857976176568325
-5.99567154706919858
-6.06142329286343884
-6.14086731563097032
-6.27120711955786181
-6.31072735451103384
-6.35623914039613513
-6.40717016087712121
-6.46325480335710356
-6.59391608834006693
-6.61644486012651978
-6.6433877681483704
-6.67483032742700821
-6.7106232634926144
-6.7502119548370807
-6.7919146152529084
-6.97174780804891903
-6.9889062121098986
-7.00926439456289074
-7.03302737664117927
-7.06025501777595466
-7.09088415072181277
-7.12422543619845428
-7.34606303637387903
-7.3576704445268799
-7.37135287538589612
-7.387381024070649
-7.4060136615654395
-7.42763563330163912
-7.45286187615946982
-7.72440790217185391
-7.73016821588174086
-7.73697209464463853
-7.74497459062925397
-7.75445996221866363
-7.76590615379674087
-7.78022371852974182
9.61531259413925454
12.1056665563694423
-6.35083010827337979
-7.15316099851429499
-1.96620145644659905
-2.04948444488210946
-2.11800286540538263
0.188132632780053655
29.3928242588835928
-2.64530373690901488
-2.35223558204606809
-2.59160083020523135
-4.07820328083571582
-6.93454679890646375
-3.26480741076735725
-3.22473663722188464
-3.35168194729457358
-3.52614568992401667
-3.35825892293800132
-3.74031424442333105
-3.78082466725869715
-3.872099972565338
-3.79624637277583643
-4.33447986710845168
-4.20845991014946286
-4.27666286828830522
-4.38033308446260605
-4.51822013641863762
-4.72265404787349041
-4.66005076293843246
-4.73134434089476397
-4.82431004968599808
-4.93803027011966744
-5.06742937653224601
-5.08898862807944408
-5.15380426713709383
-5.23328229580002269
-5.32950921270090561
-5.44062164928463421
-5.49767374699917521
-5.55366674311546937
-5.62124482636003009
-5.70125306663067555
-5.79867526450049464
-5.89061710792575788
-5.93778268798870634
-5.99349033737690995
-6.0575378718481403
-6.13396584451329119
-6.27119709235277778
-6.3098293350719139
-6.35423657641520734
-6.40390139453242391
-6.45925600933341748
-6.64334248865834986
-6.6740595458105938
-6.70880579919703912
-6.74707987851146562
-6.78825576136124464
-7.00977287525982273
-7.03308289362336314
-7.05963458196923277
-7.08922219651622321
-7.12097508721485983
-7.37274339049349603
-7.3887048394505408
-7.40724265180783714
-7.42872333972668741
-7.45370427953260872
-7.73946567907702487
-7.74788881650066941
-7.75791948962641964
-7.77013108941546804
-7.78563179878098666
25.6376479543822597
26.0352033403803489
-8.50429543659145537
-10.8644212335107113
-2.00260419396253919
-1.93291368009631048
-2.53073078933053619
-4.24685358438295779
-4.31926426026802801
-2.65055281159430489
-2.49485901236191632
-2.67940628896515465
-3.71319853312309922
-3.96549499114919968
-3.22727573199004292
-3.24618867407289091
-3.32958768482172518
-3.55384500543205828
-4.9712756957186226
-3.72880110573795198
-3.77361074931501994
-3.84535038613817415
-3.97844511157020975
-4.35353417319658131
-4.20484516348821913
-4.26570898316399383
-4.35426526986918461
-4.47558943040007584
-4.67686490661202026
-4.6603742339769072
-4.7266291838558665
-4.81282253923746239
-4.92333866474398096
-5.04391876630094327
-5.08984982466682201
-5.15219699865259528
-5.2287760369369165
-5.32394658704562307
-5.43142554178430803
-5.4984628618753284
-5.55319941872954459
-5.61918306128246225
-5.69832755783894651
-5.7917002170758245
-5.89094591080542784
-5.93734941061784749
-5.99222370241100499
-6.05544300249027145
-6.12876167354049617
-6.27122533448146235
-6.30923244781808368
-6.35292228167485451
-6.40175330372645579
-6.45672344856732483
-6.6434103531188784
-6.67350334713812821
-6.70742344412477376
-6.74461738499893837
-6.78495103429434732
-7.01032513215495268
-7.0331918185840081
-7.05914511176914239
-7.08786235796068542
-7.11843540519114182
-7.37402556473017867
-7.38991201670202358
-7.40833307300749766
-7.42964316705931171
-7.45436244393977088
-7.74167611686745882
-7.7504626076466705
-7.76096979186304825
-7.77388517533127565
-7.79059210889491105
36.8961799322273691
36.729477582009622
-7.11346915477926522
-8.36798884382051256
-2.1716364745629253
-2.1645937370008892
-2.44441935674560229
-3.33859576795023116
-2.16180400772805115
-2.69743749449039072
-2.64838605493061241
-2.57475851149488166
-2.87220230702831358
6.79602526700011822
-3.23290853461669059
-3.28628210357781914
-3.29449194919118504
-3.94016060702087945
-7.19354104765623426
-3.73018214962299899
-3.76930521486831571
-3.80325745689013317
-4.00528845790308274
-4.79475067612877126
-4.20959929082047246
-4.26524794550907504
-4.34528348001846343
-4.50071824805332277
-4.47375677227353563
-4.66332782528817891
-4.72708656834974139
-4.81158338485442716
-4.93015305192990905
-5.04840987919900641
-5.09120053955268492
-5.15267028002564587
-5.22847207439737094
-5.32594744943773168
-5.43348500879424634
-5.49921951173042167
-5.55357805634062807
-5.61903847282736635
-5.69944609862944684
-5.79130098379619707
-5.8912138902087765
-5.93731789914677055
-5.99191090345302513
-6.05532589066973426
-6.12657072563555882
-6.27124141207949393
-6.30882304293643603
-6.35210556792089864
-6.40047710007809378
-6.45497512450202304
-6.64352146959499557
-6.67307615026548895
-6.706322529668161
-6.74261086726065439
-6.78190983640785916
-7.01084463860560714
-7.03332105610080038
-7.05870123894532142
-7.08648729637224228
-7.11570204808029949
-7.37514551882686753
-7.39095110881376804
-7.40922478250799976
-7.43029373105795354
-7.45458647924880857
-7.74355532050472206
-7.75263030785078033
-7.7635390244055591
-7.77711218948124383
-7.79506001437757856
38.5116411369467642
44.7353858737851624
-5.77631504860293354
-4.39464227947064501
-2.21995377104418878
-2.20128801072740954
-2.40715436949043537
-3.01383848214723127
-0.887810049081508623
-2.72610212501910132
-2.68456218763447252
-2.56722445391371856
-2.54943021375506307
5.27108290422097525
-3.25515858286123505
-3.31517112883302545
-3.36398114313484964
-4.0175979941035731
-6.2870749285730172
-3.73886370781464894
-3.77229240569998492
-3.78677338403865127
-3.85223617847066135
-4.02183481512743057
-4.21469311306033934
-4.27348482420087539
-4.36748986130184669
-4.57057310969907604
-4.91503666337164624
-4.66711348862797859
-4.73213660646361856
-4.82175026094575099
-4.95711813330365647
-5.10495108653292995
-5.09357993419413813
-5.15533619710779245
-5.23298330148382274
-5.33633411657327272
-5.45113578604364157
-5.50025628833541447
-5.55467483858275557
-5.62035690688755984
-5.702846822256606
-5.79451370873092308
-5.89153558076698047
-5.93749530228050038
-5.99209787770988189
-6.05664876510103323
-6.12798447011937863
-6.27122869350092405
-6.30848406475828227
-6.35151269875340407
-6.39982808110613721
-6.45453170080171201
-6.64357045179646111
-6.67265626109269583
-6.70528674246758349
-6.74069938364268317
-6.77857160902971678
-7.01125197291075875
-7.03337922461872367
-7.05812841174322614
-7.08471793030305363
-7.11176495164750921
-7.37604724738462636
-7.39176302407301566
-7.40982740203587298
-7.43050421118198567
-7.45400866292764253
-7.74507660263323672
-7.75436741127317575
-7.76559507509969649
-7.77972252028425348
-7.79880137006529228
47.0430052150395568
51.4677351237996845
-4.47176443437136939
-0.106348133444726045
-2.24007858946473437
-2.19699156921144967
-2.28203342200629011
-2.26782113353203663
1.34038931175723519
-2.72929125664505268
-2.69911597249700552
-2.58747937139010409
-2.3271675239098002
3.21573426484019365
-3.26156909964893682
-3.30943726569334551
-3.30322705834142205
-3.71333257285572715
-5.46796815373550693
-3.74421164506956039
-3.77866384917094278
-3.75330150218199954
-3.71044000942033714
-3.53434200449570834
-4.21888313847860807
-4.28276758348358033
-4.38073688473583545
-4.54467613637427092
-5.20620123480142638
-4.66931302144947402
-4.73805300122318851
-4.83798354251559992
-4.99716760079532207
-5.15926480212635674
-5.0949600220839848
-5.15747625088862627
-5.23807134898636395
-5.34488958858828678
-5.46134548605637615
-5.50104355187397243
-5.55551016738762815
-5.62155659137711705
-5.70444979555413045
-5.79541857571295349
-5.89179189805447567
-5.937605846111909
-5.99226875966013139
-6.05737690434902198
-6.13200549636195991
-6.27118210940310394
-6.30811599714342197
-6.35091372279382416
-6.39931552733151854
-6.45583533270546539
-6.64354769313381333
-6.672172686505081
-6.70412786521224024
-6.73856263206898021
-6.77541972947705684
-7.01151936082554439
-7.03327286260584383
-7.05729428678055726
-7.08244547447307049
-7.1067806135941316
-7.37671832061260879
-7.3922980593672829
-7.41008297985757736
-7.43022144136782892
-7.45262764808216627
-7.74622126927042043
-7.75567427960433431
-7.76713795387127792
-7.78161350586991851
-7.80144973824698429
55.9060604244523347
59.758612758366553
-3.73009150422382874
3.46786555309836331
-2.24964534640544755
-2.18808467879203405
-2.25014439387031739
-1.98013334874629976
2.66304013111744098
-2.74776005414516167
-2.72125700676132798
-2.67120330131723893
-2.67828456184446706
0.532260656116250175
-3.26254082888715002
-3.30738887133081061
-3.31097183419394003
-3.6215155589421606
-5.0287517181025736
-3.74026348972736855
-3.76886606908165911
-3.76232465490434409
-3.78159633985607613
-3.48761968903828423
-4.21671419095395184
-4.27663270103269699
-4.35999564447532961
-4.507271626489052
-5.20758922000128077
-4.66883138891027016
-4.73524798943975966
-4.83201152030244874
-4.99312679180522245
-5.14596746387076553
-5.0949229281718269
-5.1567173886785227
-5.23559196842499475
-5.33868829448342463
-5.44100345645227268
-5.50113405325207072
-5.5552258410748907
-5.62097475833691185
-5.70158390305738827
-5.78638203030946396
-5.89177028224330268
-5.93729310955885037
-5.99174385056916137
-6.05556407160826193
-6.13037608692121783
-6.27108045404708303
-6.3076844707039168
-6.35016020696492411
-6.39812811732224418
-6.45787609194502998
-6.64350161492129931
-6.67171792779899953
-6.70296935564848795
-6.7363799929266035
-6.77263676912659118
-7.01168615143247731
-7.03309023924280385
-7.05644444983323904
-7.08020680915944745
-7.10082289204679906
-7.37716256193538999
-7.39258947073005768
-7.41010752435410236
-7.42975065013304814
-7.45107593823018366
-7.74698532117315253
-7.7565571867708174
-7.76815389699296865
-7.78279425396126623
-7.80295344644031008
59.6686007930545657
58.6465746408791802
-3.87378657847653685
2.18236892944150895
-2.24340172887034983
-2.18985781565918947
-2.28702289916305901
-2.00709986703801846
2.22798772710166304
-2.75214436358593506
-2.73562715290997671
-2.65595364780909016
-2.35721584133505058
6.52245416159928482
-3.25876620645013171
-3.2862593327157219
-3.25367708907330311
-3.56915657806615316
-5.55503512168769831
-3.73677122453541077
-3.76306388567244454
-3.72629919685681088
-3.74577033817092087
-3.92456861718352989
-4.21293143966700612
-4.2691563141245723
-4.34316866696345549
-4.51318360738812352
-4.97303541344339983
-4.66653379104173194
-4.73040379512426767
-4.81788752002978793
-4.94246757549031379
-5.15609779172400717
-5.09416106068279184
-5.15469914478097735
-5.23095540124912084
-5.32789780946626657
-5.42646810471506402
-5.50089712204572923
-5.5544581719309436
-5.61945880851809765
-5.69691715316833314
-5.77796295706342544
-5.89164708204420684
-5.93695466941094807
-5.99108015657657322
-6.05321334336220396
-6.12662051370844285
-6.27101075230439875
-6.30744379031287128
-6.34960207974700186
-6.39712759238185935
-6.45636057707519928
-6.6435079736546454
-6.67152387513346135
-6.70257339252219086
-6.73616608000350947
-6.77292132747557574
-7.01178249512164964
-7.03299768052386565
-7.05608503554280908
-7.07963301478684226
-7.10025030608356911
-7.37738261408924423
-7.39271967496208404
-7.4101020924253751
-7.42953273685532523
-7.4507033578084636
-7.74737250687540513
-7.75700999232257526
-7.7686676301125237
-7.78338843969723815
-7.80372944773334964
1.2418584813719562
2.81708449547234352
-1.09876790593814988
-0.711574939527785943
-2.11300507285415762
-2.69490940355607211
-2.16267251868449772
0.431763623678660835
3.04755169877702592
-2.57847828862148365
-2.95021674019952895
-2.81512633648924382
-1.11858903462392778
0.5856056781624428
-3.11891203564171171
-3.19131435130426899
-3.10224274985451354
-2.58162284834959266
-1.909183795726074
-3.71807932521800222
-3.7841075182253352
-3.80949784819177095
-3.56715142106444372
-3.28718005651650902
-4.24530216554840933
-4.33803604339413784
-4.35445306333719984
-4.24698762484846171
-4.14155398341624981
-4.68495357845250915
-4.76144481314984525
-4.80617617484415849
-4.80001920340756083
-4.79481058435899676
-5.09854237541513911
-5.16164895857810802
-5.21377831201651887
-5.25480095493208577
-5.32301485457209012
-5.49917235051758269
-5.55437646187890266
-5.60744913015208368
-5.65978057199449136
-5.73842301294395618
-5.88925527328754228
-5.93866100476754788
-5.99260489081191228
-6.05083189593237414
-6.11923229624658838
-6.26952125142276184
-6.31180832877708742
-6.36022728302341633
-6.41616890592563127
-6.48043175532664151
-6.58696387262493221
-6.61145206991498569
-6.64057291438175668
-6.67458037328532594
-6.71392819297064047
-6.75992797097590703
-6.81421665619406181
-6.96426994371769759
-6.98224393991615777
-7.00342731883539926
-7.02811396112295839
-7.0564992487723126
-7.08895804634211757
-7.12618594896698188
-7.33664807736751534
-7.34769533597295599
-7.36059339246184141
-7.37535865598692641
-7.39195497155234094
-7.41032754711249808
-7.43029546516738382
-7.71186911630089611
-7.71528332092040969
-7.71901719438086165
-7.72294862086018874
-7.72691167914724453
-7.73060722213680496
-7.73360609032065849
-0.806101759305866139
-1.1975558353015856
-1.58180857711837186
-1.95557200870289805
-2.5154136068834676
-3.22897106495414432
-3.10556382592771829
-0.84922679354368924
0.630095793418650629
-2.70152157364301182
-3.16217113682220585
-3.12683657297114781
-1.44881322748277874
-0.244652117096329391
-3.17315278679783264
-3.32791584639163407
-3.2996425917701675
-2.66060914006343907
-2.57260367747609209
-3.81444900152585964
-3.91460508364864879
-4.03015197623336707
-4.01667666043082328
-4.06995840646382501
-4.29593143388178955
-4.4163187904403749
-4.53312620605170569
-4.55831209146508698
-4.71733691622063667
-4.69664782437856587
-4.7861712863772965
-4.86619588730123986
-4.9432181252170686
-5.1048272931568599
-5.09837687727473021
-5.16917856820884225
-5.24445236756225519
-5.34145835836993399
-5.5096129147533679
-5.49828128012648154
-5.55740511293447437
-5.62400768928723238
-5.71254829957670207
-5.86375759481832315
-5.88896351130713924
-5.93998037663217282
-5.99932040622125307
-6.07371442888297519
-6.18459916912923635
-6.26969185008366203
-6.31275181097202687
-6.36323474488105045
-6.42499951196483821
-6.50792066265231472
-6.58718285908810675
-6.61170313355698891
-6.64092639341484681
-6.67528958399020134
-6.71551150442635691
-6.76329341652034621
-6.8223575270026382
-6.96453648245449575
-6.98254496038412853
-7.0038516860603286
-7.0287688535665751
-7.05762993272618289
-7.09106359942719067
-7.13017311222117023
-7.33711485485663406
-7.34822119904432114
-7.36119709938078959
-7.37613369351676784
-7.39306674893433335
-7.41205398503506885
-7.43309994903270166
-7.71259142712728707
-7.71612882338414341
-7.72001916677340816
-7.72417853926156805
-7.72847811294834131
-7.73267332526930318
-7.73639126802610377
-1.51847922279433956
-1.89898931945884009
-1.87778362070427463
-2.03787995003191869
-2.73966751831025057
-3.30253677887716224
-3.41441999590019218
-2.26826136575516824
-1.32801488605181817
-2.96856111391324351
-3.4243561630523951
-3.51006739460056405
-2.49212002548759504
-1.59611646982572708
-3.2624071669613226
-3.36495197928684497
-3.46963308786580349
-2.9516557301420745
-2.93119737493476951
-3.86897591360561943
-3.95335590641208512
-4.02424713068615958
-3.95897254599965898
-4.05451178891542341
-4.3167640827384135
-4.45361191111152444
-4.59261227783709902
-4.65758575336719449
-4.72614145805272923
-4.6948505365239992
-4.80095745734474111
-4.91397221821153707
-5.02061823432303189
-5.14074265986720658
-5.09266297670851564
-5.17278458089966442
-5.26729461497405271
-5.38058267519900291
-5.5201561880333978
-5.49708374151608048
-5.56084692125913538
-5.63841327847546481
-5.73988145281455608
-5.87431150089728948
-5.88924255564092913
-5.94265290755267106
-6.00729770545417363
-6.08996835257688396
-6.20338149841979103
-6.27036203224218092
-6.31463586737148663
-6.36775873300311357
-6.43363747334808522
-6.52116534393599423
-6.58766092718121765
-6.61222458834198168
-6.6416756903254468
-6.67663963491634771
-6.71812882003079181
-6.76811958354221499
-6.83072118685407492
-6.96511143206228578
-6.98318647140111715
-7.00466947087724101
-7.02995137717512719
-7.05953224137488711
-7.0943094449091495
-7.13590731820372781
-7.3378604912209946
-7.34907815715794399
-7.36223552821235572
-7.37748037207628471
-7.39495811575421591
-7.41491316540397438
-7.43769820618053856
-7.71359524347353442
-7.7173390824693886
-7.72151937010522627
-7.72609657777574643
-7.73099409768780887
-7.73605553420164238
-7.7410280029434686
-1.66271895735573638
-1.53835797687331066
-2.74463600778381922
-2.62824483774064177
-2.68171589456958781
-3.04190697788496411
-3.49212787624760734
-4.93307738355669301
-4.26556192103826515
-3.10616765991539356
-3.32177389194105777
-3.58642911754765725
-3.95186023670582065
-3.9211635735009569
-3.3874524445932952
-3.51911971505643573
-3.69933082487027498
-3.59572229737159121
-3.57446830413082095
-3.86254124315761471
-3.96943515099928845
-4.0659799450557994
-4.07648493601716666
-4.18484778060969731
-4.28876941476266804
-4.44687648320244655
-4.60739270159560999
-4.69244590703802444
-4.76694129224927909
-4.68287906060166126
-4.81447910633917786
-4.94923475720695105
-5.06068538384591893
-5.17329534403346258
-5.0855874022321883
-5.17490951611566707
-5.27980437086783816
-5.39339516277481401
-5.5162174702360991
-5.49554413482028181
-5.56279239362598421
-5.64485694774757718
-5.74430075490412051
-5.86092472378178364
-5.88937613033925267
-5.94422817858272179
-6.01101466617634284
-6.09317063129791325
-6.19406377259148666
-6.27098980952652507
-6.31588329829162198
-6.37005599112659748
-6.43638125180626997
-6.51975681727345702
-6.58837947814967873
-6.61291187389712576
-6.64244425255056914
-6.6777029733186879
-6.71978230630896611
-6.77048201781412207
-6.83320386262969848
-6.96594566566052098
-6.98406452543005418
-7.0056523854978483
-7.03116732734173233
-7.06121650743763407
-7.09680023269463156
-7.1396665628690581
-7.33889344350694284
-7.35024410775908787
-7.36359967976035179
-7.37916441836869019
-7.397184441454554
-7.41805581442655715
-7.44241418545210998
-7.71494556535611409
-7.71897029575514182
-7.72354425017528445
-7.72867376812483098
-7.73434689250583496
-7.740515240937893
-7.74709249014847323
-1.46691485336900795
-0.718962289364593055
-3.98227821888864408
-3.91757819577537125
-2.42579384732569192
-2.51300288184680198
-3.28816739432665184
-7.27025508708186408
-8.99785779227549121
-3.00941676027705896
-3.05223482659070333
-3.42305348861919612
-4.3331621846941264
-4.6891460264391549
-3.4377487996754601
-3.55835083806357488
-3.77612567532969878
-3.74458650097903689
-3.94476442493859292
-3.82802172331143664
-3.96296605932541013
-4.15667960473045728
-4.29318418845012584
-4.3324904905668209
-4.24531366334571025
-4.4099534479191167
-4.60210330489654407
-4.72857445411079702
-4.81559897970412365
-4.66662015060599078
-4.80489616496149807
-4.95459555564807186
-5.07178527013669012
-5.18244248846064703
-5.08126191425180274
-5.17353421603404939
-5.28248935555362742
-5.39436021043727099
-5.51354865052700926
-5.49441403311763832
-5.56261946593385748
-5.64522255275553775
-5.7404639262044812
-5.85150907504209972
-5.8893052337810996
-5.94407625496373271
-6.01026477212390198
-6.08866211762589682
-6.18271828762209541
-6.2713074705610774
-6.31587754069396468
-6.36928949957445489
-6.43320194921977073
-6.50926934810312474
-6.58930153484231429
-6.61366361133664693
-6.64300178137568853
-6.67801931870042509
-6.71964903040039285
-6.76918501163295083
-6.82850665028324588
-6.96695389232859519
-6.98504417951815526
-7.00659943096048465
-7.03209177511086914
-7.06211951303452068
-7.09757394378717166
-7.13996130839369947
-7.34014025726357211
-7.35161010930024972
-7.36513478541130873
-7.38095732807610805
-7.39938272327159652
-7.42087711624588486
-7.44622370200607175
-7.7165886016699643
-7.72094277857966649
-7.72596776152073339
-7.73171445317825423
-7.7382389632274915
-7.74560979674866257
-7.75393936119115423
-1.19032828724624862
0.26962195070129269
-5.05871519656925361
-6.19704522793603019
-2.46032284571628246
-2.47330153651970841
-2.68048048954387674
-6.04615926305146978
-10.7823869932738603
-2.905601194514841
-2.94881098592623969
-3.43306817858321445
-4.23170469258632487
-4.97136357453172284
-3.43270209847300123
-3.61542305175752698
-3.89355335316941487
-3.84733300361025998
-4.15482107675886692
-3.81028929527839644
-3.95331631877484213
-4.17737644740839364
-4.35592698462548533
-4.43637217862577415
-4.22106730935861663
-4.37544617547092152
-4.56612409620080317
-4.71313227854968364
-4.84492856759878521
-4.6533766786979669
-4.78093892283543553
-4.92573662927519695
-5.05612386335945363
-5.17417096481411232
-5.0807290955224671
-5.16866617894958846
-5.27433582597547002
-5.38618777648141833
-5.50358527648831863
-5.49396241116345596
-5.56062146375908828
-5.6414908613570951
-5.73300993076421594
-5.83808491423657205
-5.88926734983134814
-5.94272099884072169
-6.0069289326808768
-6.08151999788664988
-6.16968872899811061
-6.27137917025366853
-6.31492002229393101
-6.36635939906982617
-6.42658309325027233
-6.49525903719094266
-6.59038078041239928
-6.61442606601420113
-6.64332689668644338
-6.67766661470186929
-6.71808090584499062
-6.76531437452466378
-6.81963896199711339
-6.96807629616502489
-6.98605587228347602
-7.00743081520770428
-7.0326696609745607
-7.06225378195163334
-7.09683222028219252
-7.13728644729853023
-7.34153189184511668
-7.35309060673157333
-7.36673448425862709
-7.38272856266109301
-7.4013844682082226
-7.42316994390520257
-7.44886513615657808
-7.7184429114766111
-7.72315371182966182
-7.72865187408683862
-7.73502191043955012
-7.74238809001917794
-7.75093626346039155
-7.76098382258911368
-1.52193828990876057
2.39163144266080963
-5.38341181581531814
-9.71307320013306708
-2.48754248193108074
-2.35551616048236356
-2.08407136916382907
-4.25849170286961254
8.56243054789518965
-2.87777099326428676
-2.77655895298855704
-3.55944364311033468
-4.42462283230822262
-5.71685778896998542
-3.40637795814059441
-3.54192150497319291
-3.75207820669938563
-3.74486316720415591
-4.45050474410883989
-3.81153818375280462
-3.95213310392674932
-4.16527154911335007
-4.32706916013865239
-4.49580625428713354
-4.21895090047721855
-4.35840032735313354
-4.53709103271674064
-4.6822423642989941
-4.8507559602968966
-4.65171539377478815
-4.76209856791249653
-4.89715945608540704
-5.03407565116761724
-5.17223910433037481
-5.0826243399662614
-5.16396614038746726
-5.26336860580744315
-5.37482819823271729
-5.49921011667488369
-5.49430733398452453
-5.55817928708462894
-5.63571891297346284
-5.72454003905934972
-5.83124972225940308
-5.88932797005854436
-5.94113856260853446
-6.00274866867693202
-6.07344480678156629
-6.15597574471674758
-6.27128589771114697
-6.31343342654515816
-6.36261654482615047
-6.4187191644211774
-6.47985435404044363
-6.59156722377275983
-6.61516446357708521
-6.64344185136873833
-6.67682942184519845
-6.71562744016229907
-6.75996788066617871
-6.80920832529588527
-6.96928522036544695
-6.98708922388310061
-7.00811677276509037
-7.03294910794239758
-7.06183386465845775
-7.09519486320177961
-7.13292504890235701
-7.34301954511294763
-7.35463090494679417
-7.36834519892886686
-7.38443959891075252
-7.40318471399302069
-7.42502717565009807
-7.45058256739581815
-7.72041714724727512
-7.72549637233529296
-7.73146251412961494
-7.73843017829045188
-7.74659393071497959
-7.75622915704173188
-7.76783533384552083
-0.0555751268775832585
4.60718852343302387
-4.84024938988701603
-6.43143738001913334
-2.36791522187689374
-2.19458342280353147
-1.49104547341513261
0.327880779661761323
39.1067739651639386
-2.8389155175569023
-2.24016806292551074
-2.52468699789523399
-3.91192059257096858
-6.4889268490432368
-3.3500979515282463
-3.3243604601489265
-3.44526245961958333
-3.52961889348223279
-4.2348177675096812
-3.81012010872214013
-3.91091435190959391
-4.06845393294144841
-4.22889570716837326
-4.43460119783284057
-4.22399037166067792
-4.34109278276266064
-4.49138394233227345
-4.64237252503306053
-4.83127235055828308
-4.65775701366252548
-4.75283254416579215
-4.87247205298009334
-5.00361210016381097
-5.14381257349466647
-5.0857894214801842
-5.16076979740784303
-5.25291967476022315
-5.35927000232187289
-5.48401216301296213
-5.49539752657172986
-5.5563057504660458
-5.63006119945962791
-5.71588648351075612
-5.82420197277172313
-5.88970604557057875
-5.93969059612153671
-5.9988012868893108
-6.06673268031090807
-6.14695870814140033
-6.27123133697152557
-6.31195476601577177
-6.35904615020174635
-6.41202474131048206
-6.46899525434092304
-6.59276111079080884
-6.61586139278104923
-6.64344777981205148
-6.67578992544011562
-6.71295265020237064
-6.75455545515821232
-6.79902957570924737
-6.97052360200767573
-6.98801816242160356
-7.00873938734660484
-7.03301986597583539
-7.06104746817984363
-7.0928956689665057
-7.1281095682064981
-7.34454496450149819
-7.35616365493492008
-7.36988606508196131
-7.38596898369484656
-7.40468091371020964
-7.42641997678373844
-7.45184464198642882
-7.72242758069549318
-7.72786512072111975
-7.7342701387258197
-7.74178309896043082
-7.75064444212509862
-7.76124785696939234
-7.7743036554501721
45.5564782809832849
79.2128161001105866
44.073086682822229
76.5298262865037202
21.6520336943166498
43.2788017847993984
73.895618596013918
10.3470217915992464
21.7663769448054794
42.3813909065839667
71.3811310083501382
45.7852801927430164
82.6294463011061282
42.0259479107378766
76.712965650256109
16.0574295465123456
39.7922705638105612
71.2168020616672663
4.19404457232136352
15.1506647013995206
36.0019531695778454
64.9762505311023517
56.7270748763535551
93.3993546531246466
46.8569285104924091
78.5901181908072886
14.7339725929707512
39.515636844591171
62.8098064401490319
1.95298387682978358
11.950498683851265
32.087155320939587
47.8764631029856673
75.5641344817332765
87.4271272264913932
55.1022065082544259
56.8335898779724857
21.6883059412077728
34.8076737814993749
34.5209203590559355
2.60348796108714708
14.5946773521441742
21.1405699310435011
18.1645254206492837
77.9265025624231384
40.8084254557004442
47.3067136434428903
15.687612883053589
22.5007265712744129
23.202957063417557
5.34675258051731817
9.95577587585154333
12.8752698847479223
9.3586849988122367
-1.13036886232512757
24.8124424547479521
-0.716429659981713485
-0.263828937834432509
-0.466436180046144289
21.204508095255278
-0.889007631821044697
-0.550250614876016009
10.4551552912146235
4.6802805307457902
-0.619351224051627014
-0.757060048643750871
-0.375325057198275136
-0.608554432642586685
-0.52038037961014294
-0.693301241533791579
0.362999148335234167
-0.64152355626366675
-0.818388398972188957
13.0854804002294713
-0.509169415183365004
-0.791644134544113198
-0.85222891121789579
-1.02368468277412639
-1.02231314415358732
-0.980855951283503003
-1.03886718133706646
-0.797492962616193846
-1.02315673639127458
-1.07892298388202601
-2.98894233835653722
-0.981384709073537476
-1.09311888385566491
-1.09557037717077965
9.08734382258546702
19.449530018622994
38.5979885227671815
64.8104820843925609
3.01343782947833461
15.5539407658744437
39.5647649469008797
63.1069259479366735
7.30185386459596941
15.4568333728899745
37.0943639179910178
56.7052650329472385
0.852360247139586136
2.78112859217384312
22.8261808198339509
46.9417258690189101
-2.59768293555782037
-2.94784956789265351
7.09180211033776686
28.3561472556303613
-3.80497563592269472
-4.46355146382933832
-1.34705489963575076
12.3989988542898573
-4.40333641276836829
-4.77635535970936331
-3.66415989127865771
3.29875553026312218
-4.95467579502172661
-5.13078427964400152
-4.48654409644320751
-1.31435671517694885
-5.47665997009994499
-5.53243650607903348
-5.03208088097510498
-3.12190676865498773
-5.89067768026940541
-5.97027362289304264
-5.63644336458820661
-4.47069168964605268
-6.22474614613491006
-6.35653269989721004
-6.36225903259091297
-5.82776741469929505
-6.54940886255386712
-6.64401566137349953
-6.77276221319881166
-6.7601076472476489
-6.87583505697339969
-6.94467062194499452
-7.02900468888800223
-7.11034170799343457