/*--------------------------------*- C++ -*----------------------------------*\
| =========                 |                                                 |
| \\      /  F ield         | OpenFOAM: The Open Source CFD Toolbox           |
|  \\    /   O peration     | Version:  2206                                  |
|   \\  /    A nd           | Website:  www.openfoam.com                      |
|    \\/     M anipulation  |                                                 |
\*---------------------------------------------------------------------------*/
FoamFile
{
    version     2.0;
    format      ascii;
    arch        "LSB;label=32;scalar=64";
    class       surfaceScalarField;
    location    "0.390000000000000124";
    object      phi;
}
// * * * * * * * * * * * * * * * * * * * * * * * * * * * * * * * * * * * * * //

dimensions      [0 3 -1 0 0 0 0];

oriented        oriented;

internalField   nonuniform List<scalar> 
20536
(
0.000345504319979501179
0.000236687418165370405
-0.000380194728798386372
0.000269441308527392041
0.000434144122582441941
-0.000610428755833598391
0.000754976024776208296
0.000283872090632652759
0.000284024620146292733
8.10753998423049418e-05
3.25675608325602715e-05
0.000102196244573376398
0.000283286514362087859
-0.000488803531518947998
0.000593763002680441996
0.000329924162923860161
-4.74259343979135635e-05
-0.000200899149989333144
-0.00023790655206132761
2.21831756462384673e-05
-0.000139971623260630733
-2.56505197145592031e-05
-0.000494498535718839848
0.000610545604071963122
-0.000666654224794302778
0.000182862739625128177
-0.000103455043894255545
0.000657704822268732003
-0.000821636586279050202
8.08167050334635158e-05
-0.000166740714348915815
0.000321976696220903922
-0.000957086575031542569
-0.000371237170498461496
0.000392529416701120138
0.000397451306713004441
-0.000274893797677280361
-0.00015396212348554964
4.26721569968274993e-05
-0.000117156274097509868
2.39028608612796027e-05
6.66215990575722635e-06
-0.000351512024568020258
2.03958505409353001e-05
-0.000185192820850415131
-7.0442521315778971e-05
-0.000140199891888951613
0.000602607704541347801
-4.6920441518896413e-05
-0.000750739058473178606
-0.000355831286845740332
0.00104911529544895197
-0.000946058801356875227
-0.000418106885954204
0.000228910986444441893
0.000131239759740976736
-6.19562940402093912e-05
-0.000163613186870366736
0.000255520800122173832
-0.00027811002551646224
9.08233754339533156e-05
-0.000151402079025396766
0.000223067148494335993
-0.000217789170774226925
0.000345466249670483075
-0.000266705477042704277
-3.19148325971067848e-05
-2.6457030463685144e-05
0.000135784936231524828
-0.000527442512991230586
-0.000243326919315049983
0.00022971960916234619
-0.000425928433230436177
-0.000381227247946898894
0.000374314394681777435
-0.000377446770580127516
0.000136267831963285049
-0.000205711432169426191
0.000305328563902565703
-0.000387218113538044301
0.000276255229690567229
-0.000204114043621128876
0.000180137761130742553
-0.000267398961799733569
0.000325314622720889281
-0.000239869867503712152
5.00601251462931004e-05
-0.000125955382038726009
0.000243329932852907578
-0.000232069627129891451
-0.000289822123614464765
7.64382861395712274e-05
-0.000261905957530354642
-0.000415877612347270319
0.000140331534712550329
0.000354856188960800314
0.000163450277751363889
-0.000214887787174354431
0.000266534467345593343
-0.000362797184285025272
0.000279725507924409383
-0.000228307348672386043
0.000231430694577406602
-0.000323503238988296163
0.000386589789534816169
-0.000257786371337817295
0.000168296780533132339
-0.00025725113902736439
0.000488183054222135352
-0.000253968040904926343
9.20585044992775642e-05
-0.00017175508029390168
-0.000282559855899749881
-4.36969420532447891e-05
-6.7678515060943167e-05
0.000620219511432940681
0.000163303743618116605
-0.000225163315070559932
0.000184200999392230218
-0.000246515309519496724
0.000246377042765499193
-0.000243589994891838701
0.000190459847765729362
-0.000258249825423181737
0.00033313170762000894
-0.000274710918280203888
0.000173203521722483902
-0.000243020556592383986
0.000420406393492443395
-0.000290505523281784207
0.000137835697804738875
-0.000188561175060651318
-0.000318125680447567914
2.49414011778630488e-05
-6.53541357475975412e-05
0.000496395557207478352
0.000149597851006581025
-0.000243659987144027998
0.000132400534614701947
-0.00016382965881003858
0.000206595184044896846
-0.000261633432859330946
0.000145127825150100505
-0.000184081194232892548
0.000267268012611491363
-0.000292834053450832148
0.000146967689218171241
-0.000189509333078599157
0.000348712877369342046
-0.000334107497630470893
0.000136290875014246103
-0.000174129529707975534
-0.000361667827760595072
7.21376164746164491e-05
-0.000108630122924189919
0.000428762373517240533
0.000121377471614319334
-0.000256107583908522871
0.000101957874592647991
-0.000121736456601584871
0.000157086236541724704
-0.00027289614495000508
0.000116330891095977801
-0.000140773110838180934
0.000193942930210548841
-0.000301456681730300434
0.000126061323886526118
-0.00015429085002579418
0.000234006128299802838
-0.000343377138592153991
0.000122506922381293099
-0.000153293890784116999
-0.00038382157581726557
7.22221710278841571e-05
-0.000107045909322906621
0.000290985169916747346
9.43430586271144355e-05
-0.00026515799989521488
8.02289193117555099e-05
-9.24942382102878386e-05
0.000115517989813107263
-0.000278730425669758972
9.22503140298342334e-05
-0.000107590773020463265
0.000133550603299121455
-0.000300555306392811172
0.000103241281939429468
-0.000122176814699252089
0.00014238497551466507
-0.000330843454150868269
0.000106919638801200153
-0.000128294810322115684
-0.000368695920297963751
9.01336939732016301e-05
-0.000109039678369019267
0.000146159894241573024
7.05376745106958653e-05
-0.000270914909177055177
6.26436320298650657e-05
-7.05039698396330537e-05
8.28123534391380972e-05
-0.000281056942082068403
7.23193078255398078e-05
-8.22664859813950069e-05
9.01608467992361638e-05
-0.000295406573219490765
8.22175789825827457e-05
-9.47200897069428572e-05
8.88848341630632337e-05
-0.000314912014520384931
9.09839247104465539e-05
-0.00010563594861247953
-0.000339908755393185868
9.17851007275404608e-05
-0.000105801210357029971
7.41226117560311198e-05
3.38348588615226473e-05
-0.000263136737208579524
-3.65218634104735746e-05
4.21239590387724924e-05
-0.000267906948019611428
-4.43041935523561778e-05
5.06846859387083718e-05
-0.000274160984986602282
4.7484129083102932e-05
-5.27983588447079275e-05
5.84435383574106421e-05
-0.000282014581705497763
5.50226052151026255e-05
-6.18218928354268238e-05
6.28256699390963543e-05
-0.000291356645346786962
6.25953767179358915e-05
-7.1017430103792318e-05
6.03297288989702862e-05
-0.000302392440126233271
6.93274523205184245e-05
-7.93390759235857308e-05
-0.000314450560855871646
7.03474988216802057e-05
-8.048304625403311e-05
4.50092433667071735e-05
2.33328091492642977e-05
-0.000266074769951938565
-2.60094912514816944e-05
2.87717456350740932e-05
-0.00027074398403332243
-3.13592691724923287e-05
3.44251617403981843e-05
-0.00027645774968715342
3.40278259215133892e-05
-3.73794545402038791e-05
3.99662271981758577e-05
-0.000283261033812615723
3.98446884252947638e-05
-4.4131168023732963e-05
4.48945747554293335e-05
-0.000290903190432454653
4.60034172177942077e-05
-5.13792005678520713e-05
4.79861145391668721e-05
-0.000298812352791010514
5.217815881700569e-05
-5.88468954460900714e-05
-0.000306434507088015906
5.8188051576527411e-05
-6.67363384171160595e-05
4.85205600366288978e-05
1.35412422061776686e-05
-0.000267523113398209097
-1.54946162975473324e-05
1.64854793329748578e-05
-0.000272216913302737891
-1.86616673170560138e-05
1.98513619091933116e-05
-0.000277921484079840758
2.04541041000036766e-05
-2.23498762450669658e-05
2.37980068414419144e-05
-0.000284776794115725962
2.42902790931369674e-05
-2.67149651742576743e-05
2.88830544501793044e-05
-0.000292861377564512695
2.88105440620637423e-05
-3.19302088959434925e-05
3.61392529600036594e-05
-0.000302254005852090524
3.43741344251609641e-05
-3.8179621535103002e-05
-0.000313158239818002383
4.13359910869875806e-05
-4.59481530686311966e-05
4.74833566173848932e-05
4.27738830005467706e-06
-5.05742703452963073e-06
5.17238061681757717e-06
-6.11175473173887264e-06
6.27160703946989495e-06
6.72986963755501962e-06
-7.36127660379086628e-06
7.69709102302774934e-06
8.04352955590085162e-06
-8.86651915580054933e-06
9.77261202462360157e-06
9.66766429297941854e-06
-1.07447402668262086e-05
1.30880352337636444e-05
1.18929714968561303e-05
-1.31400137584076851e-05
1.519313331501349e-05
-1.66672482806677551e-05
1.93181805558507038e-05
0.000338762421768029837
-8.2072875825986262e-05
-0.000361300879893064713
0.000486031288178985119
-0.000484207974834077455
0.000298046740752887359
0.000247819594521164754
-3.44646050150763418e-05
-5.59884888403552731e-05
0.000347910950860004335
-0.000419563088862262026
0.000316698585936609476
-0.000721666529356372469
-0.000233016897144179373
8.74576083747480261e-05
-0.000667025188851929881
-0.00014970308757801152
-0.000355007138984221333
-0.00041299338720241982
0.000161810571769177791
-0.000112280376715825827
-0.000136115944422598306
-0.000668658268323775451
0.000190585894184204171
-0.000287917444027899032
-0.000252881691462474023
0.00038135540337317183
-0.000402083945739668673
-0.0001549626473024738
0.000107549827918488835
-0.000856416255519214221
5.18932929840210902e-05
-9.88298545897929999e-05
-0.000497888826125463002
-2.19119004715338458e-05
-0.000315023765871516159
0.000163297627004013995
-0.000808954410034807181
-0.00087671437112241536
-0.000474695022274873807
-0.000309692522670324856
0.000241665213219872596
-5.00975868686406032e-05
-0.000161260852530226167
0.000204914209913931991
0.000248071715340062186
-0.0001019008764063985
7.86976933414131139e-05
0.000696695920778863851
-0.00020326976521101644
-0.000299170470610478616
0.000473122497285508102
-0.000437872466776701179
-0.000390859985006447358
-0.000137364555098093151
-8.79862598112470277e-05
-0.000157443848899214978
9.53017289764332822e-05
-0.000218514915149686448
0.000245679729529543495
0.000193671120917946062
-0.00019786991733758175
0.000177737033048863772
0.000211910092517019784
-0.000208190593574309059
3.67237343722827728e-05
-0.000219393711645619215
-0.000196202812181187894
-0.000100180728947959645
-0.000137128504661643725
-0.00043636258418554264
-0.00019913434861860681
0.000151096289095297727
-0.000227204861864693276
0.000167581783931926786
0.000269463568684916491
-0.000237871330624576802
0.000153061640177011517
0.000398100137522872728
-0.000260181654008432163
9.16642686984179081e-05
0.000549262714707275039
-0.000266188555178872703
1.0894468150227183e-05
-0.000245950888583636998
-0.000136544811654437751
0.00075094108209668197
0.000163069882198547755
-0.000240087609168328458
0.000115332875109125098
0.000245603215641000607
-0.000257940425612741733
0.000128000580513289045
0.00032751667589674859
-0.000284821558774889792
0.000115949002199466423
0.00042446083412809476
-0.000310511410099712567
8.52298882991809638e-05
-0.000328137938128323064
-1.86389378058768191e-05
0.000550238728195306232
0.000159802932888168962
-0.000256556470520717509
9.61930334621955037e-05
0.000212977235478521926
-0.000274433058979116221
0.000108459512255611694
0.000267918731800744912
-0.000303295207564908053
0.000110504161912097144
0.000340298639336071335
-0.000343692895190838546
9.7101606925300413e-05
-0.000363086427532908855
3.49897264601161092e-05
0.000412407237985272111
0.000134718487436623325
-0.000265823009604760447
8.18182673249821189e-05
0.000166485835933950495
-0.000282749651841387669
9.28745243098878429e-05
0.000200874747504374833
-0.00031104688331884075
9.94242714119419007e-05
0.000236626382884341807
-0.000351757219301785621
9.48192359926608121e-05
-0.000382391759997523456
4.97033151056224302e-05
0.000278449585739882707
0.00010394104495961604
-0.000272656433942513893
6.72602177539316428e-05
0.000124155204224681497
-0.000287244607075127286
7.65293242957474539e-05
0.000141387575237702693
-0.000309790967195219639
8.47497377015552763e-05
0.000149126850259607291
-0.000340531946352807407
8.79502886685461623e-05
-0.0003736797509418891
6.99070547532631959e-05
0.000160649013209810564
7.77071298230708521e-05
-0.000277672863733987349
5.38365336544842341e-05
9.00281001734998384e-05
-0.000288862241703256341
6.16198449289689205e-05
9.69333595342330892e-05
-0.00030404102595479193
6.95707766872286781e-05
9.53228694569158131e-05
-0.000324614919563887797
7.6688019141159735e-05
-0.000351299103282129985
7.67491425610539787e-05
8.79871958683548568e-05
5.65560504214736626e-05
-0.000280262274042806928
4.15344274460867851e-05
6.37925514438481738e-05
-0.000288845409199937745
4.77762277201070648e-05
6.71480158572307996e-05
-0.000298803678284661068
5.40116428297889468e-05
6.25721444931742987e-05
-0.00031043321418406381
5.97218081752184043e-05
-0.000323769674383615096
6.17109823066951905e-05
4.36812478981310362e-05
3.89073810353241208e-05
-0.00028224309052832041
3.00225353488373311e-05
4.47586690878312899e-05
-0.000289862754998937335
3.50157815645764337e-05
4.97605556617320517e-05
-0.000298193455837464816
4.03946653878279387e-05
5.16793164664173258e-05
-0.000306365111991232326
4.61965197401885663e-05
-0.00031331566207939114
5.24720342176153288e-05
4.69504826436444137e-05
2.28637304843674677e-05
-0.000283696973510202467
1.81540890989343794e-05
2.73403533898082365e-05
-0.000291554188504097281
2.15136723603219751e-05
3.31827178761956985e-05
-0.000300748184642420807
2.5533204187691797e-05
4.18615867812379699e-05
-0.000311308568368821783
3.06440578711789387e-05
-0.000323329592965663408
3.74950523630595189e-05
5.57118742538010355e-05
7.32287226782314333e-06
5.93505113862008543e-06
8.99367700575787795e-06
7.10618377421641146e-06
1.1440374186699982e-05
8.56744399394711173e-06
1.56385828836020875e-05
1.06259388597152327e-05
1.3867712869972477e-05
2.36727651787891555e-05
0.000328777262235933638
-0.000215382827222549214
-0.000289662352519244202
0.000533313709049242275
-0.000379975192116607731
0.000298920318171320065
0.000284289648896568492
-5.70880103935577656e-05
-0.000242941014601508307
0.000436689825822996933
-0.000342838295923345059
0.000304189332941031038
-0.000776658520181331335
-0.000159528422049169086
0.000256353397895340337
-0.00110872996744069236
-0.0001024275787997007
-2.21212829795753739e-05
-0.000782022839672228288
3.35562941367243512e-05
-0.000141585451966189254
-4.11798335635260582e-05
-0.000232704325730141454
-0.0003746304688825885
7.0611747904412818e-05
-0.000273250758897897108
0.000345267760726505402
-0.00019298412524577246
-0.000136891845039409881
5.17271639629738418e-05
-0.000270975671411380771
-2.15652406092214043e-05
-0.000101699867286296372
-4.76885036545394422e-05
-3.29583237334919233e-05
-0.000471792553985802665
-8.83032499127828219e-05
-0.000296599707121090181
-0.000772201541192890986
-0.00035215856879329023
-0.000284031562832938803
0.00030879882127767249
8.43999727586769162e-05
-0.000197823885467594991
6.24512803269621527e-05
0.000408506235246635968
-0.00015823060389581902
-0.000108751288534932928
0.000506920740769905599
-0.000152827509368178298
-0.000277717215541602007
0.00038303742478245739
-0.000192453666579539974
-0.000371113006805191457
-0.0003080002965974532
0.000186674363866844053
6.42149473889311317e-05
0.000156209052242766463
-0.000234263956956222181
0.000110333392872652639
0.00029483290415730244
-0.000204866674181584203
8.57564361445136629e-05
0.000402726457896173133
-0.000186027979848107531
-3.79705469771300091e-05
0.000446344489735528167
-0.000152703273975631941
-0.000183548790322220386
-0.000207245021636941586
-0.000239474239788667592
0.000148698633591972079
0.000135516665310781912
-0.00023644369525189921
8.65104542096186032e-05
0.000235692063190410552
-0.00024234169928101729
9.03603021054952109e-05
0.000350951430323580868
-0.000253884754533169842
4.42774124457958289e-05
0.000416079223870071541
-0.000260698627220437064
5.37610563239145832e-05
-0.000209841011082612474
-0.000275012358274938622
0.000557155596858663988
0.000173114498947634575
-0.000249300701034150965
6.63853825577282618e-05
0.000243966097644358285
-0.000264547380675806158
7.9367255994603866e-05
0.00032030002230663189
-0.000288902640017298226
7.4633444690343822e-05
0.00040860362732217159
-0.000318613328622946652
5.48415720577136574e-05
-0.000325192085036924469
-4.47276726405101114e-05
0.00055004309449632402
0.000168487394349195837
-0.000263624562004453455
6.83251890442776894e-05
0.000215680793162545268
-0.000280410561480616755
7.71223892404711514e-05
0.000265684009315779348
-0.000307035763081474355
7.86342167703144734e-05
0.00032309184221525648
-0.000344821207657999883
6.59097697535814952e-05
-0.000364813144629750632
1.28703865850823566e-05
0.000384819937816080113
0.000141225336861816033
-0.000272932453813188127
6.36231916735857325e-05
0.000171520265887713523
-0.000289140070240034343
7.13185643725032232e-05
0.000203023256322207963
-0.000315502263043773235
7.63876282798759456e-05
0.000231821657448108895
-0.00035598005809282595
7.71776268270720557e-05
-0.000383309780392162376
3.73949792333308576e-05
0.000262624975005487085
0.000110959193135641072
-0.000279171867627905869
5.38559074604253918e-05
0.00013082614576285129
-0.000293748064708914368
6.12660354073162316e-05
0.000147495685102648532
-0.000315614269599974971
6.81947623573518798e-05
0.000153668142692204115
-0.000346283782091527138
7.20832173966971687e-05
-0.000374889510321644095
5.17293420218194275e-05
0.000163434321938489547
8.37565509800328818e-05
-0.00028324908840180531
4.42149944111424399e-05
9.59312565398404507e-05
-0.000295054325877554811
5.07483171230679205e-05
0.00010324218867867533
-0.000310688944634363398
5.73432638465249197e-05
0.00010172022956591319
-0.000331108851881382589
6.30353360993425664e-05
-0.000358575878045726216
6.45825770813537989e-05
9.75739132260092815e-05
6.14049145752350539e-05
-0.000285332230031282988
3.49648749448874281e-05
6.8462062864424857e-05
-0.000294500049797926094
4.01692956589894254e-05
7.12509130753869027e-05
-0.000304909742282906545
4.54435227565226722e-05
6.60455545600545298e-05
-0.000316879687329267449
5.06927235392025797e-05
-0.00033108799152494335
5.35597386871105303e-05
4.6714320501979618e-05
4.28257936093747198e-05
-0.000287188949370229744
2.54818022036961291e-05
4.90271003691384257e-05
-0.000295444610690917011
2.97594137774771501e-05
5.43477381684774201e-05
-0.000304305043967738244
3.44695219423591973e-05
5.65013601880887123e-05
-0.000312800153902797963
3.9966181635221549e-05
-0.000319665071295938998
4.68146474365059738e-05
5.07369293695774474e-05
2.54654285449818979e-05
-0.000288722860237925264
1.55209732191315252e-05
3.05401951103234214e-05
-0.000297426306511691348
1.84256139371962341e-05
3.7333324802608193e-05
-0.000307547127109992536
2.1983496693479487e-05
4.75668391116130233e-05
-0.000319084253785470635
2.6690557293214472e-05
-0.000332045036552144825
3.32691186239597857e-05
6.41667533080314274e-05
8.22565705706032256e-06
5.06126114336522145e-06
1.01504286593909719e-05
6.06323060606487265e-06
1.30690252099390148e-05
7.35925608829156563e-06
1.82137283437587617e-05
9.28094475308609198e-06
1.26692627885467556e-05
2.81188926684351229e-05
0.000331393388610887857
-0.000136297080458818928
-0.000215044334895112628
0.000548808449101701379
-0.000286181171737091931
0.0003128188615619061
0.000302768832855147829
-0.000272457327775387219
-0.000151323784403615332
0.000465557024563984217
-0.000265933782286888144
0.000309116342210452588
-7.04443353109851598e-05
-0.000211826596863302246
4.29769751463887777e-05
0.000111041822394829058
-0.000202328803062591379
-0.000126530275227504331
0.000298223238556417263
-3.80230485470184408e-05
-5.97184196244842351e-05
0.000122788892171515895
-0.000200421864474105579
-0.000271227981359847305
0.000193887858235519336
-0.000233655928866565815
0.000354860975796498915
-0.000128234497289344217
-0.000164830182233273833
-4.16115407534037979e-05
-0.000107893815817320998
-0.000132269602033669516
-0.000192072466545731247
-0.000315033016043581113
-5.0293820014862844e-05
-0.000252395127900548969
-0.00113805788574133232
6.06540957123433708e-05
-0.000210238103655867705
-0.00140825659257080849
-0.000177216633973092019
0.000357270418010037852
5.90866520751333945e-05
-0.000197395073336143476
-4.65681406682306092e-05
0.000162269488956210767
-0.000217477194314768911
-0.000126725620674973064
0.000168383301848031193
-0.000127503874423773843
-0.00020662631667910786
0.000314039713254896558
-0.000129269678374416752
-0.000326840270301856752
-0.00065729648991509008
-0.000420690418147108992
0.000170442503233753095
0.000125690069874986247
-0.000213870412646525169
1.75925597241085303e-05
0.000174707335838527418
-0.000196816774621443236
1.60607343027895486e-05
0.000157007285694626183
-9.28587386119972318e-05
-5.49181781919887439e-05
0.000315148087536100126
-9.61388538068231279e-05
-0.00037482087037293691
-0.00018424337890887474
-0.000368369559563472824
-2.90054620965003035e-05
0.000160102131227971787
-0.000224649571474633427
3.34993730190136528e-05
0.000228429394889799074
-0.000231033451621780157
5.62415775347034028e-05
0.000356147570452354804
-0.000235570775606708114
5.92742192367871264e-05
0.000528246458186222047
-0.000251438347693165695
3.69670614313154656e-05
-0.000109033616705111184
9.90240055062845484e-05
7.90057841432404589e-05
0.000190998057297640756
-0.000248765362221776249
4.12874779999411893e-05
0.000250484845906479828
-0.000261395795905801538
5.02491034099531871e-05
0.000320490526637083758
-0.000284401299276365669
5.34610099943542638e-05
0.000399246941582835158
-0.00031292887313725756
3.75750684515440463e-05
-0.000285895021675948132
-3.60104758701081053e-05
0.000567402357871086768
0.000174720346442980106
-0.000265604307377196843
4.96414218300438443e-05
0.000216619273125237197
-0.000281130593327615324
5.49549926090396568e-05
0.000259766170890150805
-0.000306233734846178421
5.73122061753991507e-05
0.00030773285068696972
-0.00034386263346879815
4.88710412805178903e-05
-0.000344420006805072143
1.08318551790897183e-05
0.000368292942374883088
0.000144671455899210281
-0.000275859405252003602
4.78667551413313613e-05
0.000173710609976089972
-0.00029268754661322411
5.38224021674280293e-05
0.000203310511271643894
-0.000317971561720703651
5.85259484345523773e-05
0.00022886269688863502
-0.000355731237535589532
6.34931647163618847e-05
-0.000372339330146686587
3.38685633673509743e-05
0.000260297601161666554
0.000116173726602722963
-0.000283373262277226371
4.15019033098346823e-05
0.000135539980919240939
-0.000298293529987146656
4.75031517222009809e-05
0.000151816594489233514
-0.000319939084994823721
5.38834581313900213e-05
0.000156443543888428252
-0.000349026976975369313
6.07492335805986673e-05
-0.000367998893049878049
4.37931754226936906e-05
0.000160041136547731003
8.89536032297799976e-05
-0.000287561969844662188
3.50276656619091272e-05
0.000100823463486572168
-0.000299696797746717329
4.02861916296879752e-05
0.000108190613865852159
-0.000315822801384576211
4.5862491412874608e-05
0.000107486753368238325
-0.000336683366731856473
5.13945206259922241e-05
-0.000363424238596852286
5.22405434342099054e-05
0.000115254218687886543
6.53834224765320642e-05
-0.000289407564366085863
2.79712706800933199e-05
7.26053321354546918e-05
-0.000299027262208075722
3.22799547369818088e-05
7.54338433004639997e-05
-0.000309806854189421433
3.65967490692220148e-05
7.05066352356569827e-05
-0.000322125411676644959
4.10675716879895148e-05
-0.000335920000992999759
4.32046891845561259e-05
5.33652621160417366e-05
4.61696529062410464e-05
-0.000291289271175152235
2.06549143578525748e-05
5.27879816528243774e-05
-0.000300027762328114716
2.41442418840387262e-05
5.88009191983764512e-05
-0.000309273246865890568
2.79282384064574489e-05
6.26453736388812084e-05
-0.00031811703836607234
3.21176747866784833e-05
-0.000325227448803507523
3.68386875990840161e-05
6.19294533139881631e-05
2.77331746629946323e-05
-0.000292946169567441452
1.26598186151609894e-05
3.34011982389132415e-05
-0.000302339571175212697
1.50742947982034842e-05
4.12476633255508929e-05
-0.000313222496405617665
1.80881683365848926e-05
5.31955636913724505e-05
-0.000325568884856696362
2.2195105324207804e-05
-0.000339316995164573999
2.76287546388317538e-05
7.29243910433708699e-05
9.02066910201175409e-06
4.12381716350021352e-06
1.11844315014033053e-05
4.95461747225710057e-06
1.46113749747605192e-05
6.04682407098585713e-06
2.07944638842473679e-05
7.79795480512008469e-06
1.10396222699953115e-05
3.30705534052699808e-05
0.000318631173346792533
0.000100286142324281478
-0.00016811090282583616
0.00056386942859185411
-0.000207031365796086933
0.00031612114074925095
0.000304377761493546811
4.47311750348967625e-05
-0.000119442133504668284
0.000483757202432818091
-0.000196023937243246802
0.000314580388655171916
-1.82150628545166499e-05
-0.000197963890819587179
-2.09787842912527865e-05
0.00015611259546892162
-8.31583451786619044e-05
-0.000126388269586879089
0.000260232748476444667
0.000243964423391848271
-8.66008326727183103e-05
0.000185695300722210632
1.85089219271675079e-06
-0.000153810933560076242
0.000256873752874041232
-0.000178276005573060756
0.000357197032501852191
-0.000102284437873717765
-0.000138917777319803615
-7.49009698542105369e-05
-0.000192842176979266455
-8.94984005915645884e-05
-9.51820191952845469e-05
-0.000294046289602919021
0.000181575393229170128
-8.88221663417824818e-05
-0.000778119987714889771
0.000383180572500236075
-0.000107499054714323968
-0.000907046159141795122
-0.000134340229740844693
0.000342922854641156301
6.55581428548342561e-05
-0.00017187371033347093
-7.38004045672909821e-05
0.000184337400699136978
-0.000222052654294626381
-0.000112955136959930937
0.000510380746840261349
-0.000157901843863225884
-0.000193198311506249617
0.000872414261076171057
-9.50843496219807937e-05
-0.000210598305321224485
-0.000433450170807813306
-0.000269611769014905145
0.00024774911855122983
0.000136542587146815347
-0.000194266824705169213
-1.5255697434656875e-05
0.000112803266488842465
-0.000175217687371879277
-7.03085568934706199e-06
8.70821540079354099e-05
-0.000106213604614121079
-8.08851643054377947e-05
-0.000175548101968806073
7.72322723424325092e-05
-0.000284520076117107917
2.59036417791748061e-05
-0.000299605972600298356
-0.000703675782210873291
0.000182970581660544564
-0.000223252882614031188
1.3153076546903501e-05
0.000260925635742720145
-0.00022153013735641883
2.4605186202106921e-05
0.000417333406044315071
-0.000214692036177873167
1.13514861437253396e-05
0.000861287446426657654
-0.000183877296283652928
-0.000145882453468387281
-0.000164033931280060941
0.000156580843592493517
0.000993676311289700158
0.000188059196845371732
-0.00025010794151370143
2.69554779160342231e-05
0.00024490226003173938
-0.000258868482999080119
3.07238561426888447e-05
0.000328349287811851686
-0.000279323606312200474
3.46559691098141862e-05
0.0004653381206375203
-0.000306036339342606568
2.27487885607458081e-05
-0.000256642751020460028
-6.35722783347165423e-05
0.000585516125175263176
0.000173698650053709933
-0.000266168103222394828
3.30428930680483866e-05
0.00021498099844714284
-0.00028185195458458039
3.66445756032180537e-05
0.000258328793323527961
-0.000306422737380536989
4.10479599828165691e-05
0.000307989078275499575
-0.000340762968991552783
3.39326109023132736e-05
-0.000322427007128745207
1.43605733331309411e-06
0.000383169223352496102
0.00014843531290013241
-0.000277748009145746739
3.3279762835753879e-05
0.000176934056212232308
-0.000294901001485339007
3.83574683746215703e-05
0.000204431385035978342
-0.00031917360921490136
4.37736967471707305e-05
0.000234982375170788161
-0.000356046121784302097
4.8223217638127459e-05
-0.000353824351331950111
3.81005022128218571e-05
0.00026214226268776611
0.000120585983723732883
-0.000286141716772120183
3.02497465191513031e-05
0.0001391478183301309
-0.00030137009087426533
3.54110246078191159e-05
0.000155077449507339113
-0.000323247840775625313
4.20235033822004934e-05
0.000162309315449444365
-0.000352158675339284263
4.96286447538033323e-05
-0.000360395010087846744
4.80412296898810164e-05
0.00016463035571097752
9.32920424925925344e-05
-0.00029051967327439434
2.6175982736509319e-05
0.000104665092295829157
-0.000303059770575503417
3.06076843173287824e-05
0.000111265888157228643
-0.000319810884921968293
3.58286735888848479e-05
0.000109279104200219168
-0.000341265118588094524
4.24857713323351452e-05
-0.000368265650270004454
4.79912070004499927e-05
0.00012139904757944934
6.86719583928311001e-05
-0.000292510752498567042
2.10053074407749252e-05
7.58869026541403964e-05
-0.00030244826687265237
2.44581515971904845e-05
7.81307620297273228e-05
-0.000313563936613087645
2.81118508064880526e-05
7.17218512610956303e-05
-0.000326320806857298862
3.25350742755268972e-05
-0.000340664200347680249
3.08848422692503146e-05
5.64397563409741099e-05
4.89257393907141722e-05
-0.00029449099537521222
1.56676204301565346e-05
5.59193104793083374e-05
-0.00030361385976042897
1.8320741983861702e-05
6.222005709279807e-05
-0.000313101504706617844
2.11719486776160792e-05
6.61615233363182294e-05
-0.000321991169116739697
2.38489062934868173e-05
-0.000328987372595983079
2.51609536878797356e-05
6.61613916905218332e-05
2.96455742417502319e-05
-0.000296324620899897243
9.64355872383396044e-06
3.58702752570045678e-05
-0.000306267736791850337
1.15084805746263504e-05
4.47362163827133897e-05
-0.000317732519653295966
1.38604056860067839e-05
5.86634058600317234e-05
-0.000330684098714707341
1.69642434904033521e-05
-0.00034486933718592223
2.09739930969999468e-05
8.1199953062742041e-05
9.68090500589811346e-06
3.13847090636788401e-06
1.20984352098406558e-05
3.78107913353608049e-06
1.60473314249662343e-05
4.63940186532109948e-06
2.33891457572749656e-05
6.06666754750910237e-06
8.67565053647610191e-06
3.82612599523156124e-05
0.000319614638555806613
0.000155214586495435423
-0.000112276875947364455
0.000569846938451372864
-0.000134063644221077275
0.000325939945707351105
0.000307377471260030302
0.000123911127411487895
-8.98677335197821717e-05
0.000481821056145808333
-0.00012556827950505311
0.000324947414265971154
8.90544131309610595e-05