/*--------------------------------*- C++ -*----------------------------------*\
| =========                 |                                                 |
| \\      /  F ield         | OpenFOAM: The Open Source CFD Toolbox           |
|  \\    /   O peration     | Version:  2206                                  |
|   \\  /    A nd           | Website:  www.openfoam.com                      |
|    \\/     M anipulation  |                                                 |
\*---------------------------------------------------------------------------*/
FoamFile
{
    version     2.0;
    format      ascii;
    arch        "LSB;label=32;scalar=64";
    class       surfaceScalarField;
    location    "0.630000000000000338";
    object      alphaPhi0.water;
}
// * * * * * * * * * * * * * * * * * * * * * * * * * * * * * * * * * * * * * //

dimensions      [0 3 -1 0 0 0 0];

oriented        oriented;

internalField   nonuniform List<scalar> 
20390
(
0.000170401330552545822
-0.000115642233440670116
5.70323925647922225e-05
-0.000124237180573564588
0.000267740071732937117
-0.000127720554072737944
0.0001887326655357228
-0.000183167515173436981
0.000343571252932049417
-9.92920401754441456e-05
0.000231967988078575661
-0.000209222795996659357
0.000394758936542624909
-7.48775789187360914e-05
0.000248741966116158343
-0.000225685286764030536
0.000433024084835684003
-5.8934971851112466e-05
0.000257936726436352104
-0.0002376889456468606
0.000464245012926522657
-4.86912435974196052e-05
0.000264194362637756343
-0.000246967514658547505
0.000490182497878529559
-4.19962265911114771e-05
0.000270658778086906276
-0.000254712408561568945
0.000511562741734681941
-3.7462383275402933e-05
0.000277285882195354798
-0.000261316861269433583
0.000529556658765623469
-3.4550368528072377e-05
0.00028314608451174766
-0.000266699895009411651
0.000545395422492657455
-3.29166983062640243e-05
0.000287851415855846441
-0.000270847389495472554
0.000559736578347182342
-3.19726335859903929e-05
0.000291455242042295041
-0.0002738755122092187
0.000572923777031133369
-3.15159178606082705e-05
0.000294050877794821875
-0.00027578678361635646
0.000585600497535957126
-3.16665700833771636e-05
0.000295226558600629235
-0.00027630499934531115
0.000598008562442866069
-3.20876899425784646e-05
0.000295009322043497278
-0.000275403824985210699
0.000610390286585776637
-3.28441501427133723e-05
0.000293534877094770862
-0.000273152059489648101
0.000622266067569620914
-3.2735275625608299e-05
0.000290765898338288481
-0.000269987076473736539
0.000634010873266828054
-3.28586005687904616e-05
0.00028714940230492532
-0.000266119644209878142
0.000645286363609950324
-3.23118009221287381e-05
0.000282864354769439433
-0.000261901101064811073
0.000656176736667643513
-3.19636986427569876e-05
0.000278166231114291434
-0.00025716664533796343
0.000666371916055804691
-3.11559211392783611e-05
0.000273329127864452152
-0.000252483504444800074
0.000676724382587142272
-3.16767205047374762e-05
0.0002690869656455984
-0.000247934700177874666
0.000685928524692165078
-2.9822331885709819e-05
0.000264347640625212771
-0.000243916945742621614
0.000694774531367430524
-2.92706070106639209e-05
0.000259323540802061604
-0.000239116312683240647
0.0007033578085908084
-2.92570808326970367e-05
0.000254461051306440096
-0.000234124843683561188
0.000712917327781676887
-3.1169250791734357e-05
0.000250335161826831796
-0.000229192335556845843
0.000720880425616225338
-2.84514744014124907e-05
0.000245557524106114445
-0.000225554185785539069
0.000728197274533714644
-2.68247641629360871e-05
0.000240054214154904926
-0.000221056217300029362
0.000734599473954755167
-2.67324955336825087e-05
0.000235602019198855842
-0.000216000564788969057
0.000742351198943585599
-2.9614311992305927e-05
0.000231761924047834648
-0.000210980368687387467
0.000748560476881074237
-2.77981702475141899e-05
0.00022731628134641538
-0.000207142106064572005
0.000754096429872466614
-2.58934433576664648e-05
0.000221735311468839168
-0.000203024011709981915
0.000758999249006035519
-2.49185872356233596e-05
0.000215873864498030126
-0.00019767983946033309
0.000760854590642256611
-2.24261606667226512e-05
0.000210221130525651938
-0.000192064738336124319
0.000749614011590497235
-8.76973029836699193e-06
0.000205264361068727819
-0.000188382939094471335
0.000692130862756026779
3.81100716523602123e-05
0.000202035068670419624
-0.000186322895716100354
0.000522066985055129546
0.000149500817971978862
0.000199160700012919467
-0.000182877636074288338
0.00022135542491919137
0.000278601711930857106
0.000193081265252529824
-0.000176033686672141376
0.000204458689921795502
0.000126652696330150624
-0.000115451612509648608
0.000120034549442664729
-0.000128720625930065782
1.38936516369977328e-05
-0.00014564382309688049
0.000235719603660747024
-0.000181501743793384911
0.000109962625828045936
-0.000191022660944177049
0.000296907143064649057
-0.000163396993111103965
0.000169978237085251135
-0.000212359375720251072
0.000342145175107813528
-0.000126979047716417126
0.000193382179661824886
-0.000220159788455155702
0.00038435689216532689
-0.000105826057735464765
0.000210629879944638793
-0.00022586351249076909
0.000419826023470895896
-9.37636289177519596e-05
0.000220445490995440887
-0.000231394848762762439
0.00045313282097542791
-8.18496530297197042e-05
0.0002319902748876548
-0.00023784829274451231
0.00048220319232071925
-7.61375437562797282e-05
0.000243853565124394747
-0.000244214920111389508
0.000506957829811855451
-7.39435558001783625e-05
0.000254503695715368398
-0.000249852675563181736
0.000528396318062949772
-7.10664842547648415e-05
0.000263189150759460299
-0.000254326005564094301
0.000545148776565696587
-6.85114522687684381e-05
0.000269481529344572099
-0.000257586444030171325
0.000560603687414861483
-6.56378953188777877e-05
0.000273992634844591638
-0.000259316741697947629
0.000575082131437336906
-6.45654365893516151e-05
0.000276538172491597829
-0.000259586885459550535
0.00058823629903001105
-6.44873138170705905e-05
0.000276978074445214794
-0.000258185833334280781
0.000600402240093253644
-6.57783245053747125e-05
0.000275278167052093732
-0.00025512684238150759
0.000611521690035802222
-6.4896823376132815e-05
0.000271265579211504631
-0.000251080727226636483
0.000621864358849536316
-6.45427793766487827e-05
0.000266191894127636771
-0.00024627966955785796
0.000630711639602393129
-6.26616998469373349e-05
0.000260159845077377583
-0.000241311432781113593
0.000638750086674874087
-6.31850550431098124e-05
0.000253988457095155043
-0.000235499249353650158
0.000644779716828833976
-6.03315296948367554e-05
0.000247273463537434567
-0.000230149529903699555
0.000652478516559058179
-5.65419967955632248e-05
0.000242486547964065272
-0.000224792074609602159
0.000657970299630026428
-5.2026416209612151e-05
0.00023685185845459891
-0.000220949499168198653
0.00066297569971113658
-5.5946680609314136e-05
0.000231734084650845728
-0.000215475640681343284
0.00066430694088566737
-5.44025028448379106e-05
0.000225206435433468564
-0.000210429622710395659
0.000670372523583919735
-5.04757254514326842e-05
0.000221737927107617193
-0.000204346457945067824
0.000668290082619172124
-3.82871260794793436e-05
0.000213807384354459983
-0.000202245038526840829
0.000678447946315646061
-4.19842046575046306e-05
0.000211983859126381913
-0.000198610368216770142
0.000679851568089356352
-4.01731117635100642e-05
0.000206582578335406957
-0.000195690540145897267
0.000654428280184585144
-3.97276770751007054e-05
0.000202730432966206269
-0.000192136568767587855
0.000638274347784199315
-3.37896133115273489e-05
0.000185645629743723086
-0.000186356354240044812
0.000660556976824421774
-2.65352507236939012e-05
0.000190975557962548147
-0.000185389652089146511
0.000657828340011649862
-2.11841427091115796e-05
0.000192953104290467261
-0.000184781191022983474
0.000594772277571927604
-1.6775773180312141e-05
0.00017874783847904191
-0.000175442301986003388
0.000515612274522861186
-7.93320357617985132e-06
0.000140692987257021401
-0.000145646102611599211
0.000566022235174401447
2.08520773362288918e-05
0.000146037717795029101
-0.000148148492555398613
0.000531726916969014877
0.00015655291615879839
0.000177840858432836281
-0.000173758272244932475
0.000336930988816581229
0.000457430303408227514
0.00019216020004365409
-0.000181169182652526255
0.000517384339423868859
0.000203860083277778028
-0.000186453051893671921
7.16402571552157534e-05
-5.37089969995193685e-05
-8.10600558801286529e-07
-0.000128512767036379296
0.000116259639593012517
-0.000101343495001972593
5.14062323467253036e-05
-0.000174543474223219273
0.000128611564642509824
-9.70782365510977418e-05
7.74461116684682855e-05
-0.000181463906042340635
0.000131958967545978096
-7.65131334959312731e-05
7.9308485830165452e-05
-0.000174584787686373844
0.000145664050034622814
-5.91996569739333513e-05
7.81424546135251949e-05
-0.000168829546223734001
0.000171573856642439336
-4.85328661878877348e-05
7.86443618239413065e-05
-0.000169050557585807837
0.000198367287657155928
-4.08737656602099365e-05
7.44993142865762353e-05
-0.000172638609128221844
0.000252099462893900063
-3.72632877025569199e-05
7.59828080897579153e-05
-0.000179984757300274305
0.000307858647208504338
-3.584946176467408e-05
8.85304214636354974e-05
-0.000187554856443756341
0.00034389553411289615
-3.54523734258959373e-05
0.000103333351874676499
-0.000193167664677998678
0.000373029947787286733
-3.55778902763139208e-05
0.000119206046339490794
-0.000198021359087938143
0.000391994092936774272
-3.53365277170424567e-05
0.000131313846916999673
-0.00020292405633487738
0.000413077915082895339
-3.52862980369179674e-05
0.000144654145969595109
-0.000205745526259944683
0.000421361226521166712
-3.48035427040715883e-05
0.000155356071643035195
-0.000204921300343588404
0.000416827086068682711
-3.40527007457901146e-05
0.000152353729802678396
-0.000203127055216542298
0.000406987470648582374
-3.19534760702887855e-05
0.000149099570292944816
-0.000195568098582920061
0.000385636027604463602
-3.01004170068039824e-05
0.000140063840798272183
-0.000183354331523735784
0.000383627669828034827
-2.74732416613501203e-05
0.000136050992105102742
-0.00016748337406623088
0.000385734924945090128
-2.55407624653019274e-05
0.000141695411005351339
-0.000160592999408231665
0.000349020437534655007
-2.16646202228553347e-05
0.000126210429411324559
-0.000157084846300784757
0.000274994243328379232
-1.94262960779596518e-05
8.75514774470438986e-05
-0.000135644533763501772
0.000283852045630550139
-1.53057074507922566e-05
9.47746218047790777e-05
-0.000107447739130571828
0.000320579305012820754
-1.34955142702108876e-05
0.000119221368695936631
-0.000119993392258784971
0.000275406236990246504
-1.08559326114122183e-05
9.95504354159536795e-05
-0.000125088633318892316
0.000163623978587907541
-9.6313863822615703e-06
5.702096591392324e-05
-0.000103350546423707353
0.000160577685544416906
-6.13004558858804707e-06
5.14076952215164752e-05
-6.5357618689595301e-05
0.000192623946143459453
-5.27410581311044955e-06
6.80283273305195348e-05
-7.70756276457387979e-05
0.000168026658069839933
-4.11415594877631608e-06
5.76437562754476249e-05
-8.30380907936498609e-05
0.000116942776014714855
-3.36326412345766634e-06
4.07625019358799856e-05
-7.28853870599423291e-05
9.28128855845291353e-05
-2.18436674140628375e-06
3.30082993833370704e-05
-6.75570541293007634e-05
6.48535968331448334e-05
-1.39207571607086572e-06
2.71711785267815787e-05
-4.35738259925283196e-05
4.84837950381175918e-05
-7.57034420425844374e-07
2.11994498168665021e-05
-2.98771407348704148e-05
3.74555348680365933e-05
-3.37855452598238461e-07
1.60814770266101725e-05
-2.05549782003458319e-05
3.45550681017083041e-05
-1.94557269310164416e-07
1.17736690356822631e-05
-1.53785538580726565e-05
5.59165267445722812e-05
2.5107046668375243e-06
1.58692443276148587e-05
-1.83305941846518956e-05
0.000153740779808284544
5.72780204060390101e-05
4.48748526789868163e-05
-4.53934052956623103e-05
0.000227556343068575895
0.000394570070277665426
0.000162811047033300659
-0.000155444761193232846
0.000720419077790935831
0.000191523904027170373
-0.00017718342220025707
3.26276103468906204e-05
-3.86701924391941718e-05
-1.16647456149712016e-06
-8.89896617075328544e-05
5.40279323683467028e-05
-6.66404341519959283e-05
3.47479148755890755e-05
-9.70436991422120321e-05
5.28276667183962383e-05
-5.96764857272778868e-05
4.53547585380600953e-05
-8.44624960706878697e-05
5.0358412184829279e-05
-3.96214212877829579e-05
4.25970549999274629e-05
-7.8075889298358952e-05
5.02606968763830121e-05
-2.66034593150350479e-05
3.59919760884613339e-05
-6.91673517512432555e-05
5.25785336952214023e-05
-1.85819268991792163e-05
3.00181476457887932e-05
-6.2340447519864661e-05
5.66761902776717223e-05
-1.33539920833364726e-05
2.38836241117767633e-05
-5.51217749866382412e-05
6.16194549148901214e-05
-9.21357344634918742e-06
1.8500525270440539e-05
-5.02054545405169515e-05
6.71085086789328331e-05
-6.55912585809818722e-06
1.52452295160808375e-05
-4.76912654370995341e-05
7.15058375467309177e-05
-5.21139007463021451e-06
1.4995510019961832e-05
-4.62565972086696959e-05
7.46436392472181443e-05
-4.7924011349841203e-06
1.55941426279524954e-05
-4.59971713373450418e-05
7.6241097550956195e-05
-4.99086099290745847e-06
1.70145922939529548e-05
-4.56390887995065744e-05
7.79826156638118421e-05
-5.58582634184310494e-06
1.88857583583105456e-05
-4.74557146645835601e-05
7.63022606958593114e-05
-6.39387614335484948e-06
2.07027138263519295e-05
-4.53649531630125901e-05
7.05203424028567958e-05
-7.44502937369126572e-06
2.193172750685782e-05
-4.11804733682601329e-05
6.49850923729026775e-05
-8.32179806801711671e-06
2.17630556509918255e-05
-3.93413286334616251e-05
5.87495491612765686e-05
-7.85706551465742438e-06
2.1542050053952602e-05
-3.77831018755846426e-05
5.24593574026291124e-05
-6.97052952670872196e-06
2.02713940358777176e-05
-3.43724498114464881e-05
4.53457555652480765e-05
-5.96060199766889905e-06
1.84004499233531992e-05
-3.08106773518238727e-05
3.85181171271852627e-05
-4.83964375067294808e-06
1.60948443856598209e-05
-2.66214238950632002e-05
3.20068125553464583e-05
-4.00652880339076856e-06
1.34929339307291176e-05
-2.28432812246144317e-05
2.68155477361261322e-05
-2.95307113117440762e-06
1.16441233165121131e-05
-1.8795531956177169e-05
2.16538766493294338e-05
-2.1733613063744316e-06
9.62225888871460625e-06
-1.57903732706722446e-05
1.72303807426956784e-05
-1.53580179302491698e-06
7.62319565879121289e-06
-1.27067849742510512e-05
1.29364798250376241e-05
-1.25076865830416739e-06
5.94866968509787925e-06
-1.01889220468603311e-05
1.01975248635880529e-05
-7.8684923389138455e-07
4.69900728664674416e-06
-7.49911616188009729e-06
7.65410052483117724e-06
-5.07605516544064632e-07
3.48009844067617687e-06
-5.8505123500681466e-06
5.70848615465857576e-06
-3.27472911359358206e-07
2.2918326033246758e-06
-4.28666214571390751e-06
3.88268926700779719e-06
-2.47677930281327396e-07
1.63056585488892287e-06
-3.03289982405083723e-06
2.5459191093702108e-06
-1.4774060899070348e-07
1.15011013415410656e-06
-1.90172935878084444e-06
1.53659016096577735e-06
-8.36468883913012019e-08
7.46768230444765401e-07
-1.10175435186859595e-06
9.0193028454180415e-07
-4.29883241408804239e-08
4.45746234675306786e-07
-5.83385587678257944e-07
5.90020901082754773e-07
-1.94141584260454477e-08
2.56108145469064694e-07
-2.98419998528941146e-07
4.27022698164803403e-07
-8.49502557054921121e-09
1.16177946720698525e-07
-1.45620551973759231e-07
2.90559753643708566e-06
2.79605347065187612e-07
8.57660185696665277e-07
-1.12010400459368137e-06
4.1006288917962654e-05
1.9017377117430929e-05
1.63665077599879714e-05
-1.69341645337099978e-05
0.000140090549153153583
0.000221855035063738313
0.000120730578527948506
-0.000111574761639729163
0.000835258679726477975
0.00017893084254273943
-0.000167012807096545297
2.76977556079667354e-05
-3.03766408797541986e-05
2.0542723237727499e-06
-3.82577260549786952e-05
2.99212980983891301e-05
-4.93089819568407329e-05
2.55648725859917585e-05
-4.77750494552327379e-05
2.22522400952637962e-05
-3.35113976857868536e-05
2.72264268137389063e-05
-4.74269865009572131e-05
1.73566879166353933e-05
-1.9745074105326596e-05
1.95206440920486301e-05
-3.5379503002039273e-05
1.58487621012000127e-05
-1.33718117757480703e-05
1.32330540528796634e-05
-2.57507103992767705e-05
1.56888558318003456e-05
-9.70583806355712745e-06
8.03336728525390304e-06
-1.78360322768590182e-05
1.55397990716254555e-05
-6.96921456795977655e-06
4.21727334170081644e-06
-1.14354059480990154e-05
1.58074845960096887e-05
-4.05259492196835142e-06
1.5963259480430735e-06
-7.30838979329638436e-06
1.631793103899327e-05
-1.66986855581448005e-06
3.97993100700687996e-07
-5.96510228359993966e-06
1.71715987546453472e-05
-2.59172224555732207e-07
1.19266858028335177e-07
-5.88110564417714259e-06
1.83450753332351686e-05
9.11460295618367875e-07
4.67525699027723673e-07
-6.54277093057257952e-06
1.94040583028359809e-05
1.16448093316906249e-06
1.33000621531726441e-06
-7.46689553771509469e-06
2.03677783791465719e-05
5.98574407894245284e-07
2.38173643559612541e-06
-8.21068746172652827e-06
2.0669315430940602e-05
-6.56206562450795587e-08
3.21577892205780721e-06
-8.88687856479144318e-06
1.96944844755779803e-05
-6.63129481357050704e-07
3.57017632693974496e-06
-8.81600522342804551e-06
1.78324808421285463e-05
-1.47112170932135844e-06
3.85254891051908184e-06
-8.56634361065545617e-06
1.54779737688816143e-05
-1.82419129875924246e-06
4.35320078888487498e-06
-8.22930579782337859e-06
1.29650155050078107e-05
-1.79375372983609612e-06
4.09571335300773687e-06
-7.16775645831301386e-06
1.06291201931549074e-05
-1.53679965627572814e-06
3.82978626567108789e-06
-6.15635224190807344e-06
8.57004045036369317e-06
-1.23267773359343539e-06
3.43270309548517717e-06
-5.12739305437364892e-06
6.57082997434584645e-06
-1.01039744361139604e-06
2.86114551907484094e-06
-4.1935996563033407e-06
4.94722705045862802e-06
-7.52979279039868612e-07
2.33737174592584952e-06
-3.21830918084309849e-06
3.69197261711974384e-06
-5.00005179279109132e-07
1.8622349321707121e-06
-2.41344320050277298e-06
2.74171575889127362e-06
-3.21886192779143398e-07
1.43701037276320453e-06
-1.78888754838493844e-06
1.88293542880391175e-06
-2.44818954969488403e-07
1.05468193318198655e-06
-1.30418385849480853e-06
1.28578204459505602e-06
-1.62922784161632991e-07
7.58614261477903811e-07
-8.67652001373994292e-07
8.57929623438119496e-07
-1.02326070132314595e-07
5.19209708915786825e-07
-5.54243028429643213e-07
5.7403921366670289e-07
-7.18630237421339423e-08
3.24179939594654847e-07
-3.28283306049796115e-07
3.49765317892988185e-07
-5.39544230680467033e-08
1.86364002540711258e-07
-1.79313616620256654e-07
2.07290558679864045e-07
-3.31780659425942699e-08
1.00551448785222646e-07
-8.48516000226910094e-08
1.20414044427197212e-07
-1.69969726807070308e-08
5.0211144414941342e-08
-3.69529943122636639e-08
7.25801548906986023e-08
-7.23055230274079505e-09
2.37103713403430141e-08
-1.55791309126764573e-08
5.49728831949583154e-08
-1.67650051862959974e-09
1.22458975585782374e-08
-7.36169591819081656e-09
4.4984226158456161e-08
1.80654755761388401e-09
1.68673532571633931e-09
-1.97584311562275698e-09
2.55614235048285332e-07
9.09348609449894175e-08
6.79406049374189038e-09
-2.72472392806061459e-08
1.23230166964793554e-05
7.45570084557774765e-06
5.0594856798454158e-06
-5.64666695235905478e-06
6.97193988864667049e-05
0.000106131298405026523
5.09792452421901294e-05
-5.43797770090721712e-05
0.000876393854758253594
0.00017226263416621673
-0.000160975410840962104
1.84479424412472838e-05
-2.77023427890671511e-05
6.35724672930270277e-06
-2.95061827310173547e-05
1.42099484019502547e-05
-2.93187402475515152e-05
1.53994648937766421e-05
-3.2143395282932397e-05
7.95399879408126695e-06
-1.66469719910641057e-05
1.24872559951219401e-05
-2.39203227409788883e-05
6.21335917000637773e-06
-1.2135073103368475e-05
6.73932930726528448e-06
-1.33438316795121926e-05
7.19618452807754038e-06
-1.17495440101616208e-05
3.18583613425448009e-06
-6.5952714817506554e-06
8.18749972758598706e-06
-1.06694150266181265e-05
1.02968103246991152e-06
-2.26239797368754754e-06
8.31219115969356288e-06
-7.8359926817015085e-06
-2.60685392368729536e-07
1.13845319082415396e-07
8.37212357137518892e-06
-4.54455582142423159e-06
-9.10645706459011607e-07
6.56963669946999189e-07
8.06455110771161655e-06
-1.74773438665633642e-06
-1.05900149040440661e-06
5.4850404054095988e-07
7.43882437789430634e-06
5.23913956282896128e-08
-9.28552147461964404e-07
2.06069245741012274e-07
7.52846427558238185e-06
1.01669680779655857e-06
-6.74023386525756047e-07
-4.36339249750016312e-07
8.30530695721609722e-06
1.56470584474423369e-06
-2.44310158701550419e-07
-1.60390054404539723e-06
9.23674740579439062e-06
1.39703327527548691e-06
2.33673944361129123e-07
-2.38004331762036522e-06
1.00776863667232992e-05
2.03172243650976791e-07
8.8319956371117508e-07
-1.88466032128528376e-06
8.98949457865375241e-06
-4.46566323679313949e-09
1.07698615220502515e-06
-2.21937336986768164e-06
7.75679307199603956e-06
-2.49979267388064122e-08
1.14887105455294856e-06
-2.3913818160931861e-06
6.78303096062460863e-06
-1.25171229104411938e-07
1.46226495281889757e-06
-2.91119942050163089e-06
5.54969448892469984e-06
-3.20156222893943521e-07
1.62519295396777609e-06
-2.53831497785101392e-06
4.34010954749229404e-06
-2.68102327329699153e-07
1.54593113464931699e-06
-2.21334100414363914e-06
3.34011610593872117e-06
-1.67096106110893067e-07
1.31290638856906749e-06
-1.82389520371332889e-06
2.52330083379659637e-06
-1.67330706947437662e-07
1.08669564629540231e-06
-1.46388975206285002e-06
1.89899533462503002e-06
-1.56522145680050037e-07
9.27979458684167009e-07
-1.17637420233408196e-06
1.36188637670412511e-06
-8.70402592302536416e-08
8.07986526710012208e-07
-8.97367273147594911e-07
9.37298159873701251e-07
-3.23397168275468675e-08
6.22846386216431015e-07
-6.41824587371164625e-07
6.14749851139538525e-07
-3.17465935730337226e-08
4.39494261634147917e-07
-4.28666459288660311e-07
3.84940782363467273e-07
-3.39691021117158677e-08
2.85432089707191239e-07
-2.52179173357084252e-07
2.37451762406355465e-07
-2.94854292671575963e-08
1.643998139493689e-07
-1.28441416389802397e-07
1.39336191881012444e-07
-2.3285628810018489e-08
8.29304258645620776e-08
-5.4953519317963151e-08
7.58333540623736155e-08
-1.54071423591699805e-08
3.3632885520967489e-08
-1.84161418467994106e-08
4.05185070984077638e-08
-9.02359521082877884e-09
1.03311769407408969e-08
-3.30782574728250658e-09
2.22821667624338282e-08
-4.5162889844951223e-09
1.2411356132119872e-09
1.96140829738247508e-09
1.46744805270322927e-08
-1.83520540341165856e-09
-1.79944466450596735e-09
2.68766199999131007e-09
2.29030622413802858e-08
1.07448919314104838e-09
-2.3419360182081435e-09
2.77305594087425882e-09
2.59343945622812912e-08
8.24000795923883127e-09
-1.23724988785900479e-08
4.50502331550436201e-09
1.48603502204662051e-07
1.53054629860949534e-07
-2.03887686797743655e-07
2.26552903682264408e-08
3.88763567509664707e-06
3.79970144798636613e-06
1.966075232874418e-06
-2.06133972840079669e-06
2.34151618185011022e-05
8.40023734750539698e-05
3.73572841377660449e-05
-3.54628047595657091e-05
0.000891168612907889172
0.000164362168789691624
-0.000153148200331648465
1.10133511957876504e-05
-1.77138616957492138e-05
5.20438880721033802e-06
-2.70420263200308813e-05
6.48201047109620634e-06
-1.46039261601501883e-05
7.17442062956070918e-06
-1.75196289250056071e-05
3.42323669175866021e-06
-8.65216912339062687e-06
4.23411535801241312e-06
-9.38322081356163728e-06
4.62702856683031462e-06
-1.17684815234403174e-05
1.69337347095826602e-06
-3.60121655542209383e-06
7.56279526543730184e-06
-1.52179245548135171e-05
1.88565938977345376e-07
-5.28623760028226326e-07
9.03322924081284029e-06
-1.42568672380486051e-05
-8.47253304076497068e-07
9.55995314536536271e-07
9.02852901807515221e-06
-1.00060533814449235e-05
-1.32386518534944171e-06
1.47442767634916121e-06
8.32364313560726132e-06
-5.50991606850505421e-06
-1.40511119999363801e-06
1.43240736533961783e-06
8.14709630957301647e-06
-2.22507691106533322e-06
-1.25550816465009637e-06
1.07884010868392803e-06
7.68594395994589639e-06
-7.08733439859846893e-09
-9.95921719458426912e-07
6.27065554251353303e-07
7.1710719300999993e-06
1.19109445777569734e-06
-7.24832073173508679e-07
1.62198739470754298e-07
6.95061077684644438e-06
1.62608788262839941e-06
-3.59982471451828115e-07
-3.21173059706993403e-07
7.38556715438311229e-06
1.57841065920250146e-06
8.54298414693564643e-09
-8.6838671071110945e-07
8.16381212941036198e-06
5.27123397075333799e-07
3.96933868127090197e-07
-8.2840838248119518e-07
6.98728494248794329e-06
2.72885463812168499e-07
6.07728793063063263e-07
-1.12171103392858474e-06
5.42682935632045929e-06
7.56876881809796426e-08
5.77079440198676776e-07
-1.36842692062976701e-06
3.98102365738793795e-06
5.59288032192953254e-08
8.37117063715220705e-07
-1.46041785844027672e-06
3.19100173488701604e-06
1.59057540478414313e-08
9.15854135468302338e-07
-1.3331121647855865e-06
2.56858394103429546e-06
1.94665458830602252e-08
8.46231849286630402e-07
-1.12853539916795017e-06
2.10982047277624624e-06
1.66724699045504144e-08
7.1502605660173401e-07
-9.2366840032018362e-07
1.59822309951094789e-06
2.27091085939072919e-08
6.0223048681204284e-07
-7.79492026935671231e-07
1.02894902707954579e-06
1.33907787273187493e-08
5.49810222475543602e-07
-6.37302490114607107e-07
6.28891283057396922e-07
5.15096195280908506e-09
4.558809609471908e-07
-4.41739367350216324e-07
4.19183475584080706e-07
4.26191015097185188e-09
3.2321475356797919e-07
-2.75701886788916296e-07
2.57587577687469745e-07
2.35346609671541896e-09
2.00031817266598457e-07
-1.5123913667133355e-07
1.4434663558647189e-07
-2.66290003211200831e-09
1.03894490247719994e-07
-6.62991057002401e-08
7.89006548398452789e-08
-7.76191987295600277e-09
4.17425133058801729e-08
-1.94003124221093486e-08
4.2633259477209583e-08
-6.72919118845624785e-09
1.10524981790819079e-08
-5.8418322664291784e-10
2.19550557137172717e-08
-3.87996055371820382e-09
-9.70761892854457614e-10
5.01410326757694539e-09
1.2606176494656025e-08
-3.56031028358780129e-09
-5.36958171451178463e-09
6.0257739960327024e-09
8.52086758415543128e-09
-2.32863547413371374e-09
-6.46917840745505512e-09
5.73634143746434883e-09
7.37438380728200707e-09
-4.86107572960371176e-10
-6.38621994292370218e-09
5.00225097032305968e-09
6.97927390119101315e-09
2.65783397172962992e-09
-7.11297599971218783e-09
4.75435737711790094e-09
4.31489029888681378e-08
6.01231557215121885e-08
-1.13335677565819898e-07
2.59954753840636589e-08
1.48136738498369464e-07
5.92214492178394638e-07
-6.81611540239397664e-07
1.14481153462649241e-07
1.16358643990431906e-06
2.55018175779765723e-06
9.18465561069535353e-07
-8.53603514015619508e-07
7.50072878481405821e-06
7.65575097976904098e-05
2.68264266065962372e-05
-2.40568474294805055e-05
0.000869345873554589225
0.000158640213253286516
-0.000147773437478102704
6.1089377272715463e-06
-6.84077156170258871e-06
-3.82582235471471121e-08
-1.68610052635977513e-05
3.24292351228966331e-06
-5.90578420179073663e-06
2.33748352257155095e-06
-8.06891103510241418e-06
2.85708545366627251e-06
-5.87275120377614649e-06
7.80281111392848008e-07
-3.14097010377324552e-06
6.97807902836127808e-06
-1.56860587612646515e-05
-5.15634198291849385e-07
-7.63897173612287844e-08
1.03697233648915374e-05
-2.17599826446294024e-05
-1.64846314401362866e-06
1.47507163057485296e-06
1.13148886605145859e-05
-1.84145018229896162e-05
-1.97806857378617743e-06
1.90644570821277052e-06
1.05007967189461075e-05
-1.24466864159611725e-05
-1.93671211786343006e-06
1.74761453265781467e-06
8.67326343200515584e-06
-6.94644845166645886e-06
-1.64235218386814865e-06
1.32660629383872566e-06
6.70126339600838933e-06
-3.09373960544421977e-06
-1.20062535138029487e-06
8.94999369791140255e-07
6.14189214706782617e-06
-1.0932669507980292e-07
-7.20567264693131059e-07
3.94292722679825778e-07
5.92557800499725329e-06
9.33888779658459085e-07
-3.7163028483212715e-07
-1.37821514715483793e-08
5.89816521250446247e-06
1.31333929469145312e-06
-7.13457567458642427e-08
-3.72746235349294312e-07
6.37184047729250409e-06
1.41200952164545532e-06
1.40558881217257254e-07
-6.19434607886706506e-07
6.8224276915275125e-06
8.5663161201215438e-07
3.52850145297890089e-07
-5.51594849848537376e-07
5.75734484675755256e-06
8.79690249366478242e-07
4.98995226119823453e-07
-8.81435317602724971e-07
4.15411402780045622e-06
5.24775454260028995e-07
7.06094178920890151e-07
-1.11766995873014746e-06
2.7545562570774691e-06
2.17955768323157735e-07
7.39310219551395441e-07
-1.05403549657657745e-06
1.7142143380593109e-06
1.08728975030390731e-07
7.20734418530064174e-07
-9.04777523135791446e-07
1.33701215181940061e-06
8.07908056975179531e-08
5.32005248678655746e-07
-6.4855896621530438e-07
1.13597888156223861e-06
8.05655959819174068e-08
3.13420075490756296e-07
-4.93942097628261884e-07
9.57218111362461566e-07
3.66279094570254176e-08
2.46557768900885034e-07
-3.99346401954426144e-07
6.69086495422526301e-07
1.62282397162341045e-08
2.47270182503047985e-07
-3.21740649385368432e-07
3.07907013379537543e-07
1.39504925048136641e-08
1.94783151542604538e-07
-1.94738826817752062e-07
1.63689059449387857e-07
5.93283387678757253e-09
1.29881417504868589e-07
-9.67213791064454606e-08
8.91255595464277324e-08
1.62730523629507285e-09
6.57181448881580639e-08
-3.84641289773991866e-08
4.58487504256373934e-08
5.64511218549345446e-10
1.83550735831757567e-08
-3.48556740551226169e-09
2.33038634667664399e-08
7.09714093187790137e-11
-1.32220016939340155e-09
6.27024423217026517e-09
1.13858703459012417e-08
-7.94969378599189614e-10
-6.86650795937017942e-09
7.58325035845548526e-09
5.6249917529437329e-09
-2.52112066913831434e-09
-7.13994345300406348e-09
6.95833022581761341e-09
4.13360237167257686e-09
-6.35512596234916973e-09
-6.35353933361502999e-09
7.56296539203117873e-09
5.07876796170239957e-09
-5.48659165444571889e-09
-7.89969429513616949e-09
8.96878240014388069e-09
4.40896348841733639e-09
-9.7527234748893413e-11
-8.45090228975824438e-09
6.68410090293430037e-09
1.22802214348338305e-08
1.61513202060733218e-08
-3.84197670378268282e-08
1.49487103574024061e-08
7.29048075307989582e-08
3.42485226384708956e-07
-4.597938493411052e-07
1.12731008079616539e-07