/*--------------------------------*- C++ -*----------------------------------*\
| =========                 |                                                 |
| \\      /  F ield         | OpenFOAM: The Open Source CFD Toolbox           |
|  \\    /   O peration     | Version:  2206                                  |
|   \\  /    A nd           | Website:  www.openfoam.com                      |
|    \\/     M anipulation  |                                                 |
\*---------------------------------------------------------------------------*/
FoamFile
{
    version     2.0;
    format      ascii;
    arch        "LSB;label=32;scalar=64";
    class       volVectorField;
    location    "0.630000000000000338";
    object      faceTraction;
}
// * * * * * * * * * * * * * * * * * * * * * * * * * * * * * * * * * * * * * //

dimensions      [1 -1 -2 0 0 0 0];

internalField   uniform (0 0 0);

boundaryField
{
    inlet
    {
        type            calculated;
        value           nonuniform List<vector> 0();
    }
    outlet
    {
        type            calculated;
        value           uniform (0 0 0);
    }
    top
    {
        type            calculated;
        value           nonuniform List<vector> 0();
    }
    bottom
    {
        type            calculated;
        value           uniform (0 0 0);
    }
    left
    {
        type            calculated;
        value           uniform (0 0 0);
    }
    symmetry
    {
        type            symmetryPlane;
    }
    interface
    {
        type            calculated;
        value           nonuniform List<vector> 
104
(
(-59.4974726384139672 0.0271600084166478718 0.0075795289479394538)
(-9.7697508916904674 -0.00320365047562570218 0.00444862134807833855)
(-9.97470848857705228 -0.00951510585082513891 0.00712697251686187413)
(-0.403421984445674009 -0.00377393916343126768 0.00314167079802080921)
(1.77989098872292928 -0.000573963638314130427 0.000508984445964791006)
(-1.45195295827309279 -0.000264638084933130823 0.000242433929189858318)
(-9.71934866737023739 4.35486602880519282e-07 -4.0961442668222817e-07)
(-16.9972100387566378 3.71063644351694066e-06 -3.49371999509830866e-06)
(-18.6017795990960906 1.01199430897110742e-05 -1.09992713098799655e-05)
(-18.876345697000886 -3.20531680660753969e-06 2.64234272124045778e-06)
(-18.4384088692858903 -2.29791161640766943e-05 1.17013083454056968e-05)
(-17.5498036400346322 -4.51632754373026464e-05 -4.89157412313950986e-06)
(-17.115661974543869 1.39030588019703481e-05 -1.12970048498829113e-05)
(-49.416486631865439 -0.00672816791292316866 0.00538824509035310418)
(-19.1695057093830954 -0.000206263986367712511 -0.000188798171845072952)
(-19.2279790278512372 -4.49238056349574784e-05 -0.000125569142980088886)
(-19.1990860113202366 -3.51907739803106014e-05 -3.90449204817505419e-05)
(-19.054875302264211 3.61866492133004305e-05 -2.9487098217690591e-06)
(-18.5645673251606631 -1.7394426708894608e-05 1.92062147339938339e-06)
(-18.0680363677426641 -3.59963716211358201e-05 -8.16644345134005539e-06)
(-18.377611681607636 -2.69882488799857356e-05 -9.30873957201638024e-05)
(-18.6226783590818421 -2.54564792477144925e-06 -6.93916358597436564e-05)
(-18.6133930876007447 1.95049774116236101e-05 -5.95645947522251043e-05)
(-18.4404952122067733 3.84361425097208168e-05 -5.89536389806022586e-05)
(-18.1918792800646649 3.72260655309482747e-05 -7.10711280398208903e-05)
(-17.998697828398484 4.25078733649937403e-05 -7.91367806439941722e-05)
(-28.6851488030610255 -0.00293297833510583212 0.00321844879463870602)
(-20.3359839706585355 -4.90084661954602154e-06 0.000298283218256119873)
(-19.448300980015059 2.95995138100373931e-05 -5.50928580062925611e-05)
(-19.3375254281515971 1.13783632852357529e-05 -6.68658545091336089e-05)
(-19.2127875451494106 -2.30893181409448376e-05 -5.8850930094646565e-05)
(-19.072489318826122 -8.07452264586301416e-06 -8.32199224417287724e-05)
(-18.9466235035548038 1.20787228530753417e-05 -8.78249990318684262e-05)
(-18.809999849851657 2.25370905562515008e-05 -7.13554550100384602e-05)
(-18.7588612339078438 2.91578597463155006e-05 -6.43959184597709479e-05)
(-18.6642231004281847 3.38522027838440587e-05 -5.99873449256383106e-05)
(-18.5275399527743296 3.66394701869579507e-05 -5.86254216018082628e-05)
(-18.3546584344978356 3.38675250509048054e-05 -6.12828909132084957e-05)
(-18.1710889284246271 2.90146071066582777e-05 -6.0955626249408127e-05)
(-25.4895787263994578 -0.00108123112188623178 0.00237509977530258503)
(-21.0182184395463274 8.37142252619680195e-05 0.00059012825138692515)
(-19.7846686781517533 2.60336479654499756e-05 1.49959023395397099e-05)
(-19.509680602261934 2.08852202093216407e-05 -5.25792683730269054e-05)
(-19.4112129720270765 -1.57353327956902848e-05 -5.2972795102528949e-05)
(-19.3113110779355921 -1.84600040138059778e-08 -5.40143848013225079e-05)
(-19.2198041493940295 1.99857743886388551e-05 -5.6821042985970459e-05)
(-19.1082279830152792 2.93852931699363498e-05 -5.48245419798470922e-05)
(-18.9952925218128748 3.37592381687805483e-05 -5.48161953259659101e-05)
(-18.8742462451706174 3.43542585463969417e-05 -5.59118904478893606e-05)
(-18.7541399386836929 3.35486185776818048e-05 -5.91044703471752789e-05)
(-18.6299471103452632 3.20261523114356142e-05 -6.23101696260595819e-05)
(-18.4758318316070174 2.24751060565615203e-05 -6.45959220342305423e-05)
(-26.3661993086665767 -0.00112693000455547053 0.00298446705732258524)
(-21.543708901633881 0.000148799448195680625 0.000894442134299724945)
(-20.1735467522545058 4.05082010988255521e-05 4.28939053984366003e-05)
(-19.8353713474876834 2.38630040577252574e-05 -1.79983054481441095e-05)
(-19.6905746215057462 1.51148245827114375e-05 -3.99230875006073427e-05)
(-19.5744481200673057 2.63533202274693176e-05 -5.34086188527709769e-05)
(-19.4454736164394433 3.35140126440485394e-05 -5.63826049815263316e-05)
(-19.2957945528942894 3.79365136669197604e-05 -5.70041160483947826e-05)
(-19.1578274639084256 3.90080720435568196e-05 -5.85764243106577388e-05)
(-19.045206513669438 3.64566164312902198e-05 -5.98537629019418874e-05)
(-18.9579125603285412 3.65583195933533395e-05 -6.42396487995718399e-05)
(-18.879761266803694 3.68018923831219558e-05 -6.64128854298689646e-05)
(-18.7874315181004299 2.40106913657489917e-05 -6.764633834164128e-05)
(-27.3844166700626772 -0.00138034340014205298 0.0037368925823105339)
(-21.999175632571994 0.000158764926096504347 0.000929413436200999393)
(-20.4769517326782911 7.85633608944292361e-05 0.000109934623768955889)
(-19.9793751839992524 7.37050499463768547e-05 2.23469486798688427e-05)
(-19.7133078950165732 6.91935610790188441e-05 -2.59927593495494917e-05)
(-19.6206580810296849 6.19289466402913225e-05 -6.13184580862545417e-05)
(-19.5298825515371917 5.28197314200651159e-05 -6.85879759189738335e-05)
(-19.3942159450794271 5.33342792705974393e-05 -7.07528662947492631e-05)
(-19.2725815996066672 5.2683694841582543e-05 -7.22525613312338536e-05)
(-19.1974545651354731 5.18400095538309574e-05 -7.62722589549084105e-05)
(-19.1575443625120307 5.09897641062189065e-05 -7.88492194226413692e-05)
(-19.0844376901969746 5.05696351682557904e-05 -8.19620782931302922e-05)
(-19.0112230516610445 4.39722671481950232e-05 -7.94987196772013272e-05)
(-30.1331221363552508 -0.000556358660527075163 0.00277676054183647811)
(-24.0548177059869843 0.000396485227146974647 0.00114236304231160927)
(-21.3764083013239308 0.000243483574310064281 6.92983428736081538e-05)
(-20.4354560432319836 0.000195694116744275841 -4.90194976166490783e-05)
(-20.097749796672197 0.000146842204579334106 -7.6930810170690867e-05)
(-19.9795366952830733 0.000127261125471307945 -0.000102605128791836013)
(-19.8535953234934937 0.00015256276129698191 -0.000154351358232025939)
(-19.7116452899027053 0.00013243342202220288 -0.000147259205840791631)
(-19.6716274324570399 8.57037611335024596e-05 -9.98119506546319432e-05)
(-19.6859084297547433 7.86383325514253094e-05 -9.56471912537272659e-05)
(-19.6788392339887324 7.7101301212559824e-05 -0.000101986952877391977)
(-19.4853283642341708 7.45567982350596171e-05 -9.855341883381079e-05)
(-19.3004430454267641 8.20197880279199788e-05 -9.26702799527715822e-05)
(-33.8863764345867651 -0.000111971642837222976 0.000507316205161228561)
(-29.8436527603196566 0.000787064507981996716 0.000764911501346055012)
(-25.1637886061929876 0.00130495530859061075 0.000473773521255753871)
(-22.6862633030826615 0.000521132851988034807 8.60411088312032165e-05)
(-21.9257205212010042 0.000272974345485698202 1.63372491501591217e-05)
(-21.6337906298786145 0.000191489250477577843 -3.7906015927266103e-06)
(-21.409850282592835 0.000216573691939657144 -1.7754364680255679e-05)
(-21.1852946910072717 0.000174527416273189372 -2.3371118957515842e-05)
(-21.0419717538214677 0.000157661640433668602 -3.20901773501586468e-05)
(-20.9225648930638251 0.000138674580206983025 -3.60004924952944929e-05)
(-20.8799254447599552 0.000126289944033441232 -3.88956561164242049e-05)
(-20.6055530867543091 0.000107903415526351663 -3.37831536403089425e-05)
(-20.6568911164982474 7.3789368254073036e-05 -3.98056167913715943e-05)
)
;
    }
    procBoundary3to0
    {
        type            processor;
        value           uniform (0 0 0);
    }
    procBoundary3to1
    {
        type            processor;
        value           uniform (0 0 0);
    }
    procBoundary3to2
    {
        type            processor;
        value           uniform (0 0 0);
    }
}


// ************************************************************************* //
