# Force                   
# CofR                    : (0.000000000000000000e+00 0.000000000000000000e+00 0.000000000000000000e+00)
#
# Time                    	total_x total_y total_z   	pressure_x pressure_y pressure_z	viscous_x viscous_y viscous_z
0.0299999999999999989      5.513252097340111124e-01 -2.223756883790322172e-02 3.627876232834611331e-02 5.512784998304561812e-01 -2.227156340732178164e-02 3.629510483290766115e-02 4.670990355488044139e-05 3.399456941856071081e-05 -1.634250456154657654e-05
0.0599999999999999978      3.772774055242327229e+00 8.276565288038721657e-02 -1.151845425477482504e-01 3.772770244324382904e+00 8.274251411567914993e-02 -1.151849860399552505e-01 3.810917944172229420e-06 2.313876470807306649e-05 4.434922070009968203e-07
0.0899999999999999967      1.450752698624901882e+01 1.313351744745867022e-01 -2.311195313579333110e-01 1.450755383674704646e+01 1.313122717118209160e-01 -2.311127597759714825e-01 -2.685049802803819090e-05 2.290276276577361367e-05 -6.771581961818231912e-06
0.119999999999999996       3.429523759392105831e+01 1.443385474206330121e-01 -4.267796644659103134e-01 3.429528045550704718e+01 1.443162273357162517e-01 -4.267636315399150337e-01 -4.286158598973904095e-05 2.232008491677001298e-05 -1.603292599530615478e-05
