# Moment                  
# CofR                    : (0.000000000000000000e+00 0.000000000000000000e+00 0.000000000000000000e+00)
#
# Time                    	total_x total_y total_z   	pressure_x pressure_y pressure_z	viscous_x viscous_y viscous_z
0.0299999999999999989      8.763862354847284453e-04 -6.586131499031108727e-02 -4.160816111970867814e-02 8.750803483105198347e-04 -6.586287650813726913e-02 -4.161744938775888136e-02 1.305887174208659706e-06 1.561517826177701025e-06 9.288268050202104189e-06
0.0599999999999999978      -6.326576308684800799e-04 -2.908757570362222045e-01 -1.489202410636840945e-01 -6.346338096343732233e-04 -2.908742096961901558e-01 -1.489307485184651059e-01 1.976178765893127393e-06 -1.547340032051715114e-06 1.050745478102009497e-05
0.0899999999999999967      -3.821599973854022340e-03 -1.203106607907392434e+00 -7.611398875186929924e-01 -3.823066625466339276e-03 -1.203113310696597660e+00 -7.611551302161141397e-01 1.466651612316945004e-06 6.702789205175641734e-06 1.524269742113044693e-05
0.119999999999999996       -7.816014753645258648e-03 -2.965546555259675809e+00 -1.975300041980373678e+00 -7.816546197713790389e-03 -2.965560347800005214e+00 -1.975317808861045688e+00 5.314440685320221213e-07 1.379254032936948313e-05 1.776688067198458937e-05
