/*--------------------------------*- C++ -*----------------------------------*\
| =========                 |                                                 |
| \\      /  F ield         | OpenFOAM: The Open Source CFD Toolbox           |
|  \\    /   O peration     | Version:  2206                                  |
|   \\  /    A nd           | Website:  www.openfoam.com                      |
|    \\/     M anipulation  |                                                 |
\*---------------------------------------------------------------------------*/
FoamFile
{
    version     2.0;
    format      ascii;
    arch        "LSB;label=32;scalar=64";
    class       volScalarField;
    location    "0.570000000000000284";
    object      alpha.water;
}
// * * * * * * * * * * * * * * * * * * * * * * * * * * * * * * * * * * * * * //

dimensions      [0 0 0 0 0 0 0];

internalField   nonuniform List<scalar> 
7236
(
0.770945021729618318
0.784704278393884236
0.948321010418437971
0.986433026836240123
0.988856924812530513
0.991257967272729523
0.993234740242595837
0.99449133690718905
0.995293451988820688
0.995622023783971688
0.995609045393225811
0.99574832623897469
0.995431597519560452
0.995010107705007529
0.994569222469197767
0.994055256559735367
0.993398889876135893
0.992674047030010831
0.991734410256798649
0.990596048769554982
0.989305467028785523
0.987752737880604581
0.985877464737774045
0.983959191510363596
0.981994123067645663
0.979404077974007636
0.976001920365236142
0.971769150179431995
0.966551293369079856
0.960767355689877145
0.954201726985986376
0.945848528353410489
0.937030500591611526
0.928495566708731235
0.922072411709387807
0.914002202965972899
0.904300337177344593
0.893567038215559828
0.143056601189166355
0.290530474727525467
0.45726692678530878
0.590240114217356449
0.647685180963103457
0.69851398217409999
0.733768868343481429
0.816683122211620871
0.864405720476027373
0.903432628518660241
0.929343624535918678
0.950458387867635923
0.964598538612311041
0.972680453307098736
0.971682388162046773
0.969722017396646541
0.962964413957544618
0.954682471833631308
0.953891857202603832
0.947259299692413959
0.94799299730333253
0.921105137375237693
0.941975159045754129
0.943104029089785412
0.957796803574758937
0.938811232974890886
0.869037245161665806
0.834621806209811967
0.875249942701568306
0.925868489163247932
0.861062767784347982
0.686982679488492121
0.394129330485345208
0.738703486565824408
0.723327692266273026
0.473468519001173871
0.822778590908847196
0.879150498281106252
0.238171689489288768
0.14621624126567509
0.134373922445167326
0.140920997189523445
0.189200257270541711
0.282032419259339362
0.38499850219206011
0.350883012502689939
0.455657624989585952
0.505477901757075077
0.554197129920616649
0.62333954053676921
0.649135930351382506
0.627622439772945961
0.616732303288440198
0.616446463612215334
0.619044226905248296
0.521539610824398703
0.458287917384365751
0.465676327342487872
0.572709997147411776
0.373611095995312059
0.221434554756340274
0.232232625911738155
0.393299957839795544
0.136055197343594309
0.121626397931457256
0.0492103339611602714
0.0842187709059041972
-0.0113940942340091059
-0.00973555178082638299
-0.00829779027789842583
-0.005951860961732937
-0.00279171932733017231
-0.00110689376252430917
0.0159903077073480469
0.730154438239289272
0.825503938470982135
0.00333603804153058663
0.0201567334143458107
0.0290019834952624719
0.0276084283972195949
0.0217840434208852324
0.0198278183203056263
0.0203932044391185487
0.0216211616436682783
0.0237978850349832571
0.0255533890545575348
0.0258029747604337605
0.0250310960027528354
0.0241686960474307433
0.0213997032938613337
0.0181185376626912323
0.0148981732412108037
0.012542808671958899
0.0102186788102605758
0.00845362333532044541
0.00753532823397463219
0.00690259241436076958
0.00561353741475575842
0.0044049515529552526
0.00265900786412889877
0.00173486373826289213
0.000773003518522292999
5.47431722826583009e-05
-0.000384273738988331003
-0.000653250702506524708
-0.000827671846230545148
-0.000686393507726567481
-0.000452859311637082143
-0.000117032839075927785
2.71917249600353399e-05
0.000130048185036663115
-0.00164832461260243715
0.136903772539602786
0.732629519600219381
0.00458286203187510503
0.00839030691368215266
0.0155925057712353807
0.0118371748182930208
0.00819316310862805257
0.00661996397177761972
0.00629463548164409074
0.0070347399397105272
0.00836194140054257254
0.00979089035159346789
0.0105564709028200168
0.0104275328077933025
0.00997635221637474014
0.00876961092053539157
0.0072384051426127383
0.00580461241094293832
0.00459209116271604937
0.00378105681170154678
0.00310514221080699683
0.00269258018391749059
0.00253995084500759343
0.00230080999569545188
0.00172165137085093616
0.00118208465658143497
0.000677497840781212334
0.000474496556782538943
0.000263228905037965586
0.000124528989615302056
6.72096011420165226e-05
4.9837126460213819e-05
3.36601832555652767e-05
4.51814184123837536e-05
0.000108481406870835072
6.48638737171827832e-05
8.33362228931404169e-05
-0.00023780095875294198
0.0146025641278055354
0.652169732978444827
0.00321716203162755905
0.00664078710505401886
0.00767148922503549727
0.00523287041687037473
0.00384104376161791689
0.00330569370189008746
0.00253895607184511773
0.00236078763874595591
0.00238696094992939516
0.00290268657709019228
0.00402322177674191254
0.00470582071557537618
0.00469011841228739526
0.00412318213376595705
0.00323094933872402918
0.00243681553933077855
0.00178826158415436656
0.00129296725971980329
0.00112355158478638444
0.0011355874629695045
0.00114507014683312702
0.00115742276998826929
0.000848396422190209293
0.000430006530839410002
0.000258119994348575659
0.00014742866178656233
9.49812571804797975e-05
5.62192101554321918e-05
4.18347243447570735e-05
5.76117202906218805e-05
4.12998247390576048e-05
5.70475155443412376e-05
0.000119151690204507166
4.69400460227210154e-05
5.48349509509277885e-05
-0.000103998046685107998
-0.000416382093070733275
0.507892733843543276
0.00108495761906770433
0.00432020695784754091
0.00323878977576699638
0.00289410863221902176
0.00402701128976705458
0.00359573848735443135
0.00282120033342259796
0.0020468153675827095
0.00161025479437934072
0.00171721163807256371
0.00194268442259735714
0.00227412295306083116
0.00309048158312477846
0.00243313274853424735
0.00179409219445766151
0.00125702489451474291
0.000832950355959793162
0.000486922741132659188
0.000403289094196113292
0.000603655071819952254
0.00108527115282416767
0.00105207226052384493
0.000527494824367973178
0.000144850562223358117
8.14329238019367645e-05
5.13887830971104082e-05
3.68947856278587982e-05
2.88253733422777669e-05
3.43817655761151928e-05
2.72135456542085423e-05
2.94295517300233818e-05
2.59642346673591843e-05
2.73762053126394518e-05
2.8238852861460165e-05
3.57825834258657148e-05
-3.07131924789380299e-05
0.0232188628364450589
0.420638122253966573
0.000304004271665077666
0.00191220256429645223
0.00148399471704978715
0.00386228980082322423
0.00423678509766076041
0.00330673957348163019
0.00283873813279681428
0.00262089141041026846
0.00200806340478752688
0.00173412331477978184
0.00151038304774086867
0.00223883568599307376
0.00376253878678985479
0.00275582444457438298
0.0011168667653434002
0.000850099826606489847
0.000640299378318813549
0.00027459894804223665
0.000180812605344212341
0.000349904608223824986
0.00067679761313836715
0.00049462584800674897
0.000314531362965361761
5.70014619925627008e-05
2.93148315319852266e-05
2.73986502494638803e-05
2.54590419369043832e-05
1.08329697495042384e-05
8.7764809650426058e-06
1.24836030148021397e-05
2.20774127100987948e-05
2.32548330160841561e-05
2.05929724935392924e-05
2.39744277745894677e-05
3.66726456560278663e-05
0.000216391331626672109
0.0365533245250694722
0.541141914082299391
-0.000682988051758176562
0.000331965485008167346
0.00113251031548460414
0.00485987585536190418
0.00741985222222065789
0.00606663219302271736
0.00388080147947137072
0.00246288067870402416
0.00196871350992294282
0.00150510063374357183
0.00116749438176815901
0.00138163273272269983
0.00230581720605727795
0.0017380327747160381
0.000902642790340473563
0.000362269003858667804
0.00021693775098519932
0.000124324078507248538
7.84007322356076054e-05
0.000114228205553048179
0.000190176758308276649
0.000219642933292674841
0.00018464474434960065
5.32172620196716818e-05
1.96723779266033124e-05
9.87833161069421215e-06
4.56919918892109098e-06
3.63946197236052746e-06
5.19961617102214616e-06
1.6940532390059298e-05
4.31207424900311624e-05
8.75225604514881766e-05
3.0643559905625503e-05
2.58671740519434595e-05
3.79696875300046912e-05
0.000131028486864817064
0.0490109186247337791
0.532458496020590588
-0.000505720521875552731
-3.99167690567548181e-05
0.00220796763836709738
0.0141076697074321265
0.0128019929886252805
0.0104610865471309617
0.00544004873002469289
0.00215645924381355604
0.001642352769711982
0.00121642899144555313
0.000865603426948286241
0.000707540856669797808
0.00060376390788502432
0.000607080632385559901
0.000353084319926580815
0.000212297460626140682
0.000121999421684251477
6.94238910751123948e-05
3.83215774575211259e-05
2.81213423235659348e-05
2.13116540282202092e-05
1.82522448078914716e-05
-0.00020152593817907675
1.07685249681747821e-05
0.0121291564890131445
0.0173942495468890033
0.0151481192424650444
0.0119010251290522888
0.00292314698225807929
0.00168934160674474973
0.00119448746571852032
0.000853533225193129188
0.000672980535872494921
0.000550653737250864322
0.000456956670076340125
0.00035717091600523794
0.000221396348119145278
0.00012508176776077892
6.88677662998795113e-05
3.82812197494776968e-05
1.97542780981859295e-05
1.22717103344345814e-05
8.5488221105206747e-06
5.56348134764842274e-06
-2.39213240143431882e-05
0.00170639564063004498
0.0244725103270886576
0.0209484550509973222
0.0173717136510218723
0.00301249103294707861
0.00176101089786212658
0.00123459285376429826
0.000929538495839768919
0.000686555918012556965
0.000541105882669935681
0.000434803243905212424
0.000348994579838699664
0.000246525147309240153
0.000144737466977444893
7.64694130100177763e-05
3.83007452284419539e-05
1.97373234784883371e-05
1.03923669558617488e-05
5.5728154971894525e-06
3.62515964849557673e-06
2.41710013841476279e-06
1.85208678766980542e-05
0.000656526909385814423
0.0291119050147278548
0.0246214665789540078
0.00594065235675268581
0.00192063315347224635
0.00124861188445801784
0.000827519153228901223
0.000664587888221811326
0.000521335685625535453
0.00041575923318295095
0.000327130968893122546
0.000253281017332445866
0.000165480426412311407
9.24758750938776356e-05
4.62408012616805246e-05
2.1457919551243352e-05
1.0317609485082488e-05
5.35230752992300342e-06
2.62813460758264532e-06
1.6268531363515753e-06
1.12570375321864973e-06
0.000375318445754084713
0.000308817974102314078
0.000241082284021638612
0.000177808046028795307
0.000109337168598766716
5.8136587212466288e-05
2.76523365700934394e-05
1.20174658174994417e-05
5.32880610285915317e-06
2.63147554162465909e-06
0.000139576282284845543
0.000102956376128452435
6.3656553256606952e-05
3.42134119626630922e-05
1.63386373483991364e-05
6.76531416251595971e-06
2.68978064639682006e-06
1.13762864979180489e-06
2.21823076628340507e-05
1.23432958014355024e-05
6.05706484064320668e-06
2.6130301352325825e-06
0.382927809203352454
0.68534159550054341
0.796000454983835537
0.844530116276740017
0.868430776733324805
0.89085548017016547
0.927715677290487317
0.961569982754582719
0.979567661925519362
0.983651964974364246
0.98666686272207782
0.988582593286623013
0.9895487396822229
0.990045524453278425
0.990018138653061097
0.989746051583322517
0.989132634486476592
0.988354760677022437
0.987392572983868178
0.986386706103988598
0.984926848162684498
0.98308364637010226
0.98103103852188589
0.979008498803694116
0.976375715008229506
0.97311821093232731
0.969342257692278775
0.964882812010736224
0.959317035209375168
0.952738930466699552
0.944247483826133771
0.934910346755743804
0.927059801975266939
0.918757500014577566
0.912504124307821241
0.904497967143942816
0.893825503202869798
0.882306246417472906
0.00369137633514144423
0.0107857700774481678
0.0412377512085626771
0.168830065796286427
0.302125853479810136
0.410268204871126363
0.53163452621506524
0.665717173634962522
0.73115615889160912
0.780894957919531896
0.818799977740191087
0.825019723947761685
0.839377576085813093
0.864629525939329513
0.879879797235350702
0.90419873882910573
0.890580313923057476
0.921156866718229606
0.909021562169537889
0.915927295828760202
0.904461902686035546
0.891888541256129375
0.873028283305740449
0.92035196079485504
0.898835436144213684
0.772098007389325103
0.74766304036764919
0.779208077280823863
0.843958738329234404
0.728099050386068258
0.693928644075354373
0.681978904525690766
0.557539247115971248
0.654085910852035379
0.534175267439192192
0.36196800604760293
0.852674391705285251
0.866949735882512673
0.000672349814788187478
0.00212098948355793045
0.0192705103489909553
0.0303550384246550203
0.0276539122644284055
0.0252474600027056788
0.0248161988510699066
0.0265793849022006069
0.0299322973111889115
0.0328123643247385036
0.0412153048741736375
0.0768581713482868051
0.11330654247966318
0.122433265295308277
0.189906661972622459
0.20507151945648644
0.157604025676783915
0.156373417592378744
0.12577337632858282
0.113184282333638961
0.0207351552425449615
0.017145287513484108
0.0481528707379005605
0.0581701616991524006
-0.00808781113417078937
-0.00978495631783021097
-0.0122328574457218082
-0.00924698803669378455
-0.00954007380705304726
-0.00549659479170351399
-0.00436707569400205699
-0.00457788189247577536
-0.00340504410931553089
-0.00194401662091497592
-0.000547151142705408749
0.00918886200121686245
0.699609065761915172
0.808984504144029892
0.000330054983524775654
0.00536442266928495795
0.0143197354943168827
0.0123566653010537212
0.00901768184575804307
0.0070442290904456752
0.00599965490063755248
0.00663566760737139411
0.00826680888895987842
0.0103969632053013024
0.0116431419743293837
0.0124879068472257045
0.0130026493491531142
0.0123669922941470906
0.0104375458710011908
0.00864866850101260465
0.00684291440841916943
0.00539757818640759605
0.00445262819001108513
0.00389660139971674622
0.00313176892325913196
0.00268596189287457522
0.00218945078746965319
0.00138046334482223821
4.28265892489488285e-06
-0.000427036989225748186
-0.000689968181007531234
-0.000837594219850279357
-0.000589895199635078436
-0.000623970146228469387
-0.000332489886914370499
-0.000110693989198740124
1.10956582570178241e-06
7.02255706410159119e-05
0.000155940733743314616
-0.000756535834035251906
0.0800511119327864673
0.712824605289468893
-0.000540512540226984178
0.00385566054642941984
0.00750681944841585617
0.00524824198771077673
0.00393360937529190369
0.00282367735175409213
0.00228706038212698895
0.0020024725466733298
0.00239417504227699236
0.0032073208815786799
0.00429594138422737491
0.00481764432118386276
0.00523425179766887939
0.00548976190880145695
0.00472335618983526009
0.00377141687152296066
0.00296482477735081525
0.00226774623951125302
0.00176818152931161468
0.00154271041431298548
0.00149140420115544321
0.00151344034524201858
0.00151059375761678069
0.00123880478612820163
0.000669884995151879452
0.000405615964464335448
0.000246328344238272521
0.000170082636636067244
0.000114003572754218266
9.02688085866043809e-05
9.67499286511790449e-05
0.000125001947358345056
0.000108367249615552106
8.72577112183343023e-05
0.000123426981246743195
-0.000324821197446034931
-0.00464418035679258802
0.617104931965751113
-0.000689667906599506549
0.000582967390339046883
0.00276747832896384605
0.00189563444386602574
0.00166605153019498079
0.00200950118637428614
0.00186167345783147531
0.00147824117972636827
0.00102350454283522117
0.00103352882723714698
0.00153201023691627684
0.00215262803893040682
0.00244246710539111579
0.003113694381125914
0.00228502611955464082
0.00172457390528273882
0.00136760505304437579
0.00100198449866841736
0.00075649632801497277
0.000572032455559287763
0.000696753596138091516
0.00101978571615285842
0.00115328880026317054
0.000928137838175170215
0.00046728798782778516
0.000231446820901161452
0.000148947564047191653
0.000136410566559694969
9.63178332759292207e-05
8.22735598268698419e-05
9.26786879782810568e-05
0.000128453355709066638
0.000119551079147751945
6.14975598280072591e-05
8.10454245457881671e-05
-0.000210607885760362245
0.00221603356442822341
0.444219301990162574
-0.00055764366539404241
0.000545049153303278741
0.000867271330405855749
0.000899981222760080782
0.00239251511005781877
0.00286609368639993353
0.00217288956287720091
0.00181406367873694586
0.00166233107447125443
0.00134974509088771713
0.00112161900951731849
0.00114767554161649397
0.00188591158592334206
0.00306219358873213894
0.00205148305518149327
0.000933287509177240611
0.000701095733965404941
0.000640919626558354022
0.000526477620870420852
0.000312260347444648758
0.000341408883841783257
0.000864177588711122755
0.00105500822043904383
0.000481364934275237599
0.000249531482126302199
0.000108798151462424035
9.45099261730774395e-05
8.66498913970817483e-05
7.23812213744040481e-05
2.28225110621110428e-05
3.21694932847838323e-05
2.93959766736668265e-05
2.9182210737280734e-05
3.53520885054939117e-05
4.95665639633392779e-05
0.000130701756262580277
0.0185601123112267147
0.482111115402529433
-0.000128932909342219096
0.000153048939030798407
0.000374767915232023874
0.00155596896776935448
0.00359621633139609737
0.00455476262248520614
0.00358102750456869897
0.00237789166366730777
0.00182285961384099412
0.00145159558704286459
0.00106426167876948912
0.000871096718670880642
0.00121546798964119844
0.00109089642690103107
0.00153808270328449452
0.000906699702067909519
0.000298422138658380361
0.000176277449154971184
0.000109133742567085648
8.95752390953209027e-05
0.000205678883700559118
0.000425271926802163241
0.000493652104016326608
0.000408052181279573061
0.000176070931621522453
9.65982056366071202e-05
4.23489872489826328e-05
1.41513744917257976e-05
1.16360944268000889e-05
1.55086998495134934e-05
2.27419828441152957e-05
4.08624023410050248e-05
3.09978671534154001e-05
3.5985120812631331e-05
4.55372901883521427e-05
0.000404631763492953236
0.0355454591499881206
0.532449271951105585
5.42050110259922871e-05
6.54331419090931548e-05
9.79708824471683964e-05
0.00120891607677568822
0.00960441437838614742
0.00975325522425614204
0.00780946637864796383
0.00455749896470200675
0.00145944716914144
0.00114369994447118635
0.00084702426924189206
0.000664704385526789865
0.000542086520766467059
0.000464188024310493975
0.000414689053897091963
0.000264235096945385347
0.000164002088348402195
9.56120936644803791e-05
5.34766181987436482e-05
3.88623147056379006e-05
5.86813660410867805e-05
8.83794860157187747e-05
8.646342426156917e-05
6.28761242464839228e-05
2.3830864860759598e-05
1.14289210114890693e-05
7.39790359817772579e-06
5.24834525489001759e-06
7.91752135544115135e-06
1.63247212159057714e-05
8.79537290529171744e-05
0.000223045333804331781
7.51501829894710935e-05
6.15215154025419031e-05
-1.3223648996336949e-05
0.000270777678421397063
0.0458913441613639783
0.521318111561397624
4.91474042109780795e-05
4.85858232431350489e-05
7.33162125692818118e-05
0.0136691249001070075
0.0136829840799696095
0.0114593549326562384
0.00936038686488896432
0.00276060538200028575
0.00117328804937586991
0.000873129930130543165
0.000651202606326305817
0.000517073438189933829
0.000412843808901078042
0.000331104148136398256
0.000252172465403575864
0.000160397156872496847
9.35337557329806173e-05
5.27063815630480912e-05
2.81430847005877519e-05
1.80874646144089049e-05
1.71904517997930898e-05
1.52864548914654607e-05
1.15607124991747224e-05
4.61889350566821268e-05
4.80416065720831124e-05
0.00147952431202617299
0.018336582801064049
0.0162979027730372483
0.0135178876395682379
0.00288787897927369423
0.00136401644734624817
0.00095730047643878091
0.00069836318299315624
0.000536855241237068443
0.00042567235015490625
0.000332420311215332631
0.000248199119208212366
0.000164511565003923799
9.58531987960618251e-05
5.20217712666272739e-05
2.78998547485018815e-05
1.54057045975676275e-05
8.92703776178751142e-06
7.76409131241907437e-06
6.99374394827056374e-06
4.54350519954818552e-05
9.01386172974439519e-06
0.0156626481956145362
0.0219944278983875488
0.0181961403979868444
0.00514600702758613582
0.0015352457250412681
0.000984878026314429814
0.000673536740615762698
0.000525884798782077383
0.000411541457239191898
0.000324549577145841575
0.000250899105037334798
0.000177494510078262551
0.000108028928939537112
5.93387705191134724e-05
2.98771622378178511e-05
1.52132184013961383e-05
8.48105206020974415e-06
4.58042868217594725e-06
3.73860132652955571e-06
3.44430349574263515e-06
4.23710411512969609e-05
0.00145198062661267154
0.029028631048054105
0.0262620004588690718
0.0157804571214455631
0.0018766694002299467
0.000998313271727646698
0.000589323331892485495
0.000441142506289217797
0.000367823323195145483
0.000298808348558194368
0.000234834815904502009
0.000177540202234715612
0.000119003728511975177
6.96615340615374485e-05
3.62826914471444368e-05
1.71496632460933627e-05
8.37239813255297454e-06
4.57989377457567794e-06
2.44013890000933199e-06
1.9171695406481641e-06
1.79539017502415763e-06
0.000245322940633290788
0.000209402261533844683
0.000164681037379564251
0.00012270221354709291
7.95096360649876139e-05
4.44432191205728567e-05
2.20477573130444359e-05
9.97005313303784181e-06
4.60969077723885481e-06
2.43852682911046098e-06
9.06849313640966325e-05
6.69613353346606044e-05
4.51499935130977029e-05
2.58458039502094315e-05
1.3075454660546968e-05
5.83760498037996509e-06
2.43761222584657677e-06
1.16569759742706044e-06
1.54012969214355727e-05
9.2129162751045681e-06
4.85515012289011371e-06
2.24832476175384753e-06
0.0220593619486276066
0.161053571946595309
0.369575985170663257
0.548074269590485552
0.743102002757126456
0.808119510116271922
0.846558647680223486
0.861180545144926146
0.886398674763837602
0.907852750435186318
0.929245703659139721
0.953652848813655307
0.973316615909867622
0.979084472501785985
0.98071077176566801
0.981364987986883763
0.981612475074284396
0.981306600198833534
0.980824449663635578
0.979865396172393766
0.97840188209725576
0.976689378909959882
0.974755412702441371
0.97249869187480531
0.969059375212385055
0.965496064953814903
0.96138736614188991
0.956423572401678856
0.950488119348330551
0.943433942219405575
0.934054865811773549
0.924257395448703223
0.916100776563761543
0.907272443456965116
0.900751650484332145
0.893130459333393634
0.882354529354159034
0.868985229818411309
0.00490470831761983736
0.00966798415744723506
0.0273379331940571471
0.033837978377677394
0.0351743860800627639
0.0370950145268697448
0.0478801735322845617
0.130956280094845612
0.217297533715047009
0.350340109658230703
0.491180395041597384
0.622627562136820023
0.751309307933185178
0.808957352832763932
0.828771308486992542
0.803449569336236014
0.840541943931635283
0.906854383937338526
0.815344618498557328
0.809575099483376581
0.794204528319644165
0.79082865143989578
0.78801995566720362
0.86971174739678081
0.719647497114953794
0.682213663503234091
0.729345023983216767
0.731099729214041427
0.597609598882791415
0.649023875168813991
0.711083861376250681
0.568754221546002969
0.680854188920096859
0.419696989350664573
0.318766686765356466
0.400655368953053204
0.858391469703869481
0.852021889456695658
0.000523159715944535898
0.000354419242076347326
0.00909356979600653946
0.0147001480548482975
0.0125424102370896191
0.0107231485250817195
0.00991897462293546764
0.0103994432370242851
0.0106276631602992538
0.0119763441647638257
0.0135912797337920058
0.0146831566008133914
0.0148411812023681571
0.0142394317788676564
0.0121088691621636518
0.00899667931731998674
0.00671916028123017723
0.00519755297406156429
0.00308866167768253198
0.00191486522804098711
0.000331509965153796091
-0.000227344420472092891
-0.000810789082515046139
-0.000766658253337080403
-0.00156572996356043465
-0.00262979190929976767
-0.00270311895074604137
-0.00368433446868823931
-0.00259715038823781462
-0.00174718282592398058
-0.00188740476105563179
-0.0019152871951274783
-0.00146174811500927025
-0.000327994061265823162
-9.32433464383260126e-05
0.00788013299301238042
0.650918217258351084
0.789508065423708105
0.00045687762641411357
0.000152627388248950527
0.00493547106807460181
0.00580299224461221057
0.00411120350791624629
0.00269380505457389452
0.00206788185488772282
0.00191078044147842798
0.00238288259685854589
0.00304491736890075268
0.00417829612592890767
0.00488777301787308299
0.00541477279352347175
0.00573583649615946444
0.00520100912284506174
0.00412401788240799108
0.00302325036698312087
0.00225238639143675659
0.00178237044301474937
0.00124728785540663759
0.00101323690563237664
0.00081135806666765304
0.000794821209679948343
0.000602505098929787463
0.000436798832600870696
0.000140266788200143718
-0.000121386779715469185
-0.000158870525695150797
-0.000248770206767843995
-9.73186247502636132e-05
-1.34752588639651914e-05
4.46754939416266564e-05
0.000150079676147660171
0.000160121661837609938
0.000262539239363991845
-0.00102069339636721946
0.0175101286578972955
0.685004120439102748
0.000277232031476843136
0.000375484958627237309
0.00276275711349714724
0.00184991534160367931
0.00161199349646501118
0.0015493631760162452
0.00122212544455898805
0.00106510928674530313
0.000991190887735240219
0.00105336592683343347
0.00145172400145845504
0.00211069310852063027
0.00226171643571756748
0.0031881186049941908
0.0028360785727354473
0.00206615970212717121
0.00159685386244869327
0.00113340883209598329
0.000973922172558555556
0.000876487525597814633
0.000751617051936134426
0.000818461393903089219
0.000995718862038264159
0.000929643474623925411
0.000782537401245119845
0.000581772976645699574
0.000351418426807972471
0.000249757747486814932
0.000194797719238268144
0.000235092583339044608
0.000219585664683182252
0.000179164191135128579
0.0001139722083843947
0.000120369005293645729
0.000177703213947567158
-0.000447110500305250916
0.0195972209689129172
0.561261594350777049
0.000141042828883720852
0.000157126369320459739
0.000532949524449454468
0.000511919681036451194
0.000567825921555169515
0.00102382357331063691
0.00143631895106560367
0.0011455772965727651
0.000918068769015087469
0.000870651169489171676
0.000888753020379784387
0.00108903746452171401
0.00129203836256628333
0.00212631965423211141
0.00267390761521823757
0.00120014790760610782
0.000862343773194301343
0.000577058456205374127
0.000485048142026724008
0.000486712158655821592
0.000544511885696029665
0.000702496537647858028
0.00103063747557612432
0.00123506470830999932
0.00109519275371993937
0.000647785367190623724
0.000281053520078866333
0.00018269631536997307
0.000173313521584596883
0.0001720864458058992
0.000223408925827327373
0.000113097310783530033
6.36552625229017187e-05
8.96179897804659406e-05
0.000105400495856492924
0.000361765757485476745
0.00330015111336111593
0.550891706923349878
7.70188873660577225e-05
-0.00011835921947532776
0.000248681138679865659
0.000411550553714457696
0.000935804062072400104
0.00203156386906572055
0.00184148576324612442
0.00147864621968465232
0.00118244683561479413
0.00106175391755115173
0.000897052230889432427
0.000753019154513761115
0.000748510973037675581
0.00114822236705036207
0.00106679706362338474
0.00142637817145627459
0.000959710616718215895
0.000452048744237872426
0.000190987612837448858
0.00011828465430603109
0.000141695479564108698
0.000331078793268856694
0.000556922601859020038
0.000792606118246501736
0.000588183961591654653
0.00040462952065477715
0.000259150339125689536
0.000164198313052028963
5.44064076805930336e-05
2.33424917268728645e-05
3.30651430160883207e-05
3.267202654761279e-05
3.69667076474430151e-05
5.73339209634044641e-05
9.46827390996771438e-05
0.00079534261264500492
0.0121593098529500128
0.535313383795780862
5.7973185974479254e-05
7.81583243163520597e-05
0.00014747959883472725
0.000351356559038665554
0.00158066683054944464
0.00464278435417087541
0.00504163006217319722
0.00439807253060337314
0.00199177851183293675
0.00106851592250664326
0.000852744969504821374
0.000671479422159570972
0.000550370373223100758
0.000480327590944144107
0.000466527545393023604
0.000420173732913064145
0.000237625129006090684
0.00011970410674929074
7.42013505709009932e-05
5.24961117608869696e-05
5.2412217608114212e-05
0.000125869213942870009
0.000265027118859548867
0.00029060254506705198
0.000243731239472399336
0.000113252045877111659
4.3119719958108984e-05
2.41856751242859739e-05
1.62113834776925371e-05
2.0309957502183899e-05
2.32582600899861082e-05
7.94720993150840573e-05
5.13059986044594156e-05
0.000114179352129855879
8.88032965428761347e-05
0.00109121557072054481
0.0230433095295062909
0.470442674209494816
4.97694582729589594e-05
5.30743266947386448e-05
0.000106741847406291879
-7.35186349496515825e-05
0.0086860436706045225
0.0102183297273887308
0.00857954902264554745
0.00707306949081317783
0.00293070972914883732
0.00085433804661398465
0.000640628761219643817
0.000522001728041779985
0.000419314110814544556
0.000334673415786636416
0.000257669870815011763
0.000179100592944553933
0.000113130799911536663
6.76434190777395816e-05
3.91857772917459879e-05
2.62428386981278784e-05
2.51598425411313732e-05
2.99027681956274906e-05
3.010389709897993e-05
2.59540061841821091e-05
1.98858607178875509e-05
1.5919765221510436e-05
1.08866771561233077e-05
7.91979393505234631e-06
1.34572820951670737e-05
1.89307537333370258e-05
0.000248441955294334484
0.000131901209907840672
0.000227736331595788184
0.000100223604344181258
0.000141181723161296784
0.000509679927928015971
0.0565316251738391812
0.507159705474089617
4.61958074953882711e-05
4.52870672732883146e-05
6.38869114045999883e-05
0.00549723564820462935
0.0137495923269174217
0.0122408479341744973
0.0101641972433468529
0.00528226156402054892
0.00134855423981399946
0.000716684141143586495
0.000506893863364246428
0.000398362699886175198
0.000319606192108326482
0.00024464365236678636
0.000174935479834264639
0.000111124951704763704
6.64810629699150244e-05
3.86796147248561964e-05
2.2045599013463482e-05
1.44255229985627026e-05
1.38011251170544789e-05
1.62441324936337459e-05
1.71729094670557264e-05