/*--------------------------------*- C++ -*----------------------------------*\
| =========                 |                                                 |
| \\      /  F ield         | OpenFOAM: The Open Source CFD Toolbox           |
|  \\    /   O peration     | Version:  2206                                  |
|   \\  /    A nd           | Website:  www.openfoam.com                      |
|    \\/     M anipulation  |                                                 |
\*---------------------------------------------------------------------------*/
FoamFile
{
    version     2.0;
    format      ascii;
    arch        "LSB;label=32;scalar=64";
    class       volScalarField;
    location    "0.570000000000000284";
    object      rAU;
}
// * * * * * * * * * * * * * * * * * * * * * * * * * * * * * * * * * * * * * //

dimensions      [-1 3 1 0 0 0 0];

internalField   nonuniform List<scalar> 
7236
(
2.04901047829675457e-05
1.30772643551335158e-05
1.0207743933340224e-05
9.10537670403960671e-06
8.47949596298471079e-06
8.03698176328037839e-06
7.71098762265223627e-06
7.45905437571603132e-06
7.25647285007106298e-06
7.08882780416787289e-06
6.94746819724562316e-06
6.82762532653573843e-06
6.72571205117182447e-06
6.63815078796107039e-06
6.56352428145505089e-06
6.4993942468842419e-06
6.44547164424097622e-06
6.40102982494442985e-06
6.36432435911181105e-06
6.3340861036500361e-06
6.30261250862323463e-06
6.27886797289068691e-06
6.26315114552500006e-06
6.25447531246788344e-06
6.2390638628192923e-06
6.23616689512222218e-06
6.24057809052930321e-06
6.25054062529005204e-06
6.26656677860212167e-06
6.28760127946689624e-06
6.32465519044525733e-06
6.37996627603155279e-06
6.4566923776578576e-06
6.54796361109945952e-06
6.73002785292858503e-06
7.00888072378333987e-06
8.0951579399512646e-06
1.2826370079310303e-05
3.35811019510438892e-05
1.93121940295883429e-05
1.50641845340388895e-05
1.25002073525803037e-05
1.09870640135393796e-05
1.00046017575141281e-05
9.15665132382995302e-06
8.47213982247834448e-06
7.99216149765982161e-06
7.59583764245455276e-06
7.30985740259803019e-06
7.07841077187681639e-06
6.90378301340769472e-06
6.77831749573906294e-06
6.70658514271849821e-06
6.65896988218689858e-06
6.62876163339845278e-06
6.62300007868738292e-06
6.61097681135194786e-06
6.61994396130001615e-06
6.58600018392184761e-06
6.62984151934945189e-06
6.59342590921668216e-06
6.61516790196029748e-06
6.77779215387433912e-06
7.04247181031344363e-06
7.19668009402076931e-06
7.09283520870290257e-06
7.06820331997244826e-06
7.31607501342242467e-06
8.37049021989903477e-06
9.91086592907156732e-06
9.64134073029226413e-06
8.8922443566748063e-06
1.06128881614787559e-05
1.08324024245387716e-05
7.47602311100806519e-06
8.16798642380221216e-06
4.70703186865573968e-05
3.78896361603172439e-05
3.69695225993705957e-05
3.63986356403294878e-05
3.32215608602686615e-05
2.80488349182086425e-05
2.35837293767422116e-05
2.05757626926682601e-05
1.79654248188954866e-05
1.62625963713188457e-05
1.42751427723467554e-05
1.2884020625520874e-05
1.21284497007857443e-05
1.18036640511604258e-05
1.16307619889178714e-05
1.17803774976268864e-05
1.23786963677902875e-05
1.35563231831553577e-05
1.41420895364147961e-05
1.49269168318260104e-05
1.63905515665729332e-05
1.98680281553976946e-05
2.01559258347069675e-05
2.20530537666748862e-05
2.66307911371355977e-05
3.77010178670165858e-05
3.97044373410314092e-05
4.85933263927413735e-05
5.52467545481065517e-05
8.02399269280726026e-05
9.75121949363359238e-05
0.000122257286563349403
0.000153542756248268138
0.000187024526876058072
0.000216829806462768209
5.19317666832475023e-05
1.14077278336907856e-05
7.21245629375180584e-06
0.000130953865871417268
7.27974534720541791e-05
6.67590898521709262e-05
6.91749985223591017e-05
7.41464173654831754e-05
7.63081756382709105e-05
7.7309391037463804e-05
7.66728612067195723e-05
7.63885738303612943e-05
7.56511093178960148e-05
7.40627723582981912e-05
7.35579352454768617e-05
7.42676967152254282e-05
7.69489143755501797e-05
8.12719767886156919e-05
8.78019118452166787e-05
9.74091024510459805e-05
0.000111683898127747216
0.000127128511979779948
0.00014346385974145677
0.0001608713564008731
0.000186392249427114014
0.000210836685194454234
0.000246428133995512093
0.000292274237134668808
0.000371816163005607024
0.000453194503759836497
0.000589399523350294849
0.000809371211723408472
0.00122187149312980806
0.00163324923277573405
0.00220497625741572891
0.00289204104524000373
0.0036470486718670524
0.00445514727357477699
0.000235455750736483126
2.88206572645834118e-05
7.17102325675700363e-06
0.00016497706014078679
0.000106637038247721331
0.000111428027694238793
0.000138670700007270355
0.000172904465202795837
0.000199961395310343588
0.000216343741227053801
0.000222375332318351817
0.000222313022590757062
0.000219671487674155132
0.000216869673741330101
0.000217762111712675602
0.000224354979686690212
0.000244279986258720821
0.000275664170879751059
0.00031809787097488118
0.000375317336269445406
0.000448136023492624912
0.000533271351269958742
0.000621550508358072228
0.000700846338116454517
0.000796073150655339555
0.000934490783874564386
0.00112885243537480854
0.00137367301482453218
0.00175539771330747809
0.00228531077077437058
0.00302399112840978862
0.00394576970361761471
0.0050691856060775262
0.00620501873694447991
0.007121262496977733
0.00797685443993179782
0.0091396657242028799
0.00869975740144014048
0.00071439440200835719
5.2123014418424993e-05
7.63395705625864676e-06
0.000211609941555565827
0.000170128963044411519
0.00021325337750000253
0.000309021379089195888
0.000423857393510792288
0.000529616521213126918
0.000616583970799524077
0.000637077863699362355
0.000605293030699211422
0.000556904269531017723
0.000522224998482224696
0.000518241471561785836
0.000538178206867695116
0.000590562177245217731
0.000700267474406837892
0.000856979402567276398
0.00107410799695944244
0.00134765480222595125
0.00165166478002901117
0.00192653458649484264
0.002091235474619538
0.00219563873938385034
0.00247565117017099767
0.00291756754179525951
0.00350173208108108111
0.00436664743326941641
0.00562021882317016632
0.00716399912624842393
0.00879406708542643765
0.0102219266894321738
0.011584571246976259
0.0124928002911698938
0.0130527803301508406
0.0133334185637523969
0.0105645103393849603
0.00179486225872832451
7.58958014593583157e-05
7.87391194402990983e-06
0.000299024562272506606
0.000301494150719677214
0.000447979190626211961
0.000631526721056001133
0.000768440473560208634
0.000993860904026989825
0.00128546260459614053
0.00149771586650327879
0.00138310363655831789
0.00121808308960560702
0.00113313523833736131
0.00110702881591590095
0.00113336793942881179
0.00129576361910033059
0.0016265623479267805
0.00216241564816072604
0.00301602202160178388
0.00405077716907118867
0.00481219838203405473
0.00483811620962414351
0.00425859541582557406
0.0041260757805011844
0.00452984321815639267
0.00565035323369765356
0.00680966834399553134
0.00856092959561399747
0.0109879340496819092
0.0136405793972206781
0.0146593649096830939
0.0142606835009332356
0.014284849431644181
0.0155928741114550948
0.0167155614435517616
0.0158812050549120322
0.0111927334059487033
0.00321070437199453369
8.90633438441747964e-05
7.68646651596947134e-06
0.00050155149244298443
0.000581306541210785898
0.000809815530061118016
0.00079129511735757344
0.000835764169642588838
0.00104800099827352471
0.0014794990139532047
0.00204568640791647762
0.00187227330770663668
0.00171703131328958432
0.00179071776253199484
0.00178040457292357574
0.00189575083785320834
0.00251397551557681941
0.00365114669174217968
0.00515562947400118217
0.00739983714160162304
0.00929604876485509019
0.00946781202577243186
0.00808440710951920452
0.00669797428712715082
0.00685492874580051134
0.00774492511605885409
0.00983705554420075644
0.0123916083417514328
0.0158668055248545881
0.0169591062108471122
0.0175142223988459626
0.0168209467752049278
0.0150661931163188195
0.0144287939336759322
0.0163488349532694803
0.0159261248847324434
0.0155246882949194569
0.0106760109500781703
0.00442452267056742208
0.000106287003591330555
7.62480068872486135e-06
0.00101810219463298866
0.00121175593098822262
0.00099502235836951931
0.00066917464365031645
0.000651610885923018814
0.000899772676228425433
0.00153166662296934874
0.00248109641403930232
0.0022084044919406143
0.00223665991499944492
0.00246795029987908251
0.00269755472676696346
0.00299010203670048739
0.00405751753162518058
0.00591168500288156897
0.0080466786431822937
0.00921482537946423028
0.0105038176301600981
0.0115428081520502959
0.011033563738589049
0.0101835576905173805
0.0107486544028191251
0.012812497324254558
0.0166693789031110498
0.0174051005710411169
0.0182163545616585709
0.0192195920977073602
0.0195229029645362234
0.016864332543641055
0.0139924107436245945
0.0134605370954235005
0.0152229404296215978
0.0149437959663092507
0.0153944603355067582
0.0105007341955648294
0.00496463312601276574
0.000118585087681111195
8.34913455601376918e-06
0.0021450070388515886
0.00227968695606283042
0.000783140350402813088
0.000439449130047075715
0.000492502325039841202
0.00076193215216103572
0.00161392921051627678
0.00308072097132430127
0.0027927605048352136
0.00287862849409855747
0.00314508230847130362
0.00372296172032558293
0.00461333319492897992
0.005657679255834068
0.00686307872537852189
0.00800789342402523883
0.00930761343046548027
0.0106506196442329292
0.0118697392720246327
0.012933252771910278
0.0139820620387724002
0.0152303827738130993
0.00445403294601936194
0.00284371872461896061
0.000442237843830123995
0.00032405261566894163
0.000419880430633918036
0.000746746600667740003
0.00213894057715425818
0.00358084063095274368
0.00332950853708622371
0.00337256964476975209
0.00362747463644322787
0.00422656792438485304
0.00503800388476193396
0.00594033309956849571
0.00705698266698049671
0.00826014146430058965
0.00953226517571278791
0.0107745370378680982
0.0118462250755091598
0.0127384749606509126
0.0136610920673379699
0.0146777546179391039
0.00878665484765951341
0.00103033267675225722
0.000261302752737060766
0.000273850151503909694
0.00041799206850220012
0.00105476519115319358
0.00298469104604166032
0.00431188584881586449
0.00393159293412278284
0.00394096791646541145
0.00425638565366925816
0.00480769130946433199
0.00536529123350089517
0.00628021316534262564
0.00740581573335930346
0.00860659897684955093
0.00981884137262663617
0.010962350386419838
0.0119403230082271456
0.0127866136570352548
0.0136874839323286625
0.0146973793035998848
0.0131592584565538035
0.000484120299554595315
0.000195975942559492865
0.000258484876277963616
0.000561273954849902099
0.00156313608596455916
0.00426824594457429329
0.00555850217205990527
0.00489927222107972363
0.00479093429684822672
0.00510508666163929717
0.0054301644440958247
0.00593599083954285487
0.00680567072246062235
0.00787465989769522978
0.00901457747759165651
0.0101494139577076436
0.0112040707372715615
0.0121375714050854077
0.0130230505789317493
0.0139100440902354665
0.0148286574866083251
0.00604373118759613838
0.00609246310644126488
0.00625733239689436199
0.00669202060851123784
0.00745993422954563997
0.00842053272253292726
0.00945791717118799058
0.010494612319694013
0.0114678312376653366
0.0123547707569915625
0.00723811640835859971
0.0075669908458608744
0.00819103583255221743
0.00900866585836786193
0.00991765177355432084
0.0108438762362871241
0.0117311206641169414
0.0125602502455294737
0.00896640840707880506
0.00962450333912275371
0.0103910992773352615
0.0111965843201157454
6.17836247358899339e-05
2.15786835443982607e-05
1.40702890335426484e-05
1.12262229969857712e-05
9.9833624470878075e-06
9.16121492336910952e-06
8.53527876247921067e-06
8.04128493898664747e-06
7.67994080017613344e-06
7.39707231423751569e-06
7.17872987978384942e-06
7.00709846599143856e-06
6.86758032422498582e-06
6.75236043100111307e-06
6.65425348891707052e-06
6.56894119004980599e-06
6.50006771461423549e-06
6.44101311959778808e-06
6.39224360637363848e-06
6.35161689773445643e-06
6.31949246205386133e-06
6.29411819886912839e-06
6.27323476338103812e-06
6.25817141052088367e-06
6.24786621647008654e-06
6.25010751483856816e-06
6.25735385370512677e-06
6.27077372492535314e-06
6.28631928305268293e-06
6.31484049713378793e-06
6.36105803694953812e-06
6.41096000110608089e-06
6.48304672133621447e-06
6.57662441155572941e-06
6.7554207859942143e-06
7.01873397866911075e-06
8.05003928389142456e-06
1.26503938390173263e-05
0.000682290318070694025
8.25551358246196296e-05
5.11450201328536081e-05
3.7858341720784518e-05
2.8818776759143203e-05
2.14847286868037271e-05
1.58935940312757768e-05
1.28781111205731966e-05
1.07892222103575071e-05
9.55472609817479604e-06
8.72633356067471465e-06
8.14743395749192154e-06
7.75012355336276549e-06
7.4731261088603821e-06
7.29351612662961312e-06
7.21504291737710086e-06
7.05693471592538686e-06
7.01974799295484449e-06
7.05065860834258066e-06
7.07695879002434285e-06
7.14485979670957754e-06
7.15848272066444414e-06
7.08700405980863237e-06
7.20760257073153835e-06
7.63073666799078521e-06
7.90062145528637825e-06
7.90019279232687794e-06
8.04855094295285323e-06
8.14070443605940267e-06
8.18265478852690735e-06
8.75394956795900824e-06
9.69176569417063772e-06
1.03726840324261943e-05
1.07588629572047429e-05
1.20848958625983108e-05
1.16568588975954832e-05
7.66360293606187941e-06
8.1924701855260088e-06
0.0017184650982238188
0.000131887197577712837
8.93086326814463831e-05
8.25553043635385075e-05
7.98239518593586245e-05
7.3125996368070056e-05
6.54603664815348572e-05
6.04618943140449138e-05
5.72337512672577465e-05
5.49019314460295202e-05
5.07958334808995501e-05
4.55222075049265874e-05
4.12833098432638637e-05
3.68270491239456864e-05
3.25796477655218258e-05
3.22483389901714914e-05
3.43817498836654456e-05
3.78982450260683865e-05
4.12625739071820576e-05
4.5401718322699487e-05
5.59611210042882155e-05
6.11576626584483342e-05
5.67941433387947846e-05
5.81050170194206224e-05
7.37955640717514327e-05
8.15007477607597133e-05
8.72711303162031801e-05
9.23712380711164913e-05
0.00010133219737272927
0.000115321208821160304
0.000137732227247766071
0.000169710808116695089
0.000213673324978304519
0.000273349944246927326
0.000331899484145342226
6.22854526591389902e-05
1.2533714983753721e-05
7.34207857959794331e-06
0.00122321510376172658
0.00018614236167446694
0.000140772232108134037
0.000149213205760320711
0.000165473290690175022
0.000176592890341903738
0.000184548791602382449
0.000188458134475154716
0.000188480156788935118
0.000185850907607156034
0.000181897849791734794
0.00017645226337776221
0.000171864378773500554
0.000170564047231906864
0.000173368024615203374
0.000184284033260514676
0.00020310892818289382
0.000232003157680876109
0.000265678813461799859
0.000304511917298438311
0.000356311057173374322
0.000395126110148270046
0.000431482810892375287
0.000489992243364719619
0.0005752783371202302
0.000665560731388196579
0.000795409191652693458
0.000966126275371710554
0.00119158002723261484
0.0015221154969323504
0.00198685866968784704
0.0025939462918720224
0.00329559206598509019
0.00414824101781971835
0.00503747172287734649
0.000270488460118663645
3.33311666722611128e-05
7.33038685869405935e-06
0.000970926530184632085
0.000282854444060871271
0.000256363485979160572
0.000326754855097714325
0.000416155867233584617
0.000502817406447535913
0.000576130279510591431
0.000611218563273303178
0.000590935288541674934
0.000551196876690169678
0.000514553781467025156
0.000492323233995201059
0.000477171246530476293
0.000476390510836785183
0.000513407972842910084
0.000572321465207794146
0.000663353445511438385
0.000786953507514052877
0.000937765924999675181
0.00110359754287183667
0.00127898359728746041
0.00141977445111367458
0.00152405946702905966
0.00169783354663223464
0.00197905520901666765
0.00232938610610053561
0.00280891344482893076
0.00346064493629271754
0.00425067164972740483
0.00511133776073199354
0.00599034768410605049
0.00687278081524702548
0.00807418546570370238
0.00917552186547443763
0.00891260803239459463
0.000865696982434338092
5.9318092020476007e-05
7.84338345454733115e-06
0.00117629611086459557
0.000512700703644910724
0.000586351987457812821
0.000836785700844203681
0.00103647499054466919
0.00117392853939191294
0.00142024413959659858
0.00171058704779188326
0.00177510821466130833
0.00147305293589325556
0.00125263094619839266
0.00114670465012156175
0.0011160814113363685
0.00109757985211873235
0.00121988812808568022
0.001418102427623659
0.0017494856640084338
0.00224042768447887258
0.00281357017128188672
0.00329443535615584621
0.00348937075424114685
0.0033840756458518367
0.00322464896756636567
0.00331427232497579329
0.00398162563420003963
0.00476313149430800716
0.00571205632276307069
0.00695085937469639131
0.00840814124639400508
0.00976549874285967574
0.0107299864666144714
0.0118388316931146258
0.0132467908165279178
0.0130159267341483208
0.0102551189209245542
0.00209061620263355664
8.46459726837899039e-05
8.10869017384290091e-06
0.00214680951873043009
0.00116354033428451393
0.00162928165050911749
0.00164676317735166253
0.00128103627645962206
0.00126382800734680376
0.0015438103317561274
0.00214605215273152954
0.00267784392777103454
0.00231128276024365016
0.00208012420876735066
0.00200317746478323499
0.00195823349664880344
0.00201951731984116589
0.00255999629755717349
0.00337990343732852546
0.00437257334450662227
0.00578334087000825434
0.00724269712823269983
0.00768826435512167273
0.00687390604515277729
0.00544395041975414759
0.00507306896020200734
0.00568301565490977011
0.00677647451941921011
0.00835598271741862415
0.0102361283611720963
0.0124535203141172956
0.0146579871910197581
0.0148579738655429811
0.0142910529057380543
0.0152520756212339327
0.0152212812645649235
0.0137377948506721137
0.00926063222369098715
0.00355060163226610364
9.26060472783289169e-05
8.04180416095839541e-06
0.00639906065479966916
0.00337800088565100081
0.00400811696186768613
0.00152901499811843315
0.000952771489011691427
0.000954758621424339716
0.00128767857052533943
0.00203484723498627328
0.00277315443759940669
0.0026485380731026075
0.00277892682065897711
0.00299318656817478164
0.00321991058816680073
0.00364681462563838004
0.00433594143378806564
0.00611566740866351186
0.00851030980883108433
0.0103289980662779439
0.0113396671284206052
0.0111907333786133625
0.00945248724283493866
0.00793679173187625438
0.00791155079622178799
0.00894467188025426484
0.0115122952645896563
0.0150185774624636351
0.0169904882556855784
0.0180075505729376251
0.0180734459688255827
0.0162983091827011498
0.0145656856918440214
0.0156146301413457502
0.0136585885729970363
0.0121407746302944746
0.00809286566128506087
0.00420613593604682832
9.24144771151882998e-05
8.03168869576398801e-06
0.0142771087657057108
0.0105460959514495703
0.00538877168228643188
0.000999804898844734941
0.000600942665642494283
0.000685911081895692037
0.00103894098497873694
0.00203120365509718188
0.00329900715198381059
0.00314960944645023165
0.00329484123408676751
0.00358145905487093803
0.00418161363480987289
0.00516036629307860435
0.00640532347413245908
0.00788609898988053282
0.00912947607046685553
0.0104931775103688819
0.0118694850745452354
0.0127656984288265565
0.0124072872477371272
0.0123559707644251126
0.0136681806927585227
0.0163340891936787011
0.0170385765665694924
0.0176455727948930698
0.018551668080217687
0.0195752351673465635
0.018427608438310282
0.0154390132086796601
0.0133041633260113628
0.0130902894342376803
0.0113323852271476309
0.010137924959733877
0.00768896935316223072
0.00460388587845296255
9.18842924634268114e-05
8.35371847566902935e-06
0.0134941628229155071
0.0127465874435601142
0.00193230060604112058
0.000492636359579443225
0.00043059112069159948
0.00057685197972221847
0.000992122459735884357
0.00277297315606424158
0.00411222012245981115
0.00380879769932181709
0.00386935977771317744
0.00416671927774415682
0.00472882432277034383
0.00553478466452655363
0.00664532567792001753
0.00795463327590602114
0.00928904766063693398
0.010619117742909424
0.011871468170647187
0.0128093568952533498
0.0135050355201457341
0.0142818609912615298
0.0151278888492842097
0.0107730749858481242
0.0125811429135303642
0.000800267536992512753
0.000318379991212281723
0.000359987082544994475
0.000551954087486653889
0.00136979535221301747
0.00417949014128236006
0.00491928189424893376
0.00446647521178837256
0.0044791361110095157
0.00478829063492638204
0.00518313030691591389
0.005902192041610764
0.00696399064835707699
0.00822592174674348711
0.00953128093157450985
0.0107708203225806397
0.0118521982262236834
0.0127128326369515647
0.0133854745356375617
0.0141314646049778246
0.00993434194863129783
0.00288494621804730351
0.000350161197000223626
0.000252359746685199525
0.000346160462583953001
0.000730777425555704011
0.00213322020499704919
0.00633534445014222961
0.00591716074698043527
0.0052882059676004128
0.00523068869317647872
0.0054989496397118906
0.0057890551585762914
0.00644452356611492205
0.00741993667784292179
0.00858701124839181089
0.00981087496182162476
0.0109649026686555601
0.0119728568847579774
0.0128106807942629883
0.0135476273402979058
0.0143539169805475837
0.0100940915104075976
0.000723608841291539947
0.000214134823733997049
0.000223267221563654605
0.000387124398404107856
0.00110900545684971706
0.00350065852121853646
0.00955285457094797071
0.00733654732237806577
0.00639488956857381559
0.00620088623639743642
0.00632825972536478661
0.0065301272569778723
0.00709819994828291348
0.00795853692590484108
0.00900663197877061422
0.0101231255239318963
0.0111890027466696584
0.0121428969543914498
0.0129931490163854892
0.0137720115488605948
0.014512619363054367
0.0078130722500975025
0.00740666129423706542
0.00723380487343992708
0.00734623364075549096
0.00780442819474135973
0.00853691998254473006
0.00945345419458532531
0.0104520714738071466
0.0114303760268321484
0.0123312892488596695
0.00817517008800072893
0.00819052250086159915
0.0085252594527556215
0.00912226704892039192
0.00990517419226899856
0.0107848784468655232
0.0116728420333851099
0.0125154367906311868
0.00923184110813099999
0.0097021882458139877
0.0103581857277017641
0.0111211751529671273
0.000480661401851271129
8.7802142845024516e-05
3.18153392313202054e-05
1.80068271968272608e-05
1.315080515274991e-05
1.10156920256421573e-05
9.94549780118336047e-06
9.19906468943065767e-06
8.60302227580446368e-06
8.13532754101135163e-06
7.76517510898275697e-06
7.4430792752074293e-06
7.18377329508527584e-06
7.00402032272343814e-06
6.85644747819301485e-06
6.73142299867557001e-06
6.63351212453036844e-06
6.5481416900368657e-06
6.48488908436729313e-06
6.43202365470426135e-06
6.39051245826948283e-06
6.35534018705826754e-06
6.33102996733006079e-06
6.30736724517372861e-06
6.30131816502398613e-06
6.29964463728157136e-06
6.30781614404280068e-06
6.31778194294500737e-06
6.34065330829747516e-06
6.37484712681429808e-06
6.41139557876520362e-06
6.47358293393911896e-06
6.53389270366272337e-06
6.64725984602462929e-06
6.82885581156884093e-06
7.08941823354643007e-06
8.08225001180671813e-06
1.26464478170417671e-05
0.00182721389091627202
0.00020668194597017045
0.000100311126453595461
7.81310125828437986e-05
6.79158507161203812e-05
6.17653983087833514e-05
5.26514236599177974e-05
4.12021028924627211e-05
3.00776325374089496e-05
2.15131873063803149e-05
1.620614372448863e-05
1.27213872997216641e-05
1.08631688157171435e-05
9.87642923629728291e-06
9.16076494640716633e-06
8.52610401201602008e-06
8.11313929656648602e-06
8.1302524138263111e-06
8.33300559349210152e-06
8.15088153886890325e-06
8.13246143738248476e-06
8.08264319326702523e-06
8.16333063756296722e-06
8.26876536197309808e-06
8.75825066773769576e-06
8.59938547291811682e-06
9.10182149083408908e-06
9.39664977376305385e-06
9.38683316956761203e-06
9.53118393697716142e-06
9.31204986597995348e-06
1.06049244841805224e-05
1.20634677532734934e-05
1.38280687360036125e-05
1.35970690388932889e-05
1.21493452548933512e-05
7.99124985021904952e-06
8.32642903930437495e-06
0.0100026424481113509
0.000355016460937936519
0.000186902461499490906
0.000161455796487828401
0.000159787295587183548
0.000156855365413630495
0.000148334494222864287
0.000135850699334221414
0.000121331491737555996
0.000106827562526923086
9.49400941006874158e-05
8.57882908759192839e-05
7.95372181307418163e-05
7.54206013723751894e-05
7.25107834830924857e-05
7.12246700558080199e-05
7.14024577988696732e-05
7.37351127084714736e-05
7.7528343373407067e-05
8.16539340233518384e-05
8.70520794518231107e-05
9.19529703668536726e-05
9.65575751134653998e-05
0.000101822872567330688
0.000110972768403836512
0.000120129641099015903
0.000129597284279979046
0.000139858111209315115
0.000153516160175920649
0.000172567167001095423
0.000200321977544242868
0.000246709519082798079
0.000299579130901792999
0.000392904608591077508
0.00045377426168701873
7.44521386084527029e-05
1.39815597981554798e-05
7.55930736473906231e-06
0.010642451192755812
0.000562175421779864118
0.000327516023448227111
0.000325196225926286666
0.000367330653330076909
0.000407301477174032162
0.000436504508969411641
0.000447003012571513996
0.000432295814911812747
0.000403064976036188356
0.000371845974688313446
0.0003475606639685388
0.000329872877774700732
0.000320220058900520929
0.000321339810545705879
0.000333811498423207322
0.000355924571030049664
0.000388844514167224265
0.000434694644296883595
0.000490403803887185701
0.000554508882353068103
0.000624407777740987389
0.000690627815033764518
0.000752181886752678109
0.000835260909998586246
0.000945233013999713574
0.00109286678534016254
0.00128215374893108432
0.00154312985727788547
0.00189210827364379424
0.00235359978101219594
0.00293617749873855728
0.0035143984374765222
0.00443891879745318164
0.00538365017588668653
0.000315333768074415265
3.89219509829483564e-05
7.53593370765685596e-06
0.0108600592219690231
0.000946459131826302017
0.000701778505345708545
0.000876270166037185043
0.00109176252579957296
0.00126050982957993506
0.00143552981359923535
0.00156965183912194687
0.00156853341894867371
0.00140074561589265123
0.00119928389736544691
0.00107598354857990955
0.00101775484616667975
0.000949208112597271997
0.00095118169263165716
0.00101586497044469553
0.00112041374193446916
0.00128448767708416668
0.00150224794550549092
0.00176931365553425362
0.00207203218611485933
0.00229286303348721562
0.00240576654715291081
0.00249794821324638653
0.00263017604887997702
0.00286294461595838377
0.00325271254150700769
0.00377803090481996151
0.00439841813198175741
0.00507026008921663586
0.00589146113783411019
0.00685112313818070709
0.00775927523043482784
0.00872260575640264324
0.00820584218926860565
0.000949986541919455377
6.23023491247487921e-05
7.73471574830914647e-06
0.0156007702280574548
0.00216924085127592368
0.00217273005435323751
0.00313589356314088403
0.00289247715228330626
0.00228819369284895529
0.0022169258885852308
0.00261241775065145345
0.00332802948039898289
0.00322484539791710687
0.00258358953731010295
0.0022114486338475018
0.00208988771853674694
0.00194854118892895845
0.00204192470492989969
0.00245534618334521722
0.00289290542839923262
0.00354028929152257936
0.0042784144978844519
0.00493141596314051241
0.00525110392555720642
0.00508408263086203467
0.00443730306677026041
0.00401792494229486624
0.00418228066972338962
0.00485652531176532058
0.00588168825353231704
0.00693220072677519592
0.00800207893479542784
0.00894391202169384121
0.0101028139828279948
0.0124835542505934444
0.0126114878891495433
0.010959644648900627
0.0064002968759612304
0.0019355967967791632
9.06528100594081003e-05
8.07027480416678515e-06
0.0137808161465829433
0.00693411465494081069
0.00733374046252707832
0.00716871616523396486
0.00257607482034720404
0.00161398919421298806
0.00162489974530149323
0.00205516859965327757
0.00295006585486267108
0.00310736966824669411
0.00318622240415390072
0.00329237004753125777
0.00336130509893324157
0.00341350576120404365
0.00373739610775284141
0.00436224348986589006
0.00590239709662221737
0.00789856764364545161
0.00953708268682042226
0.0102376664319896778
0.00978954056314284594
0.00825343023724878222
0.00683534145273860614
0.00609562693016168274
0.00658843435373548513
0.00777557475078316258
0.00972097091985898304
0.0123844258984110341
0.0158897314377505518
0.0162177374813272449
0.0150253472982311842
0.0150095990783216827
0.0124999480822110091
0.00879518991458748227
0.0045088892146427622
0.00265941576293075074
8.84058527655741432e-05
8.73051554103010105e-06
0.0113035931888079231
0.0122484819823578533
0.0119023508088751014
0.0047083319422099295
0.00141870773984704816
0.000981262427024292769
0.00112129637050157075
0.0015843334574258234
0.00274427955644220966
0.00294497856017567972
0.0032610761592932881
0.00374962053639145551
0.00426698677144208421
0.00500942975534365842
0.00600601114053716037
0.00736828562566381202
0.00927266838967565586
0.0108317750865321132
0.0119850790654961493
0.0129744695548353797
0.0126528134200729926
0.0111166399893694364
0.010053852157852922
0.0105501300376924026
0.0123902364961747443
0.015804955086662055
0.0177477869712568542
0.0185312346052105212
0.0195685784576778952
0.018701194631152402
0.015914771424122072
0.0136677176899124633
0.00972955228529528982
0.00558845189050703739
0.00341825885628574541
0.00255313353135149836
7.81677092298006197e-05
8.8534826446272755e-06
0.010262181120295288
0.0101671770673518007
0.0134584831940478614
0.00195821405260307316
0.000692971537794823556
0.000633061585246566354
0.000853541971233404769
0.00137057714909999515
0.00328007820295931566
0.00372938363994787742
0.00372809415390415195
0.0041154349363289296
0.00473140121337938934
0.00559887313794051652
0.00675443438637534071
0.00814521956517074916
0.0095578792281490535
0.0108642575075158076
0.0120781292959054286
0.0131680173669922723
0.0139472840642322574
0.0139902038067798336
0.0146764880114121209
0.015939546629391281
0.01661899250269697
0.0173062802575095001
0.0180790155788464989
0.0189691221418741389
0.0201650154156319504
0.0185147809804930771
0.0135618960846620364
0.00935422493529134737
0.00535216953043065637
0.00332555088707082091
0.0027134652353703625
0.00204994483908948989
7.05810967720199025e-05
8.94594963608381077e-06
0.010483048519437526
0.0100099237375809742
0.00424706494725679042
0.000766247423099806558
0.000434413176601723347
0.000496403196689075695