/*--------------------------------*- C++ -*----------------------------------*\
| =========                 |                                                 |
| \\      /  F ield         | OpenFOAM: The Open Source CFD Toolbox           |
|  \\    /   O peration     | Version:  2206                                  |
|   \\  /    A nd           | Website:  www.openfoam.com                      |
|    \\/     M anipulation  |                                                 |
\*---------------------------------------------------------------------------*/
FoamFile
{
    version     2.0;
    format      ascii;
    arch        "LSB;label=32;scalar=64";
    class       surfaceScalarField;
    location    "0.239999999999999991";
    object      alphaPhi0.water;
}
// * * * * * * * * * * * * * * * * * * * * * * * * * * * * * * * * * * * * * //

dimensions      [0 3 -1 0 0 0 0];

oriented        oriented;

internalField   nonuniform List<scalar> 
20536
(
9.27629192857820498e-05
2.57391881238314122e-05
-3.12609836409543759e-05
2.56615774115483882e-05
0.000412998453210212122
-0.000401734398050682204
0.000425145672437041036
0.000193150071391816049
3.05155295264878521e-05
4.13613012085700854e-06
-6.69126937673345904e-06
5.45010138652541228e-06
0.000110443187264613578
-0.000186924625022792624
0.000199776337641174655
0.000110507844488635072
1.47695637340926793e-06
-1.20323267364767021e-06
3.82489339527835851e-07
-2.6470261647066661e-07
2.91701680985137385e-07
-1.1509819393003736e-07
-3.07615235690337607e-08
2.65884674301342159e-08
3.32539553916343117e-07
-1.94267434887558876e-08
-1.27744070132412265e-07
6.41476290027534169e-08
3.92698354911789448e-06
7.52129634463635125e-07
-1.00868738212290908e-06
9.42384399699447218e-07
5.69027331930471199e-05
-3.18990367090640932e-05
3.30840477991782003e-05
5.43205117368103992e-05
8.36851824227738207e-08
-6.49298112365133859e-08
3.84827393771390912e-08
-3.37959472308666383e-08
8.02379410919725923e-09
-3.30534162640592508e-08
-7.6610904849903055e-09
3.69621526677436712e-09
3.46905171100302922e-08
-2.10205766497891103e-08
-1.67745388519332525e-08
8.14144639130782724e-09
9.67748347790812624e-07
4.14355807356933711e-08
-2.81259380072934877e-07
1.11614513448892036e-07
2.21566712155832866e-05
-2.15697100470679084e-05
1.94494362090211267e-05
3.77602394183996405e-05
-6.00510135693722123e-09
-9.66971416442038249e-09
1.13341137089753958e-09
-2.05749900948693535e-09
-7.17329715740511063e-09
-1.82425481603925755e-08
-3.38208638821026953e-09
2.15750367738938934e-09
3.14638475275981151e-09
-2.10071151785157317e-08
-1.91882625998566468e-08
1.92949682438875148e-08
1.73952591409283747e-07
-8.93833323075173037e-09
-1.52461663903859515e-07
5.22061694671528602e-08
4.3088075360573479e-06
-7.6351913142839244e-06
5.81640159117651602e-06
2.13611194127564614e-05
-5.29799990680760512e-09
-4.18815965634842388e-09
6.37156769533955983e-10
-9.01815642372205942e-10
-7.24774712468148318e-09
-1.07793748494323734e-08
3.32692733181622559e-10
-6.94807667562884859e-10
-3.20390053602688856e-09
-2.21259349459512626e-08
-8.12477190932824154e-09
1.13819051701086823e-08
5.34738555854991267e-08
-3.00215702242401385e-08
-9.92342431903298733e-08
1.20966517002961884e-07
-1.03010057989799572e-07
-2.42267204922790887e-06
1.10029035094896194e-06
5.87901769444222402e-06
-1.51105685682984025e-09
-1.19576519664399882e-09
5.47405427239307645e-10
-6.47668955537730053e-10
-4.14504901062709039e-09
-3.83121129919689618e-09
2.28635389955588267e-09
-2.20400700407329955e-09
-3.44279916187300256e-09
-1.18098477215878182e-08
1.55964512889172781e-09
-2.09336617511192767e-09
3.73637331863382624e-08
-3.20468037361297943e-08
-4.57093049015380551e-08
2.71506828050622635e-08
-2.67975839149272023e-07
-3.08649723278810055e-07
4.49816976271027332e-07
7.74236476612806002e-07
-3.76015899006699234e-10
-3.38610251683236662e-10
1.79227450393980283e-10
-1.7976183845094185e-10
-1.59915404149823131e-09
-1.19912085760040549e-09
9.49472186864001201e-10
-8.68440381706931023e-10
-4.7793531648404906e-09
-4.322863732179807e-09
3.25511309584789381e-09
-2.75537923718172863e-09
1.8073199278283066e-09
-1.37411570134250131e-08
1.04582785130862753e-10
-3.3200920848829787e-09
-5.86499911033159301e-08
-4.73415648043831946e-07
4.89919999472460465e-08
4.48507402202967315e-08
-9.77184540943237532e-11
-7.48117073103021191e-11
4.19241952372417592e-11
-4.07210157336078354e-11
-3.59605729325227897e-10
-3.72055533460890748e-10
2.40345527627915865e-10
-2.45420844395475839e-10
-9.03671358292045022e-10
-1.69201708989854731e-09
1.14019941849895562e-09
-1.22868907589551766e-09
-2.88235577412526091e-10
-6.80902580582123963e-09
4.81783954270111031e-09
-5.1692005229991366e-09
-2.83167895727329941e-08
1.30338269551494869e-08
-1.16260673560672028e-08
-5.62501569187067321e-09
-2.9363295574187918e-11
-1.93220332552742684e-11
9.53167647112166436e-12
-9.75353669714382751e-12
-1.0064173515159522e-10
-1.18932416895608271e-10
7.36541730081926786e-11
-6.64462310851183611e-11
-2.55957391269552119e-10
-6.29085832775216164e-10
4.64577187444628628e-10
-3.99712772986472262e-10
-3.64595269651465985e-10
-2.97772549577002337e-09
2.27474823031339144e-09
-2.01845954560292576e-09
-1.26004780804454889e-08
7.05190373908469418e-09
-7.63826390599966842e-09
1.48534984067986259e-09
-7.85298636543760145e-12
-4.56356446669766589e-12
2.86281684802571891e-12
-2.36824288473468398e-12
-3.30357370572724648e-11
-3.43694882661398126e-11
2.49178960235064471e-11
-1.95507479360962831e-11
-1.34112431833776735e-10
-2.20159803295489531e-10
1.7575499829207245e-10
-1.37589102456607884e-10
-5.19388928303456485e-10
-1.24479034782244901e-09
1.03482398435353335e-09
-8.43910238329159547e-10
-6.25593861670042024e-09
5.64776546906410357e-09
-4.39764071471484035e-09
-1.61840474134275498e-09
-2.42607041327803911e-12
-6.71823136697092123e-13
6.02107268118442942e-13
-4.0540665505748013e-13
-1.56268500836596313e-11
-6.79539905970218332e-12
6.05960467925580388e-12
-4.08376002989051672e-12
-8.85202734491277085e-11
-5.69233741213020931e-11
5.2094755279563779e-11
-3.53497939020091183e-11
-4.41194058974309064e-10
-4.08214340159388065e-10
3.84744174574248633e-10
-2.66918760824111465e-10
-2.55646931435890019e-09
2.34480937153163014e-09
-1.71980949253319542e-09
-2.09827419074857021e-09
-3.27900483802405938e-15
-9.33425320085084016e-17
-9.28441451257768594e-17
-4.74795656980046829e-14
-2.07486311621630734e-15
-2.1051990217159647e-15
-5.5624522350086595e-13
-4.07654660043165034e-14
6.49457724427081415e-14
-3.16989397781565693e-14
-5.08240900280323167e-12
-6.06082135946385577e-13
8.77835936499615422e-13
-4.20601168815772737e-13
-4.09817693636677498e-11
-7.02613711079524269e-12
9.94088222119049685e-12
-4.8212807343575819e-12
-2.88789915785794416e-10
-6.56878733473874243e-11
9.30077287280589305e-11
-4.6620503510028272e-11
-5.21771224186266786e-10
7.02032733656458184e-10
-3.78718119625935911e-10
-1.82778012877097549e-09
-1.13829094104181668e-16
-2.94423741318984847e-19
-1.87745725209158987e-18
-2.17354258703785347e-15
-9.54219436594315517e-18
-4.46539353156176853e-17
-4.26265857298909146e-14
-3.48798370577047872e-16
2.41111402177577275e-15
-8.41373897589087039e-16
-6.22830580865957788e-13
-1.0796892833696867e-14
4.31062361736263553e-14
-1.41032354419792355e-14
-7.26624671709740258e-12
-2.20131983670055873e-13
6.73342012051506031e-13
-2.24017345596986059e-13
-6.93463094193982324e-11
-3.28777107260880831e-12
8.61616920015646837e-12
-2.88103527415997477e-12
-3.6798579362525667e-11
8.74527415901957886e-11
-2.98861586255147725e-11
-5.67954251074900835e-10
-3.28662678518188717e-19
-2.12345688677883547e-25
-2.53260888688596427e-21
-1.01806635252142504e-17
-2.46256609861895477e-23
-8.36887129920083821e-20
-3.79628430070351458e-16
-2.09509727640183646e-21
1.13742269769175815e-17
-2.55676962669503304e-18
-1.13967578628032068e-14
-1.40175206987716023e-19
2.84138885265299713e-16
-6.00898761161014038e-17
-2.38838058013250191e-13
-1.15324350475640419e-17
6.75250992638705547e-15
-1.36920726027608644e-15
-3.67358187300763862e-12
-7.7516662444343028e-16
1.38593232191701043e-13
-2.79174725387992432e-14
-3.61581059791992219e-14
2.16666056189287195e-12
-4.48148366451767759e-13
-4.23832984089012365e-11
-2.63620622565803936e-25
1.20296624839261456e-27
-2.5483765694054008e-23
1.27340036498919138e-25
-2.17690651087030222e-21
1.13020756429358753e-23
7.93194813075383071e-24
-2.58519526171133572e-19
9.04865078660139893e-22
5.38965459030642035e-23
-2.0885524468242016e-17
9.08163269300181776e-20
-2.10891050786186599e-20
-1.13817974336495989e-15
7.01117997097493905e-18
-1.87853959610018452e-18
3.91347249153358427e-16
-1.00364230178317184e-16
-4.69459040561104491e-14
0.000113117964341576585
3.98158804379100347e-05
-3.46327786189669728e-05
0.000477365601680169115
-0.000367285352674013113
0.000213780329422298281
4.22133290374603748e-05
8.64048624713212643e-06
-7.46000194312088399e-06
0.000131512055837643236
-0.000195290502767280942
0.000115012715520843614
1.71295811493264939e-06
-1.354073622326187e-06
4.38760507692215685e-07
3.98103319012426629e-07
-1.25653435583430613e-07
-4.06477618431103122e-08
8.99305362559118065e-07
2.60056334134472373e-08
-1.16121036382269102e-07
7.13115954711548819e-06
2.69739820510309233e-06
-1.03925468068765721e-06
7.68414311107143118e-05
-4.10835601325980592e-05
5.01886230045822641e-05
9.53828714226733679e-08
-5.17638823419464612e-08
4.80994658283904986e-08
1.784060889715479e-08
-3.13065161847442467e-08
-1.44102214604014438e-08
9.49405498615242994e-08
-9.17827665235600316e-09
-2.82159465531134761e-08
2.4234666574249283e-06
3.34049666470417862e-07
-2.08286407822457355e-07
3.3184456690798486e-05
-2.32813545834602562e-05
4.62430703904689842e-05
-4.11784090045738104e-09
-7.78417203886011203e-09
6.12156402564694142e-10
-3.21661181413118164e-09
-1.90343469715359161e-08
-5.73025296936306341e-09
4.11072535715713113e-08
-1.99751029321465844e-08
-3.53609095759075498e-08
4.96461011373119126e-07
2.17745116484938452e-08
-2.65734052741663444e-07
8.8916927720754778e-06
-8.00352377234658635e-06
2.57222965961942146e-05
-3.8198121102698362e-09
-3.64901588910811522e-09
3.32131189603590128e-10
-7.81039556832739877e-09
-1.15280695477911967e-08
-1.02222307971337435e-09
4.20893868999839889e-09
-2.32016022054570036e-08
-3.28590105221212597e-08
1.98848768044722613e-07
-6.74086793956345133e-09
-1.80106790988781044e-07
7.34492471384806881e-07
-3.19047776582597561e-06
9.97218140044274102e-06
-1.65220612786424711e-09
-1.21135732387265748e-09
3.90908651666108101e-10
-3.64010366848862055e-09
-5.5151838890185065e-09
2.15953204225646421e-09
-1.61947822200227873e-08
-1.84242686366844738e-08
3.80971410266823705e-10
2.61689603221993404e-08
-3.19993172784767649e-08
-1.35301698308364058e-07
-2.50540968363012311e-07
-7.86526572630897292e-07
1.5277553007792005e-06
-5.42363272877002583e-10
-3.10438360949428859e-10
1.55556267024658772e-10
-3.22989446342640618e-09
-1.47811111963539078e-09
1.23214806552496945e-09
-1.14211396810501293e-08
-5.75696478076224583e-09
5.58481198233632697e-09
9.74220350943744837e-09
-2.08436230655141572e-08
5.70769021021657498e-09
-8.36830849809470523e-08
-4.48212103669920337e-07
2.40689738195242784e-09
-8.03639039512727797e-11
-9.07884023256328046e-11
3.69532372554597654e-11
-3.04508022931944044e-10
-5.24284642069570286e-10
2.74425521727922967e-10
-8.30932505340895023e-10
-2.42343840086857228e-09
1.42291435325202226e-09
-3.33020428045526075e-10
-1.11405331020464799e-08
6.666212689496123e-09
-4.67129956699732079e-08
9.35375203702470938e-09
1.6263029476559815e-08
-2.47804210061174737e-11
-2.98023173155207192e-11
1.24503819005352864e-11
-1.01838607479673983e-10
-1.89990738887681308e-10
1.01362891043411364e-10
-3.65036940997386289e-10
-9.89460667091728609e-10
6.69845700807138639e-10
-1.98256112822569107e-09
-4.46484532389189614e-09
4.07924825656647508e-09
-1.60929679037203592e-08
1.61095655866505793e-08
8.42127066521474744e-09
-5.36732127999849303e-12
-8.16746899832200148e-12
4.3672384508911827e-12
-1.39256682943039384e-11
-6.07051554051564028e-11
3.7662159925273171e-11
3.16489162081665117e-11
-3.85720314104369256e-10
2.64819655473359364e-10
9.58045660434207284e-10
-2.1157510766711991e-09
1.45825726886272708e-09
-1.10929335585824984e-08
9.07739075225857412e-09
-5.96230306322710739e-10
-2.76418223607785612e-12
-1.40613014424534555e-12
9.76875068296945297e-13
-1.70234976732077001e-11
-1.39763731871329277e-11
9.61482635287076308e-12
-9.28134366316846239e-11
-1.13285539299615617e-10
8.06464292871896906e-11
-4.43346269269913284e-10
-7.92653499323245622e-10
5.77746194882674979e-10
-4.83604896424663358e-09
3.47995039348327373e-09
-1.84882018843383241e-09
-9.00164330463053918e-13
-9.48342495924106564e-14
1.17599001453258797e-13
-7.70170419135506251e-12
-1.40206466828414813e-12
1.5587263462113501e-12
-5.80089099665404338e-11
-1.62092009671167391e-11
1.68275257406906863e-11
-3.80215216616633353e-10
-1.54914981350407935e-10
1.51687102287291138e-10
-1.25404232273701775e-09
1.08550728077018972e-09
-2.24990956639975024e-09
-9.24931088459199476e-14
-1.26326160306738293e-15
4.67792753596659237e-15
-1.30249845144043453e-12
-3.70159738290426798e-14
8.814968099102286e-14
-1.45010530640424641e-11
-7.1900145689235815e-13
1.38283120828739933e-12
-1.37526033533688834e-10
-1.04538147358526655e-11
1.7119145052325089e-11
-1.16403952151636217e-10
1.55317425842012781e-10
-1.12924980815881402e-09
-1.32049261528769896e-15
-1.01586683346500959e-20
3.26914948087753309e-17
-3.89024179846201756e-14
-7.19999609230768931e-19
8.96238204462146029e-16
-7.72686751898354115e-13
-4.50332291872137563e-17
2.28038499819118541e-14
-1.15198033160952114e-11
-2.53689561212405677e-15
4.5948437302128732e-13
-1.12929498299578985e-13
6.79914838754037276e-12
-1.31462940940644817e-10
-1.03693862254721698e-20
5.90760703735452413e-23
-7.80649513636160741e-19
4.1808060545512397e-21
-5.747231035090349e-17
3.33409565569771994e-19
-3.22069618372704193e-15
2.24639810255562969e-17
1.27268614593790758e-15
-1.37766685643037342e-13
0.000121581572407764715
5.76564971069830373e-05
-3.21740086657746753e-05
0.000625340928413198045
-0.000313719109411544016
0.00023323588030688957
5.57470321585028708e-05
1.58069781607429699e-05
-6.74614912995902966e-06
0.000286884424477185172
-0.000192826941078207332
0.000151789071973032941
1.81266549745218104e-06
-1.20568591052234921e-06
2.76652845969253954e-07
5.73147293944410602e-07
-1.63494523986644239e-07
-2.70815080671950832e-08
1.50297134588520001e-06
1.12047346961449915e-07
4.86833527322846987e-08
1.30105757984487471e-05
4.38021165061560885e-06
-7.89001318022025822e-07
9.4832200638863992e-05
-5.18180575283950701e-05
8.18323703105303395e-05
1.67657373795002685e-07
-6.45399006273706246e-08
2.145236981576297e-08
4.43553510971188904e-08
-3.27031204906487021e-08
-2.1258191013092822e-08
2.35992647235076846e-07
1.64093228639768438e-08
-9.29655536240901498e-08
3.97117802323759506e-06
7.53166929283223933e-07
-2.52940413740421572e-07
4.19302278605692802e-05
-2.14415846282238128e-05
5.304287206860892e-05
-2.25647243887968258e-09
-7.5963452579349309e-09
-1.14654386055609603e-09
4.93051648530339393e-10
-2.18458387654098586e-08
-1.18979229498471134e-08
1.26011284437570392e-07
-5.23462300304785697e-09
-1.26935261279312911e-07
9.93016254420292611e-07
1.24958001218089308e-07
-4.63349584611716398e-07
1.2991515891248933e-05
-7.94184459333470868e-06
3.05437773150679054e-05
-4.18065328225198036e-09
-3.00869955077140385e-09
7.39934187187355024e-12
-2.11840641304749437e-08
-1.14676020104534001e-08
-2.64888978874283729e-09
2.75398860448750947e-08
-3.17798955365039325e-08
-1.42589806563203158e-07
2.85856795518340503e-07
3.55200364238139026e-08
-3.16540376007084678e-07
2.14928309048938829e-06
-4.13494667085116657e-06
1.31653594188407422e-05
-1.26897894446417561e-09
-1.07504209029563502e-09
1.79026678066608676e-10
-2.33438657898483505e-09
-5.38922188682674086e-09
1.48314376904670573e-09
-8.84743122220319016e-09
-1.75916769795646544e-08
-1.28645957788043045e-09
1.55406063096179928e-07
-9.19648740990067525e-09
-1.39271262806572408e-07
3.78320129773447589e-08
-1.30841660462130028e-06
2.86498984803847786e-06
-2.62527747583667528e-10
-3.52899010757999854e-10
1.06897484844286858e-10
-1.52478829756135858e-09
-1.88076785440329421e-09
9.66091776551090691e-10
-4.82229557385780049e-10
-6.95892495760571948e-09
5.62753659666043978e-09
3.67460527768656448e-08
-1.71484536176113053e-08
1.17627560029487028e-08
-1.69214828437993095e-07
-1.0705521562089761e-07
7.4522161543042152e-07
-4.01329280502986607e-11
-1.26984824488990226e-10
4.52197774025184296e-11
-8.10092985051852646e-11
-7.43968990318373872e-10
3.67413525069475275e-10
1.06691426801313345e-09
-3.3668831636064391e-09
2.05316062796020785e-09
3.05614833088113744e-10
-1.24419336689668769e-08
1.12864388469515791e-08
-4.95507602697798558e-08
2.50522249137956509e-08
4.76838782270014413e-08
-7.46965099287112479e-12
-4.7992384709619927e-11
1.55730844992087285e-11
7.53953383654048672e-12
-3.06132789908539029e-10
1.30297843344382981e-10
3.21810475752585459e-10
-1.5539846959595057e-09
8.87021786791048576e-10
2.35926543604907501e-09
-7.02676461878512453e-09
6.76576956993918469e-09
-3.11547423796294671e-08
1.97128771433461647e-08
2.92259788544882891e-08
-7.16360861604627961e-13
-1.46055001806608263e-11
5.58254200139806095e-12
1.58475593881737847e-11
-1.0775780932017205e-10
4.87008967782976286e-11
2.52709785641853456e-10
-6.64025785366299534e-10
3.63931649774742757e-10
2.69896005739849941e-09
-3.35729836520576038e-09
1.98750265422653438e-09
-1.52303603968999624e-08
1.5211358225588205e-08
4.39830701913480449e-09
-2.6087512236312278e-12
-2.62756996867894695e-12
1.4115658943338258e-12
-1.10458563517367278e-11
-2.6098165034848185e-11
1.37068009878447524e-11
-9.0550395252373466e-12
-2.16358293351322922e-10
1.11546873536403211e-10
4.6059961121617911e-10
-1.51628971948930379e-09
7.59259549120640714e-10
-9.07457613388185959e-09
4.38094942576158734e-09
5.67165533640578749e-09
-1.40631022952021936e-12
-1.98410708031529479e-13
1.80864572271021339e-13
-1.24329189935554239e-11
-2.92250461664414332e-12
2.35263927333485589e-12
-9.45419524458254893e-11
-3.39863907573458123e-11
2.53458156072616472e-11
-6.12336103448649537e-10
-3.27984203469392806e-10
2.29418619178609108e-10
-2.57940776577245368e-09
1.65046508727795482e-09
-3.11718101988081504e-09
-1.78594237900645765e-13
-3.15222356385475454e-15
8.13548660834099141e-15
-2.43830723401299989e-12
-8.86345525191196858e-14
1.57018886250420911e-13
-2.66321488706085077e-11
-1.73292897943944178e-12
2.44052203903356999e-12
-2.4360721927694351e-10
-2.51878661584598378e-11
2.88353652244528974e-11
-2.84070253733621618e-10
2.42558023390994255e-10
-1.87497550319225778e-09
-3.26725420809048331e-15
-9.17738297212249915e-21
6.01260611564085532e-17
-9.2647105648333374e-14
-8.26039757688392672e-19
1.81384404906543369e-15
-1.84108204971811684e-12
-5.29835665556901263e-17
4.77772794923748832e-14
-2.72322314732087523e-11
-3.1031190041974003e-15
9.44982827268514853e-13
-1.49452311357666559e-13
1.30598530154650645e-11
-3.10439990907123816e-10
-1.32595190326300832e-20
7.30165895007988932e-23
-8.5512243208313782e-19
4.21012958741352981e-21
-6.76283435692405392e-17
3.18054768559197e-19
-4.17497953290237304e-15
2.35897096732534139e-17
1.62096696752976761e-15
-1.99123599207708115e-13
0.000134782481954591888
7.11990106567827281e-05
-3.03507337957280711e-05
0.000672370796105094541
-0.000242262483501966904
0.000252447949129747822
6.7478923966827277e-05
2.4261968752830654e-05
-6.99282983035436236e-06
0.000323240032529368551
-0.000161080517171113791
0.00016713606426730214
1.66615389068674515e-06
-1.46901823646031192e-06
3.6545330774284616e-07
5.74812754278365819e-07
-1.24886647760852336e-07
-2.45237893602476825e-08
3.00588845132633514e-06
4.9433380397124502e-07
-1.32434232087129436e-07
2.17679001704197988e-05
7.12554514327781132e-06
-1.24310566543342921e-06
0.000101151167881734902
-5.14110859171471214e-05
9.02638118917764104e-05
1.2595115821577286e-07
-6.299749975581073e-08
1.94826565122130715e-08
3.74026101227295176e-08
-3.04776503661310876e-08
-1.92374658045187604e-08
6.82670968665313227e-07
1.55322122899738711e-07
-2.48791022841046325e-07
6.7996762807626183e-06
1.82329447800126426e-06
-5.8400924068888988e-07
4.94352352160151463e-05
-1.96275872398567314e-05
5.51868661747068799e-05
-2.42828330754226346e-09
-5.40317668341241703e-09
-2.28309209038179744e-09
-5.35616940219890698e-09
-1.84529428473216478e-08
-1.37252942258710431e-08
1.83165583359993539e-07
3.16832402453140727e-08
-1.76627157247121701e-07
1.88226340899115306e-06
3.53343032593815095e-07
-5.59345195706369391e-07
1.79050587681059437e-05
-8.42851225380376666e-06
3.50382811501289744e-05
-3.28489436687096273e-09
-1.64907533408713098e-09
-1.22373967165994426e-10
-1.38689700597178365e-08
-7.33971850724722662e-09
-2.91810025163172435e-09
9.37025028225542199e-08
-2.19483418402424117e-08
-1.55941192277268997e-07
4.41156466798600509e-07
6.01425193450233599e-08
-2.84337796076757559e-07
3.88761575310581361e-06
-5.15697959535895194e-06
1.71889757003899439e-05
-4.37002653722356967e-10
-7.28878355291987811e-10
6.91242821656484554e-11
-3.17716554969827174e-09
-4.48030782735739065e-09
7.68292367472687211e-10
2.56096398373966593e-09
-2.13598722221782736e-08
-1.02625967780438384e-09
3.04851160832415811e-07
2.7580611978928776e-09
-5.65275592207089961e-08
3.75300622944254183e-07
-1.68645381332582978e-06
4.46156286804061541e-06
2.23436409653897281e-11
-3.91178492337714136e-10
6.67717413750435437e-11
6.96954889682867044e-10
-2.11623633451976544e-09
7.36269622183672078e-10
-6.49732177895681826e-09
-7.74035304803921405e-09
7.94292835416502797e-09
3.03790692652655884e-08
-2.21558525789560415e-08
3.09703876068758858e-08
-3.6942468977106481e-08
-1.07815131139478019e-07
5.42365518422535027e-07
8.8297233365713991e-11
-1.62989265521241665e-10
4.6475477864596548e-11
4.50930926574697009e-10
-1.00098961753890507e-09
3.88938790825770569e-10
3.18903852519684244e-09
-4.34747860751102282e-09
2.4610304668004885e-09
5.39468922732315357e-09
-2.06538475844314503e-08
2.14284398673717098e-08
-6.84046913831218167e-08
5.60079604260623451e-08
4.09511420561164762e-07
1.82674918145686135e-11
-6.46980999247652951e-11
1.59605155412163381e-11
2.2232953454916451e-10
-4.28210957966575451e-10
1.45325133549591083e-10
1.19901514954853637e-09
-2.24454053149121874e-09
1.17377832602337331e-09
-9.96213900285463564e-10
-1.00638231713832565e-08
1.00808870373388367e-08
-4.54806243700945239e-08
4.23068248190832288e-08
3.4219496771371699e-08
5.69959048393576298e-12
-2.22066751301809287e-11
5.57617771891817037e-12
8.05544305802112169e-11
-1.64810565587869694e-10
5.17906333567002099e-11
4.39613488841075843e-10
-1.05087600095654149e-09
4.49193519791543084e-10
2.60587970803704235e-09
-5.02928818433237859e-09
2.33377728467579316e-09
-2.08517610018834111e-08
1.70226569708138779e-08
3.84432795319996709e-09
-1.18861289207933626e-12
-4.51615653151670459e-12
1.63788250339678034e-12
1.06132187766042655e-12
-4.21723571433288855e-11
1.5694779852340179e-11
1.18870771852830228e-10
-3.4148246422282614e-10
1.27568936931274971e-10
1.64832782652037902e-09
-2.19581470712873675e-09
8.96933914048656569e-10
-1.17338067528969402e-08
6.84869650525454641e-09
-3.31267525083707154e-09
-1.59002845882928037e-12
-3.96001609873390959e-13
2.46322478494342425e-13
-1.34283127098011832e-11
-5.8018182592274023e-12
2.90958369825561374e-12
-9.49955522530611995e-11
-6.77925803605033755e-11
2.90079485275058784e-11
-4.10856351830552805e-10
-6.49116862084782175e-10
2.60223095208224926e-10
-4.88159064970458536e-09
1.93332226038950801e-09
2.3196290709759242e-10
-3.31524441222354481e-13
-5.86063347491840112e-15
1.30632976427706021e-14
-4.45594119395139079e-12
-1.58811318771436404e-13
2.54221677588321503e-13
-4.84122398258301279e-11
-3.14328333926837141e-12
3.87780229836255641e-12
-4.30393933182077719e-10
-4.61419813714243753e-11
4.3920968789636169e-11
-5.22785693986859429e-10
3.69773855501938381e-10
-2.99410072069468006e-09
-6.02316438275980605e-15
-2.67155221346313524e-21
7.8765078595565102e-17
-1.65210773948303089e-13
-1.61246536877941484e-18
2.56374585566170822e-15
-3.29847406789122931e-12
-1.07818307098756924e-16
6.91767410387778918e-14
-4.88323890706564596e-11
-5.93677167483381632e-15
1.32629496465945983e-12
-2.70598504519208502e-13
1.64011824106073025e-11
-5.50769145832754536e-10
-3.8496766270112267e-20
1.87748745110051366e-23
-1.66039314391653084e-18
6.86695638022632448e-21
-1.12547250226947223e-16
5.50537215710244833e-19
-6.43873548229201347e-15
4.13131741940690397e-17
2.9890772335409246e-15
-3.02052658273169e-13
0.000150008792592451094
8.33893616117183632e-05
-2.54075011742787633e-05
0.000660362471263949906
-0.000174601040947051906
0.000249284348116785839
7.71503110632392451e-05
3.09753474426724998e-05
-5.8702961857761172e-06
0.000319490663792558753
-0.000119940739975611432
0.000163797946720583632
1.02183366326211872e-06
-8.15917875229234258e-07
2.76896512732742895e-07
5.24014362278156606e-07
-5.77525199832765325e-08
-4.26949939011297129e-08
4.60742450926569136e-06
1.03616183950797443e-06
-3.0082100677627818e-07
2.77347787797177657e-05
9.80610949974366428e-06
-1.18683365526600351e-06
0.000116309635137057111
-3.99017012896084122e-05
9.05096254506741998e-05
5.34756740279966265e-08
-5.52750780535400083e-08
2.9938283347609544e-08
3.04443876474750873e-08
-2.15387193966818428e-08
-2.01310217363206689e-08
8.89811781904407783e-07
2.54356932302712844e-07
-2.36418473190819333e-07
8.53729115445625882e-06
2.63094508198890211e-06
-5.46696066064427564e-07
6.29729613738176099e-05
-1.60764538262082754e-05
5.6871844990078496e-05
-2.83747122440854074e-09
-4.62032742220137824e-09
-9.56603398760699636e-11
-1.42414879232447082e-08
-1.74247327649501072e-08
-6.35751114165660662e-09
1.50778262873081089e-07
1.93484696102322702e-08
-9.69223675654927023e-08
2.27981069205848678e-06
5.22637598537102528e-07
-4.38391444120132824e-07
2.49456186491235091e-05
-7.62407513446879991e-06
4.02393459003677346e-05
-2.68071139285164284e-09
-1.31329157234205963e-09
6.83803523441600682e-12
-3.281283150606846e-09
-8.75970998790790875e-09
-4.83609111443100862e-10
5.77865480045177112e-08
-1.2925363894696391e-08
-3.41289106557999121e-08
4.70910634711745e-07
7.76682335163031386e-08
-1.40762310955380968e-07
5.95398672321286816e-06
-5.06516140324376769e-06
2.13386044101577851e-05
-5.00593353397890616e-10
-4.13375334601123195e-10
5.09945730064252351e-11
-3.55345321144629428e-09
-3.18565959166686941e-09
7.94481832141707209e-10
3.16405797658345707e-09
-2.33607603153242004e-08
9.95528148068472889e-10
1.04519295746440515e-07
-1.52184091976222188e-08
-3.58770527163215899e-08
4.12670950441781158e-07
-1.35235927608888344e-06
5.42979085081081608e-06
1.95686534530834674e-11
-3.09821113354453806e-10
3.33385245108901326e-11
9.09999324794423442e-10
-1.87240904636614993e-09
3.33144816838789305e-10
-7.68735416869512682e-10
-9.30353799116270353e-09
6.14448531273529204e-09
1.14960803439530247e-07
-4.57505186199042412e-08
1.74382128592224844e-08
-6.08079694083505697e-09
-3.10312096657400889e-08
5.96478395455224629e-07
8.30955336174069783e-11
-2.02969481623200771e-10
3.3778078512733797e-11
4.76035462724845416e-10
-1.11831927034627246e-09
3.16931049946316272e-10
-1.03874349196963875e-09
-5.51179384930372861e-09
2.54824873638984542e-09
1.15445404016384422e-08
-3.12347313580724698e-08
2.38653963131436695e-08
-2.90652896731523351e-08
2.20098619160307343e-08
4.45333954023245735e-07
4.47921909362026671e-11
-8.16996565435520723e-11
1.51016995893938227e-11
2.51090407357221868e-10
-5.92829159400295597e-10
1.56655612075347448e-10
8.06750153276264169e-10
-3.16228357671045758e-09
1.47306940513532871e-09
3.53230390709187506e-09
-1.28017593389546999e-08
9.16927505699436471e-09
-3.99915944418663849e-08
3.69207078597509743e-08
1.43698630684885301e-07
1.48039697120875812e-11
-3.03260497932834109e-11
5.19273033999124184e-12
1.15652583666405053e-10
-2.37261123540848242e-10
5.47193666698232677e-11
5.88376684727551115e-10
-1.48984405219919257e-09
4.81264711814738355e-10
9.71649603912672582e-10
-6.43925023569488422e-09
2.91846172492349365e-09
-3.08509840474464423e-08
2.71039778125064334e-08
1.23256150132018837e-10
9.24009607846017721e-13
-7.45786279419228726e-12
1.58056883786523955e-12
2.0005965843103249e-11
-6.97268547258275237e-11
1.51705701734499231e-11
2.74466448039358341e-10
-5.34752368327907589e-10
1.25345240755382037e-10
3.0352560079526485e-09
-3.16064795290414842e-09
9.7152420536548271e-10
-1.53304475383542716e-08
9.06485033073047348e-09
-4.7160628059731316e-09
-1.61013016632886539e-12
-6.57396256881330725e-13
3.00105508242629175e-13
-1.28489358754134805e-11
-9.63862926353216477e-12
3.40135454559195941e-12
-7.16030605765885458e-11
-1.12008582815025069e-10
3.1647586033817151e-11
-8.50889857012100938e-11
-1.03849032106655901e-09
2.74291775372142548e-10
-7.23771340357419745e-09
2.22167770730232627e-09
3.84167291081057286e-09
-5.0389544756631751e-13
-9.90613535590447609e-15
1.5536517063326729e-14
-6.58864717080823416e-12
-2.68695714074547237e-13
2.97740730299377191e-13
-6.85133163364595714e-11
-5.35539664546903506e-12
4.35948194672724358e-12
-5.58548298802535373e-10
-7.83452010564810765e-11
4.7531997730570614e-11
-8.76904838818492636e-10
4.09650018033158697e-10
-3.28230668301751818e-09
-1.01459436174674925e-14
4.0903223917810368e-21
9.47913158888701323e-17
-2.78635921818635579e-13
-1.60891778267381266e-18
3.26386858187264632e-15
-5.59053875617927123e-12
-1.1227877084620616e-16
8.89600787263538442e-14
-8.22301335466068061e-11
-6.53466371779249946e-15
1.63302981872002203e-12
-3.385408894603405e-13
1.74960513155152518e-11
-9.10702678716008703e-10
-3.87871058570158936e-20
-4.49747432006098109e-23
-1.65174549020534986e-18
5.97324322316143032e-21
-1.16542249947808623e-16
4.51983319599644862e-19
-7.19684043743006268e-15
3.72733488824197453e-17
3.14588595461192527e-15
-3.83606061347244266e-13
0.000160573354941392205
8.94617676780451861e-05
-1.62103168200297199e-05
0.000745367321412413538
-0.000141124989824983844
0.000252203689333383612
7.86422645842993452e-05