/*--------------------------------*- C++ -*----------------------------------*\
| =========                 |                                                 |
| \\      /  F ield         | OpenFOAM: The Open Source CFD Toolbox           |
|  \\    /   O peration     | Version:  2206                                  |
|   \\  /    A nd           | Website:  www.openfoam.com                      |
|    \\/     M anipulation  |                                                 |
\*---------------------------------------------------------------------------*/
FoamFile
{
    version     2.0;
    format      ascii;
    arch        "LSB;label=32;scalar=64";
    class       surfaceScalarField;
    location    "0.239999999999999991";
    object      phi;
}
// * * * * * * * * * * * * * * * * * * * * * * * * * * * * * * * * * * * * * //

dimensions      [0 3 -1 0 0 0 0];

oriented        oriented;

internalField   nonuniform List<scalar> 
20536
(
0.000658958131824174693
0.000391463702054945634
-0.000329735959949477655
0.000358279139849172474
0.00125283896059010143
-0.000889085681346841214
0.00110433378474741667
0.000500653281059610907
0.000536620146652198871
0.000296891091779422902
-0.00019342968758302633
0.000235101295529730825
0.00110310469527504407
-0.000691359646664410936
0.000864171721799965775
0.000513542262916960634
0.000304616683246829677
-0.000897068133289670314
7.88619008812917145e-05
-7.60544746686851362e-05
0.000313886810281200517
-0.000600270204293101395
-2.56975868540499828e-05
2.61849145163879703e-05
0.000380706309161017069
-0.000132734083946545753
-0.000112834407855972612
0.000157741719770126835
0.00048012642833495647
0.000146993594289070422
-0.000145715746052095058
0.000196193318916354828
0.000931470829391120559
-0.000547998522989475573
0.000662439238658583908
0.000537319885246861895
0.000129351667411595054
-0.000819007064757082577
6.44010827435520636e-05
-7.75335104645947251e-05
8.14582878476766348e-05
-0.000522163995210778338
-7.51096032835880722e-05
4.48985147648636656e-05
0.000186296133692535741
-0.000193264227560039265
-0.000158100142733744929
0.000113790485428416722
0.000256630531531343124
5.24964592740791763e-05
-0.00012148007061516314
0.000145641786794358191
0.000600946032507537233
-0.000386506323604516558
0.000446282827159372349
0.000527378690206692369
-0.000255036469931977381
-0.000663347582688756515
3.41795951188104995e-05
-6.44218178121715244e-05
-0.000210143971999228728
-0.000522300935992733037
-0.00010020510083224176
5.54462815679502679e-05
-4.19522707788745364e-05
-0.000270471088504416245
-0.000324883613171487963
0.00023389913453744323
0.000109465428516892756
-3.28305831298947358e-05
-0.000311336542625378714
0.000245244012865763398
0.000250169206633716712
-0.000279935869867486292
0.000291556467845945034
0.000448619302421174836
-0.00035622176968448042
-0.000568878523437482903
8.63292932973309002e-05
-0.000117054867717166546
-0.00034179088264189503
-0.000518877296418145941
1.38790555590146393e-05
-3.17342263350269717e-05
-0.000178845613827067855
-0.000354492634810197769
-0.000259646358833567122
0.000180720694453578672
1.48055791182346815e-05
-0.000142980570075055971
-0.000452124354318269694
0.00036862076336788822
-3.38517546392552173e-05
-0.000261944202239860504
0.000280043740331672975
0.00028072760998753242
-0.000298608434919627125
-0.000482931144553743895
0.000130522312666278117
-0.000178691448220561443
-0.00032458107308298411
-0.000463050354797475531
0.000149506836957841291
-0.000179361579893330572
-0.000271336123692138514
-0.000384746644247979772
2.50277454637191856e-05
-4.801943363498079e-05
-0.000113613396621479405
-0.000261533730849183789
-0.000203793038851109143
0.000164622889622459477
-0.000223118062092692222
-0.000293310863390752958
0.000317930848706442703
5.10335740655752657e-05
-0.00024341650214582968
-0.000420804741181211557
0.000125874706009781014
-0.000158889328427407262
-0.000266686740010682426
-0.000400703881659994553
0.000162972899167786964
-0.000202049250530752302
-0.000240052689165667525
-0.00036730706348609717
0.000129104526099163233
-0.000173178351440265955
-0.000129137267747560323
-0.000321874446589376253
1.76781311900776569e-07
-5.07488347454992678e-05
-0.000254180056927389786
-0.000217069332479054126
0.000155638550282474579
-3.66428067228874183e-05
-0.000201578961563734073
-0.000383404126198868254
0.000106024275530733876
-0.000121570682279614103
-0.00021594362278439666
-0.000368037827209153213
0.000145988947164132498
-0.000164290479250191467
-0.000203177732791907093
-0.000353947280197894581
0.000167950529589365298
-0.00019407588073715469
-0.000150351773366260799
-0.000343531038538819327
0.000153091162110675471
-0.00018425851277501426
-0.00030812259004442497
7.57518150887617308e-05
-7.72353723110009191e-05
-9.49241682880611407e-05
-0.000170607194703303286
-0.000353120612056033467
9.52437571345854785e-05
-0.000106343233968204099
-0.000185155971740506202
-0.000341941822858459442
0.000120881573518236886
-0.000132428843013068884
-0.000189445298527985616
-0.000335428800834259775
0.000148866672309030381
-0.000163095081282223339
-0.000172898255610244936
-0.000336297122388616327
0.000164209418643467399
-0.000187989479223492383
-0.000326592867570830612
0.000126380321877563766
-0.000168249487306921196
-0.000112559098217147771
-0.000150350020771068102
-0.000329252617432452047
7.95198476597310986e-05
-8.72166133186110264e-05
-0.000164240920781244667
-0.000319404289300143107
0.000100356889913516575
-0.000109003149244341738
-0.00017712347088436029
-0.00031231823593295911
0.00012388392651923764
-0.000134111582014680093
-0.000187619943525690013
-0.000311448864398797417
0.000147318423001130909
-0.000161671002774802229
-0.000312722392998753744
0.000154583180381197575
-0.000175288031708742897
-0.000180787086626314427
-0.000132567816903812193
-0.000308510788558755958
6.11568635166363648e-05
-6.60789518868908429e-05
-0.000148666145406198654
-0.000297487250671578201
7.62636396217587949e-05
-8.20825018717320976e-05
-0.000166973880315366937
-0.000287247790173207054
9.37010972372147294e-05
-0.000100464521181256619
-0.000189772236891831345
-0.000280558707070263701
0.000113184610873276801
-0.000121277919690959021
-0.000279783566235657945
0.000129472913028993905
-0.000141591636971436391
-0.000210593490860135437
-8.31013463285541217e-05
-0.000312863596918111432
-3.0661819603478683e-05
-9.65789480406255594e-05
-0.000302493645417186525
-3.88101886307039686e-05
-0.000111184929037727985
-0.000290616478355962531
4.48593402430637092e-05
-4.81481779587081949e-05
-0.000127547879179110607
-0.000277184774677347154
5.47061709242273553e-05
-5.86461582073514627e-05
-0.000147670245868418426
-0.000262371609133615251
6.53454550715383325e-05
-7.01001300653682484e-05
-0.000175327919455434041
-0.000247046496307584663
7.61680429479613154e-05
-8.2023686330062631e-05
-0.00023407057726399988
8.47373647360489521e-05
-9.40372655864123267e-05
-0.000211741709621593574
-6.17635613697072142e-05
-0.000301898052816440608
-2.14684212754600443e-05
-7.2342834670483479e-05
-0.000290195663922865126
-2.65231318614686062e-05
-8.43379989441858094e-05
-0.000276575176485667484
3.02620860508226896e-05
-3.23081461353038664e-05
-9.84675474831060688e-05
-0.000260620577504670639
3.6188301367555192e-05
-3.86231275297351643e-05
-0.000116085332400398192
-0.000241797013284768064
4.21677643204490586e-05
-4.51250107077052158e-05
-0.000139881385709183191
-0.000219480089254529175
4.72982610232041973e-05
-5.10695006521969951e-05
-0.000193678684343473543
5.02928132018484422e-05
-5.50783562886066942e-05
-0.000175488663884897967
-3.73416246853101942e-05
-0.000295326033966437028
-1.3230682229948145e-05
-4.40790212508701459e-05
-0.000282570455603888221
-1.58815304434885677e-05
-5.198967736453502e-05
-0.000267620125958194818
1.779899275222819e-05
-1.88431418329202752e-05
-6.15015535688241547e-05
-0.000249877590111623053
2.08039025699528251e-05
-2.20350474524588849e-05
-7.3357709423349949e-05
-0.000228549230265698229
2.38187638685651704e-05
-2.52107249119728505e-05
-8.88874110054134914e-05
-0.000202457703747513867
2.64428088747891993e-05
-2.79362392929639109e-05
-0.00016985406403488009
2.74972133801927006e-05
-2.92834976103540323e-05
-0.000110927089387052736
-1.22017258049100416e-05
-4.75710060909760587e-06
-1.44574216787941526e-05
-5.5505090530826096e-06
-1.71974985594593261e-05
6.12098613306812e-06
-6.4121443354198848e-06
-2.05511026583533861e-05
7.00011721304382017e-06
-7.34116888024738263e-06
-2.46525669228423439e-05
7.92838840680800745e-06
-8.28599562389028569e-06
-2.95624239116825198e-05
8.9258224588050812e-06
-9.17094254749802659e-06
1.04168829678901383e-05
-1.00575547709250829e-05
-3.51493223775555978e-05
0.000623104618323923071
0.000501367947615625684
-0.000290932710928954634
0.00134102270273501567
-0.000705062447416528962
0.00051213671267052183
0.00051040461793936797
0.000412025471483537758
-0.000166598670516040267
0.00123529172820729298
-0.00057966600471138054
0.000504441903591556617
0.000281377773290840947
-0.000857555887742035778
7.4830464912390988e-05
0.000312446247046564544
-0.000556984330491711206
-3.39295356637999036e-05
0.000334172211732586201
3.57468790586802784e-05
-7.66026081438272034e-05
0.000421676429269324249
0.000281804498857134069
-0.000102999401044157689
0.00105011051808761658
-0.000480726128425260774
0.000539585244677680221
0.000131595582441490088
-0.000789960709549807722
6.97258598421981345e-05
0.000150696928835713281
-0.000536778884519610567
-0.000114417878082641644
0.000219977552634015208
-8.05029864124800001e-05
-0.00011113185612992893
0.000275559468297934592
0.000161020407716208126
-5.6278620259028972e-05
0.000735002438890938465
-0.000328855087808906002
0.000533016782112980154
-0.000152732041176128249
-0.000641709795864894134
2.25244358679975275e-05
-7.23133675534524603e-05
-0.000556089368655353377
-0.000161312944826715987
0.000106780698869263951
-0.00018899108815721862
-0.000395492358940193161
0.000162630798907077191
6.01871132080455701e-05
-0.00026635521111531015
0.000379444831288451156
-0.000233078907571839032
0.000471331550732740842
-0.000282668601452125217
-0.000558238530456164634
5.23407717712320969e-05
-0.000271917125882616714
-0.000516596581374732669
-3.63664054444265712e-05
-6.94914241327041393e-05
-0.000269881205707476145
-0.000381182526595416019
7.39025436007886079e-05
-1.80983786352247652e-05
-0.000517231413450436155
9.75910555358196576e-05
-0.000246418700297089941
0.00034023110729685703
-0.000266965449213363043
-0.000480390369416556129
9.48907847811147892e-05
-0.000299297870147807667
-0.000456151819951003705
0.000121393502575630331
-0.000218769894857112461
-0.000329292639445787788
3.911613883355479e-06
-4.11818116484494298e-05
-0.000131692036855005361
-0.000267784388201074012
-9.39027842333029546e-05
-0.000279073343220037477
0.000136075033820584612
-0.000221400476338997341
-0.000423658853463816643
0.000104120842384369222
-0.000258321408844534774
-0.000403179762438693706
0.000146922246616392686
-0.000243979283255770283
-0.000344163986960360042
0.000129636560111201699
-0.000152817007821566715
-0.000249376209327362023
2.67016213156443471e-05
-0.000247866708895593067
-0.00019319704496653775
-2.27239679036770129e-05
-0.00017872958730256013
-0.000390312600109773858
9.39546107462797781e-05
-0.000191986695159637266
-0.000376754555743478666
0.000132820489937479766
-0.000168051641839826439
-0.000355108363142894853
0.000154961357341293826
-7.30449790350710048e-05
-0.000326395764148953527
0.000135105461544627063
-0.000244810707475032587
3.42823680372157831e-05
-3.46319074528876684e-05
-0.000150838714222418114
-0.000360625747421017653
8.38603780782669361e-05
-0.000163719760020240829
-0.000353562570908286656
0.000110571143858562008
-0.000161493244746747358
-0.000348300290136033535
0.000139832742969770639
-0.000142205952153271495
-0.000338005837152805411
0.000156531212616206172
-0.000289602900922854354
0.000132389776744618721
-0.000103425625899762012
-0.000134079269315956907
-0.000337177378304856707
7.01319650984187941e-05
-0.000146499291003446974
-0.000330317352801803507
8.9532062164690004e-05
-0.000155889107507489467
-0.00032763759306937007
0.000112610101453180364
-0.00015358819923071284
-0.000328549466944758441
0.000135559264012545273
-0.000318667030840897995
0.000139892881520430322
-0.000109835413393938975
-0.000120321229389475733
-0.000316179276532336509
5.45591807845231317e-05
-0.000135137812272595774
-0.000307462887348400153
6.82248052550222926e-05
-0.00015232285528726756
-0.000300849630305493406
8.4096255983603566e-05
-0.000170779729720455556
-0.00029894884896009867
0.00010203958448917691
-0.000298857122043212587
0.000115137267387237493
-0.000176254327970899445
-0.000103071212746928841
-0.000297691993250010607
4.01126114415041631e-05
-0.000118826496039791847
-0.000285886806488645188
4.8884111875052362e-05
-0.000139009719443375151
-0.000273377776515461356
5.80552370104288803e-05
-0.000167139799714959226
-0.000261977561080429611
6.73259269873743361e-05
-0.000254672456911679177
7.34606274470587785e-05
-0.00020004778319099138
-7.93359489219524203e-05
-0.000282983504925367519
2.7211290434982651e-05
-9.3390059187126661e-05
-0.000268164930554555005
3.25199251560352411e-05
-0.000111567050181238936
-0.000250624505984911269
3.75903684365876871e-05
-0.000137425932165780186
-0.00022995791204454249
4.11363774349882323e-05
-0.000207065844515735023
4.06360426935110412e-05
-0.000175376586888305189
-4.93162638682396228e-05
-0.000273587966200520573
1.61478732351156899e-05
-5.88091492318932262e-05
-0.000256731776274676056
1.88633598053194893e-05
-7.09370603624977171e-05
-0.000236271136565887452
2.15927195952374343e-05
-8.74872989084360593e-05
-0.000210872571587796052
2.39063002826174473e-05
-0.000178573998810229958
2.4505053181311541e-05
-0.000112989223741298518
-1.63863882908800351e-05
5.61210373875432501e-06
-1.97088516071896454e-05
6.42190100208301295e-06
-2.37627756512210176e-05
7.31393693794041412e-06
-2.84559927546440903e-05
8.45860803346436678e-06
1.0604180362092378e-05
-3.31849315364877306e-05
0.000582324288469560254
0.000579690722727479102
-0.000227888298553158823
0.00143110409580493548
-0.000560772142086459749
0.000490875975587508123
0.000501197816288473548
0.000463674063046376191
-0.000115664709261416873
0.00132684387789761471
-0.000467018225298620397
0.000492810276155394768
0.000321651996106434804
-0.000840804623801018553
5.61731237695457114e-05
0.000374307575422997763
-0.0005714425599392353
-2.09734501341828886e-05
0.000312059972707477988
9.07827748427563895e-05
1.96884852288530476e-05
0.000381301067291631157
0.00033383327566863187
-4.23998594896342882e-05
0.00107123662072963256
-0.000375571312922435684
0.000531753500517709028
0.000228144184103453948
-0.000805192123646933551
3.52401071122945603e-05
0.000245241052202909359
-0.000540892350170929645
-0.000162064488634359116
0.000221200415749178882
0.000103093485271002347
-9.9401897202288259e-05
0.000300572402882957066
0.000232777666440490451
-3.45945856992175746e-05
0.000774602964916840651
-0.000254110718494726163
0.000522461696404814564
-7.58427518638666811e-05
-0.000650595532799761356
-3.59799358255887293e-05
7.95865442768593204e-06
-0.000528795514684176986
-0.000257211956141931446
0.000158793376220020262
-1.74401958627565918e-05
-0.000425793948339862416
0.000179829642664099728
0.000163948748373919987
-0.000218562073463629059
0.000442052791320725542
-0.000188574477286850071
0.000467875374946429348
-0.000196816427746519731
-0.000544889021906356727
8.48931119164988838e-07
-0.000168375298766110498
-0.000509972460980431591
-8.36303650731303199e-05
3.97270344870699458e-05
-0.00017624638750062308
-0.000430478629219599473
0.000127159492856503229
7.91807859561317038e-05
-0.000519894964983683258
0.000190800656308252187
-0.000238086604790782813
0.000370079589794082217
-0.000210707868959727335
-0.000469035364591192168
6.34070558901271325e-05
-0.00024056408872338115
-0.000454319002859378219
9.55978275899295693e-05
-0.000126297612282838946
-0.000267768841984182885
-1.88289440511107395e-05
5.47492187526633364e-05
-3.4135311996223586e-05
-0.000335513751102494611
2.92423294607645125e-05
-0.000296037709357350879
0.000233272727719684506
-0.000184332359650013733
-0.00042543575110794477
8.89369904629546716e-05
-0.000225190416446030713
-0.000403233915816550057
0.000136695405484762268
-0.00019619652357375441
-0.000318984985312747483
0.000151859279834322283
-9.47617626902092294e-05
-0.000170546304578752752
6.16781331858004024e-05
-0.000141600356847823073
-0.000162788820094500637
4.56727993127566817e-05
-0.000154287082362546601
-0.000396975509609598647
8.42674221511476414e-05
-0.000165284765463888372
-0.000385414643986619829
0.000125998834252322899
-0.000138659143457142502
-0.000349995909092133684
0.000159346912356196169
-4.81053064649186561e-05
-0.000282735671822394586
0.000156740206446740339
-0.000189487822990790219
2.39544409154539631e-05
1.01085824742981156e-05
-0.000132104365710332644
-0.000367639459182713887
7.06111371528771008e-05
-0.000141679501884344139
-0.000364886889048229596
9.96189262503452974e-05
-0.00012889189969707732
-0.000358174358244932258
0.000135223407479707382
-8.53163998635843632e-05
-0.000331725606599728401
0.000161944185364360085
-0.000237582389953622253
0.000151873695703002329
-5.67075866002744559e-05
-0.000119187243035166356
-0.00034429869395042527
5.94121505856595896e-05
-0.000130606207221960771
-0.000341178629400293255
7.72427049838031091e-05
-0.000135652971636738157
-0.000342028096537138552
0.000101509724022596536
-0.000123732340996633776
-0.000337812747119676669
0.000129724742478252227
-0.000301825217652132568
0.000139907500271232034
-5.95047107465947623e-05
-0.000109255194138652958
-0.000323014927975515489
4.63904895329506764e-05
-0.000123205466859182807
-0.000316881992774111431
5.78773760815201756e-05
-0.000138626129413380983
-0.000314512737222909591
7.20005891717777325e-05
-0.00014853077890809372
-0.000315313966342050604
8.94451740138769519e-05
-0.000305473723721196803
9.95268030906480011e-05
-0.000129271419628866055
-9.58013071968761047e-05
-0.000304046756425863768
3.4236737979052124e-05
-0.000111545024902528963
-0.000293775572715483896
4.15201587543677472e-05
-0.0001331369270273047
-0.000283917902155476638
4.90515937393582856e-05
-0.000161844022214936017
-0.000276878786697064738
5.75978030502573795e-05
-0.000269148313652047076
6.47815740201786682e-05
-0.00018949017390643754
-7.48550672667292155e-05
-0.000288834138945192991
2.34426820152261888e-05
-8.9054887928610241e-05
-0.000274937962884727301
2.78813389593370316e-05
-0.000108701620668147088
-0.000258453965489040727
3.17725724243131367e-05
-0.000138707885159755943
-0.000239470484296917276
3.37340564174796553e-05
-0.000219381204335860019
3.2390331700583958e-05
-0.000180229866362946971
-4.68654700508522448e-05
-0.000279082899903374795
1.40056385717137655e-05
-5.63177419187763567e-05
-0.000262978893520865128
1.63564284185063565e-05
-6.85924590434630415e-05
-0.000243261779540070232
1.86750111154663049e-05
-8.61892170666861835e-05
-0.000218339929152849968
2.03718223428434367e-05
-0.000186280356479443659
2.00597643887955145e-05
-0.000114846049558502787
-1.56365446760733319e-05
4.91300664738587209e-06
-1.88978119166394287e-05
5.63874628281739089e-06
-2.27973141159946647e-05
6.4851878890076256e-06
-2.69225978218873212e-05
7.84353004000746752e-06
1.07669277971573153e-05
-3.01183206135920229e-05
0.000579782822007956101
0.000622367935481802671
-0.000186952055294339442
0.00145886591549100305
-0.000421135486778791591
0.000503026746228295686
0.000495378282861515772
0.000524400629905191328
-9.65176689464808748e-05
0.00133695458864454067
-0.000353441633454059788
0.000503713006373866204
0.000283188694367808612
-0.000839947285718864759
6.77510801966912024e-05
0.00032489556673713087
-0.000444372652355695024
-2.64296163788131805e-05
0.000273751685915403389
0.000296947214707503826
-2.19044543490180159e-05
0.000368578809594619257
0.000431857218418593551
-4.46838219931871048e-05
0.00108704373891859124
-0.000282456225047140422
0.000525374490760040572
0.000143668977132197862
-0.000784820926712232435
2.62139139863858985e-05
0.000156839183876644468
-0.000420440150716059865
-0.000199167120278482933
0.000164478410337586846
0.000348001135787878463
-0.000158096673710751885
0.00029270492974759442
0.000331585286079309131
-6.25500184577767456e-05
0.000819699288465509848
-0.000204105582258300492
0.000510044107958561223
-7.47521234302217914e-05
-0.000598244811469813491
-7.45817549390241191e-05
-2.85282946418728899e-05
-0.000456857928374833897
-0.000267017423813520555
0.000112920030424246506
0.000159943672851289777
-0.000379186201812681527
0.000184744168622337805
0.000250048014452667364
-0.000208849397995057069
0.000520238230563799513
-0.000164681630701490048
0.00046031230268780976
-0.000143224250602692308
-0.000505370414521887404
-3.11467940405016884e-05
-0.000109608178687394496
-0.000489490067921692987
-8.4613488039741159e-05
7.92171714912961772e-05
-0.000109719485993434174
-0.000349640033905098909
0.000141068932545442992
0.000156670494180787575
-0.000488369362633699652
0.000264942612091380726
-0.000225988552103307535
0.000384266614804689224
-0.000148148928274498845
-0.000450356681216682302
4.2490547184782451e-05
-0.000177458600821500917
-0.000442448399996341946
7.78656078660826788e-05
-4.20913349112383303e-05
-0.000247247852290100826
-1.66678323992346724e-05
0.000114842381581037014
1.56100237142646502e-05
-0.000351386901771275084
9.4664806487806144e-05
-0.000295529409102161485
0.000284612294860741785
-0.000138311094022671008
-0.000422587303803061956
7.57635045624346795e-05
-0.000158098229938293764
-0.000410655726119274901
0.000124689443459727203
-9.90367623084850452e-05
-0.000314297021381824699
0.000159847609253244767
3.08996078627632746e-05
-0.000143600969562372846
9.09525644484124275e-05
-2.71573962948365574e-05
-0.000165436318472917667
0.00015536936136333751
-0.000128596957899437694
-0.000402037130024972234
7.57161683592773299e-05
-0.000132591365963966127
-0.000396677640766662288
0.000116014936394056537
-0.00010012667009890659
-0.000350871862820001368
0.000163457332001330877
-2.3465235224941379e-05
-0.000246786104845834033
0.000183263124661496753
-0.000134471717974517018
5.43756746624736269e-05
5.34268837528972378e-05
-0.000111136971234301792
-0.000374434652855817408
5.58707361817993849e-05
-0.000116355430197369515
-0.000376630434809467651
8.47910198701069655e-05
-9.13983512797141332e-05
-0.000368270582185108088
0.000127665122152798542
-2.08402187016593727e-05
-0.000326245606147208724
0.000170844859708969913
-0.000192607904590791996
0.000157707857808985207
3.14607636285459764e-05
-0.000106169659927626901
-0.000351015788818849689
4.67731035829297304e-05
-0.000115483173264154426
-0.000352056990207649443
6.19829505977296185e-05
-0.000113269425670784255
-0.000356142717797231043
8.71673869853548404e-05
-8.53850667444974851e-05
-0.000343812499851028604
0.000119406623017503406
-0.0002585145699412325
0.000136349685944641872
-1.59209632300955084e-05
-0.000100096160287678433
-0.000328934607397869813
3.68699165233384539e-05
-0.000114310771223122862
-0.000325381717883627944
4.54158128602480022e-05
-0.000129183925945933344
-0.000326785566835634429
5.75157323070625315e-05
-0.000133455457767386486
-0.000326848462562347012
7.67523627333648967e-05
-0.000296408419300530398
9.63675843319606738e-05
-9.2402141981481477e-05
-8.96740011993847847e-05
-0.000309493953931658315
2.74516150479989762e-05
-0.00010559135065245881
-0.000300644705982470648
3.2699276713670525e-05
-0.000128141156387047211
-0.000293205749117571356
3.80207999230142734e-05
-0.000155898104430083359
-0.000288542622149344226
4.70487020674835972e-05
-0.000278935160263068345
5.92349310110899135e-05
-0.000167824675680966322
-7.10484349807314486e-05
-0.000293828440800696718
1.90966270706144838e-05
-8.56274898240949524e-05
-0.000280737735734882881
2.25526699252802351e-05
-0.000107144138497187273
-0.000265239981457357889
2.53230241437558741e-05
-0.000140525856415688434
-0.000247951766674806755
2.65247846574943871e-05
-0.000228966201188293282
2.67637119805775299e-05
-0.000184868569838319413
-4.47268819470572604e-05
-0.000283844688160418029
1.15065293779463078e-05
-5.41236074700798505e-05
-0.000268399406684665656
1.34149065872440382e-05
-6.65919989372550715e-05
-0.000249275686899109832
1.5179169768751413e-05
-8.53319435770027735e-05
-0.000224700518537746826
1.58602412941321332e-05
-0.000193223997688771838
1.40815946059104018e-05
-0.00011509677867025883
-1.4967407286315394e-05
4.06939871242604904e-06
-1.81266666831563961e-05
4.69404426147847516e-06
-2.17211798226509045e-05
5.47937437897244678e-06
-2.48801785716333804e-05
7.01918335309275744e-06
1.05794768672950039e-05
-2.5864128027078002e-05
0.000569574202121858088
0.00066580306071616004
-0.000145162243149776304
0.00149820798180066148
-0.000305490038323329703
0.000508035819002652803
0.000493075970398302449
0.000575536511464974079
-7.79693513174689162e-05
0.00140319112555443732
-0.000260084421137533862
0.00049473558821630818
0.000252125899626254638
-0.000747350539093442987
7.42965173819243123e-05
0.000318534234069543191
-0.000280967542300720736
-3.35044753412191276e-05
0.000277223620700449967
0.000360147290135451694
-5.52277152366431644e-05
0.000372995242433137898
0.000479030479577726136
-4.3949793151641054e-05
0.00118627670969088808
-0.000210271630566911396
0.000517725022785800178
0.000103411744285650828
-0.000725962359011427926
6.86092296120133016e-05
0.000125972963084774005
-0.000317996462073989608
-0.000184700991023959555
0.000162951448677895231
0.000367377434504887802
-0.000202308293031900911
0.000297964873884097527
0.000348177270389987876
-6.67108953955020497e-05
0.000933753251283035452
-0.000159614684841818163
0.000505997439212086623
-0.000105522836927491459
-0.00061369539333430798
-9.29752853587806928e-06
-7.07407002251082877e-05
-0.000400090916842035533
-0.000219706480573103081
7.9655589158574827e-05
0.000186606223342500088
-0.000348813302664805988
0.000186592381593232021
0.000241806831836336637
-0.000209415869816614338
0.000617688015967710253
-0.000134588540932864954
0.000472564586812959306
-0.000142043926672303842
-0.000543913212751808827
1.72180301324911577e-06
-0.000101128508842010707
-0.000483811161491931
-4.18095964697678634e-05
7.13518736667112573e-05
-8.56319831882168699e-05
-0.0002498821122465366
0.000124398850565505056
0.000139501804358236069
-0.000439110806822272338
0.00030944094015577172
-0.00019862576582498374
0.000405283299128556332
-0.000119496475741647908
-0.000485776467223703674
4.16617549725554871e-05
-0.000142733580560331041
-0.000452862737159548466
7.01538196154508846e-05
1.3841638928596071e-05
-0.000271338435591552503
1.24636928295986972e-05
0.000134827911175950109
-4.700501813494312e-05
-0.000285866049018507857
8.17281339767783485e-05
-0.000252567750045995293
0.000319579295163869431
-9.93481309710427522e-05
-0.000441693034483453691
5.49850863088083833e-05
-0.000100796348229496849
-0.000426472923659074849
9.97474721123138211e-05
-1.44271069817187474e-05
-0.000343365104439762113
0.000145506063877401496
0.000120334242420427201
-0.000187170548666150502
9.63566655532708042e-05
-9.16089456631951927e-06
-0.000156890002350713507
0.000202677392582362517
-0.000100785267300035179
-0.000407575565175284584
5.12267237325175604e-05
-9.57237453724478233e-05
-0.000406901765060423473
9.13830491663472925e-05
-5.30505115691621014e-05
-0.000366672703044286649
0.000144092458528301769
2.69767360596286738e-05
-0.000256075414626095099
0.00017213997655985143
-8.49133178315718029e-05
6.98492659605114824e-05
8.72549985690340354e-05
-9.50563214359199471e-05
-0.000380276201782968836
3.88119053954527751e-05
-9.64235394553011166e-05
-0.000386115876129812334
6.53734242311907165e-05
-6.47937132112361917e-05
-0.000380833485853907688
0.000110196002993946047
1.46273637908169362e-05
-0.000327346404847790714
0.000162694155259841507
-0.000176128528729434914
0.000165094163550152874
9.84555584765593554e-05
-9.60314130585881499e-05
-0.000356536507283378786
3.39781529944959435e-05
-0.000105472978924524852
-0.000360571671974664566
4.58803220820996394e-05
-0.000102339914789735726
-0.000366609828282550619
6.98098008680988704e-05
-6.7665028965630035e-05
-0.000349993311924301324
0.000107377969198593532
-0.000237168209026820568
0.000129470881505929197
2.5284510790895675e-07
-9.38541354892655856e-05
-0.000333525830778665902
2.64998738523564101e-05
-0.000109382522662755189
-0.000331905249163522782
3.22765862173368198e-05
-0.000125186819398427992
-0.000335156717794779155
4.18657025884825303e-05
-0.000124750276783867822
-0.000335700722996839726
6.20227201675239059e-05
-0.000282442021383329613
8.83660094719772668e-05
-7.1475022776754972e-05
-8.50524571996616322e-05
-0.000313775653442640678
2.03966501833082845e-05
-0.000102038216763113604
-0.00030605923596564613
2.38376258576073425e-05
-0.000125870452497502453
-0.000300530209913631478
2.72255529387725932e-05
-0.000152842899976292205
-0.000296821841609251267
3.51420723699010298e-05
-0.000279096912552433411
5.22688565419065633e-05
-0.000149221679873157446
-6.80059340233692242e-05
-0.000297833779389942185
1.44067118206721526e-05
-8.29191128769128237e-05
-0.000285402177013531467
1.68080797379251071e-05
-0.0001057947170091285
-0.00027080678492502787
1.84749330811592328e-05
-0.000140578569618808239
-0.000254937042876134394
1.94239438411134844e-05
-0.000235412434020813323
2.11141972194975636e-05
-0.000178613550046582411
-4.29796312978163734e-05
-0.000287723620840305092
8.79427559952322657e-06
-5.23655393441014821e-05
-0.000272836838521661057
1.02357511424728395e-05
-6.52718666612065915e-05
-0.000254153278235783443
1.14322288133152172e-05
-8.5865111853265723e-05
-0.000229750226676308313
1.12665593987622129e-05
-0.000198555829221922083
8.70728597651614927e-06
-0.000117347900104907289
-1.4399032184849433e-05
3.13008806045084916e-06
-1.74276765971339114e-05
3.63566808895927418e-06
-2.05918200615005242e-05
4.31654148222275739e-06
-2.22782448774637002e-05
5.76456207772917447e-06
8.76361619838624526e-06
-1.87966097760475817e-05
0.000562662110232539474
0.000675587741996379549
-8.71361957467397814e-05
0.00154573579260556203
-0.000202513550221066223