/*--------------------------------*- C++ -*----------------------------------*\
| =========                 |                                                 |
| \\      /  F ield         | OpenFOAM: The Open Source CFD Toolbox           |
|  \\    /   O peration     | Version:  2206                                  |
|   \\  /    A nd           | Website:  www.openfoam.com                      |
|    \\/     M anipulation  |                                                 |
\*---------------------------------------------------------------------------*/
FoamFile
{
    version     2.0;
    format      ascii;
    arch        "LSB;label=32;scalar=64";
    class       volScalarField;
    location    "0.239999999999999991";
    object      rAU;
}
// * * * * * * * * * * * * * * * * * * * * * * * * * * * * * * * * * * * * * //

dimensions      [-1 3 1 0 0 0 0];

internalField   nonuniform List<scalar> 
7248
(
0.00015682698650563626
1.65344448646236523e-05
0.000589257373248073656
3.5593108312906356e-05
0.00156564080426084811
0.00738601904729368694
0.0135222833234829379
0.00347491380186973342
0.00017368292866351586
0.0070875342664555481
0.0149397225250281762
0.0183207097273847541
0.0103853299030213855
0.000309562926285143248
0.0134253867738107074
0.0148517651279865721
0.0163235619977950379
0.016880817365965084
0.00077632216306222938
0.0135988645146279518
0.0146072263228339203
0.0149246077095207905
0.0143502831978336385
0.00304711260597045766
0.0142644452644000459
0.0141208371952517512
0.0161299922669096256
0.0166815798827512005
0.00743984623126202164
0.0154477386945460204
0.0149992962427600209
0.0156558373936870679
0.0183125177648817
0.0110885696142973538
0.0165960454589090083
0.016156532358622161
0.0160652934912053139
0.0165756451136013609
0.0181014220713793909
0.0174409662162249672
0.0171018444260852102
0.0167630374113650719
0.0165485684378841418
0.0170673806439448524
0.0182038128286722556
0.0178827896453200227
0.0175039715830611967
0.0170270330242715678
0.0167137491078072319
0.0189864023054840646
0.0187019903663987463
0.0183533692931021619
0.0178693695339928217
0.0172704189827841449
0.0201554949479697716
0.0199835863211686067
0.0198024594778518671
0.0196046432866797266
0.0193623625606261091
0.0190159078772505624
0.0184938675313119187
0.0208161911410889092
0.0207517384430205946
0.0206839293945496154
0.0206112750201770493
0.0205262605194999198
0.0204074700519930423
0.020182134049905414
0.0214819441416120617
0.0215408898239085947
0.0216126833620705616
0.0217020836203233661
0.0218150540561853415
0.0219577923747034387
0.0221282357396494003
0.0156948012874084802
0.0160001803970423982
0.016374652491747025
0.0168429792318507965
0.0174424447270739823
0.0182330491938986969
0.0193098280600713899
0.00012133208265413142
1.55195991304153287e-05
0.000404347324473535114
3.52350325664168388e-05
0.00130504171817626764
0.00700092970514564709
0.0103903352270218602
0.0019738073701978465
0.000140011994221519862
0.00674540664178991355
0.0142930723218358223
0.0184051714624416385
0.00573922733111755391
0.000239481709902358868
0.0147660402189931789
0.0152479046518757232
0.0167972363748092358
0.0122782466752297693
0.000560854464479254274
0.0144866217539168056
0.0150633662374322803
0.0156011672249054874
0.014266768148514684
0.00177133574469152738
0.014938394832865038
0.0146003772545172453
0.0169919045170613646
0.015425176808531357
0.00758844527628853467
0.0159370453254354637
0.0153703137659997342
0.0161266101695038272
0.019383776686671985
0.00626920605238478167
0.0169315733113977393
0.0164902637013417709
0.0166446068264021751
0.017683351932209726
0.0191405038744514519
0.0177138675835628
0.017338268388760316
0.0170622606932753773
0.0170400187679788963
0.0177874940484056485
0.0184069525072206794
0.0180698611207283366
0.0176828710042566048
0.0173387319472742274
0.0173777179285798562
0.0191166388443977965
0.0188258135716961074
0.0184486781807405333
0.0179523857496276182
0.017497642384410473
0.0198665942509908822
0.0196617502475408892
0.0193943861514184815
0.0189929706582271964
0.0184405283290119681
0.0206940123214830393
0.0206102722016440615
0.0205037602221972599
0.0203376193817875299
0.0200351387404771632
0.0215727996409190333
0.0216497377684724893
0.0217445433534783766
0.0218569021109277888
0.0219603858191226887
0.0162301384860424093
0.016667344192724174
0.0172294289552702463
0.0179738138557208153
0.0189921449801033482
0.000101104084616222598
1.40517461965099248e-05
0.000295361670822991346
2.62487162997980608e-05
0.00152127780523287118
0.00665411279492488569
0.00774893313721678779
0.0012350806968814158
7.2761020169574971e-05
0.00694350832832377717
0.012762217835572633
0.0156353141730332414
0.0039772055055677458
0.00020571582999541897
0.0148232640075847827
0.0152523435948085373
0.0161810683566062999
0.00884163883794394923
0.000462199290836082049
0.0156456212214369367
0.015528543249990397
0.0140678400635469956
0.0115510308409843415
0.00128492877379126052
0.0158797267440056733
0.0153681293810610745
0.0186931409547965166
0.0126994344155416852
0.00476503175219395413
0.0165084449439773136
0.0158224377051136116
0.0168518246595468976
0.0214918982080453298
0.00680296851937893
0.0172610213788228148
0.016807314982498444
0.0171280979657455687
0.0185167089316840179
0.0136197499049840447
0.0179918980538052269
0.0175756215870403361
0.0173895778641590705
0.0176863390702943699
0.0187889276363862705
0.0186292493650449427
0.0182649390441820929
0.0178722915096191405
0.0176632318321146113
0.017564760667994693
0.0192672731132989272
0.0189667669713903114
0.018565391139296037
0.0181243214368226498
0.0179818917032971565
0.0199511977576130109
0.0197374865836842175
0.0194283040598539347
0.0189641134038377838
0.0184411668504531959
0.0207209992530596951
0.0206295176352675955
0.0204962429611334242
0.0202597856997479148
0.019890169939246926
0.0215481917941069898
0.0216174435830141128
0.0217010304822280557
0.0217904156568967944
0.0218358662766622129
0.0161012882177341901
0.0165126201464618275
0.0170426200330955555
0.0177473266564200302
0.018712490915371114
8.865310605651396e-05
1.36476696566938359e-05
0.000232933559558225954
2.3351565068457026e-05
0.00141909743516304039
0.00725864527330595446
0.00470025887808214922
0.000770968503033326279
6.3874286650722275e-05
0.0065494475709970473
0.0141408221912553995
0.0105438630386542193
0.00238705340142685192
0.000192598779247765695
0.014703490207131218
0.0155157714321166595
0.0132520638530331074
0.00592545841282198383
0.000390626535226940225
0.0168096667751869121
0.016299461130846165
0.0123076730715845645
0.00961990188184320451
0.000959604812586949086
0.0170570728153494576
0.0163436457968814605
0.0208859177101123825
0.0138100493431488874
0.00333065775256534283
0.0172027112310360088
0.0165324848029142074
0.017459001341062888
0.0184203856556235772
0.0127540559571227737
0.017608436827618066
0.0171073783496877123
0.0174693699194875991
0.0185918805911883186
0.0107844108466958223
0.0183337354720723086
0.0178609933179995628
0.0177415477807069712
0.0179721504351305038
0.0168508714242789209
0.0188552124452692933
0.0184729806646940255
0.0180894941777290166
0.018055147590643722
0.0184890704255319741
0.0194285496761294925
0.0191121218408953422
0.0186767604961980936
0.0182914428532890659
0.0183810753852039835
0.0200501283179904816
0.0198320285134551827
0.0194918862388864973
0.0190002423546354431
0.0186430631710754573
0.0207627583789995115
0.0206654920239274162
0.020503734103130937
0.0202054793663547227
0.0197470549141279851
0.0215397197922695023
0.0216047086878963894
0.0216813151998450117
0.0217536505423121217
0.0217776079852754455
0.0159931487242141283
0.0163826049324900316
0.0168862621953791113
0.0175594377355870399
0.0184758439852668425
8.02998284709684754e-05
1.42736447848265481e-05
0.00019672267707276361
2.33288491356329091e-05
0.00213496014079516978
0.0097672497084756657
0.0033703660151674867
0.000593436722896596019
6.19997021124061112e-05
0.00871357553856309808
0.0161855552585299552
0.00882393543306019684
0.00185319318118662315
0.000175510825299054986
0.0149453252335287421
0.0162203452069568758
0.0132542578750768272
0.00513109347387037847
0.000324333801141860588
0.0167629959768271566
0.0170233617698462951
0.0152099969708112907
0.0102501947931686009
0.000761367075516031569
0.0172205685496429305
0.0167420759158121157
0.0211756295164111583
0.0165423245744245086
0.00286239622332640957
0.0175883457975196979
0.0171355850601335388
0.0179785510605624255
0.0168967183654886999
0.0126385658834369044
0.0179799996268391153
0.017525043533464315
0.0177056178835752198
0.0173378231767563062
0.0158772943732817737
0.0186564354310717988
0.0181671438613153456
0.0179563073751727899
0.0180093812308430405
0.0161644768605251482
0.0190902548923520196
0.0186878375910040813
0.018253316079938256
0.0182249385012533197
0.018136292636265483
0.0195891784198075208
0.0192615028033076945
0.0188009144894434217
0.0184171677928386818
0.0184203471177489496
0.0201588102781474279
0.0199348986171602738
0.0195720604028468345
0.0190444954997926984
0.0188481300085167197
0.0208179056092604904
0.0207196155899641299
0.0205372181616062799
0.0201966882360080299
0.0197638653118062495
0.0215462776126521954
0.0216095385926208042
0.0216803422581002825
0.0217333407683879161
0.0217376221305385954
0.0159081967926107508
0.0162798833408515538
0.0167637287513218852
0.0174177796041684214
0.0183168976961470276
7.81738910975269966e-05
1.44522070666905541e-05
0.000195144168772232206
2.21072394605383532e-05
0.00166293002689900469
0.00721448595405124477
0.00384630056896904417
0.000620963723064957935
5.98230181106710097e-05
0.00755842871630951676
0.0144570422309736966
0.0108137163976280495
0.00212221885030981251
0.000173625792388656838
0.0160288806047028838
0.0164683193108748731
0.0168052411268038368
0.00665006031400338943
0.00030923373660549753
0.0172391274994573261
0.0180130438656953482
0.0190682331658633165
0.0141905880189007096
0.000746787513424023949
0.0174698217755295433
0.016876973210906962
0.0186103653807051031
0.0177799730911042154
0.00333653182035136128
0.0182385049525907068
0.017595729951882199
0.0176579362252853519
0.0164487724327346332
0.0172175012400856246
0.018554688922623918
0.0180387839047629513
0.0180234107863265491
0.0171925311754825144
0.0174889534815178618
0.0190013812153244054
0.0184992672410336546
0.0181514713842179237
0.0178267645072602426
0.0168244620071131799
0.0193149754021345321
0.0188995210806080331
0.0184182271391947136
0.0182226528195428145
0.0180107536769056782
0.019743295467077638
0.0193907958435250612
0.0189010907773562893
0.0185244177998896802
0.0185759667003962264
0.0202668195399329405
0.0200313768859113547
0.0196380512344338509
0.0191347614165355805
0.0190669540428591786
0.0208821963949878918
0.0207846463396318092
0.020586816254582984
0.0202259364254727333
0.0198881321601424924
0.0215659299714467401
0.0216287029814024451
0.0216915115755813744
0.0217109066825556078
0.0216871608263691854
0.0158470797403317785
0.0162053821652698472
0.016675712343595786
0.0173209259849939241
0.0182274892249510607
7.5832662222092946e-05
1.44044708400128503e-05
0.00018458316995040186
2.17683036436853829e-05
0.00149336087361158607
0.00747915745793259739
0.00380939815585942939
0.000563663755115603239
4.8773091815895309e-05
0.00663868440590908472
0.0171354931820498733
0.0115736609168529507
0.00199111312161876592
0.000176412015076004197
0.0161618723860032891
0.0171526763495521359
0.0166536436283037312
0.00757526719834061661
0.000304905601866202068
0.0172257512382538412
0.0185497915723469298
0.0186521973561655889
0.0161878073142449619
0.000794958658301678266
0.0180167557924115172
0.0174365876045909259
0.0182300624054488533
0.0173688438173194258
0.00454556097691801147
0.0191024475995076153
0.0184285267602562579
0.0182634111447756292
0.0175205423369030576
0.0177510635563570239
0.0192486110769960229
0.018897620246752022
0.0184972026229744436
0.0174983957669468566
0.0192439342724567662
0.0194196399045215989
0.0189443834359289028
0.0185326017326609485
0.0180694764686424245
0.0176958792124221193
0.0195038986747145676
0.0190457913067816065
0.0185671916849795421
0.0184478192358528172
0.0181824588338910173
0.0198773927733968438
0.0194641578492023119
0.0189157422805299458
0.0186438858368634039
0.018722629853475406
0.0203684196485606067
0.0201016386157918427
0.019640348279271802
0.0191693606977322087
0.0192708116862513497
0.0209512798232142708
0.0208456356431677946
0.020604945997342989
0.020201753966416134
0.0199732738498626383
0.021597714761537927
0.0216616437211574787
0.02171583290718819
0.0216931254621636448
0.0216256336771791444
0.0158094047253717444
0.0161584988641207093
0.0166204937374280215
0.0172656875753110541
0.0181901727064222411
6.75666785116192279e-05
1.59785507847297841e-05
0.000157659067383221496
2.02333018285272672e-05
0.0017951497405168423
0.00930655053755139253
0.00294020880119730569
0.00045921336809915395
4.046425984316761e-05
0.00803338621497417561
0.0194457554255126897
0.00973483581208684813
0.00165556919145029699
0.000179354089370214629
0.014862145673144974
0.0172648289205798514
0.0106228034014468637
0.00763378969132026165
0.000316979631529902865
0.0187717279022179655
0.0204364152946270132
0.019023813090185776
0.0189587385523392951
0.000886296131040355392
0.0205687970623045363
0.019550128771787318
0.0187683870836741554
0.019399707335675774
0.00527873908531786666
0.0206926828688028669
0.020413034636583012
0.019620224178417224
0.0193247886238136733
0.0204641560615986505
0.0198900648998857274
0.0197621259125776334
0.019181760783850102
0.0183496096883570929
0.0205625916819191165
0.0197742705943163705
0.0194738061388412334
0.0192096555022485266
0.0186441412419457477
0.0181956277130672396
0.0197901448552396976
0.019447733369739869
0.0190739311520556828
0.0189661066857083234
0.0182777534300395256
0.0200453120025472983
0.0196959295618947365
0.0192140002999280773
0.0189464777033599673
0.0190317473918669017
0.0204787246154556693
0.0202549842048472505
0.0198591551350190375
0.0194040146035235721
0.0193118253198430907
0.0210164714154761172
0.0209333463063941586
0.0207499519064516143
0.0204101275531611039
0.0200462924317721843
0.0216246986476867943
0.0216974366276934255
0.0217708071736746681
0.0217886345242684736
0.0217564217068033257
0.0157856037435914094
0.0161294656041947662
0.0165837102531833751
0.0172157537162291978
0.0181028197469728994
0.00102881794666323675
0.0028239108202015111
0.00909048328977580741
0.0106139580640809729
0.00171764065709287175
0.00639876935604383797
0.012037217770129803
0.0130533708916621329
0.00807238074928850503
0.00803800881182093266
0.0132101995879907452
0.01597307814212982
0.0156291963109100873
0.00924275175998804516
0.0151971697004577369
0.0156632683185957758
0.0163491791670295934
0.0166290025486603883
0.012096684868132335
0.0143934769410531509
0.0141866290906664666
0.0146281597176818774
0.0160809494339277485
0.0144501049570124711
0.0147744478572076725
0.0144557309783258821
0.0146657944829980767
0.0155486461844779027
0.0143002303931246237
0.015449512661928089
0.0150462901073268613
0.0149253187303134711
0.0151986229736726097
0.0146676058140088276
0.0165730928329533879
0.0163409958860003639
0.0162035562860249616
0.0163082594073356776
0.0162624581826222338
0.0176972625038381882
0.0175367465318303842
0.0174006659091880851
0.0174349647647053692
0.0174048077893750527
0.0186060241408898784
0.0185042241698950526
0.0184523627950681814
0.0185406714159506922
0.0187024727166537133
0.0195508754537778683
0.0195068059050327834
0.0195093493814786842
0.0196103542748011644
0.0199194964362786435
0.0203967258761909888
0.0203791754256067957
0.0204061905498241179
0.0204693116734212983
0.0205766977875216188
0.0207646842495967099
0.0211616897440086472
0.021207685852056686
0.021273641331411023
0.021381520365844342
0.0215407087608534102
0.0217604795213621159
0.0220599861856339181
0.022530579772416022
0.0219513557650628036
0.0221251249285298705
0.022344797961564692
0.0226223233966574185
0.0229743333477373315
0.0234193584631348407
0.0240100315723351145
0.0163762954857884502
0.0168434488245069944
0.0174185502565284318
0.0181342918854001597
0.0190347995308179675
0.0201790687931452835
0.0216619208975037565
0.0014823529839652471
0.00380274666656171562
0.00854950869994294815
0.00911514296097669027
0.00160874798064883731
0.00677509600976930731
0.0127037851582779415
0.0126666090867644555
0.00737222264179740721
0.00674559176704698366
0.0141055302878669818
0.0158961016189605696
0.0113930569790280534
0.00673940897472386294
0.0139088893924982603
0.0147667711878034895
0.0155851620976663295
0.0108033957263768583
0.00747489773894098077
0.0137177819512599216
0.0136433851107284967
0.0150688488134044975
0.0116180400005975893
0.00816965180170270769
0.0144518914629959659
0.0142221381772689916
0.0152139098543539117
0.0138809415164122367
0.00989850492511792392
0.0153749379678610344
0.0147736075045585089
0.0146940582623787484
0.0146771797629348007
0.0134626861188624301
0.0164806507052898885
0.0160191855727696217
0.0155891896024114192
0.0152955720349909428
0.0150086735441315629
0.0174282429588493749
0.0171301966780942581
0.0167636369429371677
0.0163092242951429975
0.0158039634637030871
0.0183752507835341083
0.0181855118622460156
0.0179637739747158034
0.0176863141903449705
0.0173557347826228774
0.0193398841567505031
0.0192421429322155446
0.0191565176504776002
0.0190757619598595843
0.0190266770845523778
0.0203686895781431919
0.0203111585863003027
0.020289574617718055
0.0202991114897098333
0.0203459669430583294
0.0204405366113697036
0.020624838033428107
0.0211243260962205998
0.0211587386607365834
0.0212341959737630363
0.0213619566929511007
0.0215521170590604223
0.0218171292439894929
0.0221987976015717327
0.0218858416307847331
0.0220367823049974522
0.0222310017509201943
0.0224847414035102659
0.0228182548451205981
0.023252456994842359
0.0238171453457772277
0.0163412094538260971
0.0167962843106014836
0.0173563864516663897
0.0180555745927527822
0.01894056453613625
0.020077264548840186
0.0215549167271811247
0.0015519726534438318
0.00393081950023852107
0.0103385780196413278
0.00932504649038358446
0.00168631035328819178
0.00854310510551268762
0.0157035436224517433
0.0145625796715544223
0.0100834133805894968
0.0082898711847741776
0.0162383381842956219
0.015235138938261051
0.0111461548288601994
0.00862732372370585837
0.0142512759920781305
0.0152605277910705436
0.0130144845391860775
0.0106597780161903303
0.00947055020156908033
0.0137539784458916119
0.0145115765218222399
0.0124566210608967366
0.0111489954489392799
0.00951607626338047546
0.0139207350551112975
0.0142360919405179961
0.0133810673462175563
0.0121295419413990305
0.00846556829957328082
0.0150575200040118633
0.0147826502243612653
0.0148562680039589796
0.0140775676493741508
0.0132301718505665085
0.016306000653676319
0.0158071149279278324
0.0154290503328115836
0.0150659370096329469
0.0146314419940282402
0.0172089291835449479
0.0169001664448782014
0.0164825179374613398
0.0159392093766555637
0.0152990182957029493
0.0181688847798502362
0.0179495740231231764
0.0176676505560122536
0.0172745481234212565
0.016725426008724311
0.0191589590034645062
0.019014833825193176
0.0188722052982378645
0.0187100193106593225
0.0185078680026771608
0.0202700579263890984
0.0201890596328024897
0.0201336114042739642
0.020101545134824636
0.0200961503356440752
0.0201233118101171518
0.0202081215594025684
0.0210420573869856374
0.021058224754242242
0.02110784823528504
0.0212015862878034006
0.0213492932394197359
0.021565113579607019
0.0218837188965800705
0.0218158455306147366
0.0219538984439513266
0.0221304247554968553
0.022360707881879948
0.0226641700898181468
0.0230638177544837258
0.0235922214151571899
0.0162830857798497916
0.0167255537701531468
0.0172695706028828042
0.0179480921154644493
0.0188071539275795722
0.019912178081437814
0.0213547652298102658
0.00150277329420972429
0.00189729779678515613
0.012019718859843237
0.005352737443605253
0.00164477404901005458
0.0103263954461823033
0.0182614817955878139
0.018657369778549121
0.010195085518229988
0.00809919108439018098
0.0155523088632534799
0.0165634835297724485
0.0142859098879351745
0.012860745639149981
0.0124063354246406778
0.0147004318514729667
0.0155111638338152908
0.0141091310437140138
0.0130309451072690586
0.012466909639012435
0.0140987220630391253
0.0155653719515107831
0.01116262452626836
0.00848795228407289021
0.0129368801460571434
0.0132715143185512946
0.0140659718125980167
0.0142821455456677154
0.00949623840586518234
0.0144210722996486167
0.014107013611023636
0.0142279230144423605
0.014184282974911205
0.013088002871532398
0.0159292399971482576
0.0154244217255267331
0.0150695271457485323
0.0147393353837203533
0.0142816531946940318
0.0169764064759108553
0.0166344158982519065
0.0161876765756431597
0.0156213427312739545
0.0149702847299115309
0.0179897530751419905
0.0177277075802727974
0.0173927737493442501
0.0169227297922470363
0.0162609977075223663
0.0189956646249713548
0.018802889141270436
0.0185980069597365717
0.0183498867033564453
0.0180150760334821455
0.0201816539879744843
0.0200724058753871636
0.0199821222771602615
0.0199069016611795359
0.0198442153717639236
0.0197939963636143273
0.0197669780057942272
0.0209620757042834234
0.0209576774503672132
0.0209799766132466141
0.021037277913723694
0.0211367580237525783
0.0212904166981420125
0.0215271835381260004
0.0217435340824679649
0.0218661296625505229
0.0220223368166985144
0.0222260077593200746
0.0224948027654271986
0.0228510160814003119
0.0233284347400517511
0.0162056196322147156
0.0166300010180238066
0.0171513489061371829
0.0178013110782399772
0.0186246242424959151
0.019686148664570826
0.0210807117645007286
0.00118434224321077477
0.000477602902776483762
0.0109416445492734275
0.000897873809916548528
0.00227046044563700491
0.0112050691109213049
0.019377337092599381
0.0203274750243535827
0.00182052058345015966
0.00877518578150853108
0.0161040566101210703
0.0182267561195045801
0.017500654706176684
0.00677238230318022005
0.0122427016045462012
0.0152696286758820087
0.0163824403032419123
0.015268399527893356
0.0116028496859838064
0.0124082450731613139
0.0143148880508117693
0.0161653071164620347
0.0101091877470452732
0.00467272812918032542
0.0127234086729846717
0.0130920791569431334
0.0141275471086789953
0.0146752929115987318
0.0114952898719984254
0.0141181857457324637
0.0137623735808754324
0.0138542293224572025
0.0140122021772340084
0.0139766444491935954
0.0156935279420781053
0.0152223888064796538
0.0148782006782326084
0.0146722462471283854
0.0145849955301285261
0.0168439439731750094
0.0164773332926396628
0.0160153011120216238
0.0154609867877068576
0.0148969415348581737
0.0178859372403232519
0.0175855932708265106
0.0172128656940251888
0.0166966082091910793
0.0159984294238968081
0.0188785576277605248
0.0186500449116210956
0.0183962512992578917
0.018075085651748965
0.0176147348598144696
0.0201164662449880155
0.0199842467672509128
0.0198646538060800043
0.0197526396104487564
0.0196402776372598432
0.0195194632757986521
0.0193814651512583189
0.0208973498586929804
0.0208746619235090393
0.0208716001779687098
0.0208943263913539332
0.0209475481670434727
0.0210378697589203717
0.0211861474162637203
0.021674962977324224
0.0217819744377000697
0.0219176890410010365
0.0220946139818481886
0.0223277924767324928
0.0226376562862815357
0.0230564969253282438
0.0161138394683674399
0.0165165130785484351
0.0170107190313830252
0.0176266413043556364
0.0184075363194446465
0.0194179035728077112
0.0207557428130463288
0.000842989663813605472
0.000132721910743629118
0.00706701768326140761
0.00023597450446318901
0.00247291332697983013
0.0108746007703384509
0.0178216278861733392
0.0191806686670622818
0.000469492844173198043
0.0087171241858195244
0.015915510298851427
0.0176617759503829852
0.018757670975096008
0.00155927610709543827
0.0126341489680174106
0.0152097723204267666
0.0157661701005421297
0.0137637308654506782
0.00711988760161518745
0.012704791897121424
0.0144635011544760102
0.0160697234786457213
0.0113651673970973088
0.00543082738809226844
0.0130109096765261799
0.0133424113164432607
0.0146041637048369439
0.0161384729938677217
0.0131021573306723069
0.0142258654321787813
0.0138877241975449532
0.0140835437939741074
0.0147181036058430578
0.0163459533728643296
0.0157154922170614393
0.0152973412559973699
0.0149667571583357237
0.0148469778183613239
0.0151355011775432882
0.0168415403230627245
0.0164867431727131752
0.0160418764481821581
0.0154916398817274373
0.0149907156819619278
0.0178684599496969979
0.0175485643957803035
0.0171623112591819081
0.0166166863601227115
0.0158816272830415058
0.018821405500597882
0.0185699026785381624
0.0182837287475690648
0.0179076414406600312
0.0173418678547686139
0.0200831923358922755
0.019934029922066665
0.0197909235114309759
0.0196475759526043292
0.0194923723437314296
0.0193090695561015414
0.0190638719754386704
0.0208507843134700249
0.0208118893868797505
0.0207863669945205533
0.0207784303186670793
0.0207890882015452673
0.0208188232117525532
0.020876559072116805
0.0216130560939606399
0.0217055290676205388
0.0218216592678191976
0.0219727933026722319
0.0221710185605747054
0.0224341163305999056
0.0227897128782602841
0.0160123920101083519
0.0163911455979533147
0.0168554128743457106
0.0174340390989899327
0.0181688792573425142
0.0191236399996263032
0.0203990097161361357
0.000499466637099952714
4.88973715552211364e-05
0.00305389384000355046
9.0953135183598224e-05
0.00170348797151134886
0.00967950062226138885
0.0161978151558916476
0.0123103734740497954
0.000220241123087587629
0.00797031778401201783
0.0155311274580612682
0.0178693570044684558
0.0210916295905749923
0.000602207687037852719
0.0128985920210820879
0.0146649437438819193
0.0152071223369127807
0.0144206896404114483
0.00266614638641490299
0.0130952570539127587
0.0144395676737854323
0.01488675887097873
0.0120417372429822162
0.00874020139408720163
0.0134657386246685214
0.0136619462461135162
0.0150719581555389982
0.0163841216598848184
0.00873140152384088535
0.0146125390575977468
0.0142896743848805914
0.0145838280687900484
0.015651045618224977
0.0171691186263358865
0.0159892182385860115
0.0155778879361003295
0.0152484001266718558
0.0151479514182842247
0.01575322214945786
0.0169717040461064422
0.0166375730260463484
0.0162168195627079882
0.0156902262853075673
0.0153517596162362265
0.0179219215279703588
0.017597843867549437
0.017212284666950347
0.0166624372421641659
0.0159511703353444161
0.018825042602266355
0.0185577104367431571
0.0182488066862393564
0.0178288987273940297
0.0171969324441238296
0.020082367579684058
0.0199197690578145695
0.0197587916413998164
0.0195903891703571864
0.0194000734434469566
0.0191593235397495495
0.0187959859231629396
0.0208222622004520554
0.0207710336374203469
0.0207269745504209645
0.0206928165515164637
0.020665932146407856
0.0206415427693064195
0.0206108397124611029
0.0215594628857177818
0.0216389655675677459
0.0217377368022021594
0.02186489240112394
0.0220305918444298234
0.0222485913310455398
0.0225404345945591222
0.0159059023676650195
0.0162595604925911789
0.0166930734557992413
0.0172332361760451462
0.0179210768060569722
0.0188191070685295898
0.020028478522370375
0.000257676567080465083
2.01080367219742041e-05
0.00125651588098660717
3.70888239131958488e-05
0.0020819582654652757
0.00927974917785669845
0.0144445201795375868
0.00620530210142437606
0.000170327260259011917
0.00840902276614676446
0.016566866978411466
0.0199398912483930713
0.0177766889043989469
0.000419282969653429912
0.0131975872280430361
0.0144897291463726551
0.0157620197366185426
0.0182723050995245856
0.00130756901101207489
0.0133182373842392534
0.0143653379267291385
0.014927868571440378
0.013810898644256055
0.00678768266207040605
0.0138075398265051028
0.0138797234538579201
0.0155074001850916826
0.0161111478025551987
0.00668535014056953567
0.0150040336536998754
0.0146665978996361676
0.0150890728261881182
0.0167007471266973594
0.0163133106781696118
0.0162801382387900741
0.0158631882993494205
0.0156009636180586379
0.0156442524571226045
0.0166185386282925833
0.017179345607234206
0.0168543696625275269
0.0164679069278145795
0.0160524488877658786
0.0160188797035692235
0.0180368604638974257
0.0177182988554040292
0.0173371774327532313
0.0168086552305141447
0.0162383045868220201
0.0188850796789956053
0.0186080582133466566
0.018280017562870475
0.0178174496670900351
0.0171538996469970395
0.0201073861588137968
0.0199377431280532771
0.0197644588163482654
0.0195790262940722867
0.0193620453947923599
0.0190718440682650404
0.0186165527640386984
0.0208114697871298188
0.0207521479804779509
0.020694001248231203
0.0206379709704459686
0.0205791114086889201
0.0205062617309945336
0.0203865194926151176
0.0215156037550225422
0.0215836895839275691
0.0216677957308552514
0.0217741101278773712
0.0219110434782454656
0.0220879477633168751
0.0223178679631993865
0.0157986995060642905
0.0161272782004747289
0.0165305430746350256
0.0170334629770956328
0.0176756493724786017
0.0185183230510505871
0.0196604139382914322
0.000312724089609387249
0.000266806847783520381
0.000472236873569721507
0.000363349883570822201
0.0010302929046371223
0.000742410176203393661
0.000506400838946508458
0.00151179046721811841
0.00174624434461135669
0.00118628423573204924
0.000739372722150021607
0.000196657521228696744
0.000174992763554655492
0.000283083342206582299
0.000229674092404307727
0.000598712732552028853
0.000406064479859455266
0.000291975029356058202
0.00169462749473739773
0.00104545499165218606
0.000576849976859544365
0.000350157791271023396
0.000114303169467604588
8.11480726812590313e-05
0.000151628139943994143
9.54482365379204879e-05
0.000315309421070735299
0.000191624894647466563
0.00010732438987558313
0.000928139927939729747
0.000452540907781063726
0.00021640081418760937
0.000106917872046223244
3.87573602115862009e-05
3.42271858069505847e-05
4.43335240119318658e-05
3.82862545984323556e-05
9.71957802764258216e-05
5.04768536204516636e-05
4.20666517532786727e-05
0.000295352202349169783
0.000112262677610816785
5.31481252583197484e-05
4.51733564131006618e-05
2.18680392176367621e-05
2.70866829862536712e-05
2.44992619991843992e-05
3.05844069707751176e-05
2.91862212162953477e-05
2.74770597913385246e-05
3.47126740986527138e-05
6.8274287191937038e-05
3.27211360928011729e-05
3.10681081997224375e-05
4.01135823333117599e-05