/*--------------------------------*- C++ -*----------------------------------*\
| =========                 |                                                 |
| \\      /  F ield         | OpenFOAM: The Open Source CFD Toolbox           |
|  \\    /   O peration     | Version:  2206                                  |
|   \\  /    A nd           | Website:  www.openfoam.com                      |
|    \\/     M anipulation  |                                                 |
\*---------------------------------------------------------------------------*/
FoamFile
{
    version     2.0;
    format      ascii;
    arch        "LSB;label=32;scalar=64";
    class       surfaceScalarField;
    location    "0.239999999999999991";
    object      phi;
}
// * * * * * * * * * * * * * * * * * * * * * * * * * * * * * * * * * * * * * //

dimensions      [0 3 -1 0 0 0 0];

oriented        oriented;

internalField   nonuniform List<scalar> 
20856
(
-5.67096713421646553e-05
8.0773609877585534e-05
-2.08577091387582674e-05
-5.63778372025215479e-05
8.47869226052117898e-05
1.60217227697363081e-05
-2.04303629161546401e-05
-5.67815434494810991e-05
8.86717900469589438e-05
1.60289968123186716e-05
-2.03953927571232453e-05
-5.78783204621931559e-05
9.32370880479884171e-05
1.63904761334801675e-05
-2.07486624100394504e-05
-5.94129598343919255e-05
9.92526129720803385e-05
1.72182519304573951e-05
-2.14570061813630332e-05
-6.10450508549377968e-05
0.000106874738657452987
1.8614121176613843e-05
-2.26119922710033103e-05
-6.2876079438360633e-05
0.000115621324837194113
2.05508791044282349e-05
-2.42593466753680316e-05
-6.5178653039439275e-05
0.000125596233719099827
2.30481975959433919e-05
-2.64676809785368547e-05
-6.7646356569090588e-05
0.00013793988913758426
2.63871272848893986e-05
-2.94792425300497205e-05
-6.95567657802678339e-05
0.000153634494975851389
3.09435486619542467e-05
-3.35995710517476652e-05
-7.05073028430210135e-05
0.000172407139563932993
3.68780727196472475e-05
-3.89923129745263429e-05
-7.07886339148863092e-05
0.000193540739127385402
4.41499690606737537e-05
-4.57423641196827324e-05
-6.98291969767940592e-05
0.000219694618589536651
5.348563166124781e-05
-5.48911712185315404e-05
-6.30203924456264141e-05
0.000259387395301270696
6.71474617152142652e-05
-6.92575470490578316e-05
-3.97719509033250032e-05
0.000319109117861970384
8.65223882350598598e-05
-9.09319500836961651e-05
0.000350023169965411787
9.74500094644891124e-05
-0.000104727545143286011
-5.58222832285716402e-05
8.38539236459353958e-05
1.59803707330641542e-05
-1.99588757931141718e-05
-5.54677110495636867e-05
8.82332870570319062e-05
1.57170523807074092e-05
-1.95225950358125815e-05
-5.57325356292191071e-05
9.26535809922710121e-05
1.57267785845110228e-05
-1.94468357549469208e-05
-5.65538253721048286e-05
9.77084848324449097e-05
1.60794251009276711e-05
-1.97314733873541826e-05
-5.77146973805198784e-05
0.00010393419168620483
1.68605299881784026e-05
-2.0382405800468514e-05
-5.89951702520370914e-05
0.000111476904150532399
1.8151558772617487e-05
-2.1473680628908068e-05
-6.04428828756390195e-05
0.000120150783661942826
1.99645866274779486e-05
-2.30462160770238638e-05
-6.21643131241324948e-05
0.000130151144636243908
2.23337631971996293e-05
-2.51670251904875791e-05
-6.39128220158743216e-05
0.000142237944022625913
2.54608171416005189e-05
-2.80103990653223704e-05
-6.51609064740249174e-05
0.000157079919101270533
2.95998925891998441e-05
-3.17976299471606726e-05
-6.55614117135301894e-05
0.000174597852303179932
3.48844862330539423e-05
-3.66754100027271397e-05
-6.5153549779616612e-05
0.000194554521578377867
4.13604371440370302e-05
-4.27830552397703455e-05
-6.31239147731246661e-05
0.000219014996675297754
4.96000231566861628e-05
-5.09512069064691246e-05
-5.54086957434666929e-05
0.000253718532619149251
6.10618291600665381e-05
-6.31094513935609929e-05
-3.36150689946670039e-05
0.000301288133878189275
7.60290483908686098e-05
-8.00029696963367885e-05
0.000322355521602605915
8.31331921997701154e-05
-8.90816918575918973e-05
-5.46741774300816053e-05
8.65438907098071682e-05
1.57276038132516604e-05
-1.92934629190474142e-05
-5.4284254207458798e-05
9.12130058376251651e-05
1.54390804377689833e-05
-1.88129031967192403e-05
-5.44090353287460189e-05
9.60244499719572651e-05
1.54263956930480409e-05
-1.86755777388510156e-05
-5.49791051694587028e-05
0.000101416777449419763
1.5745927866297558e-05
-1.88862604902000636e-05
-5.58243918258012557e-05
0.000107778206271260025
1.6463279018835456e-05
-1.94633580055769996e-05
-5.67925007380705362e-05
0.000115265175226371975
1.76426397750059744e-05
-2.04634797494060108e-05
-5.78786335949463762e-05
0.000123852975818766292
1.93100403195869024e-05
-2.19263154060426665e-05
-5.90831597498372294e-05
0.000133754070584804122
2.15142576895078252e-05
-2.39127726378654751e-05
-6.01896465989280486e-05
0.000145499415525148006
2.43968178799643005e-05
-2.65520999904308412e-05
-6.07975340802504644e-05
0.000159558955558554476
2.81328228439081373e-05
-3.00045436914828865e-05
-6.05939045579982009e-05
0.000175958698707571196
3.28292292596399726e-05
-3.4394526780891033e-05
-5.9421279111575729e-05
0.000194692877996340263
3.85580220171594909e-05
-3.98700436660736962e-05
-5.6324410352311211e-05
0.0002172353506174393
4.57136561512301996e-05
-4.70321059215986131e-05
-4.78409170185116657e-05
0.000247172190143550249
5.51476157048614297e-05
-5.70861164416010464e-05
-2.79217598787219156e-05
0.000284821497977357906
6.65962581373483675e-05
-7.00501902507117319e-05
0.000299198825923488595
7.13111981532895892e-05
-7.60774853437342204e-05
-5.34346063988323222e-05
8.89040257499891783e-05
1.54401083220747677e-05
-1.86695039038709989e-05
-5.29980536237089242e-05
9.37933601617334597e-05
1.51181464378035606e-05
-1.81387064780777412e-05
-5.29897418936661402e-05
9.88808873412464894e-05
1.50713853201453233e-05
-1.79390606408923173e-05
-5.33389825186982871e-05
0.000104498126650146413
1.534551643638588e-05
-1.80798057332111971e-05
-5.39138588863063929e-05
0.000110940457108186309
1.5990701606002111e-05
-1.85796251214609968e-05
-5.45942223863342751e-05
0.000118367947135921911
1.70570588378619503e-05
-1.94804570179538255e-05
-5.53350112397840377e-05
0.000126836917676189992
1.85757839854332852e-05
-2.08195329130987663e-05
-5.60800493288147333e-05
0.000136551977596568612
2.05982361558636072e-05
-2.26515712426330205e-05
-5.66283112406157732e-05
0.000147894538710557422
2.3224970189767703e-05
-2.5072379723739116e-05
-5.66534228982324523e-05
0.000161203923100648825
2.65781799994503038e-05
-2.81987442764395483e-05
-5.5853490855170646e-05
0.000176549749597763926
3.07384771223126428e-05
-3.21303275884003207e-05
-5.39387457364807706e-05
0.000194000857281983818
3.57680885329650375e-05
-3.69918427987932507e-05
-4.99326713698120483e-05
0.000214501217778320007
4.19021623687801774e-05
-4.31753004434443601e-05
-4.10535467544962868e-05
0.000240080671679485921
4.95720701921510001e-05
-5.13610147211067985e-05
-2.31420493303150638e-05
0.000269835687984184061
5.83052776372921627e-05
-6.12323994147772254e-05
0.00027983414836095055
6.15408936442636204e-05
-6.53195315138633474e-05
-5.59571632390536963e-05
7.57368109503541315e-05
1.73793250401287278e-05
-2.12381728952651948e-05
-5.42812705108915503e-05
8.08956488905020985e-05
1.64612838142927907e-05
-1.99775448965315131e-05
-5.30235971276405435e-05
8.59448183506380571e-05
1.56813743605594802e-05
-1.88821333850797417e-05
-5.21528592232689482e-05
9.09558316996668587e-05
1.50915119257758299e-05
-1.80173530016283728e-05
-5.16625186161210302e-05
9.60067235924324614e-05
1.47357467061076147e-05
-1.74427541077218887e-05
-5.15300116179370706e-05
0.000101283140326326458
1.4650698530885543e-05
-1.71882885058818388e-05
-5.16856359175365827e-05
0.000107043072027120052
1.48737500683604036e-05
-1.72653775430839929e-05
-5.20222065255415594e-05
0.000113521457919593885
1.54434675228555238e-05
-1.76897031413412125e-05
-5.24344880172213399e-05
0.00012087211719681637
1.63990511447531055e-05
-1.84922669740126011e-05
-5.28546680105128509e-05
0.000129189670025799098
1.77722217989353975e-05
-1.97057538225181316e-05
-5.31933296383790697e-05
0.000138657814780062142
1.96093441118436694e-05
-2.13773053521193988e-05
-5.32601760678238828e-05
0.000149556438477740949
2.19817845210020374e-05
-2.35776114832498193e-05
-5.27718313224704438e-05
0.000162130912508786436
2.49752688244529635e-05
-2.63914336518679263e-05
-5.14287888692264219e-05
0.000176453489627294492
2.86452135104867372e-05
-2.9892905376169541e-05
-4.88692693316735907e-05
0.000192580672674232481
3.30288673616525562e-05
-3.41692240450211466e-05
-4.41863670422688388e-05
0.000211024292174220342
3.82366179445728287e-05
-3.94437628092088937e-05
-3.52460297368071543e-05
0.000232754045521058305
4.44304361706925405e-05
-4.60454655829285511e-05
-1.93231733532879397e-05
0.000256353556416967694
5.11052648268300408e-05
-5.35474248634371097e-05
0.000263495387012371786
5.3417820538102132e-05
-5.64035086619467664e-05
-5.46193763180603925e-05
7.721685283341603e-05
1.7068656591795399e-05
-2.06522739413701117e-05
-5.29750167420582946e-05
8.24786507950762954e-05
1.61121389304441797e-05
-1.93424596859942685e-05
-5.17297196677342995e-05
8.76108997622092745e-05
1.53008428360374559e-05
-1.82150934158652812e-05
-5.08455306697470219e-05
9.27100664308730079e-05
1.46824313641738671e-05
-1.73240270614596122e-05
-5.02978248769679086e-05
9.78761311743320261e-05
1.42958453555081722e-05
-1.67160390922964646e-05
-5.00499325311222831e-05
0.000103276623020849488
1.41726545496502605e-05
-1.64168397819096273e-05
-5.00340617455041114e-05
0.000109118905541917568
1.43434534711873225e-05
-1.64376191834585461e-05
-5.01576302086044598e-05
0.000115595705436708607
1.48382022323261366e-05
-1.67909346476185099e-05
-5.03240393917840526e-05
0.000122849015539420407
1.56877053822918062e-05
-1.7499811702089301e-05
-5.04507324992220716e-05
0.000130986245138281021
1.69202355357696913e-05
-1.85913702082946319e-05
-5.04319636073301039e-05
0.000140166251879896524
1.85757374939020488e-05
-2.0103981372065318e-05
-5.00860896725684442e-05
0.000150595277204128959
2.07033751556013219e-05
-2.208903991000191e-05
-4.91571083442247768e-05
0.000162445615657071107
2.33620112124771927e-05
-2.4606626744659109e-05
-4.73505640207087444e-05
0.00017576790558291287
2.65847346668506785e-05
-2.7706645353997569e-05
-4.42819477462917297e-05
0.00019056703299015639
3.03816885097588523e-05
-3.1437690221511528e-05
-3.91626889275437719e-05
0.000207028777109654157
3.47750694059626309e-05
-3.58999662943660454e-05
-3.04179551396358981e-05
0.000225443499705696258
3.9766434939776569e-05
-4.12019235061311941e-05
-1.63431311265229487e-05
0.000244299112617241717
4.48958660614580597e-05
-4.69176698775949005e-05
0.000249518087003847274
4.66085325200537811e-05
-4.8975629963335455e-05
-5.78095391026219136e-05
1.88788190447429009e-05
-2.30279130707798577e-05
6.70099640912757608e-05
-5.52795417212549822e-05
1.77654422740318273e-05
-2.14737514073491662e-05
7.29027039765143989e-05
-5.32398426461499558e-05
1.66775914598713341e-05
-1.99833550147631399e-05
7.84797205584047508e-05
-5.16316357404140891e-05
1.56873309304071153e-05
-1.86349486109836196e-05
8.38150837353730154e-05
-5.03988491735931854e-05
1.48500742689763907e-05
-1.74853792262309327e-05
8.90106245914050074e-05
-4.94984023082332354e-05
1.42076649907184235e-05
-1.65774727703209698e-05
9.41766299782478459e-05
-4.88943150471642088e-05
1.37938756927781341e-05
-1.59458500981484003e-05
9.94212479321405931e-05
-4.85413142047851708e-05
1.36345488279517083e-05
-1.561127748699309e-05
0.000104897696500730892
-4.83736607800888414e-05
1.37544769516825969e-05
-1.55832883003988262e-05
0.000110777640203075069
-4.83076693529394999e-05
1.41768575501903784e-05
-1.58715213766409414e-05
0.000117222301379534607
-4.82524023947408852e-05
1.49258318895861886e-05
-1.64927390939316599e-05
0.000124358976849739991
-4.81170955895870477e-05
1.60250298413979209e-05
-1.74684340493826442e-05
0.00013229300338268293
-4.77866892965254971e-05
1.75055147616709035e-05
-1.88280250873968443e-05
0.000141157235426352476
-4.70896707735716521e-05
1.94027071104784689e-05
-2.06077275608455999e-05
0.000151102275720321565
-4.57902112191087456e-05
2.17520534872248534e-05
-2.28474687382230273e-05
0.00016224062603009665
-4.36047367222943468e-05
2.45683862644221022e-05
-2.55755803004968048e-05
0.000174588687764697559
-4.0157935768457556e-05
2.78379952108659043e-05
-2.88067702184725396e-05
0.000188088016891806576
-3.47970710030651886e-05
3.15235010028618127e-05
-3.25545505730804336e-05
0.000202697863955677156
-2.64096262675970914e-05
3.55319030679756266e-05
-3.67887937154202192e-05
0.00021831171820346193
-1.40289070296509978e-05
3.9476413140438587e-05
-4.11344140066745336e-05
0.000233575057765383052
4.08517613602245327e-05
-4.27430207338090116e-05
0.000237379271746371301
-5.65406866278330997e-05
8.45403302562779325e-05
1.19484646863763342e-05
-5.66279853030928978e-05
8.83985459420923722e-05
1.20050277749253712e-05
-5.73105247154811532e-05
9.29688344501820293e-05
1.24360740634268621e-05
-5.82615924570529638e-05
9.8841465249026165e-05
1.34146145486167858e-05
-5.92678787377606643e-05
0.000105931830320117674
1.49748389508472415e-05
-6.04765016094079426e-05
0.000113966273258337818
1.70674111781154658e-05
-6.19618980471505718e-05
0.000123317833359066201
1.97906885785657536e-05
-6.3326913124335391e-05
0.00013486554533296332
2.34408262867024164e-05
-6.39369858744498454e-05
0.000149028559310167405
2.83208268276387382e-05
-6.35592159540017708e-05
0.000165211318763206573
3.44375310762007729e-05
-6.23957111228083862e-05
0.000182981747058508671
4.17032116175411143e-05
-5.97035923560296184e-05
0.000204278735270142309
5.06571382245169828e-05
-5.18180845807487067e-05
0.00023417417003189801
6.28020156044949227e-05
-3.11075876115358849e-05
0.000275541023453083466
7.86339472263817944e-05
0.00029151177783740673
8.64350583494806512e-05
-5.60708951955151249e-05
8.32851858377574544e-05
1.22349194935120194e-05
-5.54423943949656627e-05
8.75236088513685687e-05
1.20997423766832531e-05
-5.53749487728934497e-05
9.18574872977741112e-05
1.21960415103436631e-05
-5.57816126928642984e-05
9.68095620800187468e-05
1.26423713399016299e-05
-5.64324729354010102e-05
0.000102794468856740669
1.35568241323964989e-05
-5.71780022257686692e-05
0.000109840937699026735
1.49877152537002064e-05
-5.80246517750431355e-05
0.000117848332289513654
1.69296181196003446e-05
-5.89943879181663912e-05
0.000127147674245720326
1.94740939428047989e-05
-5.97742424131691421e-05
0.000138292191809515519
2.28140476572168353e-05
-5.98954349681691303e-05
0.000151594781948622347
2.71544243817135556e-05
-5.91049995473596714e-05
0.000166770278916727148
3.25343008305581068e-05
-5.7361478456180154e-05
0.000183653736545831526
3.89438857971790111e-05
-5.38293200900157612e-05
0.000203590155107636337
4.67552169684963195e-05
-4.53434543490062968e-05
0.000229878727752841263
5.68700630750650915e-05
-2.62023615397728892e-05
0.00026331191638016366
6.91156733838115391e-05
0.000274222173580498734
7.42192769302791932e-05
-5.49156183852376477e-05
8.55979485398423616e-05
1.23151403599280597e-05
-5.42525085005566117e-05
9.01210261754050915e-05
1.21731592484160628e-05
-5.40478823520351587e-05
9.48030807476692324e-05
1.22718936365753187e-05
-5.42225236980548961e-05
0.000100028199296499807
1.26989054093839813e-05
-5.46085660927666261e-05
0.000106103352214369036
1.35386980361402591e-05
-5.50781176199311459e-05
0.000113112969287244744
1.48395194533631613e-05
-5.56114157387680168e-05
0.00012107002956980726
1.66216066770608176e-05
-5.61370688074162548e-05
0.000130228237160912681
1.8959368990305344e-05
-5.64040062546765836e-05
0.000140969540316260875
2.19861641118764754e-05
-5.60494429663809066e-05
0.000153529432671753257
2.58430437432092499e-05
-5.48093216098374721e-05
0.00016778478921479324
3.05737642510356663e-05
-5.24776074917751112e-05
0.000183686617358784526
3.61923724514127984e-05
-4.81907493723905136e-05
0.000202094430451787841
4.29212727640402206e-05
-3.93607571944879736e-05
0.000224964102630929874
5.12308534732861535e-05
-2.19594953435233547e-05
0.000251853276472221489
6.06521535075890065e-05
0.000259470094481388134
6.41025376004308238e-05
-5.37203076129619657e-05
8.76274043546426576e-05
1.23115686182634546e-05
-5.30111513903659529e-05
9.23748014185137392e-05
1.21503089846590703e-05
-5.26831713673201995e-05
9.7311895591931891e-05
1.22305335639684982e-05
-5.2661289926742461e-05
0.000102729986441065969
1.26188083060058535e-05
-5.28161410272877792e-05
0.000108868727543841702
1.3378186303649416e-05
-5.30375670034588268e-05
0.000115838148561503605
1.45522122520591586e-05
-5.32654436554781446e-05
0.000123702872389354064
1.6170265520487012e-05
-5.34025291435487489e-05
0.000132667685769249325
1.82954658229250433e-05
-5.32274988157238035e-05
0.000143000698773991557
2.10182742786938878e-05
-5.24385296586744382e-05
0.000154879933867994049
2.44380302811654998e-05
-5.07632453569467976e-05
0.000168256818883399576
2.85903121502802933e-05
-4.79023879448387728e-05
0.00018310831360557751
3.34845064093342392e-05
-4.30374953434011927e-05
0.000199906589647475425
3.92238946145202205e-05
-3.41453060812326514e-05
0.000219649017831556636
4.59935880536454088e-05
-1.85258001708916599e-05
0.000241291130007664171
5.32464253347072043e-05
0.000246802753044091127
5.56811739664021674e-05
-5.68376307839222857e-05
7.45937659530017985e-05
1.38055369483227348e-05
-5.50296381351093476e-05
7.95947277499512546e-05
1.31465308475948001e-05
-5.35862975986103445e-05
8.45075432081834947e-05
1.26035889022177888e-05
-5.24854276379224113e-05
8.93928913812499408e-05
1.22205242007855941e-05
-5.17262518740236037e-05
9.43129937102444622e-05
1.20338718315988083e-05
-5.12866677271203237e-05
9.94349188728807488e-05
1.20841941829147309e-05
-5.10951013332075564e-05
0.000104985505920038866
1.24235478881325164e-05
-5.10451749632042607e-05
0.000111159668390032826
1.3100331280951764e-05
-5.10358463966697806e-05
0.000118074190886131169
1.41521730700022511e-05
-5.09859133687228522e-05
0.000125815792375072146
1.56083764810760712e-05
-5.07837051415054868e-05
0.000134548372542859151
1.7525682532375723e-05
-5.02295404018212699e-05
0.000144467719686544013
1.99598631502800812e-05
-4.90585586327671371e-05
0.000155700293515610678
2.29831392367704762e-05
-4.69966069109048148e-05
0.000168221952517640203
2.6617247769628849e-05
-4.37056074099201341e-05
0.000181989120429661491
3.08560435536934521e-05
-3.84601719697435341e-05
0.000197180169721012234
3.5716412514185979e-05
-2.97408499464229113e-05
0.000214149807826677417
4.12089693705008711e-05
-1.5813840998355919e-05
0.000231651269581618945
4.68166344236909231e-05
0.000235792634874342492
4.86128434731881737e-05
-5.55484844601323067e-05
7.5764422021923499e-05
1.37173280659280182e-05
-5.37640442766113916e-05
8.08887914177913026e-05
1.30295207873052076e-05
-5.23300736269056608e-05
8.59109251884178436e-05
1.24594310837577615e-05
-5.12167331609725035e-05
9.09076112441872526e-05
1.20500213399608431e-05
-5.04069142417101605e-05
9.59590620434899548e-05
1.18357742622631167e-05
-4.98659027437990774e-05
0.00010121200669513199
1.18507828387915988e-05
-4.95254964175695784e-05
0.000106848433348582893
1.21369467744545783e-05
-4.92928632003651108e-05
0.000113030902918819119
1.27318693522897147e-05
-4.90729448125696866e-05
0.000119872711335448247
1.36674757296323537e-05
-4.87754610657693851e-05
0.000127465830413609187
1.49714204102531422e-05
-4.82764853206444407e-05
0.000135940051295712201
1.66840658881587983e-05
-4.73992896294221145e-05
0.000145441440402814347
1.88515561442794559e-05
-4.59023912915845579e-05
0.000156048675040338535
2.15158534194862094e-05
-4.35190203585626966e-05
0.000167736043509657826
2.4686355000801393e-05
-3.99100127790317957e-05
0.00018042054711404375
2.83402309762933926e-05
-3.44634537866373613e-05
0.000194070124578150818
3.24373795148088086e-05
-2.60764767611905163e-05
0.000208636842354094354
3.68910888789067263e-05
-1.36839326588018946e-05
0.00022289689409914253
4.1256235187226132e-05
0.000226088271130891875
4.26277284027924659e-05
-5.88855881967333543e-05
1.51323654235039463e-05
6.57115136147871703e-05
-5.63392536410137882e-05
1.4333045167427278e-05
7.13487861037828122e-05
-5.42077358722860438e-05
1.35460529130249938e-05
7.67613454770375543e-05
-5.2451539971582709e-05
1.28304052471809975e-05
8.19860847604032291e-05
-5.10279636123872149e-05
1.22354792926698538e-05
8.7098479357882461e-05
-4.99010492140746512e-05
1.18006632456229215e-05
9.21841538463826111e-05
-4.90432709177189409e-05
1.15583834515033717e-05
9.73333074481553385e-05
-4.84116823223346409e-05
1.15362398643043283e-05
0.000102675525245533308
-4.79409950308465007e-05
1.17682806486431154e-05
0.000108361193045250088
-4.75469284730489279e-05
1.22838195041630509e-05
0.000114527687311418401
-4.71386957105209665e-05
1.3109309680352948e-05
0.000121279352330032244
-4.66214795134112705e-05
1.42688829026799615e-05
0.000128703514552324174
-4.58687784945788755e-05
1.57911882832411152e-05
0.000136900669098500015
-4.47190313167172078e-05
1.77108749022273343e-05
0.000145982637535058206
-4.29511433949385108e-05
2.00502726746758441e-05
0.000155981722632997979
-4.03129902580842689e-05
2.28063606431750982e-05
0.000166859050223960186
-3.6486059987733208e-05
2.59417369332309039e-05
0.0001784889295498781
-3.09744785244512433e-05
2.93807656559102822e-05
0.000190700214669977405
-2.30093742691822993e-05
3.29847744024702649e-05
0.000203217678907827989
-1.19960332765048054e-05
3.63906508572115731e-05
0.000214968026109283984
3.75200001587851418e-05
0.000217422975678197082
-5.64081907837328325e-05
8.53851006167437472e-05
8.08982227116163171e-06
-5.61513368743628353e-05
8.94423505940261161e-05
8.30706294792827442e-06
-5.63197641516741552e-05
9.41342774941111621e-05
8.92081685850305049e-06
-5.66804651577099773e-05
9.97688660795559973e-05
1.00686358172330334e-05
-5.7119231552010313e-05
0.000106317824293817182
1.17679403232331656e-05
-5.76639701765136906e-05
0.000113739107027792488
1.40115961701041945e-05
-5.82318714208025339e-05
0.000122395686426679382
1.6937430229315248e-05
-5.84176276961399045e-05
0.000132729374729621596
2.07603417904446316e-05
-5.78139566870132163e-05
0.000144709612411019628
2.56145551861188889e-05
-5.6273247558946468e-05
0.000157907364068138149
3.1451319197985522e-05
-5.37374772071830075e-05
0.000172210553043099468
3.82297015775233946e-05
-4.94189053782194987e-05
0.000188673192516922449
4.62627634102200476e-05
-4.07737475894466645e-05
0.000209646297768143494
5.62871038976519751e-05
-2.3276397409328148e-05
0.000235995112221387476
6.8184168741428094e-05
0.00024313116809824355
7.3091754887868451e-05
-5.6140930117162436e-05
8.37169864086281145e-05
8.67411652226966066e-06
-5.52770509688523207e-05
8.79325984527698409e-05
8.68209467172658327e-06
-5.48715895027743916e-05
9.23077688143017272e-05
8.91974419218556091e-06
-5.48240059546638883e-05
9.72152261650556878e-05
9.51012924363435155e-06
-5.49584779420199973e-05
0.000102904993851929522
1.05534692674061754e-05
-5.51573835146139879e-05
0.000109419766856640665
1.2084589994858048e-05
-5.53977879142131813e-05
0.000116787606074923015
1.41221594180324821e-05
-5.55702158477095298e-05
0.000125274862068858634
1.67679208504783458e-05
-5.53684210388505425e-05
0.000135175288369786565
2.01664992312421949e-05
-5.44492489538738801e-05
0.000146523202495720922
2.44213992687277215e-05
-5.26055294268078631e-05
0.000159076566841416924
2.95207889930721584e-05
-4.96620910329157499e-05
0.000172763920308354141
3.54462320180717397e-05
-4.48625536387702099e-05
0.000188250146154982101
4.23776610339024861e-05
-3.60583517620829215e-05
0.000207005373253809955
5.07055588103795714e-05
-1.98991571944152066e-05
0.000228932636663897651
6.00176305352581661e-05
0.000234103931311880823
6.33462565615371516e-05
-5.50205245811118173e-05
8.56555001577125204e-05
9.08491108119695962e-06
-5.41125896051078192e-05
9.01066763805488132e-05
9.08482668729503488e-06
-5.3583567485673455e-05
9.47326832360264443e-05
9.3126744495229994e-06
-5.33507564323307769e-05
9.98187232492410675e-05
9.85890734093090415e-06
-5.32776610855931264e-05
0.000105569638404510251
1.07990127385298315e-05
-5.32547469368007903e-05
0.000112063181534184346
1.21726172563021672e-05
-5.32173347757251762e-05
0.000119363337855983454
1.40085683096866406e-05
-5.3046096269047035e-05
0.000127676803586959902
1.63863610381331754e-05
-5.24891218877512401e-05
0.000137199992631193481
1.94044183751296582e-05
-5.12538812392193384e-05
0.000147990812179772273
2.31398299330556763e-05
-4.91057448395141951e-05
0.000159907752022195776
2.75938085501307504e-05
-4.57894943203155882e-05
0.00017288918713033696
3.2749971103718531e-05
-4.05955972986063679e-05
0.000187292552794251978
3.86838539427564681e-05
-3.18027079632398016e-05
0.000203898183766621811
4.55438545941174916e-05
-1.70968744981401248e-05
0.000222059013009153633
5.28185238421278528e-05
0.000225942973325745196
5.51654419117952272e-05
-5.38614483460723566e-05
8.73225250789393147e-05
9.34784826668833037e-06
-5.29072916422479764e-05
9.19695191861157573e-05
9.32743456692438746e-06
-5.22724541365454843e-05
9.67953414649593599e-05
9.52808603027474258e-06
-5.18813726917936592e-05
0.000102023974124384762
1.00188572830790621e-05
-5.16217893071800263e-05
0.000107827682124145684
1.08583576286575298e-05
-5.13919351362974818e-05
0.000114299437303203006
1.20850379347103609e-05
-5.11035553400847854e-05
0.000121513590935231521
1.37312104456292841e-05
-5.06334300666744737e-05
0.000129647596423492476
1.58543130495245194e-05
-4.97630450914145884e-05
0.000138816857909722829
1.8530716824648576e-05
-4.82354303374555048e-05
0.000149090870320450308
2.18098832588644117e-05
-4.58052729877635786e-05
0.000160372270050482128
2.56949648202680431e-05
-4.21783887090156808e-05
0.000172584411536897265
3.01615079467928506e-05
-3.67211081602182116e-05
0.000185848917999848135
3.52091369538708594e-05
-2.81120877938449525e-05
0.000200449977229364356
4.08314753372534544e-05
-1.48307878089426327e-05
0.000215496415272606556
4.65262915215784376e-05
0.000218537162622751567
4.82550060230266121e-05
-5.74784756566700921e-05
7.42880567582036508e-05
1.05178510334429282e-05
-5.55574810837737533e-05
7.91761702483159354e-05
1.00603639626634256e-05
-5.39572560810457782e-05
8.39793915937651355e-05
9.70358571308952365e-06
-5.26588112000680181e-05
8.87553970669066437e-05
9.48370081653792684e-06
-5.16599927517334345e-05
9.35626881416212915e-05
9.436463842352315e-06
-5.09319740118918701e-05
9.85462394311160619e-05
9.60062462967941732e-06
-5.04036636608845605e-05
0.000103884760832517292
1.00308826489796729e-05
-4.99775582591166612e-05
0.000109725946638310394
1.07735494141058886e-05
-4.95584135326922496e-05
0.000116167507635909343
1.18635104156606427e-05
-4.90649826466030742e-05
0.000123294751262675498
1.33329491254187435e-05
-4.83152418362830962e-05
0.000131204098019656085
1.52188722062189846e-05
-4.71725598359169586e-05
0.000140045657495021229
1.75878592809227521e-05
-4.5387004947009217e-05
0.000149824723713614841
2.04631404207720124e-05
-4.27142694528270193e-05
0.000160470869456984125
2.3845187907907126e-05
-3.88535508368011146e-05
0.000171880434699085743
2.76983949322129141e-05
-3.32639943376813216e-05
0.00018400301776255867
3.19716466238194604e-05
-2.49683334224517258e-05
0.000196792842619519673
3.65691535129359803e-05
-1.30110723455482579e-05
0.00020930661570257015
4.10477473481427846e-05
0.000211764585935095474
4.23731629531343327e-05
-5.62194700685261892e-05
7.51456228449726458e-05
1.06209733071854344e-05
-5.43199963182841063e-05
8.016144843469188e-05
1.01407623625271273e-05
-5.27291556237343746e-05
8.50839742167144598e-05
9.75936587107087598e-06
-5.1420345816552239e-05
8.99787325468176779e-05
9.51270574751720275e-06
-5.03790201394728666e-05
9.49158744738833423e-05
9.43628974026658522e-06
-4.95674602165701225e-05
0.000100021398290304976
9.55970798418196754e-06
-4.89183909947809467e-05
0.000105440584752592708
9.92858500127944572e-06
-4.83439231860125952e-05
0.000111301321429117694
1.0579520338579412e-05
-4.77506949774714746e-05
0.000117697374810091026
1.15427041837322558e-05
-4.70385100896190684e-05
0.000124706925528353672
1.28459535531431434e-05
-4.60834063150461558e-05
0.000132412242990706243
1.45200107560569981e-05
-4.47094881720554342e-05
0.000140913609808387269
1.66089904532334445e-05
-4.2704948259766048e-05
0.0001502093257607481
1.91260097948131975e-05
-3.98372965350729774e-05
0.000160225188344126894
2.20635947135590169e-05
-3.58208968191180924e-05
0.000170826978300665013
2.5376349848745035e-05
-3.02106149571257192e-05
0.000181846203041925226
2.89827964217499716e-05
-2.23063644537444354e-05
0.000193035654571917595
3.27427441419456469e-05
-1.15390852795340101e-05
0.000203507076991480453
3.62870810499277082e-05
0.000205520828154557081
3.73312301085629674e-05
-5.96600874644766417e-05
1.17585603785217109e-05
6.51145506404602443e-05
-5.71062590629204604e-05
1.11891798242221336e-05
7.05755937136150766e-05
-5.49071985283233462e-05
1.06282545824682256e-05
7.58618924485826427e-05
-5.30331542591937352e-05
1.0124661156101621e-05
8.0989782821856498e-05
-5.14529874767769241e-05
9.71954960151576652e-06
8.60158647581202367e-05
-5.01344802021355608e-05
9.44682822863018005e-06
9.10099741542313978e-05
-4.90542244257772801e-05
9.33806442684978319e-06
9.60520164062390327e-05
-4.81691298676016028e-05
9.42073236272290677e-06
0.000101248358606975241
-4.74146340356289888e-05
9.72942824369936168e-06
0.000106722155391720662
-4.67094842406574358e-05
1.02940751691901355e-05
0.000112583840004062296
-4.59637907124257997e-05
1.11402524890020928e-05
0.000118919265054886599
-4.50784615206370872e-05
1.2291170282016394e-05
0.000125798249026866095
-4.39309221557969214e-05
1.3770723967690837e-05
0.000133284339493276651
-4.23598436266908835e-05
1.56060842687849256e-05
0.00014144659515403791
-4.01761904048100518e-05
1.78056560824655464e-05
0.000150269574415938691
-3.71614049635654538e-05
2.0350032189220917e-05
0.00015966596079444514
-3.30567129298710662e-05
2.31883583848121517e-05
0.000169474787939001017
-2.75075705087727643e-05
2.6222369892718618e-05
0.000179454448811866313
-2.00317043030512286e-05
2.92933413713011158e-05