/*--------------------------------*- C++ -*----------------------------------*\
| =========                 |                                                 |
| \\      /  F ield         | OpenFOAM: The Open Source CFD Toolbox           |
|  \\    /   O peration     | Version:  2206                                  |
|   \\  /    A nd           | Website:  www.openfoam.com                      |
|    \\/     M anipulation  |                                                 |
\*---------------------------------------------------------------------------*/
FoamFile
{
    version     2.0;
    format      ascii;
    arch        "LSB;label=32;scalar=64";
    class       volVectorField;
    location    "0.239999999999999991";
    object      U;
}
// * * * * * * * * * * * * * * * * * * * * * * * * * * * * * * * * * * * * * //

dimensions      [0 1 -1 0 0 0 0];

internalField   nonuniform List<vector> 
7340
(
(-0.182804555166820232 0.126597082027613966 0.0587329810858787521)
(-0.180612622561400593 0.132664486548938143 0.0577755785708674932)
(-0.180712518278557915 0.138333648884977095 0.0578209026828349626)
(-0.18326318496512406 0.145112498153851577 0.0590394343415227146)
(-0.187655608157658055 0.154469558969955567 0.0615922331576106291)
(-0.192817715587150218 0.166698594790068516 0.065836170310308334)
(-0.197914919954319257 0.180721828218745134 0.0717581827284032303)
(-0.204433079518573813 0.196573761211519898 0.0794029526197475299)
(-0.212400176160274262 0.216471729529959744 0.0896110058813960053)
(-0.219669996790624905 0.242314065786411931 0.103576236868657898)
(-0.224011163570821292 0.273473090835140653 0.121905697597894935)
(-0.225598831964692992 0.308276383122469855 0.144607393323293781)
(-0.225507727448640977 0.351378718085920028 0.17445700074415002)
(-0.217878687416024674 0.418912025971869717 0.219862097335387446)
(-0.176569556291769125 0.524906444083162782 0.286585821396017459)
(-0.069555949417588539 0.584127034315662486 0.326301824957867803)
(-0.17990751683839229 0.131837657402353675 0.0571587652586254269)
(-0.177797985764206662 0.138557917327829183 0.0561420473483103394)
(-0.17764102328126713 0.145230601327436259 0.0561089860920312711)
(-0.179493225571795451 0.152951381786101237 0.0571947948744206403)
(-0.182812424949586522 0.162739968053315753 0.059563066567048302)
(-0.186715338667489128 0.174817723321809254 0.063485067101518397)
(-0.190849666812140162 0.188721896144026791 0.069025803118563836)
(-0.195847737984739284 0.204736061214603221 0.0763019783086472114)
(-0.201597950070503018 0.22429589884537357 0.0859156185255650351)
(-0.206591879710549597 0.248689711663499541 0.0986843649647366622)
(-0.209107935937077077 0.277683088273403822 0.115107411088288966)
(-0.208904484382103628 0.310597085717041033 0.135455428124091254)
(-0.206184726102478871 0.351217822994247975 0.161966860496997517)
(-0.19442950569140055 0.4106306095554072 0.200196830067915693)
(-0.151664562386066237 0.495528396918440583 0.251814364571362415)
(-0.0584814564729315492 0.536043081756041095 0.277681217719484508)
(-0.17619852813443565 0.136427949708239626 0.0558930719130387998)
(-0.174117292551880798 0.143675496177313428 0.0547473186127849301)
(-0.173686191293230291 0.151085000253551871 0.0545700416532508281)
(-0.174881203008409591 0.159456744577380488 0.0554749717248174679)
(-0.177240279399505096 0.169513094237545375 0.0576083710839380564)
(-0.180123088909230789 0.181505892896732413 0.0611760389736599464)
(-0.183295018382343244 0.195303753310781231 0.0662738262145014245)
(-0.186923908833307562 0.211245449936346169 0.0730511376958988545)
(-0.190746468563356419 0.230324591864805195 0.0819497445947193481)
(-0.193632825885197368 0.253430635508975655 0.0935369931247361092)
(-0.194239353784439073 0.280550696982320547 0.108211385396530219)
(-0.192032006302604585 0.311547034304207215 0.126316635403972366)
(-0.186378399616929646 0.349232534058957489 0.149446332286010786)
(-0.170894251529830399 0.400783770704144615 0.180951339557924168)
(-0.127973961774012601 0.468092133109174802 0.220392480456169437)
(-0.0478569067220460317 0.49564756590253134 0.237508711665283812)
(-0.172227108027125958 0.140453052327005612 0.0545595257659801172)
(-0.170111674477318731 0.148107691805757252 0.0532676764099231301)
(-0.169402374925561261 0.156042397005857342 0.0529285568001147746)
(-0.170004893493244491 0.164858265855296643 0.0536414166261392419)
(-0.171540411968563455 0.175090249650506208 0.0555251377274333241)
(-0.173538701880030621 0.187004092201054656 0.0587346832507870953)
(-0.175758516318438418 0.200645625939360667 0.0633748696107131332)
(-0.178129288878984549 0.2163509487461929 0.069602867631020901)
(-0.180287176808511612 0.234833021434921158 0.0777402268276699282)
(-0.181317944849577667 0.256724425671170431 0.0881870701880125424)
(-0.180101808007938374 0.282120151006379605 0.10124870018422151)
(-0.175883128988622794 0.311106394415628873 0.117222184538514809)
(-0.167467480797375168 0.345577735897161564 0.137110379646475794)
(-0.149148001106779615 0.389807256797471857 0.162713572001050077)
(-0.107461560887411087 0.443002851795467834 0.192717607352116627)
(-0.0389401356113225627 0.461967279808484288 0.204370357069110498)
(-0.182282005544766729 0.119928737186744239 0.0615878721742268709)
(-0.176206787143302263 0.128072085153564552 0.0581965635316832111)
(-0.17154395538491099 0.136063370911841369 0.0552894504855970248)
(-0.168141081722602864 0.14398396814553624 0.0530419506328793783)
(-0.165951163578477001 0.151938503584148121 0.0516155984428421782)
(-0.164963142280769803 0.160237382093299102 0.0511208728846755805)
(-0.16503863846933986 0.169343035331703529 0.0516437797488005224)
(-0.165863380517658893 0.179672624555314853 0.0532778171578270621)
(-0.167063396985332374 0.191483836062070645 0.0561402689896305512)
(-0.168374146427732074 0.204909985646207632 0.0603318313235394338)
(-0.169599531195943731 0.220263904929114407 0.0659975768363167264)
(-0.170321201463064009 0.238064683314443387 0.073370519494872638)
(-0.1697472412070265 0.258771181261171546 0.0827331212228576557)
(-0.166887937886050886 0.28250830321113829 0.0943035187165775501)
(-0.160837955926155518 0.309393643548112551 0.108280449015684344)
(-0.150131599833026874 0.340546465110425356 0.125195695880638669)
(-0.130001412640476655 0.378197719524529241 0.145837608770331278)
(-0.0905874439585517971 0.420310185271977443 0.168675465513847656)
(-0.0319516798365579169 0.433711386710803226 0.176903911801700342)
(-0.177922698578944605 0.122418376900420386 0.0602522170733757953)
(-0.17197534891092503 0.130761917440868819 0.0567116909603033043)
(-0.167382892430498975 0.138903827838498278 0.0536880949717001357)
(-0.163986853944039085 0.146988526135103215 0.051339441827744553)
(-0.16169745890335821 0.155162269099419714 0.0498006203495522382)
(-0.160435332703308231 0.163708848211850777 0.0491665863692973132)
(-0.160041073452399013 0.172993584046461146 0.0495095308781545798)
(-0.160241045503758422 0.183355031926433043 0.0509027701493972584)
(-0.1607140604377508 0.195033162524072767 0.053435807527252438)
(-0.161180978239162831 0.208196421475158044 0.0571970508997022981)
(-0.161377149121994024 0.22312095903072901 0.0623094808057089375)
(-0.160860469930151434 0.240189728853133028 0.06894014274489077)
(-0.158915480523134339 0.259732846517540528 0.0772838534899939616)
(-0.154639121688713188 0.281855187040284449 0.0874804437031079518)
(-0.147055628405989125 0.306612599356351934 0.0996236780846332243)
(-0.13464998763285882 0.334527902023964818 0.113906161640172116)
(-0.113637233432778012 0.366496408504858817 0.130499168063658161)
(-0.0770707617396196309 0.400067431895280157 0.14795786450351972)
(-0.0266611261615392545 0.409719554479376358 0.153969118754115286)
(-0.189628638032392383 0.106558920970627899 0.0668346753161932622)
(-0.180690420744495817 0.115932479535332936 0.062676195388754033)
(-0.173419643959843495 0.124795077145456373 0.0586404175997021215)
(-0.167623090491764715 0.133274919782542356 0.0549737764055636402)
(-0.16310910872323478 0.141531878890694962 0.0518595751833831886)
(-0.159711056301603121 0.149738739583648944 0.0494331504868403687)
(-0.157313189962116712 0.15806971226172703 0.047803532712211376)
(-0.155793821680188904 0.166778320837402738 0.0470480109833528726)
(-0.154982949533553349 0.176159851407391321 0.0472251792612915014)
(-0.154631893004118615 0.186494009872859551 0.0483916591860485135)
(-0.154451484787155091 0.197998314339529274 0.0506153073927779543)
(-0.154155981940224507 0.210848025809338424 0.0539692069613973216)
(-0.153442226270790572 0.225275774739238932 0.0585507079477744774)
(-0.1518630134326448 0.241558827695365019 0.0644764846093255073)
(-0.148759830627332723 0.25991805067771806 0.0718717337490245994)
(-0.143299289633445986 0.280407009588096279 0.0808090684750855659)
(-0.134499106503101651 0.302976328835575626 0.0912897619286477113)
(-0.120926009060349185 0.327686592384712427 0.103272076772556107)
(-0.0997119931299113027 0.354559290122620052 0.116552163224682426)
(-0.0662518621252157214 0.381254885307096614 0.129892456913682453)
(-0.0226969250881789292 0.388617603609854756 0.134659113594390756)
(-0.181594746646421695 0.132625034010126541 0.0445408025207167935)
(-0.180758009275911236 0.138316881633393368 0.0446418201316218788)
(-0.182184206596509107 0.145235128572539202 0.0458974371967325809)
(-0.184963443426995555 0.154512252132130157 0.0488373564351131592)
(-0.188023175857402247 0.165883287186128936 0.053672474428580072)
(-0.191292784784942882 0.178677345280021577 0.0602223491112441819)
(-0.195619355634653658 0.193631749237585499 0.068641775823154505)
(-0.200458692744957395 0.212447815385881311 0.0798934793279068023)
(-0.203786089779697505 0.235905891785883393 0.095136606537870233)
(-0.203926116693327997 0.262699141401001812 0.114653664628143886)
(-0.201222792678560636 0.291828459138584573 0.13816578599821136)
(-0.196160184426572848 0.326927116262576922 0.167669902298321183)
(-0.182686832368240626 0.377638513359379813 0.209285020721336285)
(-0.140626666632319069 0.450677007766824067 0.266009121919709546)
(-0.0539596357353374079 0.481381319532634522 0.29578775074037178)
(-0.181060242130276688 0.131246839764005363 0.0450031903522024393)
(-0.178179517130484605 0.137741879459892802 0.0444167525875054439)
(-0.17706469930238361 0.144322178492861219 0.0446057768319021858)
(-0.177730572056822828 0.151950803408865603 0.0458967616859792121)
(-0.179538131460103001 0.161416852792769377 0.0486564393135846263)
(-0.181690713698911266 0.172697918079412233 0.0530914606335645967)
(-0.184098796276422061 0.185534402844760776 0.0591821434628121423)
(-0.187038365085920505 0.200471188312922932 0.0671086032159229073)
(-0.190003443027725816 0.218618470640980722 0.0775292760256547087)
(-0.191590358060460375 0.240556943065262901 0.0912214536231978484)
(-0.190403142566907657 0.265634381656579766 0.108470904461336448)
(-0.186294403160877836 0.29341964521731162 0.129299802466549013)
(-0.178919591246012033 0.326501635880527719 0.155194975652536649)
(-0.162503146483509331 0.371358140109513735 0.189953685571785935)
(-0.120441270807207429 0.430595715635618159 0.233682405302637369)
(-0.0447137881759442635 0.451546098628717973 0.253005359596138346)
(-0.177334552463216472 0.135182548385710005 0.0448033930605583192)
(-0.174471247448375499 0.142203722556952711 0.0441634122418751579)
(-0.173088680657644017 0.149433296770847102 0.0443307422008735255)
(-0.173121251677647248 0.157579861342077299 0.0455517080364586033)
(-0.174090008195286639 0.167211490773380156 0.0480878627922956409)
(-0.175428349655424948 0.178438653864944841 0.0521210122395290784)
(-0.176966594962860935 0.19121571582931679 0.0577104373632050666)
(-0.178676603867351402 0.205995859457811126 0.0650404815039065942)
(-0.180055923147686731 0.223503559308546623 0.0745687225336118809)
(-0.180027016912832599 0.244175824285418092 0.0868257055133821454)
(-0.177453490242214434 0.267721730237569955 0.102059766699586399)
(-0.17181399524460983 0.293999812705093233 0.120390154080329118)
(-0.162188376834211889 0.324732526472672367 0.142782707469386511)
(-0.143363656021348873 0.363950408458594443 0.17134256355380531)
(-0.10239384920454031 0.411656202505312152 0.204824963047575553)
(-0.0367665939240913106 0.426097285384676228 0.217720490163718972)
(-0.17351112531447066 0.138649272960344794 0.0443915611487320852)
(-0.170603018046822791 0.146074475047726471 0.043665906698929266)
(-0.16895510341591552 0.153781720955234846 0.0437539474962552674)
(-0.168449224523253838 0.162301573941984439 0.0448465382023356118)
(-0.168707321745108774 0.172063813229547946 0.0471368105603977711)
(-0.169299848627104871 0.183237157800963724 0.0507761322647003535)
(-0.169990837182892957 0.195893748074701807 0.0558551142324263672)
(-0.17059834339951041 0.210403250243900164 0.0625501799259947783)
(-0.170623692260946175 0.227265913164566652 0.0711787349921946672)
(-0.169175277997738238 0.246810444016452135 0.0821090827784754784)
(-0.165273411684108196 0.268921131910417999 0.0955323321106670703)
(-0.15816671728938031 0.293558332824462975 0.11155239566623211)
(-0.146622932068538492 0.321748259268113679 0.130693038162079889)
(-0.126206645072303586 0.355717433673077843 0.153921662909333984)
(-0.0872622296410570236 0.394097737297209094 0.179548756981352892)
(-0.0304668385342819308 0.40436059760703047 0.18850194162950179)
(-0.185230988362135335 0.118345944282187782 0.049742670239584251)
(-0.17882710539063551 0.126232515179006244 0.0472873923707464935)
(-0.173646638556866156 0.133989301143686873 0.0452335755824822619)
(-0.169577505585705696 0.141691667331052706 0.0437327903985118283)
(-0.166594729603981861 0.149428964136232217 0.0429101360503538337)
(-0.164690421532882797 0.157483188109149269 0.0428903973620760812)
(-0.163717820312352075 0.166261250529877086 0.043824335257103296)
(-0.163364041371335644 0.17610627438733692 0.0458585626108199626)
(-0.163272831054868062 0.187206820744993979 0.0491168298160376965)
(-0.16317118804505254 0.199692117577813993 0.0536954473684538303)
(-0.162797458266824679 0.213855436233168522 0.0597570545414644327)
(-0.161661591771492669 0.230059888177305744 0.0675097197159303802)
(-0.158989095313251227 0.248546992762461866 0.077216833292833284)
(-0.153894977638933533 0.269269898109251338 0.0890042370545462702)
(-0.145513240729244403 0.292182812556910754 0.102914847996058767)
(-0.13251132285064296 0.317771252427347162 0.119138088661422836)
(-0.111303702125327447 0.347012816624252152 0.137931037002979651)
(-0.0749565287097712779 0.377979995793502943 0.157616379405373624)
(-0.025659885905970313 0.385580782603213545 0.164111184798473392)
(-0.181045796493714023 0.120322058438495749 0.0491591840964739832)
(-0.174738780799928634 0.128431953443508606 0.0465919477490973205)
(-0.169611746841082267 0.136379578705654425 0.0444387652533642236)
(-0.165544363928170069 0.144284071436750483 0.0428443396086348599)
(-0.162472213528484261 0.152262239395737548 0.0419243529066531118)
(-0.160324671353333448 0.160567181251887625 0.0417860280320539318)
(-0.158942260764377175 0.169519287856422646 0.0425497486111217557)
(-0.158052105021227546 0.179402629478339515 0.0443289161354940425)
(-0.157339202654835864 0.190405278225009744 0.0472247087300823459)
(-0.156514043364317235 0.202675126640110614 0.0513264499444598815)
(-0.155273701918620777 0.216445169531384263 0.0567661048740827484)
(-0.153143122148360289 0.231984623221411251 0.0636916327648120173)
(-0.149429094465367757 0.249458468741346917 0.0722765743285500584)
(-0.143317996400882885 0.268831593905655752 0.0825883884787497746)
(-0.133915402915737697 0.290005023844237264 0.0946020482615411717)
(-0.119931334090297992 0.313070368953274225 0.108277916597620788)
(-0.0985833128520985924 0.338203586523944499 0.123463764701660567)
(-0.065056405614242932 0.363371662695337827 0.1386828033123432)
(-0.0220207435786171184 0.369146770593087314 0.14356685075765771)
(-0.192986439225246664 0.104692546015951501 0.0542219901100958676)
(-0.184145501035774845 0.113630565260958466 0.0512419109789421581)
(-0.176686374082151099 0.122209234987640428 0.0483109685228784308)
(-0.170497166277959328 0.130491579426770282 0.0456403570342034798)
(-0.165433282567456041 0.138596893923684406 0.0433999217412772906)
(-0.161363836238985009 0.146660073633517268 0.0417204247747755413)
(-0.158199279321116687 0.154824782554699697 0.0407070001445934207)
(-0.155830269351546202 0.1633085169374138 0.0404485486942983904)
(-0.154089489700427018 0.172370163058787884 0.0410411669192448439)
(-0.152729387775912662 0.182247768873256916 0.042572925282589727)
(-0.151461764620490186 0.193118031835416565 0.0451259100219807141)
(-0.14999184971256771 0.205127156943642086 0.0487768701193687926)
(-0.147996029157288378 0.218456530777751928 0.0536240384017023994)
(-0.145019372046404083 0.233306760338268526 0.0597775508157933691)
(-0.140432564727935583 0.249762898232137182 0.0673369578513837164)
(-0.133486510679523995 0.267774165969375977 0.0763201675586835659)
(-0.123313453787401286 0.2871673222228735 0.0866421297071793828)
(-0.108743288783779646 0.30774283889790327 0.0981138957856159816)
(-0.0877014963155738347 0.329169113380072043 0.110352706177140547)
(-0.0570186082466908051 0.349606125961725467 0.12213943869251534)
(-0.0192343162044470405 0.354239840175224807 0.126115356265079082)
(-0.181563334983616625 0.134288400344317799 0.0318557174877543287)
(-0.179876882126317444 0.140474361225496863 0.0322975216394538883)
(-0.17989364177915157 0.14777558844812369 0.0340034001378417897)
(-0.180801785718802566 0.15673611712394217 0.0374852869908171155)
(-0.181987399485823015 0.167237965156488977 0.0427704751475970965)
(-0.183454782545095035 0.179146289303132006 0.0497536140198560628)
(-0.185326748771684618 0.193139117112547026 0.0588658744611770951)
(-0.186711893357814129 0.210085722059407093 0.0709657642344836692)
(-0.186084173849354162 0.229846730430356083 0.0867410994453259587)
(-0.182521331461693859 0.251517780818221737 0.106060990097655322)
(-0.17601477833662843 0.274866226795080493 0.12872034540334637)
(-0.165971915302227935 0.301937476494031687 0.156115717284774802)
(-0.147401179530251947 0.337230781676623181 0.191681513777585688)
(-0.107103358664138268 0.38307348300731825 0.235670041487787529)
(-0.0394325836063650417 0.396580963773035144 0.255861599453668764)
(-0.181566700659535646 0.13221341440265566 0.0333141833266435705)
(-0.178063731242224854 0.138728051288408871 0.0331353731787751155)
(-0.17605829517228852 0.145484637696735947 0.0336883658708902051)
(-0.175428162957149997 0.153157828486428477 0.0353841794040170021)
(-0.17562438118864529 0.162197734103299213 0.0385807191525785742)
(-0.176111739412921908 0.172634463559151019 0.0433837451588968276)
(-0.176757887212733944 0.184469290371888167 0.04980642606633294)
(-0.177473595379663313 0.1981880042907605 0.0581850312390463295)
(-0.177547960947615546 0.214360852756717929 0.069083960986475873)
(-0.175824151809195445 0.233011835109156407 0.0829917590945778161)
(-0.17136121671231444 0.253631058322853264 0.0999208568816297438)
(-0.163778139990544636 0.276073070609888727 0.119822096883719337)
(-0.152207965059687783 0.301682070148152681 0.143572924127741419)
(-0.132202861572775443 0.333425722743375952 0.173127186969805974)
(-0.0929812606272963915 0.371752852009133661 0.207314682499347619)
(-0.0331104934571457843 0.381418516077275171 0.220752443973165513)
(-0.177977886245528322 0.135559776055539122 0.0341544793239394046)
(-0.174441941794587441 0.142503070365605916 0.033958348496240881)
(-0.172164460722783796 0.14970908368929145 0.0345089475363374101)
(-0.171006058486978751 0.157700924087131544 0.0361050241132784208)
(-0.170558515852631876 0.166842562139439016 0.0390082184151091249)
(-0.170387179805829014 0.177241648787990813 0.0433451687627261842)
(-0.170267502422240785 0.188978225476810063 0.0491893929111261452)
(-0.169977677350666101 0.202422181801158119 0.0568063003850712983)
(-0.168902981465985008 0.21795596605672618 0.0665760374173797603)
(-0.166109225694623025 0.235661065808320386 0.0788473868068739758)
(-0.160716317908048162 0.255252076896841484 0.093676760915523391)
(-0.152103014766836658 0.276628026227552837 0.111054152973888751)
(-0.139182968777423755 0.300574707411237263 0.131438374495012639)
(-0.118145348876840833 0.328809787679915644 0.15573685288359973)
(-0.0806991113776174274 0.360608426301561535 0.182230935958242302)
(-0.0279697650273556531 0.367730222829540543 0.19149123212643368)
(-0.174281194112638538 0.138437473982954334 0.034613365071170285)
(-0.170682364508667805 0.145722869346849054 0.0343572951209764332)
(-0.168160603047649487 0.153289832024471523 0.0348392713569705831)
(-0.166560202636882954 0.161542368183879542 0.0362844925931023535)
(-0.165550881115484577 0.170780372748139758 0.038891420078217831)
(-0.164766706657447803 0.181147455431504067 0.0427843671102961232)
(-0.163931692468300694 0.192761728039104158 0.0480601665630742275)
(-0.162759070679834528 0.205922774736458564 0.0549238743382733513)
(-0.16069156401698767 0.220876261895965459 0.0636442387587187186)
(-0.156928659549237154 0.237727562586368873 0.0744629930064695522)
(-0.150655861587424195 0.256298121550620372 0.0874325727624722104)
(-0.141120978280800558 0.276480866750246079 0.102522120541565481)
(-0.127152781310732488 0.298632148385268137 0.119877503698613996)
(-0.10562415157556769 0.323534500847819151 0.139726358204156881)
(-0.0704404863557957089 0.349875273102581041 0.160291592022758472)
(-0.0239661895879919873 0.355347241770274047 0.166959316419278969)
(-0.187396704069943243 0.118109661993198597 0.0387784530134911154)
(-0.180710556132563843 0.125818949767860871 0.0370409692326336831)
(-0.175088968098345232 0.133397257714896272 0.035646362611837977)
(-0.17045271679777782 0.140923765697139741 0.0347232181421818845)
(-0.166780473832720211 0.148489728175658697 0.0343846166106375195)
(-0.164036712368248516 0.156341237885610773 0.0347613525487532465)
(-0.162056162058480613 0.164795995829005004 0.0360296078515967844)
(-0.160556460146291657 0.174108608151011479 0.0383436748378978634)
(-0.159212918214585747 0.184435911202025959 0.0418166875584370795)
(-0.157718751760236142 0.195909440777002952 0.0465468276910662448)
(-0.155770600631270545 0.208751524171481267 0.0526909419704283052)
(-0.152850868628620018 0.223158241215589387 0.060443865125883213)
(-0.148238199406424964 0.239201890223299962 0.0699641595481297063)
(-0.141185912808219682 0.256751795342235578 0.0812797351541398455)
(-0.130892512641365866 0.275663979072797549 0.0943178347936550893)
(-0.116214820446674583 0.295973144086331297 0.109007758057335521)
(-0.0946863850447760141 0.317816258662195983 0.125172854227194569)
(-0.0619896520670927542 0.339682721669381904 0.141209607662676151)
(-0.0208720093223384515 0.34405761475383323 0.146222850966623463)
(-0.183313201470975601 0.119569399366789356 0.0388411412015663426)
(-0.176716081469038749 0.127504224457244492 0.037020095546607075)
(-0.171145774645366261 0.135286017173650325 0.0355403646114128904)
(-0.166512467481032211 0.143022087283605936 0.0345303880787032474)
(-0.162763619945286153 0.150817895813472713 0.0341003041592221681)
(-0.159816270019700196 0.158892805900074124 0.0343537657991964118)
(-0.157502915829002554 0.167500598414258739 0.0354358655508089093)
(-0.155569639697885564 0.17686157475571182 0.0374670037907517683)
(-0.153718253599080479 0.187132383295040616 0.0405458134649175489)
(-0.151639894193245389 0.198443104137364768 0.0447610568069739395)
(-0.149010388809099392 0.21093826093035789 0.0502304877036348491)
(-0.145350336407182396 0.224815334722559962 0.0570980279176746333)
(-0.140015193036491403 0.240078346455410041 0.0654563058409876608)
(-0.132308945625912222 0.256615363229445059 0.075302461412870017)
(-0.121443897987262253 0.274234537395589728 0.0865224876589659186)
(-0.10637599971978115 0.292745230247771104 0.0989095467537091655)
(-0.085223276807762427 0.311876577869226346 0.112072907915596848)
(-0.0550267226637367948 0.330137025135338436 0.124661808937495747)
(-0.0184485525886587537 0.333697775150768927 0.128551574576898142)
(-0.195391166304647618 0.103941315316723001 0.0428527841863478448)
(-0.186642179565069344 0.112587390303996199 0.0407218174112907449)
(-0.179052938055204391 0.120958137389046233 0.0386170522543483469)
(-0.172560495939145048 0.129075610097513005 0.0367118683059391923)
(-0.167050709146677412 0.137032988328926658 0.0351515546160695302)
(-0.162420714351334566 0.144941083483956595 0.0340554968138452596)
(-0.158597095261251486 0.152927948915403844 0.0335272743620960573)
(-0.155469210960523463 0.16117541745106706 0.0336529696849083085)
(-0.152866676689057596 0.169892907632479301 0.0345487211210253053)
(-0.150553732345112767 0.179270633640959132 0.0363098358932254783)
(-0.148252028709774497 0.189454303944525421 0.0390199276343614274)
(-0.145661170295900311 0.200563501314154929 0.0427546241493834966)
(-0.142442653210972991 0.212705331230504335 0.0475998552320218218)
(-0.138151741545298523 0.226025484122466952 0.0536577383772145061)
(-0.132215813907862162 0.240498633811499551 0.0609751242241595992)
(-0.123986789055513996 0.255998286863203584 0.0695156737413723108)
(-0.11272730107080603 0.272283793359292314 0.0791328137396401232)
(-0.0975253004177213112 0.289004505022871616 0.0895396435198481111)
(-0.0769939588898293503 0.305641905382529167 0.100241580414632825)
(-0.04920814197860994 0.32087296314625624 0.110147845137391731)
(-0.0165055213645224179 0.32386237378699112 0.113389215775204444)
(-0.185127299033176235 0.132788905444124472 0.0202426814244996423)
(-0.181034439070099556 0.139057786327311389 0.020588020377605383)
(-0.178324620314555093 0.145577677964437963 0.0217054993322299827)
(-0.176786381125276837 0.152856754307424209 0.0240697519949203374)
(-0.175918753967697905 0.161134161080030036 0.0280227799772264502)
(-0.175362279253815118 0.170491318078061171 0.0336435145579527112)
(-0.17492419378384208 0.181092281648510572 0.0410092535325287666)
(-0.174251802293533431 0.193280529323436978 0.0505289478023918798)
(-0.172516979109254565 0.207304873855121113 0.0626986932244483763)
(-0.168683644878751843 0.222892627247371272 0.0777213639723231819)
(-0.162076457535534013 0.239518979234575685 0.0954116024908000793)
(-0.152309689363428868 0.257076977004256968 0.115683997877234115)
(-0.138367987248299407 0.276321702471864716 0.139183502778412044)
(-0.116893446377435331 0.298830242949916225 0.167246618768782884)
(-0.0804348593906960424 0.325442810037673835 0.19903589476116848)
(-0.0284525833888591151 0.330714010475813169 0.210578841713082832)
(-0.181700300581685764 0.135525334272768805 0.0227097107265291503)
(-0.177567812087852134 0.142097404037345415 0.0230420933525590614)
(-0.174617820874242269 0.148907280983335388 0.0241146127741326995)
(-0.172665720700356906 0.156369415013207058 0.0262835953046971806)
(-0.171318963795604767 0.164730398924354038 0.0298130123710985337)
(-0.170220321900865196 0.174105438906104359 0.0348147275337060691)
(-0.169103314492463297 0.184629908602052389 0.0413916721681897928)
(-0.167624068641991697 0.196577104387673757 0.0498484141250883084)
(-0.165095647026087838 0.210139426579282057 0.0605309398492527642)
(-0.160626773120367022 0.225190017586586633 0.0736226920828810943)
(-0.153494230723340563 0.241382552344840073 0.0890412634998800079)
(-0.143129513571446487 0.258586068989006157 0.106713167615257593)
(-0.128511630538981569 0.277223005919665366 0.126939278529263094)
(-0.106720845055055108 0.298255791604671694 0.150314974504950016)
(-0.071725555332446414 0.321604454120749006 0.175471405081258525)
(-0.0247689194264766321 0.325927131232344347 0.183539596578233516)
(-0.178206439293291524 0.137832289566266308 0.0244681361333110199)
(-0.174027860951644714 0.144698257323902513 0.0247295620946305292)
(-0.170868004596493678 0.151796859505631765 0.0257018194178448567)
(-0.168553243127499253 0.159468357747148654 0.0276522070275925375)
(-0.166762228854103134 0.167942190742107256 0.0307882841152211234)
(-0.165154482994163798 0.177351753377365667 0.0352302772487997073)
(-0.163425757051833848 0.187826965170289434 0.0410884639294035042)
(-0.161228490324886398 0.199578914097450932 0.0485896094712702578)
(-0.157963261619219336 0.212766487901332596 0.0579895194496642327)
(-0.152851082766872814 0.227322011212709452 0.0694269752965514381)
(-0.145177389276479218 0.243008075625722741 0.0828635360113602754)
(-0.134271064221608671 0.259672020954014537 0.0982094945841323896)
(-0.119106641241313066 0.277460285799625783 0.115511098696643472)
(-0.0972376458245246822 0.296793320986357745 0.134850620016780914)
(-0.0640801075732548853 0.317035083183652089 0.154733493284852419)
(-0.0217785383774320232 0.320648198468693191 0.160610509501547732)
(-0.174597040696135825 0.139799354328384834 0.0256523452073270444)
(-0.17036310254309428 0.146942373636627099 0.0258170613158048012)
(-0.167017018825515895 0.154310458238290593 0.0266592911989715423)
(-0.164384526918077339 0.162186899000414553 0.0283822297029259867)
(-0.16218791348560363 0.170779021142604015 0.0311532254466739857)
(-0.160108340135217853 0.180226966152646995 0.0350878681882187612)
(-0.157829616234424541 0.190654864015496778 0.0402922833282234327)
(-0.15499479097316568 0.202220951899168305 0.0469326445113701987)
(-0.151066909592269816 0.215067589498684569 0.0552092169838347413)
(-0.14535585851854177 0.229137832223740762 0.0652091425769912164)
(-0.137174264669164048 0.244252669566902753 0.0769055094185786131)
(-0.12581459770761122 0.260230466901100077 0.0901803126691488877)
(-0.110292548195766268 0.27700267439697579 0.104903947476152101)
(-0.0886354795696979447 0.29457400603640238 0.120838761487003274)
(-0.0575164654435052491 0.312030958843469763 0.136584611142960582)
(-0.0193749575651067235 0.315112968165651763 0.141044082838906792)
(-0.188927134115052048 0.119150126879220677 0.0288566569158991426)
(-0.181990921630704794 0.12672695093178743 0.0276909162261913602)
(-0.175988062540713669 0.134151529787137846 0.0268263850593127642)
(-0.170855738406534591 0.141513255298132468 0.0263700454771792075)
(-0.166566906398151193 0.148905096106207557 0.026426801310774399)
(-0.163054280687563335 0.156508767713027575 0.027124768272046712)