/*--------------------------------*- C++ -*----------------------------------*\
| =========                 |                                                 |
| \\      /  F ield         | OpenFOAM: The Open Source CFD Toolbox           |
|  \\    /   O peration     | Version:  2206                                  |
|   \\  /    A nd           | Website:  www.openfoam.com                      |
|    \\/     M anipulation  |                                                 |
\*---------------------------------------------------------------------------*/
FoamFile
{
    version     2.0;
    format      ascii;
    arch        "LSB;label=32;scalar=64";
    class       volScalarField;
    location    "0.0299999999999999989";
    object      alpha.water;
}
// * * * * * * * * * * * * * * * * * * * * * * * * * * * * * * * * * * * * * //

dimensions      [0 0 0 0 0 0 0];

internalField   nonuniform List<scalar> 
7248
(
8.81002525214578188e-05
6.20798281548287303e-05
4.19593146116915529e-05
4.63978884788403549e-05
0.0642819434276360596
0.000856163120064175462
0.000578474012007711928
0.000144632263530907498
6.21250371273583901e-05
0.0630374589654565665
0.0014574273324405309
0.00109449908200388727
0.000889060975595298451
0.00020195439192111775
0.0675316520097569845
-0.000266371562625591354
6.27018489820985387e-06
0.000667796236054815032
0.000580471221984892862
2.25724242903540241e-05
7.28919589926438023e-06
4.95837796751519175e-05
0.000930314335714200157
0.000541427356066742421
9.80205750210241298e-06
5.2741062406345935e-06
5.92720658953763876e-06
3.18098057839500214e-05
0.000169612096296566886
1.22797057895109617e-07
-1.27652121389782115e-07
5.79345268503172296e-07
9.90505881603765309e-06
5.94245764809788732e-06
-1.03339516563720572e-07
-1.69629353150440681e-08
-3.87138340445716067e-08
1.10768502968733273e-06
-1.17943308116382054e-08
-3.35181547780009689e-11
-3.17139376150146883e-10
1.44035420759902e-08
7.48413840293477907e-08
6.85362408885919963e-09
-3.88107584305319745e-13
-1.51257408771844336e-12
-9.00565893141910937e-12
2.44420678190403582e-12
3.79804544038679336e-11
-8.17457149705265192e-16
-2.73312727518155334e-14
-8.26353262893745871e-15
-3.72461549604136127e-15
1.76935232156531723e-11
-2.17914313892372765e-21
-1.46160062766901751e-20
-8.11412733998536636e-19
-3.95444134835812724e-18
-3.54270285211607688e-18
1.71313343050364176e-14
1.80272017871745809e-13
-1.25712517505869989e-25
-1.98904363640356612e-23
-6.47822223417686819e-23
-2.71770004279619886e-21
8.02374691244274981e-20
3.41017834058061562e-18
4.04952313407864942e-16
-1.23640182365040161e-28
-2.28081720064908638e-28
-2.39179491297883409e-27
-3.00711664878625064e-25
-6.08073234788780627e-26
3.72697633901683914e-23
3.30362205978552443e-19
-1.63874111535720809e-35
-5.3741624220276619e-34
-1.98931923674797539e-34
-6.72523426565619995e-34
-1.05011746799797298e-29
1.45925755854066412e-28
2.67567336703315117e-23
3.46358200866331265e-05
7.342950378810782e-05
3.76939911164598176e-05
2.29680782880275849e-05
0.0451261068062080301
0.000554499262247855665
0.000147553311752049714
3.74821376181605446e-05
3.03920534542799595e-05
0.0372606035723419202
0.00213775930198802262
0.00195078447651697898
0.00146498085762928904
0.000145323412074504853
0.124085683719233536
-0.000168518424803283792
0.000870530418742473857
0.00132362151415260708
0.000792559594184719411
5.19827729020288956e-05
5.24287359522944202e-05
0.000727773329063183087
0.000109304705290361103
0.000521450547940747588
1.60451106899883638e-05
1.16734743120654639e-05
-5.2501848663083582e-07
1.62242842805881132e-05
7.76661267633651429e-05
5.17317180941859563e-06
6.36268797746291705e-06
4.35364204220513757e-07
7.0037178734083693e-06
3.01547941053979274e-06
4.09543792675482614e-07
-1.57043915979752954e-08
1.56411135170918117e-07
7.06757415359649717e-07
1.12356140105410731e-07
2.20390043421965956e-12
-8.25830084432381578e-11
5.38301706358364794e-09
2.00383058122717922e-08
3.561177211502316e-09
5.56537124746112124e-13
-9.58484210325433632e-13
3.53823083379559082e-13
4.37419264586404875e-12
4.10450560600881176e-11
1.3228133395603088e-13
-6.92813869705760566e-15
-3.13496483028535375e-15
6.58449792068577457e-13
1.55612336561864503e-11
4.92441750242669701e-17
-1.2299534668997312e-17
-4.20579208172574924e-17
2.16742679546850803e-14
2.13378155962571112e-13
-8.84394662892616828e-23
-7.85819480921389424e-21
1.46791316606670739e-19
7.15450662970541816e-18
6.63934277149452836e-16
-3.12402003795179657e-26
-5.04256094678060527e-26
-3.61973600856980027e-26
8.90533418247057146e-22
5.59085330006575236e-19
-6.16849764853845076e-35
-2.37359057876167124e-32
-2.11566652079947642e-29
-1.52804949133616154e-31
6.38320729697786596e-23
4.9611264407487973e-05
3.95291099588110592e-05
2.84442981900342364e-05
1.3289375719260975e-05
0.0378145585858381192
0.000164712062733347967
0.00142698963579657211
0.000460573548896158001
4.82507662996396221e-05
0.178243774424521328
0.00275452947647252672
0.00189370950220100185
0.000906775248497833277
0.000242505122958117981
0.166311549577276396
0.000795765085539116082
0.00029571424476656816
0.000944588151232610748
0.00181393723198081157
0.000203728511031625245
0.000235818417743495175
6.70839617887073326e-05
0.000197076475905110535
0.000978000995707114336
8.60590077134510908e-05
5.20241821810539225e-05
8.93354880215947078e-06
2.79392963092676272e-05
9.33703895989225361e-05
2.47832486246245533e-05
6.74543398037227082e-06
7.40463925788174797e-07
3.87504846122584576e-06
7.54390948806521286e-07
-6.31389608736867655e-08
3.26949881006473537e-09
-7.22821885418761977e-09
2.20145046391386209e-07
5.06273718003046573e-08
3.86415660934222188e-11
-4.12973939729266212e-11
8.91964158296760478e-10
5.96386529158643058e-09
2.53839287617015456e-10
4.4194346778470912e-12
2.15000261045341734e-11
1.86801492456500261e-11
3.86738522491484221e-12
1.78866334585316945e-10
2.59609633967591851e-12
-1.38533114213405011e-14
-2.38330953717204385e-15
1.42616917776186509e-12
1.25577326719561357e-11
2.63525264605248313e-15
-2.67637328981365887e-16
2.19203677328231801e-18
2.10781017995528685e-14
2.08453429424542995e-13
-8.94887615080972767e-23
-1.97596366417477218e-21
-1.50422774739717829e-21
1.05071690997448181e-17
8.4524358209751158e-16
-1.68693680271323224e-28
-1.02865727134607039e-25
-1.82547204482914773e-24
7.23135037250037911e-22
1.00455671918688077e-18
-3.74021094331446049e-36
-2.90033008556481787e-30
-3.32323318640109925e-30
1.32279097711280377e-28
1.16120881871374991e-22
0.000121182346676299802
9.53577854546764129e-05
5.09805380583437597e-05
3.8374970981094223e-05
0.0878453467916604502
0.000941768923003891145
0.000423356438340869736
9.68591234238458393e-05
8.68494585444692219e-05
0.0503416049578756658
0.0118193163682559881
0.00219011517461523229
0.000933119458396902517
0.000374990673436131851
0.160142714437442324
0.000903105937902703927
0.00368940517370074626
0.00066946454980913847
0.00047664174903635679
0.00016414382267804326
0.00150396533964192083
0.00952634299204344059
0.00138449350180632012
0.000323991787256340449
0.000300754742989498079
0.00160644253106292088
0.00728290609860600922
0.000317831842464539834
7.02356266393711651e-05
0.000596952899064849248
0.000651391721875503138
-2.82797486103047968e-06
6.9830702408663608e-08
6.45651640115759051e-07
2.9014594006187044e-06
2.4232837733427863e-08
-9.17153844422002453e-07
-1.43284057062238273e-09
3.33387876904157148e-08
1.09104029841799566e-10
1.39735129525193649e-09
4.45801297274747233e-10
2.19298051453127555e-09
1.06951599407524778e-08
4.21168234346353583e-11
9.49778170250410234e-11
2.26898597273268832e-10
9.52133385365560757e-12
1.10553832809459855e-10
1.04477097347143206e-11
-1.00498056120456442e-11
-3.28546116071998086e-15
7.12909019517860976e-13
7.02372050878761723e-12
1.55041406206412834e-14
-1.11791011546843605e-14
-3.1983365075816832e-17
1.20707590725806732e-14
1.21572413997866605e-13
-2.11261979375260331e-23
-1.20046655125135786e-20
6.12505384713620782e-22
8.33928445171194337e-18
6.01811544730019385e-16
-8.69128798524360197e-29
-2.32535009937300885e-26
-2.5097101657448999e-25
7.09610188166125857e-22
9.1416906525540515e-19
-9.40835226150427075e-34
-2.51226650880499977e-32
-1.81991811856636031e-28
-2.03214563451591913e-28
1.22062419434961678e-22
0.000356350233408091752
0.000501150140634396826
0.000122458257625545719
7.50444426957022485e-05
0.0269230769116436466
0.000105798032219931048
0.000103519828979045181
5.98055175658248681e-05
2.81147466984158899e-05
0.125221941140843146
0.000812954751588963547
0.000318813098402426654
0.00014871146103436183
7.78101098593282745e-05
0.112322933107153577
0.00214441223343468266
0.000622231060029861615
0.000385996878783349145
0.000325347159083020114
0.000807881763453561423
0.00187270663877403261
0.00623301680488550901
0.00182469180962211829
0.000134168278284036406
0.000504134346138243117
0.000104507248777818354
0.000166073815488438693
0.000448119960927153952
0.00013998384885593684
0.000397045887836142879
1.0678383838634449e-05
1.12886344715018713e-05
8.09179298973285503e-08
2.50882292754455353e-07
2.35129114569074847e-05
5.03001051240544537e-07
1.72429128052621888e-06
3.31668585410084877e-10
3.85358470143620418e-08
-2.83869657702122339e-08
4.26499211968857141e-08
-9.58554537337431881e-10
-1.09395051201502895e-11
3.34714982245848541e-09
3.71629889586282219e-10
1.30953926930436805e-09
-2.16375199305685294e-11
1.49714383234825082e-11
1.21283563418352891e-10
-2.16669740000108139e-12
-6.16278133809779115e-12
-4.9101978184415856e-13
2.28039514616456634e-13
2.17366724288293235e-12
-3.10640232945742782e-14
-1.67193443465999498e-12
-2.27582177810338232e-17
2.30359456332127362e-15
2.84564470938928015e-14
-3.70056519810062439e-22
-5.06893005630171545e-22
4.51414897586699212e-22
2.45380033595632983e-18
1.37956114534504926e-16
-2.71093881381003244e-26
-1.39812110609660231e-27
-1.60250982461464721e-24
3.8303745056841162e-22
2.05482279697005871e-19
-2.09469707095485123e-32
-1.60350652998267226e-31
-2.48315055112009503e-28
1.15361326363925622e-28
5.15015449966991187e-23
0.00172730299188876037
0.000937394725844695144
0.000198097223391945619
0.000148768165255962746
0.000115240705642302688
5.22758785924302375e-05
5.41044792338518031e-05
1.63429503030200322e-05
1.47277311301384616e-05
0.0271629908395613906
0.0106304552369797922
0.000129493208477179071
4.09358520776396473e-05
1.39053769353646839e-05
0.126137668826608762
0.00147732801573973544
0.000568598662870283531
0.000273555272493099678
8.95553924958682776e-05
0.0172662476202055243
0.000223012483981569311
0.000131917969354556101
0.000733708718071150517
0.000174217422550050941
6.8927623809611523e-05
0.000122496539283685132
4.93878305190128828e-05
0.000253518188424744118
1.16803669816205359e-05
9.83707727223841888e-05
2.27867788158081584e-05
1.92230944869557983e-06
-7.16692149097165645e-07
-5.38233587038021997e-07
2.30932150593538403e-05
-1.38229745376797117e-07
1.33248501232165864e-06
-4.83293706057024073e-10
5.98885836677053625e-11
8.25198834612044894e-08
1.09797610888743102e-07
2.3486205616259043e-07
4.45382827693977419e-11
9.79851053309820539e-10
1.34468993857752486e-08
4.85359189924636196e-08
4.14819648439472968e-10
6.37495722890201304e-12
3.63872329263954613e-11
6.58992540698170546e-09
1.69876279140382461e-08
-2.96725503198434158e-13
1.0766335317338952e-13
1.07552490177959694e-12
-2.65952231951629366e-13
-3.38963501810970105e-12
-1.51836269903659564e-19
1.15554334657746171e-15
1.35722630094562844e-14
-1.38362255875390753e-23
-1.91250455323046301e-23
1.22077034695413406e-24
1.86522548562191393e-18
6.27725663140413813e-17
-1.74570250911929077e-28
-1.69790228120008047e-26
-2.61911814274554448e-25
4.79544931250669169e-22
1.11353158232489224e-19
-7.81843385641021996e-33
-3.07181759694858558e-31
-2.08484402636341763e-29
6.95435821516947178e-27
4.47834912624658439e-23
0.000955467110553623864
0.000187603973426019369
5.76658147455375066e-05
1.63231916017224024e-05
0.0767625355647094387
6.71081147941054366e-05
4.42810153189051597e-05
3.70300047041463839e-05
2.08942133552353956e-05
0.184913379266465061
6.43847011923986176e-05
6.11049767718788508e-05
7.78168227666251229e-05
9.95776981402396417e-05
0.0817595196181670758
0.00382967513323435654
0.000513055582253578576
0.000425929659149527245
0.000245374887137965545
0.0130611123207118492
0.000352829357045562203
4.30309148465296944e-05
3.72198385603513695e-05
5.69553248555041363e-05
0.00255794947224440104
6.62200673723251391e-05
1.15364644360793261e-05
-5.0059032414940972e-06
-1.50147035352002346e-06
8.93470826370583394e-05
0.000116576416262460702
3.23332493795730622e-06
-1.35090606704433735e-07
-5.49212476961792691e-07
4.88974760039909719e-06
2.73538991973423965e-05
4.2735657206684964e-06
2.75531522055361486e-08
-1.37487441386391556e-09
1.39226412631596922e-06
6.8745806311153095e-07
1.87396478250578954e-06
2.98635434196819077e-08
-9.05623210076229968e-11
1.39861066339829657e-06
9.72764028735088845e-07
1.92074729238601519e-08
1.85721876297219909e-12
1.30671996548038319e-10
1.21370660342402474e-07
1.20526116720786949e-07
-8.88036401089177084e-15
1.51884158120590303e-14
1.32880507690885264e-11
-8.2531689110063153e-15
-2.98560094187634265e-14
2.48941689060143045e-18
1.57112193632957518e-14
1.71542480003091731e-13
1.27947780303489647e-24
8.24825733615171867e-23
3.25890613030578577e-21
2.63713026082017552e-17
9.21897519389687017e-16
-8.09902975582494198e-28
-5.43377108733240078e-27
1.14839964711772331e-25
7.35363367870275272e-21
1.65492591568689964e-18
-3.88872703886284793e-33
-2.85599909490479997e-30
-1.03503563804082822e-27
7.98537549136631719e-26
6.7643082672119867e-22
0.000106564537279273214
9.13805124844415171e-05
0.000116392604968940713
5.86649774336552195e-05
0.155467456925192593
3.93837976994059456e-05
6.08833996237433643e-05
0.000175910180044597247
0.000235901034242104706
0.168430156231973771
0.00276889629942001121
0.000137783449962627724
0.000289473266647060116
0.000227475028646609756
0.0682181830476313311
0.000573124692951588414
-7.97533153813275602e-05
2.18984664568291215e-06
-1.57069059784543754e-05
0.000955213227572493839
0.00018757666037798047
9.04039856574539796e-06
3.26454038341557687e-05
1.96467260446016453e-05
0.00115397479827121551
2.68906518940197207e-05
1.33404854721553732e-05
5.60112161018834103e-07
-8.16948505709368332e-07
0.00026688063260356398
7.41568311406493323e-05
4.46441069746853557e-06
-8.56182146907196358e-09
4.50826197346397131e-07
8.05712022707165724e-05
8.2935326991670765e-05
-6.57793310128386033e-08
1.2937618447968775e-08
4.93061182600318649e-08
5.06602332921182398e-06
1.91110424033461716e-05
1.95367383408030654e-06
1.28754640593422107e-09
4.00367680926174133e-09
1.51151122810483612e-06
1.02362872821971469e-06
1.26659638460779756e-09
3.39387576238796781e-11
1.6570935617224522e-10
1.86443874697333967e-10
3.23293872997285993e-09
-1.95053769948263222e-12
3.53234697785233136e-13
5.04781873000381491e-12
-1.16521499412872563e-13
-1.16018887939845827e-13
-1.46040694485747567e-16
1.40705538104739924e-13
8.76158455960436291e-13
1.10551876986075159e-23
-1.84571496147894104e-20
-7.52969473333518833e-19
7.47111386438083444e-16
1.27068791112946159e-14
-2.82842861584872232e-25
-5.15374448398058239e-23
-2.95637518384928328e-22
7.24780349113097444e-19
3.67709680136009663e-17
-4.8874420100722335e-30
-7.81101490936817414e-28
-1.53430916612371209e-25
7.24990479769158921e-24
1.47777318678454223e-20
0.000346298955237248226
0.000122753819310764925
0.00015790163018555278
8.88168076732467356e-05
0.0441652926178160779
8.14685590649490658e-05
5.45842232819679859e-05
7.5999396419357127e-05
0.000192579817310687892
0.103446093113720217
5.5623335197989312e-05
9.32163706436659834e-05
0.000351759238987701581
0.000415816281533911802
0.0743917863668611956
-0.000327074075751424454
-1.79175493431865047e-05
2.49172816391975682e-05
6.76217981216796623e-05
0.0027540315402503463
-1.63691654095556139e-07
4.28849613870402739e-06
3.43300178864602962e-05
1.23885077826267041e-05
7.58555576180250521e-08
1.17775680162589429e-07
3.6085541950908604e-07
-5.69303984335222866e-07
2.33801950999882023e-07
-9.90869239733467349e-10
-8.01578439753177366e-09
-3.80651903231722636e-09
-1.47092763787630162e-08
-2.0158352830351252e-07
-6.57403599509393993e-11
-2.32463558463451555e-10
-1.92456688073266764e-09
-9.54412952837656042e-10
-5.85173226430643767e-10
-7.10611153260690031e-13
-1.9628286769172464e-12
-5.07135842061559602e-12
-1.87059604355033191e-11
-9.67061044473521753e-12
8.99355643747452267e-18
-6.49083176403891092e-16
-1.3472526177986817e-14
-6.26371979279001562e-14
1.05854906310947886e-12
-2.76210115207015013e-20
2.73988554141039937e-18
1.08204315213339482e-16
1.15524619308286199e-15
5.0901210755256503e-14
-2.73123818058842772e-24
-2.18437867073350567e-23
-1.93691375966940496e-22
-4.12386133991628259e-21
2.45182756472014632e-19
5.77424796937083613e-18
1.82027611911359248e-16
-5.17782104826297672e-27
-4.69954890935938369e-26
-4.91840564014335346e-26
2.64658966982900697e-25
1.74833236067079063e-24
8.10630617288086203e-21
4.43288508148817126e-19
-5.4788092094760499e-31
-5.18406149618468909e-31
-1.76132635627380507e-31
3.18949124712895534e-30
2.54669962093460946e-28
7.04747440739264075e-25
3.06096050848686967e-22
-4.37171086426352006e-38
-8.64479184484025256e-38
-8.92798467265385938e-37
-6.54898253663174229e-36
-2.05903827635245114e-34
-2.29777574300589962e-35
-5.50913386046176921e-34
0.000181491432180240611
3.06499177430472381e-05
7.4711409681724563e-05
6.77808569605214842e-05
0.00990951465348126684
5.28388877338895093e-05
4.60650011755600836e-05
5.48753120453553947e-05
6.00461832834811257e-05
0.0333438752920901943
0.000102310928012548928
5.43582828856966894e-05
0.000337629520309340307
0.000356611281737639462
0.142516597889994323
6.59231193269990321e-05
0.00182435309670002442
0.00361821554825167077
0.0012859600340226875
0.0116866754439956585
6.71774388744499355e-06
4.4709716116082132e-05
7.93697951697436407e-05
0.00042174162590797817
6.03176640967058224e-07
4.96280557686703484e-07
4.4384381698931306e-06
6.27866926802550919e-05
1.56719995197898715e-05
-7.14152732369846587e-09
3.38611441540497969e-09
-7.35624495469272153e-07
2.98041858166033126e-07
3.99145977296237216e-07
-1.91130084387778226e-10
-5.96441635375293337e-09
-8.18005977232512114e-09
-2.46228372762694101e-08
3.94539839121976751e-08
-2.76890847047881722e-11
-5.07810388644603595e-11
-2.85374246383809892e-10
1.48160542806703579e-09
3.78363215601125754e-09
-1.85067235204517377e-14
-3.40345888307260784e-13
-4.99765790289895415e-13
1.746343882642564e-11
8.45203601046203405e-11
-9.86804213544726923e-18
-1.16003843376414837e-16
-4.3226258115281034e-16
1.16761796764125261e-14
5.02564332595803174e-13
-5.37799588066518333e-24
-3.12713195031119416e-22
-2.74433747170926005e-21
-4.18675157639127713e-20
2.28588985272505137e-18
5.31144563085136966e-17
3.02631247786876724e-15
-1.45127218787760338e-27
-2.3340240857320423e-25
-7.11463913783547386e-24
-5.82395807633861167e-23
-5.54786408145190391e-24
8.84776013980919972e-20
4.85805672174197422e-18
-1.71818257980210595e-30
-9.78249396275508297e-29
-9.06652700338862308e-29
-2.82710758778086996e-27
1.56595593900697845e-27
4.92406873450164974e-24
2.63830902696144303e-21
-5.59688931989127454e-36
-7.98105052204477603e-36
-1.67977358120463226e-35
-9.04680719068719736e-35
-1.22678557937173889e-33
-2.27540017542300421e-34
-1.732438610227206e-33
1.93946274859344767e-05
3.01988878462003199e-06
0.000219314982892821598
5.4005476276445612e-05
0.0483306658340736106
4.47451531666746147e-05
4.29381681244337418e-05
4.59225738087853838e-05
5.93599205131523075e-05
0.120637329584780351
-3.31443027072817462e-06
3.6495516147122935e-05
3.64653920079947743e-05
9.75958052212354363e-05
0.109858497659916454
-0.000823313364095416898
0.000541717212455493781
0.000226132417936494097
0.000119552020947161916
3.04801014908477418e-05
2.03750545145585411e-05
0.000751987625941226336
0.0018147221430641462
0.00155513261783380438
5.11839954047167158e-06
5.18070559468525894e-06
2.04265667514037023e-05
0.000416282812419877272
0.000372074551882699603
3.31520009751957601e-08
3.07726707661182043e-07
5.83039533925280486e-06
1.57433529922702277e-06
5.18772180868682833e-06
-4.27210835043797883e-09
-2.69093424478161477e-08
-1.67744479494651399e-07
3.59171173067188373e-07
2.26486480765686075e-07
-4.39306308390326686e-11
-1.09772875852286052e-09
7.30869314164924454e-09
4.03309157225007555e-08
3.23808235199748151e-09
-4.02737654162652808e-13
-3.10064209596012219e-12
-1.43564054765864674e-12
2.09680566670915716e-12
3.68398638811882157e-10
-1.26860695653256196e-15
-3.7835491485040861e-15
-2.13194287392021228e-15
-2.32226210608175511e-15
-5.87459234001862446e-15
-3.69990830531967034e-22
-3.15974864175423324e-20
-2.33240824848363593e-19
-4.18406274471476013e-19
-1.48895765616725266e-18
4.16021922350329065e-18
2.65067128809488583e-14
-9.84049285766062442e-26
-6.69694060313889675e-24
-5.721234607355814e-23
-4.13180894404283618e-22
6.85637116605338683e-22
4.97987392278434244e-19
4.1862004391550524e-17
-2.33169326462219082e-30
-3.02983988685527408e-28
-2.75235218870693929e-27
-8.67610499978603897e-26
-1.15845446089731116e-25
-8.98041723845029916e-25
1.80891309979945419e-20
-2.63187990765043638e-37
-1.82035447487167826e-35
-3.88591241043690172e-34
-1.12556328288733645e-31
-1.38054983008096027e-33
-2.35489102166571151e-26
-5.18769053600297545e-33
-8.77386257775898478e-06
3.19721038795790464e-06
3.20288080989341353e-05
3.16644289765409403e-06
0.104085719690344081
-5.29019991374309533e-05
-5.10353430500755105e-06
4.34947154385055312e-05
3.71382405758243671e-05
0.0514000972470686421
0.00502688213861948903
0.00125659765209757638
9.85170139840114913e-05
0.000181213708650526689
0.114861909833696318
0.000100185183768800054
0.00445036360941738346
0.00264792121597109877
0.000855465795934834015
1.66719916462941696e-05
2.96807948189426368e-05
0.00028944778570297704
0.00217724230743427099
0.00154585482039998638
6.34739557435888429e-06
1.46108999040494911e-05
9.06185151457579793e-05
0.000523595839485225655
0.000503458768089046931
3.01002661375913195e-07
3.34090020404336084e-06
3.40480811674186216e-05
1.59147461225483485e-05
1.29771092583743421e-05
-1.6669620424961493e-08
8.6480099086345941e-07
2.68831290470397667e-06
7.61943994796796153e-07
8.51681175522647533e-07
-3.64360845790394062e-09
-2.23213826558677782e-10
1.7738375117318196e-08
1.0858135093846067e-09
2.03234782092432798e-08
-5.82301503206793554e-13
-7.8689117663710381e-12
-7.85699570328898329e-12
-2.37676911745239381e-12
5.03819846386363462e-11
-3.38800346562557774e-15
-8.93362136778820516e-15
-1.8426705887361063e-15
1.14760770927215132e-14
1.22158925598202008e-11
-4.62456136142971574e-21
-1.74372528719258227e-19
-9.11178333689717294e-19
-1.26849162596484822e-18
-3.0964830906606248e-18
-4.00986084927770415e-16
-4.39312291228582481e-15
-7.41812911141436491e-25
-6.75364768471268528e-24
-9.32182654970340068e-23
-3.78159109038170104e-22
4.20000320162109497e-21
6.32268178134572484e-19
1.57187614104166752e-16
-2.35981543155886174e-29
-6.2100607704024303e-28
-1.05282043101812736e-26
-4.93442325475109304e-26
-2.85369326683230988e-24
-1.41238012301682968e-22
4.18089091009338391e-20
-2.65692102631642184e-36
-3.19977823988608014e-35
-7.57851274326374225e-33
-8.03030446090831879e-31
-7.78800276111123547e-28
-9.18191354996285915e-30
1.5275764768671855e-29
3.27124868140399999e-06
2.87168444147416625e-06
4.59269263871375132e-06
1.17006394891442199e-05
0.0097793202922418776
7.74087532994894114e-05
0.00118834838588499484
0.00135890454113136972
0.000560154619546720774
0.0409237878339337516
0.000343874298407174223
0.00111378804013978418
0.000510507316519657594
0.000246710823217394617
0.128101227570612292
0.000577786723581886845
0.00101827711214710469
0.0012341552226167664
0.000667650957116925313
0.000290422823473310569
1.65312746203629437e-05
0.000879342219712383999
0.00345333030658618277
0.000916993289689465186
3.46533129046190533e-05
2.09303478774624403e-05
0.000101631575587733661
0.000765252392847603309
0.000383244600636105609
6.63988072176836705e-05
1.18809651119104008e-05
5.78335136258613657e-05
2.79358259049839797e-05
1.46635205188418402e-05
3.56931424715329579e-08
8.52918121878640091e-07
8.48825012881513542e-06
1.45252613643543995e-06
1.16364506535337692e-06
-5.88577622107856476e-10
-2.58821707495020474e-10
1.12686711279868254e-07
-2.49730607120130324e-09
3.14728464684203013e-08
-7.81988339130579613e-13
-9.58712443379570567e-13
-2.27446952857903521e-11
1.96965341241056727e-10
1.08335174660259304e-10
-6.36858423732063222e-16
-3.43822488355251833e-14
-7.249430472393067e-14
9.6176313736633897e-13
4.8345685494151995e-11
-1.23758491697036952e-20
-4.82352661403409744e-20
-4.18851390372046233e-18
-3.43109003168474815e-17
-1.30019908327683895e-17
-9.8068407661659823e-18
-8.18908547664142779e-15
-6.03526076218862522e-25
-6.31888090233694781e-23
-8.39610706551698815e-22
-6.95878025939097297e-22
1.49754853121127831e-21
6.65514572697929788e-19
3.783348376655215e-16
-5.21238259044065507e-29
-1.19071700685676423e-27
-2.30206439173898107e-26
-1.28762490179558973e-25
-6.21484553723736877e-24
-2.41065254811455515e-22
7.11752247902603257e-20
-3.15551127902367617e-36
-1.48994391021898199e-34
-2.26808207706296577e-32
-1.3448210380551735e-30
-1.40930359649080346e-27
1.89940517190003166e-27
1.28735898133812858e-25
4.07705614916371999e-06
2.30392658180028758e-06
1.29605618474698291e-05
6.59380941963772112e-05
0.00294180067952557562
0.00216450328817231015
0.00173257210442112966
9.59158168629104489e-05
0.000132581654355187653
0.0344929917877700373
0.0100336131700680623
0.0015236663537662779
0.00035872837259232418
0.000230656943863361257
0.148377339078667569
0.00216944934074737384
0.00257463807756778268
0.000806801285974927986
0.000367240005874245766
0.00867244739520049712
0.00973196803738893626
0.00174948562634594696
0.000516828337305105931
0.000230785465242183273
0.000198848383641359543
0.000616394757368478406
0.000273984476328603525
0.000277975278295072121
7.97431938226863336e-05
-1.21711884191530394e-05
2.52746774266808795e-06
9.53604353852180704e-06
2.64006149596780574e-05
1.07943029933811634e-05
-3.24605395918170762e-07
2.39660281361422477e-07
5.81237194530813853e-06
1.84846810224492538e-06
9.69836706075753515e-07
-7.55880194489262356e-09
1.13894187736049215e-07
3.64923473733565168e-07
1.12269054282822943e-08
3.30430524758668058e-08
-7.10948705491735584e-12
-3.29924190784872008e-12
-2.00116298198566753e-12
5.68391705586971152e-09
1.43331317086305662e-10
-5.35132203539860824e-15
-1.50436877294513679e-14
-1.09279002516943863e-14
2.45152542893900908e-14
-1.75040696475799403e-13
-1.19093759778065521e-20
-1.36750379728377232e-19
-1.7087585839351219e-18
-6.50755681827945647e-18
-1.649669381917399e-17
3.19984456276542321e-18
-4.05200762824294622e-15
-1.01123981946767091e-24
-1.32755298754385701e-23
-1.58902466287656666e-22
-7.06247580733809845e-22
6.87447851909210105e-21
4.69788906291682006e-19
3.47282833592083879e-16
-6.16051869148154177e-29
-1.21823269359712136e-27
-2.90139673895303009e-26
-1.55098826722122913e-25
-1.14655753237004006e-23
-4.60409833168822376e-22
1.20012694290749737e-19
-3.46717596633027253e-36
-3.92498785841653239e-34
-4.6443291581048893e-32
-1.41186833195428201e-30
-3.01253192275931912e-27
-1.70775957846141242e-27
1.81905131034780592e-24
6.13762406698395091e-06
2.05026609532899474e-05
8.79137344233405665e-05
0.000112933050682021349
0.0593330856398713649
0.0028890283131642186
0.00123596518363985755
0.00040687844032068996
0.000243117761336856457
0.0712791009016570942
0.0167267361676927302
0.00274210637057666117
0.000605871573243733745
0.000283874669813861751
0.0492713910928953697
0.00430093558597500255
0.00169277544822491084
0.00123528781523863816
0.000587486660363771064
0.000107028660147289432
0.000818490402694760735
5.1955253244205147e-05
0.000390970346474522662
0.000583552287368970185
0.000111191034655865972
-4.67127227059424365e-06
4.90621000148872858e-06
6.00100252276524965e-05
0.000278212202089685818
-1.0057294030954302e-05
9.1728517274325181e-07
5.36415033370320206e-06
1.30894672759377237e-05
1.63106847449226401e-05
-3.1898670876524773e-07
-3.60521673378270682e-08
1.46588650284197909e-06
3.42374529874695868e-06
1.3613528659169136e-06
-1.32048996419836418e-09
8.44532082568528171e-09
1.01625960105396283e-07
7.7415340395074164e-08
4.33053015659103979e-08
-3.03576550140464469e-11
-1.7228907143179424e-12
1.69503340336383441e-12
4.44088264164000204e-09
1.89805380826827701e-10
-3.73787569907124792e-15
-6.87568409748897191e-15
-2.83781258175674175e-15
5.85524724179529314e-14
1.06544385287947645e-12
-1.55148125302389658e-19
-1.76856516161762495e-19
-1.03757034279112624e-18
-3.56872126595509714e-18
-3.40294752251966901e-18
1.77447032408539771e-17
-9.9470401375690975e-15
-1.83443509650288868e-24
-9.5713585896358709e-24
-9.36589335849411533e-23
-1.4661225666239313e-22
2.24823625208632721e-20
6.36863268698086817e-19
5.38261001312206032e-16
-4.092267008359448e-29
-5.87536353064779303e-28
-1.0721201803962571e-26
-9.36299850322945157e-26
-2.82301365095188549e-23
-5.8882941134368775e-22
3.04606885989083855e-19
-1.49643059008058074e-35
-2.55256940352066158e-34
-2.87837928599603197e-32
-2.01280993560477969e-30
-6.61391947343868044e-27
-7.52627377260039148e-26
9.15305291088863687e-24
0.000238008343360300155
0.000133480726834711344
0.000688458186112243971
0.000186091641694312749
0.0245103912463951849
0.00178970132605100877
0.000510758825113900427
0.000429665839982806591
0.00012625224154294798
0.105348828275011658
0.00343144437489955852
0.00076647455815625229
0.000452864224789899781
0.000229279442397983249
0.109738313845063565
-0.000272420588058782168
-6.19226198233552061e-05
0.000961444811596456157
0.000630271077406006474
3.02802759331559509e-05
2.07672110135641858e-05
3.94420411302954241e-05
0.00117804068763296792
0.0010800769053721166
3.44802062860689035e-06
-3.12239130430799702e-07
7.08676256167417014e-06
0.000103547420735524087
0.000429950610184794688
-1.29963141108844076e-06
2.72117241688436697e-07
1.78734004904039959e-06
7.28788729476145297e-06