/*--------------------------------*- C++ -*----------------------------------*\
| =========                 |                                                 |
| \\      /  F ield         | OpenFOAM: The Open Source CFD Toolbox           |
|  \\    /   O peration     | Version:  2206                                  |
|   \\  /    A nd           | Website:  www.openfoam.com                      |
|    \\/     M anipulation  |                                                 |
\*---------------------------------------------------------------------------*/
FoamFile
{
    version     2.0;
    format      ascii;
    arch        "LSB;label=32;scalar=64";
    class       volVectorField;
    location    "0.0299999999999999989";
    object      faceTraction;
}
// * * * * * * * * * * * * * * * * * * * * * * * * * * * * * * * * * * * * * //

dimensions      [1 -1 -2 0 0 0 0];

internalField   uniform (0 0 0);

boundaryField
{
    inlet
    {
        type            calculated;
        value           nonuniform List<vector> 0();
    }
    outlet
    {
        type            calculated;
        value           nonuniform List<vector> 0();
    }
    top
    {
        type            calculated;
        value           uniform (0 0 0);
    }
    bottom
    {
        type            calculated;
        value           nonuniform List<vector> 0();
    }
    left
    {
        type            calculated;
        value           uniform (0 0 0);
    }
    symmetry
    {
        type            symmetryPlane;
    }
    interface
    {
        type            calculated;
        value           nonuniform List<vector> 
67
(
(4.50596785930139782e-05 3.68856191516192127e-05 1.32569494877671579)
(2.75655666064421624e-05 6.67042018389372098e-05 0.967621253747714793)
(1.13519073371099817e-05 6.34620296464783568e-05 0.583585722309719834)
(3.0885794692046252e-05 5.70428514088063251e-05 1.38335849550451306)
(2.36805787232929886e-05 6.0668926063257175e-05 1.00423235875370809)
(1.60613336546075583e-05 6.36805572705168146e-05 0.61164407545258781)
(4.34075576573854027e-06 6.27471448867884671e-05 0.223059859951888956)
(2.09887570534194106e-05 4.77858622390574467e-05 1.12435171073596529)
(1.36495216063972832e-05 5.02464376169912418e-05 0.784711994599860296)
(5.71765752266423496e-06 5.17076381897728428e-05 0.438408642717113939)
(-3.40353718087164803e-06 5.10532099470710135e-05 0.0984129750928253305)
(-0.463184050772741496 1.80932089825173004e-05 3.81273187292236968e-06)
(-0.262967280533792591 1.82492241735397921e-05 2.02653624709584933e-07)
(-0.061221182399214015 1.77363249342903755e-05 -3.65072219023635382e-06)
(-0.410041381921579351 1.15093727370317197e-05 3.33213870220138064e-06)
(-0.241480468292632033 1.07162192835879431e-05 4.45080804408052846e-07)
(-0.0795290560504943594 1.06161542129633336e-05 -2.91605809768710832e-06)
(-0.370380261171942837 6.64002897538200056e-06 2.74371008491838047e-06)
(-0.224816274156513035 5.21255063193221146e-06 7.35995434249454042e-07)
(-0.0903848067862319249 5.62232777157233719e-06 -1.42666768368426923e-06)
(-0.333725659341261138 3.12464263472450707e-06 2.90477102064135432e-06)
(-0.203359532410859106 1.45462142788322553e-06 1.55190746283912916e-06)
(-0.0851262544037468122 1.98519533905691447e-06 7.09841177368353073e-07)
(-0.300409191287385469 9.61666086584637861e-07 3.00475240996114021e-06)
(-0.179325408233022537 -4.97666358503672425e-07 2.21625221482792383e-06)
(-0.0684105569062719854 -6.75722797270148513e-09 1.66093141553153709e-06)
(-0.268030086930190925 1.76877987271921647e-07 3.35124636630961685e-06)
(-0.153135243172656976 -2.12792298649874797e-06 3.08416558886228774e-06)
(-0.0433580504326643093 -2.5317371735959727e-06 2.39441282304684254e-06)
(-0.23565633736304048 1.85670809823584562e-06 3.12612083513847454e-06)
(-0.120006290794136244 7.92427312600940997e-08 3.30500734998214825e-06)
(-0.00451806000900569285 -8.91496250514411379e-07 1.10412658982157954e-06)
(-0.208235972984680384 4.65153526360889638e-06 1.3542160882234454e-06)
(-0.0831109658344261482 3.48021640877676136e-06 1.30860170918835367e-06)
(0.0501013628856410223 1.46231133520599047e-06 -4.48382811189105825e-08)
(1.06184015565086263e-05 -1.49130484929818885 -3.96020009165539062e-05)
(4.71740474844388453e-05 -1.69267044379693221 -1.59973416621620728e-05)
(4.69899696845635416e-05 -1.7756174489477583 -7.06156251577027476e-06)
(3.35137842838461282e-05 -1.8206900279556939 -7.05832354373979201e-06)
(3.80154376336756357e-06 -1.74430616727008658 -1.56155615466684234e-05)
(-2.11672904265202751e-05 -1.32534819518024594 -4.62651588468436631e-05)
(4.01310827040336096e-05 -0.0299703707844562947 -5.32183061296994414e-05)
(4.06175406637864304e-06 1.68700796374625894 -1.43998829493150436e-05)
(-1.85661432568594456e-06 -0.60497543467054371 -4.13564799286238554e-05)
(2.92942382514329098e-05 -0.961508630274185538 -2.58506572551877797e-05)
(3.5660324235643184e-05 -1.13009984568178679 -1.38180261540548067e-05)
(3.03403656751873224e-05 -1.22733942176732369 -3.74943873977077761e-06)
(1.35239405706929464e-05 -1.2656613718587395 1.02457761404537078e-05)
(-1.88714299209672476e-05 -0.981279679545218109 -8.9047481960560833e-06)
(8.97048447256663658e-06 -0.0271852461618838706 -2.43695579579517561e-05)
(-2.49432341938034643e-05 0.996472989775392115 -8.05050077015295602e-07)
(-1.97367864456600254e-06 -0.0738892733220980619 -3.44524144479622653e-05)
(1.82317161460098529e-05 -0.422243414421928309 -2.50089397078264878e-05)
(2.65303191251263982e-05 -0.61982929331212766 -1.42975984783451802e-05)
(2.12211368180141788e-05 -0.732371210120759564 -5.43776145267095532e-06)
(1.56178946794073414e-05 -0.805573985364671619 7.77646368888665714e-07)
(-1.16197657690056539e-05 -0.654009124600561265 -4.93446581175754678e-07)
(-5.5051722685889774e-07 -0.23500703045501814 -3.15701275229933647e-06)
(-2.82139237040154022e-05 0.33368820848338171 6.91766349456552556e-06)
(-2.47549324869620552e-06 0.137639617094802824 -2.52432772547580065e-05)
(1.10420472550943234e-05 -0.110585036072590237 -1.89007348973431466e-05)
(1.74892437029709214e-05 -0.26785068996792355 -1.01567110969969299e-05)
(1.83279530544317054e-05 -0.340149404405596822 -5.07784935395213332e-06)
(1.17497451385673719e-05 -0.378957395760243176 -6.82366137144808334e-07)
(-3.53751963797187331e-06 -0.280501032065443301 4.70612355030741747e-08)
(-1.17074051571346218e-06 -0.111499078509313704 7.65427457035914917e-07)
(-1.50125347370674492e-05 0.192853326462734537 6.14045290348196159e-06)
)
;
    }
    procBoundary1to0
    {
        type            processor;
        value           uniform (0 0 0);
    }
    procBoundary1to2
    {
        type            processor;
        value           uniform (0 0 0);
    }
    procBoundary1to3
    {
        type            processor;
        value           uniform (0 0 0);
    }
}


// ************************************************************************* //
