/*--------------------------------*- C++ -*----------------------------------*\
| =========                 |                                                 |
| \\      /  F ield         | OpenFOAM: The Open Source CFD Toolbox           |
|  \\    /   O peration     | Version:  2206                                  |
|   \\  /    A nd           | Website:  www.openfoam.com                      |
|    \\/     M anipulation  |                                                 |
\*---------------------------------------------------------------------------*/
FoamFile
{
    version     2.0;
    format      ascii;
    arch        "LSB;label=32;scalar=64";
    class       volVectorField;
    location    "0.0299999999999999989";
    object      faceForces;
}
// * * * * * * * * * * * * * * * * * * * * * * * * * * * * * * * * * * * * * //

dimensions      [1 1 -2 0 0 0 0];

internalField   uniform (0 0 0);

boundaryField
{
    inlet
    {
        type            calculated;
        value           nonuniform List<vector> 0();
    }
    outlet
    {
        type            calculated;
        value           nonuniform List<vector> 0();
    }
    top
    {
        type            calculated;
        value           uniform (0 0 0);
    }
    bottom
    {
        type            calculated;
        value           nonuniform List<vector> 0();
    }
    left
    {
        type            calculated;
        value           uniform (0 0 0);
    }
    symmetry
    {
        type            symmetryPlane;
    }
    interface
    {
        type            calculated;
        value           nonuniform List<vector> 
67
(
(1.40811495603169086e-08 1.15267559848810372e-08 0.00041427967149272485)
(8.61423956451314491e-09 2.08450630746678032e-08 0.000302381641796159787)
(3.54747104284686743e-09 1.98318842645244765e-08 0.000182370538221787373)
(9.65181084126446097e-09 1.7825891065251989e-08 0.000432299529845160669)
(7.4001808510290638e-09 1.89590393947678813e-08 0.000313822612110534031)
(5.01916676706486047e-09 1.99001741470364977e-08 0.000191138773578933616)
(1.35648617679329609e-09 1.96084827771214293e-08 6.9706206234965425e-05)
(6.55898657919355554e-09 1.49330819497054287e-08 0.000351359909604988642)
(4.26547550199915394e-09 1.57020117553097751e-08 0.000245222498312456529)
(1.78676797583257693e-09 1.61586369343040446e-08 0.000137002700849098375)
(-1.06360536902239314e-09 1.59541281084597395e-08 3.07540547165080077e-05)
(-0.000144745015866481791 5.65412780703665995e-09 1.19147871028824116e-09)
(-8.2177275166810137e-05 5.70288255423118232e-09 6.33292577217452573e-11)
(-1.91316194997544231e-05 5.54260154196575513e-09 -1.1408506844488631e-09)
(-0.000128137931850493643 3.59667898032241519e-09 1.04129334443793216e-09)
(-7.54626463414473944e-05 3.34881852612122716e-09 1.39087751377516296e-10)
(-2.48528300157795554e-05 3.3175481915510509e-09 -9.1126815552722388e-10)
(-0.000115743831616232467 2.07500905480688092e-09 8.57409401536996347e-10)
(-7.0255085673910292e-05 1.62892207247881536e-09 2.29998573202954273e-10)
(-2.82452521206975879e-05 1.75697742861636237e-09 -4.45833651151335919e-10)
(-0.00010428926854414431 9.76450823351410353e-10 9.07740943950424933e-10)
(-6.35498538783933368e-05 4.5456919621350704e-10 4.84971082137226857e-10)
(-2.6601954501170941e-05 6.20373543455287223e-10 2.21825367927610852e-10)
(-9.3877872277308024e-05 3.0052065205769952e-10 9.38985128112857019e-10)
(-5.60391900728194866e-05 -1.55520737032397461e-10 6.92578817133725517e-10)
(-2.13782990332100702e-05 -2.11163374146922142e-12 5.19041067353607175e-10)
(-8.37594021656847963e-05 5.52743710224756054e-11 1.04726448947175699e-09)
(-4.78547634914552652e-05 -6.64975933280858125e-10 9.63801746519464134e-10)
(-1.35493907602076473e-05 -7.91167866748744364e-10 7.48254007202141041e-10)
(-7.36426054259502151e-05 5.80221280698702302e-10 9.76912760980774178e-10)
(-3.75019658731675241e-05 2.47633535187793723e-11 1.03281479686941995e-09)
(-1.41189375281428324e-06 -2.78592578285754395e-10 3.45039559319244608e-10)
(-6.50737415577126748e-05 1.45360476987778135e-09 4.23192527569827075e-10)
(-2.59721768232581346e-05 1.08756762774273639e-09 4.08938034121359934e-10)
(1.56566759017628498e-05 4.56972292251872908e-10 -1.40119628496595837e-11)
(6.63650097281789949e-09 -0.000932065530811369185 -2.4751250572846223e-08)
(2.94837796777743009e-08 -0.00105791902737308345 -9.99833853885130187e-09)
(2.93687310528523017e-08 -0.00110976090559235219 -4.41347657235643466e-09)
(2.09461151774038557e-08 -0.00113793126747231015 -4.4114522148373752e-09)
(2.37596485210473008e-09 -0.00109019135454380546 -9.7597259666677759e-09)
(-1.32295565165751883e-08 -0.000828342621987654664 -2.89157242792773245e-08)
(2.50819266900210592e-08 -1.87314817402852235e-05 -3.32614413310622194e-08)
(2.5385962914866571e-09 0.001054379977341414 -8.9999268433219213e-09)
(-1.16038395355371359e-09 -0.00037810964666908927 -2.58477999553898683e-08)
(1.83088989071455414e-08 -0.000600942893921365025 -1.61566607844923369e-08)
(2.22877026472769805e-08 -0.000706312403551116416 -8.63626634628425017e-09)
(1.89627285469920482e-08 -0.000767087138604576123 -2.34339921235673227e-09)
(8.45246285668307803e-09 -0.000791038357411710997 6.40361008778355772e-09)
(-1.17946437006045181e-08 -0.000613299799715760719 -5.56546762253504673e-09)
(5.60655279535414082e-09 -1.6990778851177398e-05 -1.523097372371983e-08)
(-1.55895213711271439e-08 0.000622795618609619248 -5.0315629813455904e-10)
(-1.23354915285375252e-09 -4.61807958263113193e-05 -2.15327590299764307e-08)
(1.13948225912561634e-08 -0.000263902134013705347 -1.56305873173915636e-08)
(1.65814494532040277e-08 -0.00038739330832008044 -8.93599904896575319e-09)
(1.32632105112588681e-08 -0.000457732006325475003 -3.39860090791934871e-09)
(9.76118417462959274e-09 -0.000503483740852920018 4.86028980555416348e-10)
(-7.26235360562854568e-09 -0.000408755702875351467 -3.08404113234847154e-10)
(-3.44073266786811399e-10 -0.00014687939403438646 -1.97313297018708715e-09)
(-1.76337023150096425e-08 0.000208555130302113769 4.32353968410345728e-09)
(-1.54718328043513025e-09 8.60247606842518637e-05 -1.57770482842237732e-08)
(6.90127953443395542e-09 -6.91156475453689339e-05 -1.18129593108394739e-08)
(1.09307773143568451e-08 -0.00016740668122995251 -6.34794443562309273e-09)
(1.1454970659019816e-08 -0.000212593377753498013 -3.17365584622008352e-09)
(7.34359071160461658e-09 -0.000236848372350152291 -4.2647883571550574e-10)
(-2.21094977373242433e-09 -0.00017531314504090235 2.94132721894214073e-11)
(-7.31712822320914425e-10 -6.96869240683211126e-05 4.78392160647447133e-10)
(-9.38283421066716448e-09 0.000120533329039209188 3.83778306467622937e-09)
)
;
    }
    procBoundary1to0
    {
        type            processor;
        value           uniform (0 0 0);
    }
    procBoundary1to2
    {
        type            processor;
        value           uniform (0 0 0);
    }
    procBoundary1to3
    {
        type            processor;
        value           uniform (0 0 0);
    }
}


// ************************************************************************* //
