/*--------------------------------*- C++ -*----------------------------------*\
| =========                 |                                                 |
| \\      /  F ield         | OpenFOAM: The Open Source CFD Toolbox           |
|  \\    /   O peration     | Version:  2206                                  |
|   \\  /    A nd           | Website:  www.openfoam.com                      |
|    \\/     M anipulation  |                                                 |
\*---------------------------------------------------------------------------*/
FoamFile
{
    version     2.0;
    format      ascii;
    arch        "LSB;label=32;scalar=64";
    class       surfaceScalarField;
    location    "0.0299999999999999989";
    object      phi;
}
// * * * * * * * * * * * * * * * * * * * * * * * * * * * * * * * * * * * * * //

dimensions      [0 3 -1 0 0 0 0];

oriented        oriented;

internalField   nonuniform List<scalar> 
20536
(
0.000601868571895986058
0.000344682974863666589
-0.000437068070183549873
0.000706712713557875296
0.000465483857060585197
-0.000705754900169236303
0.000899876364610964442
0.000582024971083606752
0.00049896777132278343
0.000396966488334579324
-0.000499443925522760125
0.000478845989351036195
0.000390855716525045633
-0.000338824542568723287
0.000444092452916949269
0.000468328242425477051
3.97977256628018194e-05
-0.000396566684505495577
-0.00022634974950050651
0.000201488865121089017
0.00042957496690851192
-0.00010116627717007804
-0.000821389956196685693
0.000131225905635067269
0.00120788975805464311
-0.000104730545337744507
-0.000916108930404590182
0.000224142849796137142
0.00156789955414593615
0.000101869704500247185
-0.000202568052870066644
0.00013765137520514644
0.000536681865534877718
0.000289198136900667023
0.000114015396781664733
0.00101885754959393608
-3.79571181661764179e-05
-0.000290826225668402365
-0.000240042460704956813
0.000229618561854915684
0.000373143224328336982
9.17251596411340457e-05
-0.000457367829861140824
-0.000146623832472346179
0.00033859673501333658
9.07160722872723223e-05
0.000176240488140839307
-0.000337138012515547365
0.000226774659910221744
0.000161518502887884039
0.00061405741783181764
-0.000561882894180746684
0.000300526176449537668
0.000696907884718856851
-0.000407641199767487961
0.000173664686620851507
0.000479433223496994812
-0.000347609208285665217
6.64878735094161146e-05
-8.49764473955445018e-05
0.000128914869313682013
0.000734861180515578353
-0.000440765965057507674
0.000148150095321821206
9.09687333417722908e-05
0.000168073018362498156
0.000117925625452657392
-0.00015733882731652413
1.33885370688870858e-05
0.000263354340428524169
0.000301730818162857938
-0.000325983678943237635
0.000321291972955312641
0.000546938595482463537
-0.00060360265146009839
4.92886700106902461e-05
2.00771965710103552e-05
-7.17161201450370288e-05
-0.00120942626111384495
0.000842606754201159075
2.47136575472954947e-05
0.00107521552649627716
-0.000770363636976493832
0.000425374401445676841
0.000383427330197226536
0.000189064601770090916
-0.00032411033432052966
-5.5590793048152133e-05
0.000611689608914002233
0.000351551548817235441
-0.000104452213094676774
-0.000212003936670495475
0.000545669708402807914
0.000478166188617096526
-0.0004482125626291191
0.000357352382379697475
-0.000185601388893211932
-0.00022741181259764169
-0.0015883884909688136
0.00183304449632703463
1.34851886399073485e-05
0.000402419356774896136
0.000228605603646855101
0.000245109582245672168
-0.000186959642804144816
0.000280869195692803918
0.000129193771144613058
-2.05552159514801229e-05
-9.14044673721417012e-05
0.000306561379939495238
-5.386467329937983e-05
3.28982717213028566e-06
0.000390757038775307603
0.000272865157369921846
-0.00022160740597420447
1.22530389508991664e-05
-0.000391370419268189057
-3.61867693040700278e-05
-0.000351835658381938372
0.000280812233484971396
-0.000307468609954282697
0.000135093546543425672
-8.63622567846997701e-05
0.000269780581003781824
-0.000333531897448448105
0.000172081935976806783
-3.12727754005964479e-05
0.000166118747142936425
-0.000276833139988589877
0.000178738176449789982
3.71317038466977294e-05
3.39938481801701397e-05
0.00021549311611992767
0.000125668886640575877
-8.49949950558646434e-05
-0.000142241680992691256
-0.000282377438356349372
-2.1161751378260632e-05
7.44462144823616521e-06
-3.11625207784567125e-05
-0.000254356053544396742
4.51985127325045692e-05
-4.57525253604635794e-05
0.000107622966089379116
-0.00024461033507771978
7.57562325855181984e-05
1.59170648076106163e-05
7.06590171335534488e-05
-0.000220775546513638421
9.27539139475129238e-05
4.02349547506044441e-05
2.191254065403544e-05
0.000107807083126838359
5.9542900699659469e-05
-2.32959941627989723e-05
-0.000149337863734531472
-0.000217038570496245044
-4.77303597417608541e-05
-4.99006145027702086e-06
4.22312730691741276e-05
-0.00020431207753853178
-7.42260804981470653e-06
-4.93661040496810565e-06
4.4832480255951422e-05
-0.000188109986356451971
2.06640435668935593e-05
9.8531996040514257e-06
2.90356438327464233e-05
-0.000166895313246310367
3.85952885156561553e-05
2.08826649099199774e-05
1.20603463921153491e-05
5.39346189524506355e-05
2.99745033003988259e-05
-8.27552480556450076e-06
-0.000134721424295923699
-0.000164794207692537384
-5.62954516476623328e-05
-6.58162326397980792e-06
2.62425937986312071e-05
-0.000160585839494266456
-3.12677325967834866e-05
-4.05963868555213133e-06
2.36943324564490048e-05
-0.000149195962970371328
-8.0800451736122981e-06
2.79842580521934392e-06
1.4554902147936663e-05
-0.000134384001554556051
1.04451986843933691e-05
9.61918162767683576e-06
3.7180308915471394e-06
2.56460848000904435e-05
1.62916512745038943e-05
-6.84577650506510588e-06
-0.000115541945252138211
-0.000123600559107344158
-6.03497893245670869e-05
-5.97788270729509276e-06
1.65190789235477532e-05
-0.000122806591550879234
-4.11260150204454576e-05
-3.51345675581734725e-06
1.25747847939966974e-05
-0.000116309189918447655
-2.21888020463533382e-05
3.83020854679806646e-07
7.2265833283503168e-06
-0.00010635466663639129
-5.2353590544830737e-06
4.5469175517007608e-06
1.17986079168131825e-06
9.20403276404634048e-06
8.62794723624331937e-06
-4.50165141020082829e-06
-9.40363893728230388e-05
-8.0384864735472418e-05
-9.1336332860264194e-05
1.01222608584086084e-05
-8.68580411451984281e-05
-7.76620563089777064e-05
1.07476324691083636e-05
-9.05002024807715743e-05
-6.22700036040887462e-05
-4.183119356264382e-06
9.74151941135770374e-06
-9.02865528138793451e-05
-4.59028553094083903e-05
-2.78365967047802786e-06
7.34269368381758931e-06
-8.64615184425040399e-05
-2.96547879939163077e-05
-5.21767735627320206e-07
4.16356309360295965e-06
-8.00053109570798864e-05
-1.44490026435425793e-05
2.07188801623051637e-06
6.85251936459727509e-07
-8.23567820417586173e-07
4.56590480712280025e-06
-2.57752809075763617e-06
-7.19673657869190756e-05
-5.62569798492656612e-05
-9.09124526048872572e-05
6.31868461331666596e-06
-6.00051370316172805e-05
-7.76864186212273649e-05
6.58401757241517805e-06
-6.19595784225710649e-05
-6.34094458111471694e-05
-2.77972602896489908e-06
5.8672597345120784e-06
-6.17259310449918316e-05
-4.86054790739761611e-05
-1.94620620573967454e-06
4.41503826371990057e-06
-5.9428956841912934e-05
-3.38862310295616793e-05
-6.13795141886647732e-07
2.54668946503099962e-06
-5.54862019462220709e-05
-1.98409606495220748e-05
9.10526286275837406e-07
5.31652973091555802e-07
-6.89811217119314413e-06
2.40047035272885169e-06
-1.36047744953355979e-06
-5.04576357539771541e-05
-3.29311712254302242e-05
-9.07613634454362974e-05
3.14455242862366459e-06
-3.48389552898324212e-05
-7.78297333119282598e-05
3.27133716513740394e-06
-3.57720503896825142e-05
-6.41392712104146308e-05
-1.24729449845984535e-06
2.9071154830867074e-06
-3.56055667316018082e-05
-5.00751745470053394e-05
-8.88395040893152245e-07
2.19155164741072156e-06
-3.44025327014078197e-05
-3.60854358789012346e-05
-2.69284574870092899e-07
1.25922774771470005e-06
-3.23497707741369779e-05
-2.26244793735799978e-05
4.64734673827979911e-07
2.57626851352624869e-07
-1.00731482875131907e-05
1.20685072524508127e-06
-6.8604524009992233e-07
-2.96993689871861067e-05
-1.06222265928193888e-05
1.22916770649128798e-06
-1.12076069081646388e-05
1.20306551278700458e-06
-1.14743273047916924e-05
-5.55049650175525011e-07
1.05463068985568758e-06
-1.14221610602651614e-05
-4.08501399325716227e-07
7.93848072337625241e-07
-1.10636264023095906e-05
-1.87061138610681275e-07
4.75140786877821533e-07
-1.04614547481678483e-05
7.0560522853661184e-08
1.43935947222225624e-07
3.27554840231533835e-07
-1.66080044646116034e-07
-9.69533225206110734e-06
0.000519498925796305251
0.000373977687638911579
-0.000377549215494081536
0.000614428507832634647
-0.000668304334502330339
0.000860487871848829517
0.000378151006616274442
0.000269314988332732973
-0.000534566745262850989
0.000563090637806903786
-0.000413907212311661883
0.000504570457334999382
0.000265008767285863922
-0.000465160286019281554
-0.000391033636230342981
0.000809646271101594969
-0.00124444786764469056
-0.00110531408391986935
0.000361442692285652157
-0.000800240062153901081
-0.000214937632155441172
0.000204012205969761914
0.000155669516144146076
6.8515425118995403e-05
0.000520038323077968902
0.000198158912408540061
0.00033810371668162309
0.000328292249963752815
-0.00037279333447402265
-0.000594700391365250193
-0.000509794682978916415
-0.000150200015174438439
-0.000713529097610168068
-0.00132472908208412701
-0.000168484251871945225
0.000359423446449448581
-0.000842937899853161152
-9.1355984384543763e-05
0.000379292176490109406
0.000133065312554984906
0.000751164810237669621
-0.000510221481242855617
0.000443377278401149363
-0.000284508240358336689
-1.52116249796441011e-05
0.000190249128490457668
-2.49801488416488259e-05
-0.000312854833499392874
-0.000668550703832742699
0.000706129858830922396
0.000102114787327681084
-0.00102484619064936049
0.000391600504465456039
0.000175072117339936264
0.000147508027396413234
0.000377631821688190596
-0.000869982964706179029
0.000845521901195385147
0.00104323582828152865
-0.00211646579865408741
0.000769265971809825742
-3.80430474537089055e-05
-0.000681048255210925922
0.000675407745430147343
0.000505598994775625162
-2.97210535213082846e-05
0.000227059418597725109
0.000538476951083833948
0.000197019470257855922
0.000519974547391434784
0.000585856909908816421
-0.000253100225218656251
3.76106010030914515e-05
0.000299848586652695301
-0.00155312524418704714
8.35211212782065957e-05
0.000398104787890024093
-0.000253457558907983977
-5.77000304221034958e-05
0.000364369868304034652
0.000411638486088025928
-0.000226427431039486729
0.000363655692395156564
0.000289679728012558267
0.0003707023605747538
0.000387251289297773315
-0.000191537560083778624
-0.000207473270052319032
0.000184566036281508174
-0.000300171633025917719
-0.000216297492269988125
0.000301011575163599157
1.95486860806246004e-05
-0.00025418869778338763
0.000181153233815522477
0.00018983291216917111
-0.000257425102100942809
0.00017188292819828011
0.000232143612092253649
0.000193954838233447206
0.000206670661625233982
-0.000161680003040095828
-0.000292149528193571466
-1.471093232423083e-05
0.000212908845740544046
-0.000209971290017248321
5.98669342045308035e-05
0.000113212182244566267
-0.00021655228888960333
6.39114417683037334e-05
0.000139737710797003688
-0.000201181903438157981
7.66635787469625797e-05
0.000120082640173332727
9.42371224765476881e-05
0.000102103254372266314
-0.000144028293466819162
-0.000225088437925118203
-4.77429035825109358e-05
4.26611443956904224e-05
-0.000195756510642415072
-9.84539168384928458e-06
3.54442599254105626e-05
-0.000174849121372757418
1.47590715196810877e-05
3.80957524487104428e-05
-0.00015657356739905788
3.24091561422299246e-05
4.68579086306869489e-05
4.67065623791795576e-05
4.85508163545164377e-05
-0.000127619732177871757
-0.000164807803771303688
-5.60024638053923434e-05
1.02496270014909387e-05
-0.00015689801554242931
-3.12903602532117294e-05
9.4767974708441149e-06
-0.000143406928190141096
-9.57669012724753904e-06
1.3639938080469555e-05
-0.000128740627429847299
7.9283364045532187e-06
1.94333752272450087e-05
2.21173598401420637e-05
2.32614330071247169e-05
-0.000111116761025032419
-0.000122457235258789415
-5.97520130723830806e-05
2.21263722208697284e-06
-0.000120007361955106151
-4.08206055010624556e-05
3.56347049327923274e-06
-0.00011301252736795903
-2.26509232994600754e-05
6.46284314886473214e-06
-0.000103023205456563132
-6.42276317662634951e-06
8.91084799578227645e-06
7.40366828707778451e-06
1.15549083582976967e-05
-9.12337823939058328e-05
-8.97336802856354575e-05
-6.16777387016026533e-05
2.42349554669387447e-07
-8.87087803644673323e-05
-4.55634834455066265e-05
9.33769035040184589e-07
-8.45292425642417671e-05
-2.97329882820639216e-05
2.3788524402758033e-06
-7.80422511479450065e-05
-1.49776276592888035e-05
4.13554888251091642e-06
-1.7885519933528205e-06
5.95204472926743105e-06
-7.02394160471553889e-05
-6.14558399869012027e-05
-6.28046645615912941e-05
-3.09015766656383556e-07
-6.08142778548192962e-05
-4.81885161235849784e-05
3.453337329357197e-08
-5.83139359292781048e-05
-3.37581029267600691e-05
9.02169325304791913e-07
-5.43520618092113651e-05
-2.00388227068096266e-05
2.0015815184183734e-06
-7.42142125717977272e-06
3.13323046158441397e-06
-4.94552089192855783e-05
-3.5539031178340569e-05
-6.34808450678470886e-05
6.77770472515477919e-08
-3.51775954115141859e-05
-4.9595319561302369e-05
1.49332573116502014e-07
-3.38755447057526745e-05
-3.58535459630529894e-05
5.13948126424744616e-07
-3.18161068293663522e-05
-2.26652643047164262e-05
1.02498277061069625e-06
-1.0389949790444222e-05
1.58240181806066208e-06
-2.92253986738232249e-05
-1.14381129731098366e-05
-1.48954903900107706e-07
-1.13244537489458792e-05
-8.20678973707711904e-08
-1.0942395098393143e-05
6.26965325772075498e-08
-1.03435162919347712e-05
2.51013552179849437e-07
4.50407617056779907e-07
-9.59011087121141014e-06
0.000561440100615245808
0.000321527403655765443
-0.000714336222726480365
0.000654018756793732308
-0.000605326309972722292
0.000914192263823471402
0.000491701752446915092
0.000281684762864181149
-0.000703599783886782264
0.000718532227268650755
-0.000558488632930498048
0.000571765987441767362
-0.000444627849879484019
-0.000717428113854158729
8.39981920261944834e-05
-0.00235991421921110485
-0.000732291495013879645
0.000322126925767517332
-0.00243375904361736728
-0.000477041849257727119
-4.79541502979354559e-05
-0.000962926103184501975
-6.37022718942642724e-05
-0.0010569324976449166
0.000557215614049235732
-0.000273470289936578377
-0.000329979750879987196
-0.000706361970899242048
-0.000233898293006818152
-0.000377943211042684572
-0.00194399127986743733
-0.000160097402891598822
-4.80932015928972438e-05
-0.0024452683237249982
-0.000268315535255882838
0.000651979220767533499
-0.00252617969377328874
-0.000131580425093702193
0.000528081458459971715
6.39313589426042991e-05
0.000278088179378639232
-0.00155982039914201172
0.000242851219445859579
-0.000156789898375322978
-0.000133667660586778386
-0.000731116024283525357
0.000669958997214793392
-0.000168943657987441996
-0.00160693044546094646
0.000775834776492258498
-6.62203618636450324e-05
-0.00175374906836614931
0.000332215927306538756
-0.000141907189420210754
0.000217710785796917499
6.66775498637736663e-05
-0.00159657587964810808
0.00023001464903703848
0.000874257149659181127
-0.00274539795710239008
-0.000101606806242130149
0.000535879070461003741
-0.000215348913316591706
-0.000411258093063427256
0.000638961990024689789
0.000416797980350689518
-0.000861522282925873358
0.000552691369872887863
0.000426804840039517359
0.000406021585761583668
0.000416026561455126211
-0.000880003843748382872
-0.000261562168467442864
0.000162342465592095231
-0.00105400177504861572
-7.90852121908711082e-05
0.000389687717718535589
-0.000289750681749153301
-0.000206647150545366689
0.000379959396491514993
0.000798199166760375778
-0.000424060804035521622
0.000304569152389367053
0.000755214398841351259
0.000309172971031498401
0.000480584086704054247
-0.000420547476990977597
-0.000219843017681176594
-0.000203848904721766
-0.000118767562020404699
2.41122732592264263e-05
0.000158224144993330488
7.05965605207574398e-06
-0.000153219906874003502
0.00021183350989031552
0.000535291413556369076
-0.00030482828637184837
9.82539574029835349e-05
0.000590067776979531821
0.000136940684364736268
0.000288492912673232944
-0.000214418010399345548
-0.000348935729530651579
-6.37468313825124988e-05
0.000205355237857709984
-0.00021086072080708421
1.78234505407442746e-05
0.000115544433035521588
-0.000183001250005480204
6.24122870803654322e-05
0.000261297928186492309
-0.000200459946104971601
4.07850658837150045e-05
0.000195009560716812881
6.40994922017660364e-05
0.000127557771113641296
-0.000153070783953016025
-0.000235761346674652494
-6.12912459420364506e-05
7.26260419870160154e-05
-0.00020365948955981304
-2.26168773696591583e-05
4.37810445626738836e-05
-0.000167757973989763286
2.8104015551141767e-06
6.17925923865601416e-05
-0.000153859815896158691
1.85969179945056469e-05
5.51488804963004851e-05
3.44100752580660526e-05
5.19231949058060374e-05
-0.000127538730278897857
-0.000166880646808522976
-6.04789483703823061e-05
1.82085740743235117e-05
-0.000156501032861870287
-3.61311963378162818e-05
1.26076922469767853e-05
-0.000140199324563705072
-1.48741295620457321e-05
1.50229775437441696e-05
-0.000125470167247082696
2.69915792698214781e-06
2.06035758866522954e-05
1.67575333361721847e-05
2.44418849571550131e-05
-0.000108998333948559956
-0.000122972417430924354
-6.1111755098213074e-05
6.07042207804811844e-06
-0.000118675250542408866
-4.24055318700859897e-05
5.54121618467248385e-06
-0.000110813896343160473
-2.45296474999574041e-05
8.25688657743216764e-06
-0.000100737672547584987
-8.66942514354945058e-06
1.02014717136221727e-05
4.89517399970975979e-06
1.20168042946026457e-05
-8.93397448030000698e-05
-8.95613303231387745e-05
-6.19218461793966313e-05
2.50262764591681469e-06
-8.7823202943907206e-05
-4.59447144942384992e-05
2.73258178720348357e-06
-8.31940246155310795e-05
-3.04017004444076644e-05
3.61765667038564801e-06
-7.65967324776162771e-05
-1.59470996962239681e-05
4.81198094144736728e-06
-3.06362832868768619e-06
6.25961851524267377e-06
-6.89496958695633405e-05
-6.13265875153942334e-05
-6.26902284664003642e-05
1.19047355245060084e-06
-6.0252083751553854e-05
-4.8173911883147098e-05
1.18292776558905123e-06
-5.75300019524977674e-05
-3.39514187802532805e-05
1.72261465592347358e-06
-5.35123079730631676e-05
-2.04797560340647781e-05
2.51054070675416764e-06
-8.11451009060977643e-06
3.35367087960516152e-06
-4.868685987476315e-05
-3.55231028806399053e-05
-6.31989938846202071e-05
9.00632723265246266e-07
-3.49516410931053853e-05
-4.94157156588376589e-05
8.13769595468315597e-07
-3.35328043211672493e-05
-3.58547804422235889e-05
9.92181328952331035e-07
-3.1433125364275095e-05
-2.2882782780476054e-05
1.32289703686945001e-06
-1.08301918471492877e-05
1.72314540357733948e-06
-2.88634232816163797e-05
-1.14857513043877952e-05
1.5166967052973033e-07
-1.13048248806076998e-05
1.55067449958260188e-07
-1.08868660416105979e-05
2.3814030866867218e-07
-1.0276820141484705e-05
3.65083446738688954e-07
5.10924690023313461e-07
-9.52326896764477898e-06
0.000703968056405351005
0.000118528150546156542
-0.000680443489293769866
0.00062139581267608632
-0.000660825661996976852
0.00114938661641861804
0.000981059295039725995
-5.44112280298810744e-05
-0.000722376191113217425
0.000719834576894873269
-0.000602043991381790052
0.000926167077561719726
0.000101439141587354731
-0.000742543583380900901
0.000259879487140329997
0.000549543873548484193
-0.00189163196391335664
5.928787064508282e-05
-0.00042801919260416967
-0.000878167933034532458
0.000567170655633712989
-0.0017211565310326837
0.000300053106080228635
-0.000118266689584080656
0.000750242288039392065
-0.00101046735787849173
-0.00101456470092357214
-0.000555241236773261308
-0.000218267116669835321
-0.000330004546100937102
-0.00273404877097518538
-0.000231940691572301628
0.000471018909005959177
-0.00319533929236033359
-0.000597565585675005986
0.000832663569644509277
-0.00275606289885874101
-0.000239341035178416289
0.000628198962907253883
0.000426197138858194703
0.000136017425479318982
-0.00228994926884614706
0.000327199496083333506
-0.000265566908129111906
-8.52850151805519593e-05
-0.000320955872940799337
0.000299083303821810601
-5.18136997966380094e-05
-0.00124880605573746812
-6.31100903440098718e-05
0.000327174160936219926
-0.00199940593068632629
0.000192667860651571458
0.000176682190612777244
0.000412427379459196202
3.46860054670032874e-07
-0.00191930389279831902
-0.00243982388556824442
-0.000632542880283987348
-0.000891480317991282878
-0.00274866351463179392
0.000496339244764483034
-0.000103766802967431189
-0.00241542785862395703
0.000133185809282298069
-0.000112733829180697146
-0.00194481749168944821
0.000271190618891413741
-0.000122327564325848241
0.000332158397196120816
0.000100031411000626129
-0.00154855478007202558
-0.00238656136469063244
-0.000605288420166405191
-0.000129565399089223092
-0.0030520166559724754
0.000421217974622290902
0.000450824499225734379
-0.00224921592373447318
-6.72244309392797633e-05
0.000195809235777634309
-0.00121857228559014573
0.000123233547114505384
-0.000127474812888100778
0.000202931934087735816
2.70485884467089246e-05
-0.000635812646069943343
-0.00143161294058783578
-0.000332663025416472065
5.37032861531969196e-05
-0.00171240011686727995
0.000171515709285044991
0.000537551134796216659
-0.00124649721660602896
-0.000196669222190419177
0.00019883274093178535
-0.000526955575630832888
-6.7628856773652347e-05
6.13886279900525267e-05
4.92374537436280414e-05
0.000196619954711937933
-0.000281384325536397834
-0.000530727859029045965
-0.000150902570362465766
0.000108579868555476109
-0.000403245807326753131
-2.24188157351592451e-05
0.000181997061948523472
-0.000366315301689462724
-6.67372985159652647e-05
9.44358231715428651e-05
-0.000254917351766283866
-2.14779502138039229e-05
3.74637555005616915e-05
2.5587709581851228e-05
7.36682205908183033e-05
-0.000177373851980233552
-0.000254534313994906735
-8.93436860933236217e-05
6.53594087984400273e-05
-0.000197104542500782986
-3.13687862540370447e-05
-4.70263200407739015e-06
-0.000181668721868209857
-1.66420378986476678e-05
-3.73662816927096663e-06
-0.000158282716653526168
6.83468060963233237e-08
1.02193040281158948e-05
2.04540572391370795e-05
3.10475088713920892e-05
-0.000132273831526935224
-0.000169865848704151419
-6.91220352386906478e-05
1.14511997463636612e-05
-0.00015728209646290902
-4.07390455714288775e-05
9.39372961026870595e-06
-0.000139474240217605844
-1.97922944973842659e-05
3.65637823861754619e-07
-0.000123708941575017758
-3.24337996127770461e-06
8.146899330752287e-06
1.12785384788385022e-05
1.77474530997880982e-05
-0.000107842516411436591
-0.000126051891978378627
-6.31642860302699381e-05
4.18545414608180929e-06
-0.000118756376217570023
-4.41461060062011185e-05
1.65274546305920901e-06
-0.000108756709180830028
-2.62429197721736435e-05
4.70574888986164035e-06
-9.884919625139773e-05
-1.0806021825545819e-05
7.85294897198085621e-06
2.34866054958388437e-06
9.88926271285707004e-06
-8.77952392679099916e-05
-8.98560398416579421e-05
-6.24400951776228413e-05
2.31956013185256164e-06
-8.7156973987965276e-05
-4.6417644471556206e-05
2.30336011486152461e-06
-8.20843405370684287e-05
-3.1088065512048075e-05
3.38678947997313114e-06
-7.53985081364661711e-05
-1.69707681805797394e-05
4.28683989354299212e-06
-4.33754983740201859e-06
5.45159513550590256e-06
-6.79088661340531926e-05
-6.14580944709944971e-05
-6.28097310859881768e-05
1.74234619232311267e-06
-5.99148061916217437e-05
-4.83236529642142108e-05
1.53971117362218872e-06
-5.69557511380724084e-05
-3.42770922953898881e-05
1.94632434704223922e-06
-5.28699324473995647e-05
-2.10059928265344856e-05
2.45425086506016931e-06
-8.84137546637104649e-06
3.06562094283412319e-06
-4.80826969493863032e-05
-3.56584574721543929e-05
-6.31533044419671296e-05
1.28047980573906607e-06
-3.48667474427674298e-05
-4.94217930371626584e-05
1.1159427380012515e-06
-3.33219353908954926e-05
-3.59956007286858339e-05
1.16111948370991932e-06
-3.11644731002868737e-05
-2.31927982445846874e-05
1.34724785160762759e-06
-1.13181156834269515e-05
1.62363568704954653e-06
-2.85924406875496506e-05
-1.15864766085183416e-05
3.26190266351380074e-07
-1.13403386946095559e-05
2.91969197942784925e-07
-1.08822303080916625e-05
3.29142280854465086e-07
-1.02508230033780468e-05
4.03357493412335736e-07
5.01582106745476435e-07
-9.48432077519153242e-06
0.00115655932470042641
-3.15258030228304895e-05
-0.00104531015330179815
0.000632832571467031521
-0.000848813719859471314
0.00171514148107832268
0.00109225028064129461
-0.000136622580430721913
-0.000588697869357498104
0.000457645627031159539
-0.00047242903190617948
0.00113782110341195675
0.000887853025748237823
-0.00137212821878069172
0.00019658677129390581
0.00218907674359047205
-0.00217152135095870485
-7.42782166148612708e-05
0.00233703742000652493
-0.000565340251334718667
-0.000363425178699911216
0.00201168374761655742
0.000684458599032831136
-0.00061400396812372692
0.000904031011026312802
-0.000629764798376490891
0.00118459297013366865
-0.00243813037869312042
-0.000253077641781330976
0.000987280500455472304
-0.0043198550331112048
-0.000203837435700298519
0.000385056212183355027
-0.00304687358826026111
-0.000542976707955616792
-0.000462681435940569665
-0.00177822785231471995
3.66953718760841259e-05
7.31637840962361856e-06
0.000438307185193112069
-0.000432364433285005933
-0.000744120021828614678
-0.000136812371060540845
6.4169608101858136e-05
-7.29613732148242473e-06
-0.000529936025332549592
-0.000119523178520473646
0.000256996311667694695
-0.000727027806643708308
8.2076659749840959e-05
-0.000100784822058444783
-0.000857927575362893804
0.000678079190379277824
-0.000333806955740341058
0.000652019607180658284
-0.000380775643711841777
-0.000690522359825969856
-0.00307069588050463364
-0.000438281495430134851
2.58592600984259083e-05
-0.00258238157418012437
-0.000547172735030829562
-0.000164432983653005457
-0.00236402630133881022
-0.000148982585650862202
-0.000100028270233586212
-0.00157858203632766313
0.000135187884034895464
-0.000364882593015515566
9.66008205771053867e-05
-2.15817937802151308e-05
-0.000901551213066657635
-0.00117266612622667445
-0.000596646161780229559
0.00052258168621145489
-0.00144671385431095539
-0.000333347981285747272
0.000511048297309681706
-0.00127873697857925532
-0.000118347956611122602
-2.80320325081381003e-06
-0.00105857494882386416
2.7342319414076484e-05
-0.000239790329625956392
-4.84775855172807411e-05
-0.000172693400283062821
-0.000713753707961526989
-0.000775104078472513627
-0.000635136958584213863
-2.33949729261252303e-05
-0.000757013872899423598
2.58406064819389255e-05
0.000160271833095442754
-0.000539999211474421516
-2.17235282624463379e-05
-0.000114803694613055976
-0.000380384200813325274
-4.37482679008046373e-05
-2.71327607111600765e-05
-1.3821004116820849e-05
7.40374209093999679e-05
-0.00029245485671251575
-0.000470076934230238299
-0.000308674321923553671
-0.000121602096061283242
-0.000293184038198746077
2.10137315201835563e-05
9.92942582309985029e-06
-0.000218594669909342667
2.30526114570481569e-05
-2.4927304022887066e-05
-0.000216488929664806161
-1.81107582826711554e-05
9.72310706886149597e-06
3.48085480642025683e-06
2.63135387353077247e-05
-0.00018643616957528589
-0.000262243521956599039
-0.000118913714896326224
-3.38819520086859914e-05
-0.000210592285304049488
-1.74081928675805861e-05
-1.79337121052549028e-05
-0.000162551414566819712
-7.18709627329447408e-06
-2.15377410964599233e-05
-0.000150524717878420443
-4.86887440770729464e-06
-1.50516740195356383e-05
1.07489134722397538e-05
6.03980845623749146e-06
-0.000132787936043660809
-0.000183464897835386648
-7.0734392283557584e-05
-1.33651039060295612e-05
-0.000158098362010653703
-3.57392846165202301e-05
2.35425063054359134e-06
-0.00013453136168864189
-2.05070762981490515e-05
-9.88530199409713971e-06
-0.000119917403600615491
-6.08918490857448058e-06
-5.25189867692578872e-06
7.53959246434028063e-06
7.50386297133491163e-06
-0.000106467391913561915
-0.000125713867744053486
-6.22860237607337027e-05
-1.2597474933642032e-06
-0.000117380800628250537
-4.16588166823431578e-05
-7.63526281061157384e-07
-0.000107181509158633891
-2.66095832656745033e-05
6.06092057478613102e-07
-9.69820769355911181e-05
-1.22377803480236782e-05
3.79943089804205821e-06
4.28612194809784451e-07
6.36259324229233872e-06
-8.63480666745243888e-05
-9.02980148663326201e-05
-6.25019036187141053e-05
2.15616632733893614e-06
-8.6549975979390256e-05
-4.60204210846591828e-05
2.91345034583742327e-06
-8.10953070886280813e-05
-3.15511984776286432e-05
2.87069947560445986e-06
-7.4363895880378528e-05
-1.77896939910119305e-05
3.10397076166357871e-06
-5.36268942900244539e-06
3.83296753161007849e-06
-6.69561898314543759e-05
-6.1682237479435622e-05
-6.29511153699894145e-05
1.91869594853050104e-06
-5.95995520798178185e-05
-4.84462872606219498e-05
1.87640442935743162e-06
-5.64923744458167067e-05
-3.45923590141801774e-05
1.87567625149393459e-06
-5.23528718308700124e-05
-2.14780575812422374e-05
1.9999500927494011e-06
-9.47160422004652894e-06
2.39624533519072159e-06
-4.75759360341020663e-05
-3.58436096109735806e-05
-6.32101064224439363e-05
1.33081428013482621e-06
-3.48463430361044233e-05
-4.95088020016913908e-05
1.17860079979816324e-06
-3.31979169123241034e-05
-3.61830255790038425e-05
1.1010401082875312e-06
-3.09770435617559261e-05
-2.35112231566457085e-05
1.15669814181288165e-06
-1.1777391557938985e-05
1.33178274543997399e-06
-2.8381267593508419e-05
-1.17145288676992308e-05
3.87536259237018794e-07
-1.14098682885541891e-05
3.45064523281904096e-07
-1.09132087053080969e-05
3.44087316195921431e-07
-1.02518860236617037e-05
3.71277296951427864e-07
4.29647894871654841e-07
-9.46081646272739877e-06
0.00185303212812047311
-6.09217019233922077e-05
-0.00119361737951962786
0.000613169562342073728
-0.000708295185737883252
0.00209576668435805481
0.000910847505308480499
-0.000175728708806926939
-0.000302549431425254292
0.000300129010857481146