/*--------------------------------*- C++ -*----------------------------------*\
| =========                 |                                                 |
| \\      /  F ield         | OpenFOAM: The Open Source CFD Toolbox           |
|  \\    /   O peration     | Version:  2206                                  |
|   \\  /    A nd           | Website:  www.openfoam.com                      |
|    \\/     M anipulation  |                                                 |
\*---------------------------------------------------------------------------*/
FoamFile
{
    version     2.0;
    format      ascii;
    arch        "LSB;label=32;scalar=64";
    class       volScalarField;
    location    "0.0299999999999999989";
    object      rAU;
}
// * * * * * * * * * * * * * * * * * * * * * * * * * * * * * * * * * * * * * //

dimensions      [-1 3 1 0 0 0 0];

internalField   nonuniform List<scalar> 
7248
(
0.0117759040631335854
0.0134781400806212263
0.0131607276863999079
0.012072433939146825
0.000334528480176406726
0.00561428520850108803
0.00755624439435583981
0.00799239600733778373
0.0115509107005711577
0.000267008930551224783
0.00139130540666506384
0.00413998467096539629
0.00432368798015072848
0.00789087899049601728
0.00022523198077953422
0.000730837395732093493
0.00222604048768112843
0.00514938084530015393
0.00630913722240836368
0.0155147427317724428
0.0073768830062290779
0.00641617839581470374
0.00739361021865939886
0.00910662432471347552
0.0172610444842634519
0.00950487122154240749
0.00776960229208511956
0.0136490304018540027
0.0110655868941311498
0.0181711184946238904
0.0112071835068412676
0.0103118236493410873
0.0151738037313330042
0.0145031503018328914
0.0189970647806216725
0.0136686240581020448
0.0139267203821325115
0.018484247602862186
0.0183059833993654102
0.0200099445591545785
0.0178256617162248707
0.018173011052724914
0.0215235237057947552
0.0222239031368046958
0.0211797706497242472
0.0209787979642074816
0.021561100796488205
0.0230741738258587875
0.0241419812610082427
0.0222754433242728471
0.0227143687877443823
0.0234331734920135738
0.0244229994836808982
0.0254218151803043239
0.0225827988108663197
0.0230834642643900946
0.023586516013288563
0.0241039496943165482
0.0247583482224742121
0.0255206525160909317
0.0263219079903521461
0.0240919065289249106
0.0244182686087785032
0.0248263860090987207
0.0253070055340638665
0.0258757994149660629
0.0265043125539592347
0.0271576317630929515
0.0252702789489253482
0.0255556024705324916
0.0259266918568150581
0.0263719595767348026
0.0268836467364318779
0.0274359525712333137
0.0279982670818727415
0.0223656423767655613
0.0230262664604229984
0.0238061280530510525
0.0247055133262778365
0.0257133057981938397
0.0268086213519692189
0.0279501181607597002
0.0126066096635582409
0.0114989888398961959
0.0197182762702711213
0.0162838166510285327
0.000423875174151659554
0.0106321100975109786
0.0110969191975178912
0.0139893683652864281
0.0163325203139617729
0.000462734145592401597
0.00324929055949904622
0.0041118799167819001
0.00351393848794795145
0.00889003425705485635
0.000142899082224819173
0.00120201724783948103
0.00492693864217449203
0.00410190601389092118
0.00469142708087826737
0.00678585143037450586
0.00832182348171751907
0.0062126793593991151
0.010835037273329344
0.00881561018863344717
0.0127016228798898546
0.0156465884964856645
0.010689830278600241
0.01354712171506855
0.0120003006969116935
0.014949552468300837
0.0181665970745427084
0.0179885079078374241
0.0166283329656603113
0.0158158254915684061
0.0222015885240352505
0.0198568735721388751
0.0178285172006726542
0.0199450872902459525
0.019095467797279525
0.0217500126119149657
0.0203881643797601507
0.0199691871222686217
0.0222044054619283671
0.022732875849043415
0.0216506741373364113
0.0215854248553829925
0.0220747630181623231
0.0233562562308987816
0.0242478852074913265
0.0225356852780328187
0.0229017855768883609
0.0236513313295709966
0.0246574350989521816
0.0255493021311225289
0.0237846908865742869
0.0242805350724554919
0.024962602985447082
0.0257328392984543831
0.0265092974851498485
0.0249771863225221255
0.0254591267088814938
0.0260423164927572823
0.02667234789117209
0.0273123844569391414
0.026038595506183794
0.0264905574482396447
0.0270117600451308774
0.0275674943862630889
0.028123642941032409
0.0239890342504314839
0.0248869851345785223
0.0258948728577784934
0.0269955014842278886
0.0281369150155298675
0.00906581411531214541
0.009326042835763413
0.0141467110747074826
0.0168147196303696927
0.000500693818924885015
0.00375299446288439352
0.00650074897339862623
0.0102801586985494763
0.0147369578587573744
0.000146409157417372202
0.00143024900907584161
0.00243296598964113818
0.00358777339707603725
0.00711143332940395931
0.000131812536956665063
0.000716035654445481597
0.00185454091981794903
0.0022885238633681298
0.00330226167276288438
0.00805205195934077106
0.00673709299529703237
0.00551979072561823748
0.00570681697624969477
0.00607010143006406558
0.00847445120737920672
0.0112614989748130289
0.0164982565032511866
0.0134631534061388451
0.0117829672524569322
0.01194641936227607
0.0189935878612409771
0.0199707364947919117
0.0159595574146376949
0.0164099028966058526
0.0236465993632586288
0.0210874842080027401
0.0201307800428017006
0.0202177726473448255
0.0196084986544049801
0.0231511646944854953
0.0209857958690226158
0.0208119842233073192
0.0227959652683541424
0.0228506600984741924
0.0219775463878994042
0.0220676158082598779
0.0224427781582961609
0.0235892306364247871
0.0243888806341828364
0.0227677253281422139
0.0230421685253668351
0.0239391509908577632
0.0250576209399439205
0.025762268587805174
0.0240314167376738941
0.0245733570693877842
0.0253078797175617584
0.0260621961335590624
0.0267537902542553559
0.0251848884838690897
0.0256924184296029104
0.0262932051709087733
0.0269102472108418422
0.0275134045294314379
0.0261963650130208718
0.0266593980793545134
0.0271870372399604064
0.0277360569244338127
0.0282729648742519532
0.0241862102060466239
0.0250843558409115132
0.0260925181763040047
0.0271917145109560991
0.0283275103027306185
0.00895721948380849564
0.00873189950555627349
0.014109917344104465
0.0141378912019878636
0.000263369901849211309
0.00446746638550025478
0.00433811922678303298
0.00734517847043264244
0.01019328222510801
0.000431231174234100636
0.00143177081806680913
0.00239605564784985169
0.00288727738610953947
0.00533355735607055417
0.000130802931839294812
0.000530291932068758013
0.000621181930343502812
0.00147137478261071745
0.00292258473945903978
0.00400337161533077888
0.00281852434827725793
0.00077891318528362243
0.00221947814855939915
0.00399999980727120188
0.0040111325536316576
0.00346966962127708998
0.0016025948404020194
0.00797717047689658343
0.0116674986512654184
0.00589760137784045482
0.00748081146404336143
0.00803761533740793462
0.0144889944624873798
0.0174646143597775617
0.0144968609812062138
0.0142703224315466042
0.0189092167066391321
0.0187942071980279971
0.0194599126765493506
0.0227816774954435752
0.0197935500535593688
0.02186357106096758
0.0223078906271827193
0.0218745776420241275
0.0231862586819511426
0.0226300990405478263
0.0225241437768800082
0.0229021810070184594
0.0243583025496526689
0.0230220080588372407
0.0225220275019826048
0.0238283175869752756
0.0252675599820405897
0.025968440970442784
0.0242333152979111455
0.0248054630567257489
0.0257130460331006505
0.0264741380367639785
0.0269910997538949961
0.0254175563007589742
0.0259829794944472156
0.0266157923023961906
0.0272022846487595636
0.0277401078363354141
0.0263828724855161151
0.0268731774289985952
0.0274030168317975741
0.0279296146567493166
0.02843213483288487
0.0243909209081620074
0.0252930432938436416
0.0262973849035852969
0.0273882003780695875
0.0285114233838815873
0.00802389484724367122
0.00621792612722248117
0.00831480747600070631
0.00999646647358637917
0.000825466032578086022
0.00919735123447564668
0.010420980920864643
0.0126248575681943524
0.0161648304418973848
0.000197931545670216734
0.00122794252068886625
0.00231434834405721624
0.00696289964644382538
0.0114536538691489675
0.000160239937076169409
0.00068179113193520078
0.00124470364815704409
0.00425053658430844285
0.00904933183583178993
0.00244147567329162452
0.00185008961221361516
0.00234280303563215529
0.00417018323967634393
0.00692304421850928591
0.00323000569210696092
0.00577156371398752314
0.00536914788719876877
0.00608993603784642804
0.00937031883530085007
0.00410532964900891129
0.00831398670628610836
0.00992740583715154973
0.015445936941559886
0.0229396822993356737
0.0126133288557767394
0.0134727334398712876
0.0180235622749189001
0.0175198183593203716
0.0195128685930876997
0.0215953803368760418
0.0212089544401875031
0.0235699785807121746
0.0219322303859130416
0.0216511743008842295
0.0239522050378878845
0.0239349601860510373
0.0243292002024773149
0.0225865493331103319
0.0242199695893373403
0.0235116193575563362
0.0229660276991635673
0.0241739848998517651
0.0252847068252427427
0.0261379280969635114
0.0245023059211555115
0.0252155050032220086
0.0261279143335134828
0.026824641683979588
0.0272232523718170076
0.0256833502293443011
0.0263455483045141152
0.0269839171760692838
0.0274792311223664154
0.0279270353255874348
0.0265881226465822657
0.0271050100449126002
0.0276268986999449774
0.0281162335971892018
0.0285765733646089065
0.0245945753803406206
0.0254964550868729475
0.0264976403017333599
0.027572612805367179
0.0286760989849300998
0.00387501230531620694
0.00428198464740395506
0.00784609720606091292
0.0110093369400596063
0.00465344608702289875
0.0113575567765954611
0.0110589702446070408
0.0104181336545334357
0.01344277878931786
0.000929520424061268174
0.000682655938457132319
0.0035771053086194873
0.00782000365632304177
0.016344031115698817
0.00013161419811263779
0.00165789767093473396
0.00428843423238787613
0.00605428297495447416
0.00979554880864060354
0.000421744689079621101
0.0029340637497209097
0.00369883210057538525
0.00418296943496214695
0.00773847124187954007
0.0032594561592658145
0.008241581303428374
0.00669811396900584898
0.00528833988367418198
0.00667596913554950166
0.00685585013700795894
0.00753846668894352177
0.0110747323811359148
0.0115126453293002522
0.0131793815627586387
0.0189654529167043832
0.0131634220996493332
0.0162927727717237063
0.0178199117414244261
0.0225217359381484419
0.0253719977602459915
0.0203478204263730991
0.0232594621819595671
0.021060641314928831
0.0228425652485862857
0.0252275678882471002
0.0240467238148571773
0.026623141955609636
0.0234008517482025974
0.0238541370348431502
0.0245994642638698129
0.0235084509058198846
0.0247288453796927037
0.0252357239583299864
0.0256951321915794874
0.0252712202993170924
0.0258474650362345605
0.026603183684363662
0.0267664542258700955
0.0272063450654430675
0.0261246400506695287
0.0270519699033850182
0.0273426809281164911
0.0276409253394496318
0.0280214577192017568
0.0268316800104957051
0.0273997887944844587
0.0278530988953483924
0.0282678905300242506
0.0286851000052749869
0.0247909314397125151
0.0257002439806044737
0.0266824456030417649
0.0277310465061512447
0.0288092949628621399
0.00306112066345723844
0.00525620012189129907
0.00962440495930007821
0.0127173491321061101
0.000209197187881780252
0.0146057222203198403
0.0112550264393229734
0.0101051000030554956
0.0115073773078895429
0.000124040474993743677
0.000633012100036951016
0.00707531849074081922
0.00717090126576689843
0.0170148820734572249
0.000195792586616033715
0.00154619833576966049
0.00392786800689023854
0.00585784308157073774
0.00898937426428360158
0.000994697412029458411
0.00396306260238250829
0.00312670462581768034
0.00440217624693809567
0.00743099265976460317
0.00274059596679399487
0.00746012643488549402
0.00807903174271166688
0.00553339890979911552
0.00790822968560944868
0.00773146561494413541
0.00807048945267841746
0.0112309115240741414
0.0117145036842014293
0.0114923275048462083
0.0186924193564445701
0.0129387451243206629
0.01278495345198148
0.0165541645543816202
0.0191857200110941532
0.0275665755039810473
0.0228817462833779232
0.0184673909433672977
0.0217479310229726844
0.0253683865631249943
0.0252652321398771362
0.0245712040478941671
0.0270453419358917917
0.0248511949201676643
0.0249308142525242506
0.0251903437694501499
0.0238582432316238012
0.0248555088710352805
0.0256662856490610346
0.0256375936089093537
0.0260492655214913105
0.0259970417647417996
0.0264420853307466806
0.0267594193689798324
0.0271261471670098536
0.0265645894024607795
0.0269504103749203805
0.0272930627462235655
0.0276394587130523346
0.0280536328845496959
0.027049779856126329
0.0275038348583057368
0.0279305225343845116
0.0283325614851273576
0.0287436787695852271
0.0249471443000546418
0.0258341074042498994
0.0268063366584425228
0.0278367710174035644
0.028897108812076612
0.00451584914516090907
0.00745425167648076665
0.00721575990178050571
0.00772916753976261948
0.000132603834227048054
0.00548902687399811795
0.00957007339094080589
0.00682770716212455567
0.00631390169357291201
0.000133663269526511147
0.00122567159950265933
0.00646487303735802498
0.0069654828092024423
0.0074537743505699687
0.000188181909589794753
0.000864549073238349351
0.00207402662020423961
0.00307009579519651769
0.00389901419229874997
0.00175457057790683957
0.00256259059963567359
0.00395862292868242194
0.00543304030129576187
0.0089317824952328418
0.00458658275047262205
0.00767552713113274932
0.00854277103734068892
0.00655841810313916723
0.00804415727939829933
0.0104820396255124841
0.00810216956479317685
0.0103542162758796293
0.013415846583107233
0.0125968407790651594
0.0123147453101854782
0.0115261509714007643
0.0143930104131801875
0.0207597459010255107
0.02099237962081308
0.0169532274947641823
0.0173344853197887408
0.0179944799776524077
0.0213554073081921245
0.022835203168631836
0.021635305231372047
0.0211785956427428569
0.0243181046264265947
0.022210846449021427
0.0230453849729313105
0.0256493502585737887
0.0255329581832096884
0.0269562420331073971
0.0253201862255417742
0.0255230691210068007
0.0262587070040450031
0.0269538486819398265
0.0269222948295413343
0.0265153822646271714
0.0269461895335312319
0.0266524672528724964
0.0271000466924947413
0.0273233381353748979
0.0275529893858222803
0.0280334007880294785
0.02714922457735542
0.0275640929685081089
0.0279453794079696401
0.0283198716412670082
0.0287324870052246932
0.0250105654243973768
0.0258871021524068046
0.026842136813369246
0.0278530759026080904
0.0289011229012485146
0.00523210275543393739
0.00757051194996043435
0.00935528263123873785
0.0118972987172623629
0.000443858930197249459
0.00606901706410082394
0.0111999067797133745
0.00958569471824712721
0.00911331113281421169
0.000222363216694075524
0.00250172351140094716
0.0170577400317786891
0.0109324338994619148
0.00743581640111337736
0.000237696223588003061
0.00170327843156304866
0.00242525357637196582
0.00515871871151499586
0.00729212396708621945
0.0016820981270353765
0.0182712780258849974
0.0141004893223677201
0.0128520821913403228
0.0108381440297396024
0.0178374481143883275
0.0232362691717831853
0.0194679236384987138
0.0134456273687026239
0.0135263222834968635
0.0208179628716190328
0.0218879989449500476
0.0214431922161573488
0.0188178937740555302
0.0190935144458426499
0.0226981101382594842
0.0218823958648800346
0.0212232867650472487
0.0198837838448356827
0.01962315684117227
0.0226089040152132464
0.0220715393532182301
0.0217356346013465318
0.0215388596563698548
0.0217497779303032594
0.0231748516820531741
0.022971362348492317
0.023046565966253197
0.0232532488934091182
0.0238058786787400702
0.0238960363972767487
0.0239262963354605236
0.0241779433520126555
0.0245491929529051169
0.0251710969142498395
0.024889089646351472
0.0247116182838376663
0.0246891529037681148
0.0248425188097794424
0.0251575348093259731
0.0255695545051728215
0.0261378554359081479
0.02537684080414844
0.0253780932786685683
0.0254825376244219408
0.0257051811260017686
0.026037846582652218
0.0264506135392612168
0.0269585985476792564
0.0259234629801433566
0.0260445439246605598
0.0262386015599965702
0.0265138071891544251
0.0268602568551359333
0.0272713537240810294
0.0277364577421863566
0.0224204440433021755
0.0229150860799300637
0.0235289941693585039
0.0242679381141741417
0.0251260780189977648
0.0260884860052388451
0.0271249669090537285
0.0107968512263738655
0.0167111196872636418
0.0126915239296398509
0.0148642369333349695
0.00179848326522522961
0.0107325566743260159
0.00945306451994445789
0.00796697679517982885
0.00808476385354035473
0.000540368032775856411
0.00308455848347885357
0.0145939576231149254
0.0104735897899424467
0.00758432447058669974
0.000128998427914240352
0.00943658542009562402
0.0032549998944624162
0.00345367362333905614
0.00518208909744155566
0.00063892825830799227
0.0148138094223663613
0.00908416320928318206
0.0190861222072666592
0.0136412684366967758
0.0181864386446005596
0.0187630423679751718
0.0157860913223156138
0.0131955999976930121
0.0170765938713607901
0.0172429525539184274
0.0176949677066202543
0.017626614268996775
0.0174054485386658485
0.0182517421571323744
0.0208139241059972641
0.0196095847450326599
0.0196210486227851554
0.0195326392991901736
0.0203007985163662918
0.0211442759567824941
0.0210404231600784773
0.0213667803448601284
0.0214769520104229027
0.0222575144776639804
0.0222315076460228786
0.0224290698537115835
0.022893114504998105
0.0232039167859900385
0.0239461862037197541
0.0233834877462243511
0.0236345172221108339
0.0240993954825777096
0.0245014246749986203
0.0251700974611371482
0.0243690672957451691
0.0243206557063474112
0.0244347955911858629
0.0246996447379281628
0.0251059447919146916
0.0255280602976199825
0.0261127362339861578
0.0251229964082366301
0.0251920511101101398
0.025366419743637101
0.0256486521372686037
0.026006351959532898
0.0264238249964656412
0.0269397535082548795
0.0258113810197736215
0.0259656482133097874
0.0261952639855450586
0.0265014418297522571
0.0268474363710232769
0.0272626856324576332
0.0277336826495669896
0.0223685032772444441
0.0228792174613065002
0.0235122243384220317
0.0242698585409769213
0.0251389233078240723
0.0261116625248228977
0.0271588801991962982
0.00933383409623878349
0.0216193717735888233
0.0119826805342849139
0.0142165270471994939
0.000366630444682099091
0.0105224726967124392
0.0104614922764303623
0.0104921866172942458
0.0106214373773299096
0.000158306882991144976
0.00167040250967559391
0.0047724366740816088
0.0119506466579974921
0.0124519648662370884
0.000185489945221823987
0.00198360542541261209
0.0021831873929756291
0.00219701842460457743
0.00279350169656912822
0.00980496688879796061
0.00948613817941571479
0.00617425541369417356
0.00520351194035247044
0.00500856581306348934
0.0146681842630220806
0.0163280942327364946
0.0152696488504152194
0.00986238940183221599
0.0115908386364485579
0.0188743296101944388
0.0182132282180120994
0.017152335321028965
0.0160397301826085588
0.0158530850891085671
0.01949089768477014
0.018180664398954112
0.0191080474831745728
0.0194899631754633929
0.0191431830907188329
0.019770518839404283
0.0201853831410600017
0.0211595597874723873
0.0217500168897202563
0.0219214644332148996
0.0213250429018582224
0.0219124245284308683
0.0227770622403893584
0.0232972835804719572
0.02398594290134997
0.0228733013916858838
0.0233539386659601597
0.023999405710866676
0.02449133425714713
0.0252134606366155867
0.0237798787769820941
0.0239023345264380918
0.02417318936147669
0.0245669284774136451
0.0250343836406778722
0.0254948271757681408
0.0261046405628874191
0.0248442581598876874
0.0249935217679313829
0.025247445027055046
0.0255983589255923405
0.0259609555390726519
0.0263979198898460984
0.0269265464386120972
0.0256863968746282312
0.0258796358802301611
0.0261496816716716915
0.0264667916557189686
0.0268230273147901724
0.0272505353833702377
0.0277297822573549201
0.0222920375588471532
0.022828073376515854
0.0234887420803041452
0.0242658235864031888
0.0251546903399567368
0.0261441077981966544
0.0272037422626936233
0.0115159671858906
0.0157918434898559959
0.0120990486654931183
0.0183774375364332797
0.000199798272639567552
0.00168002220007501491
0.00214453338062259909
0.00773280690831307585
0.0159627008295237897
0.000362806581059926109
0.00179420030558966374
0.0024919693560102609
0.0034442845389541614
0.00628179773610527351
0.000175439901398087166
0.00288458507370095273
0.00164327575905783029
0.00195174595265999295
0.0028592339753936726
0.013396870590865478
0.0113588380196060212
0.00973126035309146604
0.00469099639919495163
0.00399447959833080027
0.0129280983854552049
0.0158185949226427418
0.0184816450370020313
0.00959346156885342895
0.00957652486617787541
0.0167446969114452976
0.0155457189378806915
0.016472825679473297
0.0155117165378898716
0.0153998418511120463
0.0188101321672173964
0.0163563268574407547
0.0183608053268276387
0.0188278152558750619
0.0189990066969476547
0.0184751312221777854
0.0187497247584568587
0.0211069152785382727
0.0217335804631445702
0.0217976353926270378
0.0206102973246702036
0.02134321833660386
0.0226901968183716406
0.0234450000571375938
0.023943444403455711
0.0224701065991224462
0.0231147680178141676
0.0238411580424087652
0.0244599050554975966
0.0252745844198272902
0.0232525326207373706
0.023553245318483889
0.0239676752096330131
0.0244557663934577112
0.0249162045393128383
0.0254462230323144814
0.0261013488624588612
0.0246044735526190876
0.0248320184783596964
0.0251600383630758567
0.0255091910729829292
0.02588891814331978
0.0263640864219537446
0.0269171588962817468
0.0255834281770643615
0.0258142631119591855
0.0260900055564880114
0.0264052587349867286
0.0267885970284403863
0.0272384237543478493
0.0277330232813692741
0.022214321054884318
0.0227813367551770903
0.0234652289620281805
0.024266240145016469
0.0251821833016423746
0.0261944834619604848
0.0272719329679638675
0.0103505198891266706
0.00882003804152790838
0.010043168810865739
0.00952770845456067834
0.00138264145280438252
0.0117265978698088656
0.00434671043662841327
0.0048867819717894152
0.00824440408363084909
0.000546973888009005924
0.00435953330939452093
0.00592075661394908092
0.00433181889584196515
0.00781217065955413983
0.000175405136960939855
0.000939443737976899192
0.00106003427205120866
0.00178393793638549126
0.00426095426046578865
0.0123533797594915125
0.00547872123980204864
0.00450175562765619229
0.00281203188874370969
0.00532323808398049714
0.0118099303059400335
0.0213216242664518579
0.0151809565284541578
0.00930653813881925258
0.0112904441549989045
0.0141204317079288329
0.0148681473348432278
0.0153539430458641997
0.0140867426690880343
0.0159052035805283404
0.0163916105071974759
0.0146583999230515388
0.0177376982358553176
0.0186509390611329443
0.0191269449285358314
0.0171840646450214206
0.0171227970076533592
0.0203596526892612477
0.0216773266524756709
0.0217762043215705935
0.0202176744224943292
0.0208628130357739437
0.0223026174871683094
0.0234185927941950034
0.0239196116344639817
0.0222774765140016824
0.0228952487962624067
0.0236324947128281268
0.0244137717876398916
0.0252994798638906879
0.0229297483116168328
0.0233929978604641882
0.0238210629170824348
0.0242923578032828227
0.0247882668967527448
0.0254006295604291034
0.0261056460532435447
0.0244799249349496248
0.0247343241875484059
0.025039335464800954
0.0253798389416418739
0.0258150104886220658
0.0263364653783994054
0.026919688959411419
0.0255215699292980595
0.0257332060281666893
0.026000128621875597
0.0263399447503190089
0.0267574533065358805
0.0272345743846090262
0.0277486065596179998
0.0221552300171560662
0.0227450431826624784
0.0234532341913504319
0.0242852224666665166
0.0252302916912707231
0.0262671015119878663
0.0273640920709894049
0.00797539075381355905
0.00851889621742024997
0.0061783978829239505
0.00590147778105856377
0.00349402128068030185
0.00435030224184417957
0.00529033831759349524
0.00791871691052715293
0.00979183860267681186
0.000709250783255924882
0.00157457776303789455
0.00643148911386293761
0.007163741303436672
0.00851008551457412173
0.000163270472542290617
0.00101417833368722511
0.0040547704455435778
0.00448316317625055416
0.00711740372969952868
0.0013437177263246117
0.00168450916150513679
0.00546184134440611761
0.00627865118862269006
0.00911449784069986654
0.00698166325860009093
0.0105415184834969384
0.0153450194031805494
0.0116927723843071596
0.0154100833308830551
0.00951604041411764114
0.0146855799300490142
0.0186192891517385911
0.0151776265649482388
0.0167038713556017168
0.0152997425239424813
0.0146924605774832306
0.0179248859094853601
0.0177915995613936832
0.0191361373386773059
0.0173321799806217085
0.017629482668523086
0.0203272913051114647
0.0213290160668502746
0.0217792842939403646
0.0200484780145077958
0.0207366951203505484
0.02227599834003419
0.0235163567900450662
0.0239318687681783944
0.0220550625118001616
0.0227130824178476062
0.0235315700089896128
0.024407947797125365
0.0252921998783968843
0.0227458036151419671
0.0231878594471021555
0.0236261144611899059
0.0241084337861349855
0.0247020278600392183
0.0253798861193835178
0.0261244305123525151
0.0243362627070037203
0.0245723113532342469
0.0248708099078964844
0.0252718123753789478
0.0257639027739429254
0.0263277028361267214
0.0269393932039304618
0.0254130327350354478
0.0256135941183693004
0.0259101788793316412
0.0262909187432333637
0.0267422881333436099
0.0272461416019017313
0.0277793885788547266
0.0221215282998865788
0.022733270689233108
0.0234731364844104028
0.024334762320701319
0.0253059428621937345
0.0263648479685994822
0.0274791344719161924
0.0124494903579737883
0.0136244240902083109
0.00575307044307145701
0.00756629126542226419
0.000293000742756315241
0.00213801089872338096
0.00445002374914315029
0.0090452774435488513
0.00982785954543848733
0.000286642798076228405
0.000694453514349462043
0.00357961236926398942
0.00553139774180909111
0.00808421607963343697
0.000229820154255280253
0.000506036881081831482
0.00232103642158939215
0.0037527005869636117
0.00581025015300339499
0.000666292051806034041
0.00136649384589043808
0.00331234786475926484
0.00745039106000175595
0.00750332204768548467
0.00809103409891195197
0.0109852581244239203
0.0113087074886533238
0.0174988353187380402
0.0126839963469216905
0.0154081942189208156
0.0164487368696699908
0.0199930429107006945
0.0174323636661758395
0.0155113144456914716
0.0169280516257043802
0.0179115861755091144
0.018272560563966582
0.0173467551584792455
0.0183137185053484849
0.0198341061699231699
0.020255942958133967
0.0203509679177017906
0.0211431538894578351
0.021699770913441635
0.0215170402440161418
0.0217804895489039745
0.0224993507618907705
0.0235181668597818985
0.0240327719166791992
0.0222508737859531507
0.0228092129045728981
0.0235435737125160478
0.0244124880650397232
0.0253210402218938778
0.0224596359417002303
0.0230067080991477012
0.0235244572725329774
0.0240518026118628075
0.0246765433752980483
0.0253875136948250868
0.0261583907581108416
0.0241136240030609024
0.0243991625238750565
0.0247735033455498757
0.0252228960880827961
0.0257521364741994663
0.0263468744207003107
0.026980771200440113
0.0252776309834755082
0.0255254129887779527
0.0258619483146589196
0.0262752763212387649
0.0267538747113857354
0.0272798767285884793
0.0278287258398049117
0.0221359533834590283
0.0227741721123809887
0.0235387539621808271
0.0244221420156228511
0.0254128192591190419
0.0264886975252616695
0.0276165440038574315
0.00907613389033746359
0.0123634858050721379
0.00839748121651596145
0.0114532545822834172
0.000700774627313104385
0.00478332263142373492
0.00950058732276735408
0.00938087671956632646
0.011428233072045671
0.000213204094423421597
0.00115359093235118662
0.00426272051547540477
0.00534073562953499281
0.00800711175096954948
0.000157296025723777078
0.000747642779259794789
0.00162946873447575974
0.00269180483065180895
0.00509767205570641098
0.0042277248179374222
0.00651690669077951285
0.00836020532135070375
0.00592920675174709103
0.00699632218767842849
0.0130799370553061536
0.00983691498515736236
0.0101894534178298794
0.0149978584762358886
0.0101276441204856908
0.0174506325655580212
0.012191465404559872
0.0118145706430085196
0.0146861759525336796
0.0140780688523298152
0.0191282976193946179
0.0137542592592793424
0.0134214948756318977
0.017301013359327877
0.0177596295131530434
0.0193401659249929324
0.017735898891722307
0.0180182982448184315
0.021122581778491599
0.0216974456753500286
0.0211547173192636294
0.0211138185641694606
0.0217426042851138444
0.0231633133244548983
0.0240886668394754352
0.0221621976367675708
0.022712015203985806
0.0234280842187701392
0.0243675230456455762
0.0253586250269397552
0.0223311076050556681
0.0229331745123288015
0.0234910036844470822
0.0240355583285028242
0.024678305434704232
0.0254194010690113638
0.0262135302897125722
0.0240083119917826222
0.0243444128100856159
0.0247545669888808648
0.0252300986095835116
0.025783203025984993
0.0263994272096721369
0.0270488858504960676
0.0252269130484740166
0.025504254039543317
0.0258652132606290025
0.0262998663045790129
0.0267980567164036905
0.0273403856409250093
0.0279001535125118147
0.0222199942509582124
0.0228736631337531082
0.0236514129822557942
0.0245470961458243951
0.0255497619796303012
0.0266370373319349818
0.0277749041753962422
0.0163534985751097768
0.0146044073142319458
0.0162270161203466913
0.0147637143270927217
0.0168844594622146842
0.0154090464596562653
0.014752729982114984
0.00925111130021250005
0.013377318365130772
0.0135463194595134735
0.0138373365020115838
0.0149616262043295034
0.0142964181184372062
0.0142453939264836731
0.0140211828968395472
0.0143116543527812348
0.0136454454025302964
0.0137647499806958628
0.0166943751713078056
0.0130796772091386331
0.0128584591555738047
0.0133819047453582751
0.0129056552149375038
0.0133432495677310321
0.0125395907174454067
0.0132315579323594099
0.0133307169613098679
0.0124038973919350475
0.0132051861681521734
0.0192150543510939791
0.01454346347997219
0.0128547548368002622
0.0133462999858550129
0.011521968330245479
0.0123429943606720802
0.0120210272887740482
0.0124807726199726472
0.0137519972918208576
0.0128664783655637015
0.0129179357033784616
0.0133275158043650432
0.0129255295616881542
0.0125105501618814445
0.0132795358117989131
0.0124715342589490595
0.0130008878690950468
0.0136890287100981563
0.0133479080324373969
0.0138361655816811157
0.0128891773134151202
0.0131344304713743275
0.00798868423534705545
0.0116575836663411446
0.0120334323896122385