/*--------------------------------*- C++ -*----------------------------------*\
| =========                 |                                                 |
| \\      /  F ield         | OpenFOAM: The Open Source CFD Toolbox           |
|  \\    /   O peration     | Version:  2206                                  |
|   \\  /    A nd           | Website:  www.openfoam.com                      |
|    \\/     M anipulation  |                                                 |
\*---------------------------------------------------------------------------*/
FoamFile
{
    version     2.0;
    format      ascii;
    arch        "LSB;label=32;scalar=64";
    class       volScalarField;
    location    "0.209999999999999992";
    object      alpha.water;
}
// * * * * * * * * * * * * * * * * * * * * * * * * * * * * * * * * * * * * * //

dimensions      [0 0 0 0 0 0 0];

internalField   nonuniform List<scalar> 
7248
(
0.0173880193628762683
0.486970824974806871
0.00303818799954180341
0.122511556468576366
0.0129397691106443551
0.000156727315938536731
8.29901996777687349e-05
0.000469039558560600312
0.00304071605169747156
0.00173145780203175594
3.88067131781921147e-05
9.20725527780285192e-05
0.000154680744100066261
0.00382368728252564447
9.19389793825584642e-05
3.68755534394454173e-05
6.78249974410617045e-05
9.37009119989418073e-05
0.00245958431760081057
4.66722143343849128e-06
1.29125607099540474e-05
6.73982031013745932e-05
0.000264167138303158199
0.00037644435692900472
3.2406706156877488e-06
9.08869369254011511e-06
3.53211821981589744e-05
9.16791764375691999e-05
0.001788539515756935
1.27477135335140836e-06
3.46507858300055946e-06
1.12740263894638368e-05
4.64141767937650793e-05
0.000562695852746418609
3.86068769966900282e-07
1.24735137595812409e-06
5.21604488706631887e-06
2.13250510615005342e-05
5.59581881091582704e-05
6.16573601060693465e-08
4.2009004045072935e-07
2.40093020455464611e-06
1.05221908215352446e-05
4.23373984579890952e-05
1.91598879330418386e-08
1.49538909997613185e-07
8.53767125518296444e-07
4.18232705425653563e-06
1.70877271708159468e-05
4.43234370734833172e-09
3.62849500166264437e-08
2.50467204841020563e-07
1.49701073531412545e-06
7.80442073661586074e-06
1.47874016910835148e-12
2.46016207589918648e-11
3.48312158662704151e-10
3.96563402757046636e-09
3.71932041881655036e-08
2.91231429231844237e-07
1.88818718353297343e-06
-1.43320087260514358e-14
1.79248856089374656e-13
3.37197404519598071e-12
6.20634565204970882e-11
9.29179628218357182e-10
1.07024906383420214e-08
1.01163797523668878e-07
-5.19232319021520747e-18
-1.85906299037165755e-17
-1.34651048440446501e-14
4.30178873229859579e-15
-2.19486480831004197e-12
-4.15570388361995559e-11
-2.31327903479873428e-10
-5.14605112191572803e-23
-3.73894864492831362e-22
-4.22018240323077686e-20
-1.31082464019990778e-16
-1.02682695287658894e-14
-3.8342647653534829e-13
-1.06499769135597485e-11
0.0259864311993144373
0.516879161605795057
0.00588250511231138556
0.0350754311230783294
0.0163620997915949126
0.000154626763820279588
0.000124489397477056267
0.00120648723177488879
0.00653945180755090283
0.00206628063110807442
4.65626835567204691e-05
0.000105429672108935913
0.000180832052964889276
0.0058274951915797393
7.00673157789045222e-05
3.46332959124360056e-05
5.64060214700043785e-05
0.000105884625066637194
0.0038230344857188652
2.92394369908279227e-06
1.05347024145726169e-05
4.20289109510741066e-05
0.000186028459862756627
0.00117910347165032917
2.04266933213980032e-06
8.49131637562066352e-06
6.88410102536987558e-05
0.000281392041312858183
0.00040104165146014959
8.05029870526492765e-07
4.01294421886670385e-06
1.75666196277382051e-05
7.35618318680477626e-05
0.00265515927025009512
3.44692875976083232e-07
1.67155379258564102e-06
7.85222718232646566e-06
4.61692460897468855e-05
0.000110611431488761132
9.56802581819108637e-08
6.5618802134700221e-07
3.68382346613518602e-06
1.43675514824413273e-05
7.58174702388355779e-05
4.42897644337472411e-08
3.19514430640404563e-07
1.77506404583759771e-06
8.48212225625546081e-06
4.02010586928362528e-05
1.07822412852299566e-08
8.24593250747061339e-08
5.33884220482221596e-07
2.94778339505070633e-06
1.32782065000695199e-05
1.19019458741710515e-09
1.3288842179383018e-08
1.14310085208870384e-07
8.37632822165792919e-07
5.19641237056456578e-06
1.73487142692484051e-11
3.03605230267028479e-10
4.27583181959233763e-09
4.85973269506627098e-08
4.40809121358885665e-07
-1.89258500205876324e-15
5.23143024818223019e-14
1.42981712478728495e-12
3.05471175529193456e-11
1.20625823125449395e-09
-2.79853591789531512e-20
-5.34807722477621863e-17
-1.29886952159794961e-14
-6.95044084739302651e-13
-2.3592712153111084e-11
0.0339323201980478856
0.642309785409973077
0.00984068316534955981
0.145921379711467458
0.0129951841567555321
0.000189396821426009447
0.000289535121249315274
0.00178245476765236609
0.0091416254316833475
0.00179180493647081314
3.80974734699633612e-05
0.000138151731663378741
0.000335644574771335412
0.00630301807525877368
9.11288440162988259e-05
3.23885133816770022e-05
5.19242905799188097e-05
0.000170019120859645791
0.00478911294402013191
1.87797912090479712e-06
2.25539584803548642e-05
0.000242205630483090489
0.000237949853679912644
0.00163409133221635193
1.34505285976246077e-06
8.66999468122716119e-06
9.59333944198072306e-05
0.000639909961253423568
0.000569182738530853551
8.56835634310198586e-07
5.27968938153545183e-06
2.84544855859766974e-05
7.60900927104726928e-05
0.00267254617904545775
4.80241277308202246e-07
2.79721887916874173e-06
1.17971594533949618e-05
6.54213207334008258e-05
0.000878538462485606558
1.81269972103059755e-07
1.14712653160326003e-06
6.5903645456384376e-06
3.05604157077041461e-05
8.75369796392981049e-05
8.23825630392154089e-08
5.52731312752146935e-07
3.04125045637104433e-06
1.35554390573992544e-05
0.000111991090181337149
2.34645243437218663e-08
1.80005271492881967e-07
1.15546485868620785e-06
6.32648021237970128e-06
3.16175359068614347e-05
2.61038542558102604e-09
2.69760865075396675e-08
2.332091427893172e-07
1.69914655210801455e-06
1.03095633559135976e-05
6.15715086494513632e-11
1.06881099933167142e-09
1.49372337911647533e-08
1.66001535297543206e-07
1.43773176832604422e-06
-1.2740395072657585e-14
1.95809243797557956e-13
1.07552866552944228e-11
3.20051065741544656e-10
8.05667119653525973e-09
-4.39337037207829771e-18
-1.79700556346836912e-17
-1.5707038897433157e-14
-1.1413152353286823e-12
-5.13691212051843507e-11
0.0452526402554381674
0.656049092172406256
0.0161747119949749579
0.257215354038112243
0.0148613119567370128
0.00020908085454451143
0.00124175382019029975
0.00454338969380044255
0.0157995244400770465
0.00218318601156445961
5.18645582708271668e-05
0.000259399897073547337
0.00127689778767233072
0.00794886644868358395
8.92440000844772535e-05
3.2539874036192524e-05
5.62872155121727625e-05
0.000400664457713011113
0.00655914869985506268
1.42563236514650593e-06
3.28333173807052289e-05
0.000492499181718998873
0.000354247157790029603
0.00253576965386137498
8.33277732587806176e-07
7.80129918724835924e-06
6.34681866722187351e-05
0.000458848377536987169
0.000552790525837698089
7.4523337434339713e-07
6.00512738703443595e-06
4.94997260725955153e-05
0.000332144945465031173
0.000361225543388904414
7.74508440882447683e-07
3.84430637273995317e-06
1.60025932607293509e-05
9.43712771788392967e-05
0.00149328634711824292
2.78675982997865945e-07
1.82851806729879314e-06
8.72035122681622919e-06
6.66670836840946784e-05
0.000311218064857169481
1.14249368634260327e-07
8.17017435782437162e-07
4.50226097591230496e-06
1.73997514167700916e-05
0.000111307318805569126
3.96710716276941406e-08
3.05428353737977466e-07
1.9364722127401789e-06
9.81650548077233854e-06
5.10258408461369944e-05
6.08402903165497391e-09
5.42496356246330373e-08
4.15872427147438943e-07
2.88080424243546382e-06
1.64078476225788598e-05
1.65653450386211848e-10
2.88794590729954887e-09
4.00923016541015588e-08
4.35467233826076388e-07
3.60187350020473569e-06
-7.62423765033659338e-15
4.24604707987023921e-13
3.57135607103050443e-11
1.12365579836711314e-09
2.74381711858684983e-08
-4.07579296336318922e-17
-7.7075169594592388e-18
-3.22682081717718519e-15
-4.22907884342233775e-13
-2.69062791848174309e-11
0.0588089400005661206
0.632083913083876459
0.0211690492248059886
0.307989839042625668
0.00875809584447130585
0.000148811623881490735
0.0015750053163721522
0.00673812432366985119
0.0405869811760711102
0.00124118874775706748
5.36097928396788321e-05
0.000132792591996615912
0.00160131276045371532
0.00787748900820467099
8.31771667615800698e-05
1.8195489425897072e-05
4.6436828942732321e-05
0.000458790888219104268
0.00723461529375876711
1.60464968729378468e-06
3.24244309276403527e-05
0.000300342789470853157
0.00024819285330992749
0.0026829632880023776
7.01514882078066329e-07
1.39095832084485927e-05
7.85463414943508669e-05
0.000107087653070894035
0.000260242227322705466
2.62989484227456492e-07
3.84529736792465476e-06
5.6132115062465629e-05
0.000368774041998690594
0.000309673805198399711
5.98520677661678113e-07
3.62033268803353052e-06
1.74473529931369221e-05
0.000167470225447058938
0.000587682676881126631
4.02289171123203108e-07
2.10592035471784556e-06
1.1247111648281382e-05
6.97216590082716238e-05
0.000358699976979016217
1.39888130516966823e-07
1.1338730754569655e-06
5.99969959257202139e-06
2.28835413119461858e-05
0.000171526021193229325
5.55963059157893495e-08
4.35511927798941873e-07
2.6909582571453007e-06
1.31278875998072297e-05
8.221851800660303e-05
1.21490925760251806e-08
1.069555858334157e-07
7.95937008869070274e-07
4.9867795564630545e-06
2.69829133277601691e-05
3.54990229163713238e-10
6.21199986400008192e-09
8.58642587287518139e-08
9.12978858405276625e-07
7.22154150049666327e-06
9.29493059003302925e-15
1.03016085270191076e-12
7.19576171157961387e-11
2.28730093095374168e-09
5.62435155440312012e-08
-6.32828112351165011e-17
-5.61415648431804012e-18
-3.08370699261218186e-15
-6.25409451263593857e-13
-4.2908153403906849e-11
0.0617840100333662823
0.554510312741649747
0.0194681960350374869
0.329235317828403873
0.0122190255596174649
0.000239684692401185911
0.000816122809571413234
0.0048916986470767445
0.0594583950048575421
0.00165401090746190534
1.16203016442133955e-05
0.000151756822092207719
0.000813598367423711694
0.00573851332918338952
2.65673083364284126e-05
1.11168236977803256e-05
1.72022000440976425e-05
0.000163707562931433506
0.00660410303406533828
1.01357825212173559e-06
4.68949379544181852e-06
5.12942740615166386e-05
6.13912587148112885e-05
0.0024741924196870135
5.08697495109751556e-07
1.81159638348786846e-05
0.000138407113392725336
0.000105869153181209307
0.000154243123489233223
7.62170475963308685e-07
3.3190669198232475e-06
5.28967424989538169e-05
0.000266201343229675131
0.000184821463774820683
7.30540845465087339e-07
4.06949873045778066e-06
1.65272623309112995e-05
0.000141498271938800328
0.000361372366140157468
4.29608824629225111e-07
3.01907599958333751e-06
1.57929091691547501e-05
7.04844039056817394e-05
0.000238751064448611261
2.20275952677364986e-07
1.41851004210362628e-06
8.05100062384353461e-06
3.1665666102927579e-05
0.000184821559123278924
7.52205374832233202e-08
5.72326148109232939e-07
3.43587564526000869e-06
1.62390852559213597e-05
0.000103430672243763372
1.86251085351513507e-08
1.67401332994749423e-07
1.22056648202167385e-06
7.59361632999521868e-06
4.14033395188228019e-05
6.30657835398134379e-10
1.10863453442111097e-08
1.52176505723975952e-07
1.48557661549313157e-06
1.01443328421042248e-05
3.32437806861702237e-14
1.34112529694217326e-12
1.02262491725723318e-10
3.44793905497422135e-09
8.64846683649014859e-08
-6.74077291756931553e-17
-8.10566390865582494e-16
-2.34759712860581955e-15
-5.99609172929419136e-13
-5.59269581548989364e-11
0.0648490894678562524
0.623513073944956364
0.0222878386217239023
0.32453205348281694
0.0147626466966427217
0.000302284453180577694
0.00158310389629405307
0.00609659519590540887
0.0981525878041480671
0.00232091988743449639
4.44166903996304397e-05
0.000306235349992577859
0.00142746708846871974
0.00734325254026593939
4.06649599248205896e-06
9.29592095695537567e-06
7.03597251431095486e-05
0.00017882271257609877
0.00744970692222667649
1.83799504087975068e-06
2.77284396387619997e-05
0.000159185736398193239
0.00011769628833583449
0.00283483669655678564
1.14431476871486107e-06
1.7600992375504872e-05
7.805036688611288e-05
7.98381637291469025e-05
0.000117352739857513603
1.27643178936802754e-06
4.78383584326298123e-06
1.60571015829150454e-05
0.00010363429417659868
9.70572789909236548e-05
7.21663435391537841e-07
3.59032594322896904e-06
2.4397541783406953e-05
0.000136679035043257857
0.000141906251349693791
4.05995122335356116e-07
3.38340768986508144e-06
2.12462453058844442e-05
8.64161682644907407e-05
0.000208562887720224911
2.76311091813572291e-07
1.73313051713846133e-06
9.5907275567081288e-06
3.74405254502626538e-05
0.000210674542435905976
9.63283744484939077e-08
7.20155662835378831e-07
4.24771990585746469e-06
2.05281481123291816e-05
0.000127408776891521029
2.40596862903742342e-08
2.21987498576300989e-07
1.61675728739030504e-06
1.00976026507145813e-05
5.46475550196357605e-05
8.13942249982634147e-10
1.43551531147440487e-08
1.9649826166537004e-07
1.86927786036178893e-06
1.23912316447144173e-05
4.78588509587071036e-14
2.82887161201034297e-12
1.30343697393192931e-10
4.4192787916221246e-09
1.14044614992832757e-07
-5.43422250002708896e-20
-2.51867248364823931e-19
-2.65152044997405647e-14
-5.8118627218067377e-13
-6.19254881337741877e-11
0.0681943143184570999
0.600250249922981594
0.0279826434425581548
0.55324276942575934
0.0125464691545218443
0.00061704614163791147
0.00316662020205298695
0.00943091320964044647
0.0323903848453307788
0.00167092881460758355
0.000146091036528341137
0.00094278132575131542
0.00264533989454862227
0.0117258166014309155
0.000140081095609037901
0.000157538365944718899
0.00132340679083670911
0.000314310089214803016
0.00880827207507149657
1.86042718371160004e-06
2.70985518299474027e-05
0.000155029427675050779
9.39225468514704104e-05
0.00304537892466495187
2.29087555374305213e-06
2.0349271582850021e-05
2.89121237009192829e-05
3.9387932387546837e-05
6.98880221587710261e-05
1.76274210833293196e-06
2.43521777471413124e-06
1.51255849166808269e-05
2.25654936019689889e-05
4.14079775624660125e-05
5.83469747307981661e-07
2.83248769046052632e-06
2.50821313102038514e-05
0.000111051075893553897
0.000127909869404829811
4.08181333496768847e-07
3.17831248371173319e-06
1.73202848404163667e-05
7.47309015644586521e-05
0.000196610328110245574
2.13477826620943738e-07
1.41034503751715329e-06
7.34282002590849994e-06
2.98610866760052819e-05
0.000193087708818316856
6.7222586064113988e-08
4.94728625831438408e-07
2.95717720457507707e-06
1.47000913331382246e-05
8.88282663266787119e-05
1.73230106649593826e-08
1.52683773853345688e-07
1.11719522773897105e-06
7.0511406789604605e-06
3.66363410501558149e-05
5.2417220986751253e-10
9.29746168032856018e-09
1.28082782672544504e-07
1.29230981954285626e-06
8.88241615210070037e-06
1.93272451225593948e-14
1.14450303229766055e-12
5.6494642099090681e-11
1.99854651529413113e-09
5.3887779845223114e-08
-1.68497388235272781e-24
-1.70220525347091501e-17
-1.1881897689837459e-17
-4.12139775442176563e-14
-1.62068818566856901e-11
0.00198904813123661163
0.000685024202062961421
0.000243039934901859123
0.000134059266612611313
0.0117982052060785596
4.46965943184624384e-05
-3.05269577986135116e-05
3.60261282367123294e-05
6.0644420410767882e-05
0.00120931215935807658
-5.75535712304069018e-06
1.30090225962636412e-05
3.22557871930636249e-05
4.2905630578191378e-05
2.94247056841121348e-06
9.14578811154083088e-06
1.2347103356346853e-05
1.8475867554495191e-05
3.64614076989317728e-05
8.34611790920991644e-07
2.94260956218635038e-06
8.90152600238478114e-06
4.42966227714245423e-05
0.000128566926036596135
5.47362443288299807e-07
1.71657859652690815e-06
5.22963432447520271e-06
1.47309934223850825e-05
4.28969171607703896e-05
1.4462048941156834e-07
5.28050940658740371e-07
1.6006627587987925e-06
4.88265793573481489e-06
1.41725439264336086e-05
1.32096709672858702e-08
3.97754174851951507e-08
1.75621725710599991e-07
6.94365336132453519e-07
2.34770880402000623e-06
-1.20553985034594483e-10
1.43568373723685472e-09
7.95894586964548539e-09
4.45171809760101697e-08
1.96526577070287877e-07
-2.49309731371832655e-11
-1.03419479449799911e-10
-4.63930436821342773e-10
-1.98339434217646813e-10
4.68286067137486391e-09
-9.57540365897193602e-13
-1.08229004633487032e-11
-4.17046287060963941e-11
-1.39094517912493925e-10
-3.04847868991521208e-10
-1.00774996549635787e-13
-3.59517479173838825e-16
-1.68571056127047886e-14
-1.45260279236635412e-13
-1.07451580240261086e-12
-5.31978134641355948e-12
-1.90815184157903815e-11
-3.51398219105180314e-22
-1.87936404336374255e-18
-4.80210395408184201e-17
-6.54270400594056148e-16
-6.42033514594854746e-15
-4.77000545992006607e-14
-3.68605016429416871e-13
-1.31318417426477276e-25
-5.2449433457842644e-22
-3.72749237930312239e-20
-1.03246354927617622e-18
-8.19541113535674576e-18
-8.8523470697823976e-17
-9.26684456256672668e-16
-2.20168003399302903e-29
-7.7739550336952908e-29
-1.10633037360951377e-24
-1.21470497621090764e-23
-3.99957641680658139e-22
-1.16013331159865178e-20
-3.3400996531472262e-19
0.00178556683119608433
0.00148436871500184074
0.000329569180168767589
0.00121017410712434916
0.012444790902851147
0.00019007094940994251
8.32280138611168273e-05
0.000139838322966071948
0.000610376127497312985
0.00188281266277974231
1.39827311032633864e-05
6.90359812251432707e-05
5.89269494697607327e-05
0.000153074951768209904
0.000101246999274464335
1.15573789926821975e-05
1.64469709422302736e-05
3.14447890414552671e-05
0.0001229794916392283
2.9114030272952408e-06
8.25308207116035402e-06
2.32889286399172741e-05
0.000346196487860145894
0.000904091502461185385
1.71765923691291032e-06
4.99803901707291579e-06
1.42235819390889659e-05
3.55697810165829341e-05
0.000455537296384903056
5.78793385591445209e-07
2.01544793133293786e-06
6.07286389364280749e-06
1.7094066528885756e-05
4.60551731666655284e-05
6.09630438822835586e-08
2.10211719085221113e-07
7.9361178956162668e-07
3.21910034711519427e-06
1.00158490096783329e-05
1.55692302729368764e-09
8.45395972704253553e-09
6.12545300539967132e-08
2.54538215650177234e-07
9.78069952529509578e-07
-8.6841426156964129e-11
-1.10826477247758709e-11
-1.16520747580891023e-10
2.91556785115220948e-09
3.61362977642268331e-08
-4.47951920022277232e-12
-4.34291117381747212e-11
-1.96928369473381164e-10
-5.98808685258650959e-10
-9.12737516927701081e-10
1.20868566826276603e-13
-5.3311594690478462e-15
-1.47491617438588605e-13
-1.30281279947449088e-12
-7.65128738441211812e-12
-3.54103486027366411e-11
-1.24227740811888946e-10
4.02752116758210852e-20
-3.474091040658044e-17
-6.86360623155081101e-16
-7.30611814634080481e-15
-7.54926970718194264e-14
-5.59392238286072686e-13
-3.225145301032823e-12
-3.71120228690897685e-23
-3.13092477761105674e-20
-4.67127403304873475e-19
-8.0989944545729812e-18
-1.03644747661253056e-16
-1.2267517344246336e-15
-1.63086855611033344e-14
-5.75650982098837699e-29
-1.64363350715666496e-26
-3.18327435227601306e-24
-1.5359941750627648e-22
-5.38890616962627996e-21
-1.6913640981811725e-19
-5.23953110595854032e-18
0.00173967586287544166
0.00148125485760941295
0.000326320460427755282
0.000956002001162794754
0.0108203943488183654
0.00010671565240098817
0.00013857504520801983
0.000277616732578105715
0.000496735650662218867
0.0013898829025631792
8.40220300631376512e-05
0.000116712478597530601
0.000136604228743735374
0.000345263227361122717
3.59371546599217899e-05
3.34113879959536123e-05
7.13063054122610988e-05
0.000125097223962742949
0.000455197557838142933
7.93688697591283222e-06
3.57075431856532853e-05
9.15636611083775595e-05
0.000222441468319068184
0.000709395421796552906
5.99313656955184053e-06
1.84004388555998027e-05
4.98828311076035769e-05
0.000124526628229520617
0.00102962172544974941
1.11095246218074261e-06
3.92237817537243451e-06
1.29775260981952287e-05
4.00618801384302036e-05
0.000164602127592904579
1.40025992271780881e-07
5.84929067124619816e-07
2.35123923588475403e-06
8.91715506923114206e-06
2.85953462492020766e-05
7.1352125288430168e-09
2.18129218872530853e-08
2.10826657812691464e-07
9.33338202907186376e-07
3.58089566621067704e-06
-1.22454985580138762e-09
-4.01288254162674585e-11
4.02443092234513799e-09
3.00286809361058212e-08
1.86727322148420718e-07
-2.9553250374725089e-11
-1.40669844970581759e-10
-6.17872017335123671e-10
-1.70424320983579051e-09
-1.7781410264501586e-09
-1.17793853865927708e-15
-6.65869878878509864e-14
-8.32534787982949506e-13
-6.40171327606463442e-12
-3.52772338934671692e-11
-1.58580651133825445e-10
-5.36863787781477685e-10
-2.73201245408690965e-18
-3.19947383641913119e-16
-4.71514852194334817e-15
-6.02624976364290462e-14
-5.25975073359847087e-13
-3.4104518025982673e-12
-1.90174017125151703e-11
-4.22269554997489519e-21
-2.48058625023311965e-19
-6.47982860601529279e-18
-7.28285229629092609e-17
-1.00619288854834936e-15
-1.38051100273434683e-14
-1.57543612188868507e-13
-2.42046992816630132e-26
-2.85892966461852179e-24
-4.29561973957552581e-23
-1.72592720294367058e-21
-6.82762994245382207e-20
-2.29198253205416754e-18
-7.47554446026283659e-17
0.00155506081077143245
0.0027100186461936457
0.000294984894992474317
0.000931698920594306633
0.0130699582620739004
4.00361607765755797e-05
0.000159707191506931279
0.000270311642367131297
0.000308402588426027406
0.0014554574927392633
0.000122662704514889216
0.000145036134544801785
0.000189956775761457563
0.000386631023456718466
0.000116783899651375881
8.81443635761065196e-05
0.000122625275719359141
0.00016715475811250732
0.000515458194225259896
1.28789055214282358e-05
4.20680603385083032e-05
0.00010848555256728864
0.00045877566468290889
0.00113361635302590413
6.56515614507535533e-06
1.97837895534700998e-05
5.61467392192734069e-05
0.000156640106876436349
0.00135372376005466139
1.26157189172779222e-06
4.53774275182111496e-06
1.60401262056690189e-05
5.31452361311325104e-05
0.000261938450354586656
1.94608006386662745e-07
8.39184633637261319e-07
3.98104484844115396e-06
1.50736316744897649e-05
4.87600536192276364e-05
6.98201597920562674e-09
9.28740894309025284e-08
5.06291529684935938e-07
2.17667914540935483e-06
8.36090149218256247e-06
6.61143691979397454e-11
3.6806543299034413e-09
2.25491167728615472e-08
1.2796265101881559e-07
6.28389959216785471e-07
-3.17134382941014692e-11
-2.16007526011376492e-10
-7.36862671428572951e-10
-1.06425435690403451e-09
8.04704669548692824e-09
-1.84209663998699593e-14
-1.567425113912165e-13
-2.34099922699016402e-12
-1.62967764812188819e-11
-9.08719855892329013e-11
-3.86082557837544225e-10
-1.36687020491727185e-09
-7.59546459327506834e-17
-1.48939359368543181e-15
-2.03080724605202165e-14
-2.4912569816431912e-13
-2.05646164839841763e-12
-1.32659751462771909e-11
-7.28951732135511383e-11
-5.60755094444768465e-20
-1.30622577109643475e-18
-2.70573303948060206e-17
-4.5117741077731488e-16
-7.27679662143186385e-15
-9.81397404529731282e-14
-1.02569685310210618e-12
-4.6487653664364043e-26
-5.86228363329024525e-24
-3.54781294486418388e-22
-1.73415192470404555e-20
-7.4898839444090637e-19
-2.66834949118309787e-17
-7.65482136207406319e-16
0.00162600786001182874
0.00941392945928214153
0.000291799931967327776
0.00167504763621021606
0.0085506360528430185
4.31399498645571009e-05
0.000153578256616445133
0.000262027550743385864
0.000307755921592591788
0.00127824919451573183
0.00011535574520523668
0.000138013872886535088
0.000186842795067448941
0.000246434459226463408
0.00010346328595004833
8.1396415936596029e-05
0.000115256893364767819
0.000330708236551268569
0.00050302920362473285
1.21210811243741806e-05
3.67839804482072104e-05
9.5479944221894464e-05
0.000837215148648987311
0.00322718463214139665
5.91700489704007115e-06
1.85911638254666562e-05
5.27820775845378988e-05
0.000165285480556581169
0.000826221906915750861
1.31475810357832641e-06
4.73713576585297739e-06
1.71799762838302095e-05
5.46096378558870785e-05
0.00029838203562724641
2.45443170526706492e-07
1.11800459133678026e-06
4.68223711498072227e-06
1.727961615426532e-05
5.64773339648501945e-05
2.39327441533490197e-08
1.28549207304065828e-07
8.40220416213047172e-07
3.75235175674607104e-06
1.46641992014406029e-05
-1.45556489225845656e-09
9.10433788270542704e-09
6.10822989756894563e-08
3.23961345184248836e-07
1.4905639857447934e-06
-4.07721560488938147e-11
-2.59508869387508943e-11
8.12969922469150249e-10
9.19831251354366084e-09
6.63957927244194829e-08
-2.41484874841263701e-13
-4.3750487533269381e-13
-4.25950541316684901e-12
-2.81533940610597479e-11
-1.39601005293313767e-10
-4.90262631856153643e-10
-8.32362036625297692e-10
-2.97540750522846814e-16
-4.87175459136103857e-15
-7.120974629284125e-14
-8.49478399556956648e-13
-7.15808513656061955e-12
-4.36397009662471012e-11
-2.21964748326701164e-10
-2.52800292159381369e-19
-7.30321865362385813e-18
-1.60397505203031112e-16
-3.12683067493957271e-15
-5.01521228967776097e-14
-6.14789756162214659e-13
-5.62446201966229439e-12
-3.84965246690862107e-25
-5.30387911949398904e-23
-3.7092719831522263e-21
-1.85231404498728586e-19
-8.2433648338697257e-18
-2.85775759288741714e-16
-7.79013213824458475e-15
0.00199377192867760365
0.0169456719918953912
0.000362199849600058877
0.00317788774392799333
0.00784628713634167967
6.5550784722145751e-05
0.00017760328256476274
0.00025633183011904094
0.0022793429290482981
0.00127147893191306574
9.49460587903838655e-05
0.000140522400288383515
0.000222049223363596704
0.000420752353023385087
0.000107691990855440431
6.06925441743622361e-05
9.68312788733696365e-05
0.000517578857931629477
0.000582251339238247186
1.01317781696800015e-05
2.54128834599706054e-05
6.49419397313844108e-05
0.000650714473424986867
0.00302750919978324621
4.23441607667749924e-06
1.32158406925426614e-05
4.37530416977640764e-05
0.000163571192963676826
0.000354349661738765243
1.16069389723900999e-06
4.19197807805026733e-06
1.42271270997863717e-05
4.18484966739484119e-05
0.000155722546828896736
2.46212968526981759e-07
1.08924009743276646e-06
4.55599635811215034e-06
1.67611120940479018e-05
5.51925746699558778e-05
3.93937324975193757e-08
2.16531905177076972e-07
1.21200610412482313e-06
5.53481669839783967e-06
2.16567170557741367e-05
2.46382544753383292e-09
2.07408823936303015e-08
1.55946937417466511e-07
8.28086787283078296e-07
3.81744320067845484e-06
-1.58478914732258624e-10
8.79739972323523224e-10
8.58160957985442975e-09
5.80960174998051727e-08
3.22907992188936621e-07
-2.96965962780747935e-13
-3.26922447888922092e-12
-9.14461945349658893e-12
-2.15169229944832107e-11
1.41330394120689502e-11
1.00100513580658483e-09
1.14844063409081586e-08
-3.37011165754942603e-15
-2.4184218803584551e-14
-2.2836148045732176e-13
-2.64032397944079836e-12
-2.15230185993749565e-11
-1.09653719954365253e-10
-4.4942424112399406e-10
-2.36314218778075887e-18
-4.12552180568703196e-17
-1.02406195860729088e-15
-2.30411778511315735e-14
-3.4241501046457278e-13
-3.83010636141833861e-12
-3.26021737894318084e-11
-3.5442707130249486e-24
-5.0621277103448217e-22
-4.2333723807352231e-20
-2.28233150899753738e-18
-9.89603733964663933e-17
-3.14787068450493642e-15
-7.99178171981384306e-14
0.00358678553401538865
0.0784984070151528157
0.000594006673464264612
0.0146264988743282903
0.0130200684010706048
7.8113286282560838e-05
0.000154026639175545071
0.000271746748119646049
0.00764439445193147195
0.00139801182652428847
7.38425177895296386e-05
0.000122493474569744661
0.000177477815383060138
0.00327044858040568013
0.000100055352083971681
4.52247528874088358e-05
0.00011101686197873101
0.000491036743573624581
0.00037480693013578262
5.91317861708946555e-06
1.6091406760269922e-05
8.51827322221933314e-05
0.000468998451276963373
0.000680393378106465899
2.58727876501594681e-06
8.476867185121207e-06
2.74119511549531788e-05
9.93925368229310239e-05
0.000988546430897286037
8.19536525394671811e-07
2.9349873578055521e-06
1.01550790446561119e-05
3.48859231087646958e-05
8.79118478606493706e-05
2.06325983745964852e-07
9.02248270344322593e-07
4.03184576697018591e-06
1.50752946146367694e-05
5.70943160078631935e-05
4.71295066525912474e-08
2.59683576905142274e-07
1.36239000246431426e-06
5.99549381905584843e-06
2.32814364735251385e-05
7.26793401382875893e-09
5.1978224524526922e-08
3.38419476664107752e-07
1.77688291119363812e-06
8.19933249147627881e-06
2.50414440347394811e-10
4.93858150451323575e-09
3.83683209126498229e-08
2.42397275497385649e-07
1.31407973853740199e-06
-5.67165241584455875e-13
-6.43102822987502902e-12
-2.92200024456697516e-12
1.25238427191628643e-10
1.45038370031776479e-09
1.29119091040013961e-08
9.07225072197219441e-08
-1.18112467390389578e-14
-7.33569690000220115e-14
-5.06837962830190694e-13
-4.68613618063095717e-12
-2.47186072727180004e-11
-3.72601449186249267e-11
1.11328397704905803e-09
-9.24296892002507859e-18
-1.51750386583126524e-16
-4.76642638434310003e-15
-1.12674567314668315e-13
-1.71800808369724653e-12
-1.67977092812833895e-11
-1.39642609230243031e-10
-1.49144609708655289e-23
-4.21927484267363042e-21
-4.11037714272759792e-19
-2.44869341353822538e-17
-8.73821096519147673e-16
-2.68034229971319438e-14
-6.63925366116410341e-13
0.00675993076349083125
0.412974349980600564
0.00110615206164866513
0.211904681078289747
0.0095472208599901888
7.91325971053033126e-05
0.000118320952091572904
0.000282800279639000909
0.00108448934003244502
0.00121478640834307011
5.52382088173465136e-05
0.000101732923776116577
0.000136723654753694945
0.00142587442886671573
8.96034046479775087e-05
3.59252944069334896e-05
7.40065767568358899e-05
9.71350495523939375e-05
0.000193437069001926919
5.0728049773362616e-06
1.26654363239187881e-05
4.65740667385068158e-05
0.000247251132949407757
0.000360760710240745619
2.57547229779760809e-06
7.61811928162229215e-06
2.35054133426188395e-05
7.17356324479972833e-05
0.00204682075597073391
9.03862161108442875e-07
2.88720627039587795e-06
9.76825738310533302e-06
4.55534630071546457e-05
0.000103449282348605195
2.28702745754379912e-07
9.28813611694128717e-07
3.82230109386582719e-06
1.53557440237924539e-05
4.95365456105871819e-05
5.24483143063994863e-08
2.91723715338551284e-07