/*--------------------------------*- C++ -*----------------------------------*\
| =========                 |                                                 |
| \\      /  F ield         | OpenFOAM: The Open Source CFD Toolbox           |
|  \\    /   O peration     | Version:  2206                                  |
|   \\  /    A nd           | Website:  www.openfoam.com                      |
|    \\/     M anipulation  |                                                 |
\*---------------------------------------------------------------------------*/
FoamFile
{
    version     2.0;
    format      ascii;
    arch        "LSB;label=32;scalar=64";
    class       surfaceScalarField;
    location    "0.209999999999999992";
    object      alphaPhi0.water;
}
// * * * * * * * * * * * * * * * * * * * * * * * * * * * * * * * * * * * * * //

dimensions      [0 3 -1 0 0 0 0];

oriented        oriented;

internalField   nonuniform List<scalar> 
20536
(
8.53134666318765863e-05
2.07279919340730339e-05
-2.82721825762075938e-05
2.35666950456307276e-05
0.000249301133165729424
-0.000277628607181496466
0.000317551135223647989
0.000150337246102136236
2.93342422741841442e-05
4.33454639288651178e-06
-8.06886045059624115e-06
5.66039759702956453e-06
8.89928604036586165e-05
-8.44621306278002895e-05
0.000136375679645541934
6.95167502600200072e-05
5.77626577566672093e-06
-4.80370233604315237e-06
1.37011340014497702e-06
-9.07713412143721754e-07
1.30150840660653017e-06
-5.86736861231861525e-07
5.45453347738239727e-08
-1.16946990757684387e-08
1.06135972599602692e-06
-8.20295462200835333e-08
-2.78362598960711558e-07
2.4900182606902347e-07
5.67001340056106132e-06
5.02346106340117191e-07
-1.92264114574227751e-06
1.16194910753888044e-06
5.27049520303390936e-05
-3.97204218988047098e-05
3.83222452055249419e-05
4.30533543434247356e-05
6.11567099075989524e-07
-2.2492230486073995e-07
1.97440826141383912e-07
-1.25284452932470934e-07
6.25922499108069699e-08
-6.96114880384522622e-08
-1.33456596464609167e-08
8.92665558421029888e-09
7.35648228987600716e-08
-4.86552369689358416e-08
-2.89755276205439131e-08
1.95603243272400571e-08
1.0095909269130841e-06
1.51211220215448085e-08
-4.80291982377623816e-07
1.57529878012195781e-07
2.17590239870910199e-05
-1.60778005327277625e-05
1.5437565909341152e-05
3.18811743974639199e-05
-9.59269444621761538e-09
-2.12391460463572424e-08
4.9554905446319291e-09
-5.9475380069009045e-09
-1.37412867947387202e-08
-3.93392078383255169e-08
-5.96128816821042299e-09
4.20201907653411651e-09
3.59572047521150906e-10
-3.55658178024343533e-08
-2.75681621531400673e-08
2.25728458351193957e-08
2.44942839802924444e-07
-1.83288475309657123e-08
-2.30496956799270376e-07
7.22186956491330414e-08
5.4559848225188019e-06
-6.26055735718545282e-06
5.46310499141396983e-06
1.84403738097184761e-05
-1.18063190870292744e-08
-1.0398798862056335e-08
6.22215637623464671e-10
-9.42206240493946971e-10
-1.69590967110273657e-08
-2.46474055612595809e-08
-4.2757485026684288e-10
-2.25223742089294897e-10
-7.42930862303829262e-09
-4.26635445296144286e-08
-2.00778863332066376e-08
1.78104992140317747e-08
2.680574511186469e-08
-6.01904596276406629e-08
-1.61930785675398565e-07
1.45669231198559263e-07
8.936650216233429e-08
-2.70027079032549859e-06
1.64827568262054761e-06
7.42783299847317114e-06
-4.53845195006568474e-09
-3.38891261043728229e-09
9.12545094526048655e-10
-1.20896911860016227e-09
-1.12787073974961415e-08
-1.01370481705012328e-08
4.06459261570851172e-09
-4.27886336838137853e-09
-1.06603190739624735e-08
-2.67814854922096305e-08
2.20778931314803549e-09
-3.79007128724650277e-09
7.11220844991184855e-08
-6.70073219708107309e-08
-6.23286067745597514e-08
4.56383234332566794e-08
-2.73611718197455303e-07
-5.70958094068397427e-07
7.60832907380158579e-07
8.12876064412654838e-07
-1.21184965940500572e-09
-1.11174667102062121e-09
4.06296370037913817e-10
-4.5540511840053054e-10
-4.7351757265341248e-09
-3.55803243486670662e-09
2.05885188887455845e-09
-2.09941076041842225e-09
-1.20608766542290593e-08
-1.12705070237542355e-08
6.29663227082321591e-09
-6.32477878732788768e-09
-1.41163966714763487e-08
-3.28179404097664659e-08
-4.95448035982079089e-10
-7.79432840612269061e-09
-8.79006393685445662e-08
-4.79192562714786773e-07
7.88338222279281942e-08
8.46038210169610608e-09
-4.31021261104514787e-10
-3.00411784269339309e-10
1.13701899930499112e-10
-1.11718321276981037e-10
-1.46761073006920897e-09
-1.26327718328539829e-09
6.54662937639583003e-10
-6.32364036606073792e-10
-4.46100026312679082e-09
-5.02515984678519067e-09
2.92411993158057581e-09
-2.84687792183754061e-09
-8.59226402949256877e-09
-1.83019292398652265e-08
9.89221175209771912e-09
-9.72707698471019147e-09
-6.34188101255787416e-08
1.42647013157109191e-08
-1.2877569349712762e-08
1.22129392058274663e-08
-1.54019599629833732e-10
-8.7330389807670248e-11
3.30567517799557133e-11
-3.27901469677545334e-11
-5.89606615042338526e-10
-4.43417794244939409e-10
2.28914160331577066e-10
-2.0733451735085066e-10
-2.10590574707158884e-09
-2.06771272977868664e-09
1.31595266858439939e-09
-1.1744870119345985e-09
-6.85125963228995769e-09
-8.68799279071836926e-09
5.95428662098283445e-09
-5.57775557953659247e-09
-3.18052166540565827e-08
1.78370084241256347e-08
-1.91188927463237004e-08
-2.32626513772924489e-08
-5.00130906811365154e-11
-2.20108243962549311e-11
1.03715031051924491e-11
-7.99137352350824128e-12
-2.43793457635167763e-10
-1.3951804789839085e-10
8.0351593077601388e-11
-5.91841642370983551e-11
-1.10529742038057131e-09
-7.76508179178247655e-10
5.15291133952600619e-10
-3.79964359459178441e-10
-4.45567680727867724e-09
-3.81113011413597764e-09
2.77131609030732619e-09
-2.10857291195165679e-09
-1.64087313032623013e-08
1.17879902708801931e-08
-9.38386624437849651e-09
-1.37663988730622103e-08
-1.77374349984898727e-11
-3.42510528812527406e-12
2.28590298799744482e-12
-1.2526359251407583e-12
-1.17524530474931193e-10
-2.83824855201692806e-11
2.05529347477729088e-11
-1.1411411259053464e-11
-6.74990977280854341e-10
-1.93392227741262025e-10
1.55208444053336017e-10
-8.69166487918230867e-11
-3.43507756874505433e-09
-1.12160650818852593e-09
9.82325275445974429e-10
-5.59674535468593505e-10
-5.58094623346079733e-09
4.98244296644092369e-09
-2.94003987230725421e-09
-1.59480402202145947e-08
-2.69933696649311375e-14
-8.12940286846307452e-16
-4.77501003065376794e-16
-3.56369384649076e-13
-1.63118503728617208e-14
-7.57972894969792228e-15
-3.92228546865159848e-12
-2.85879992915999172e-13
2.49279772601096954e-13
-1.104591891583218e-13
-3.24394159632950547e-11
-3.21214638317037323e-12
2.88671342586360875e-12
-1.2436748557506958e-12
-2.26442430923369636e-10
-2.74060309637501169e-11
2.61272031684428325e-11
-1.11938865365538206e-11
-1.38185699128420044e-09
-1.89396301016538433e-10
1.85072069478891704e-10
-8.02447809803618658e-11
-1.07571014961885363e-09
9.33407244696830878e-10
-4.34508154340746185e-10
-7.31105201520182698e-09
-1.19446759099049089e-15
-3.72336457412997817e-18
-9.92267842389955074e-18
-2.34943797424867892e-14
-1.32375991406872362e-16
-1.96156672085918799e-16
-3.36308972607681912e-13
-4.00406905959456156e-15
1.00852246724380829e-14
-2.99891343982607059e-15
-3.70815435005973653e-12
-7.92997704195198053e-14
1.50715463068400302e-13
-4.23478480442064083e-14
-3.21291101361373721e-11
-1.07399330120987204e-12
1.63588477966488044e-12
-4.71812919090984967e-13
-2.27291332224761352e-10
-1.07921398726990655e-11
1.23479308469305177e-11
-3.81607443567621422e-12
-8.05538655757492659e-11
4.33444819979812575e-11
-1.79515898709812635e-11
-1.31483996550205699e-09
-6.61542263218189849e-18
-4.08234814356690165e-23
-2.28831440402259968e-20
-1.59572753773855198e-16
-3.81082779597552094e-21
-5.88246338801423284e-19
-4.44839081697979272e-15
-2.5953349654806848e-19
5.53626088258684202e-17
-1.21857607215294019e-17
-8.75813140829825577e-14
-1.41788700423505864e-17
1.06279511980930818e-15
-2.11481593363966006e-16
-1.19950412458005907e-12
-5.96708131919096366e-16
1.59999638880726864e-14
-3.09911849736472025e-15
-1.22674025145493119e-11
-1.94763003969940925e-14
1.46321925862144217e-13
-3.18826847687337015e-14
-4.74786528487555983e-13
-4.94327489140562534e-13
-6.6796768688690115e-14
-9.25647815323737026e-11
-5.47974487460075135e-23
-4.08869774158155057e-26
-4.6404857383525052e-21
-2.72830183919529648e-24
-3.07841366980606761e-19
8.4068718486206718e-22
-1.59988838475305526e-22
-1.58954133475172097e-17
4.53751537857907977e-20
-7.89775024755994435e-21
-6.49323803892667638e-16
1.68207090471517759e-18
-2.88809315758555007e-19
-2.08402198473235867e-14
3.36370571060451345e-17
-6.25266888180659025e-18
-1.42637098986835525e-15
1.44709732751427165e-16
-5.01679985628071323e-13
9.307918232960471e-05
3.1859924267875703e-05
-3.04548460473098235e-05
0.00014849631402888045
-0.000242251105899859054
0.000150325861213119382
2.99278691312514656e-05
1.32085610446564554e-05
-7.49274373448395386e-06
0.000101408713677832857
-7.17566848823050118e-05
4.965295437846532e-05
5.6182642643340766e-06
-5.60807179779541117e-06
1.43195234179756689e-06
1.26786445646367578e-06
-5.1118443065269768e-07
4.70202143374168605e-08
1.76437167367667074e-06
-2.53172498970927112e-08
-1.72302607803154214e-07
1.14607068085181558e-05
2.98809303232070145e-06
-1.49753728446698048e-06
6.44337533885238191e-05
-3.77396421875507012e-05
4.51434388012777007e-05
5.19919890511739228e-07
-1.55301745922994119e-07
2.67930261212621137e-07
6.71547353729328833e-08
-6.25519567335248834e-08
-2.03414090385980519e-08
1.13863048244933732e-07
-2.97556299456834561e-08
-4.16017916643526836e-08
2.91041022799482924e-06
3.22755053211854177e-07
-3.987667649254389e-07
2.76084815946316197e-05
-1.44393337287886736e-05
3.59893788222585595e-05
-5.11840380213695948e-09
-1.66001194771619269e-08
4.42000768270456578e-09
-5.50510540413950875e-09
-3.82573806016495655e-08
-6.99011196658383408e-09
5.26976359151060132e-08
-3.41172984383319958e-08
-5.1421370994351412e-08
6.23651066488928916e-07
1.56354895792238547e-08
-4.50878097053820371e-07
8.11657675896573795e-06
-5.91496101224029704e-06
2.05400179831388325e-05
-7.90429779309565062e-09
-8.73769657366614052e-09
3.35610224503188202e-10
-1.29107641599352058e-08
-2.44074296314089936e-08
-1.83431903666334469e-09
9.48380398947442232e-09
-3.79873474608648523e-08
-2.29943031263378803e-08
2.7033232873906408e-07
-1.15484342968507395e-08
-2.25086701891694648e-07
8.25844361825879232e-07
-3.30232176647250981e-06
9.60997166049992266e-06
-3.85271858634269913e-09
-3.29496131318559973e-09
5.48251667459834672e-10
-5.6013349122793217e-09
-1.3145675588828982e-08
3.07711548850734782e-09
1.14349813474086509e-09
-3.72386207267388416e-08
-6.17822704864695789e-10
7.91248638291262156e-08
-5.94172735025980169e-08
-1.28376697092632686e-07
-1.0956381447345759e-07
-1.03726754168922446e-06
2.78640055640070336e-06
-1.49281032575807178e-09
-9.62673855455932497e-10
3.31102821788626725e-10
-7.17848741315637846e-09
-4.11843077614881124e-09
2.47056587108020326e-09
-2.10207270276541988e-08
-1.42235394301211609e-08
9.19456976644784619e-09
2.2972573463558887e-08
-4.07061857704730042e-08
4.02146682224755526e-09
-1.3271108340540589e-07
-6.9246250352404676e-07
-6.27899682221568747e-08
-3.70842722706082964e-10
-3.25975865216094866e-10
9.66123134763537472e-11
-1.60850306830259292e-09
-1.65617725432512137e-09
7.28938463912731525e-10
-4.95906780247402364e-09
-7.04799469962171338e-09
3.68815349241144403e-09
-4.40579244516552709e-09
-2.58805512761930533e-08
1.34825051075465028e-08
-7.86996241770554252e-08
9.67236342233238982e-09
1.17478616948546298e-08
-1.41867122582108326e-10
-1.15933715673759366e-10
3.66375503027631194e-11
-6.54675007331135419e-10
-6.58190984744421997e-10
2.82308150900664091e-10
-2.45213313224342464e-09
-3.13587938808778311e-09
1.72142728010931668e-09
-7.95235529619314585e-09
-1.28083092256197049e-08
8.36165607900069527e-09
-4.15230429982591532e-08
2.86540192107106018e-08
2.6717079435181774e-08
-5.18856874310038018e-11
-3.77542621497675416e-11
1.35440505139063372e-11
-2.55695868923617334e-10
-2.47256846382386659e-10
1.0950037705965995e-10
-1.11319277216317397e-09
-1.37626863660101269e-09
7.18002880980925685e-10
-4.08921039555242553e-09
-6.59432227606704224e-09
3.85801175262549126e-09
-2.6484811903908233e-08
1.62543921739133841e-08
-1.32777412920137301e-08
-2.33948700531160973e-11
-8.0581016110007738e-12
3.61399317636152783e-12
-1.4619549955700426e-10
-6.55387531879430976e-11
3.26815193229863979e-11
-7.89481467728237143e-10
-4.44179457722282376e-10
2.43060972956867751e-10
-3.69950948307733805e-09
-2.56525398996995576e-09
1.49000287996768643e-09
-1.24462302413697856e-08
7.10844287826012393e-09
-1.33370366139353801e-08
-7.73458486831425124e-12
-8.42722019833982652e-13
5.46758445425273582e-13
-6.5601573504063349e-11
-9.1927139246510394e-12
6.08259784358158284e-12
-4.65722018182678428e-10
-7.8567698209239571e-11
5.32846979565944666e-11
-2.823153199064543e-09
-5.49237866950455447e-10
3.67922125966665869e-10
-3.15966249253182444e-09
1.85466880934449353e-09
-1.47061471847377088e-08
-9.14263000433886018e-13
-1.79300470683795488e-14
2.84991072325136294e-14
-1.0276365046414753e-11
-3.34612400328600222e-13
4.10447484563050147e-13
-8.95272888511544247e-11
-4.37666224256522405e-12
4.32318105154465838e-12
-6.39528717890814289e-10
-4.22332639412507923e-11
2.96741279085626192e-11
-3.05035974279138124e-10
4.71026734604884899e-11
-3.74863065684249832e-09
-1.96684789017589885e-14
-1.28342352297540412e-18
2.07567899099560461e-16
-3.6747567107488955e-13
-7.42853160575395839e-17
4.21119314751412093e-15
-4.87553217951622073e-12
-3.18006017250514635e-15
6.16034968603350346e-14
-4.80814168476433486e-11
-1.02682554943296803e-13
4.77414265760707523e-13
-2.37431218703940525e-12
-5.12837564355034061e-12
-3.49625362417549513e-10
-1.59574006779517808e-18
3.8408664303488966e-21
-8.54986072834959296e-17
2.13175039983067374e-19
-3.53504635501477299e-15
7.86977841376846198e-18
-1.1194371609990931e-13
1.50237580250407667e-16
-5.89499601568611145e-15
-2.54567380203421945e-12
0.000102197469904717796
4.41969932403408534e-05
-2.89579739534530951e-05
0.000246059745577480583
-0.00021609066386066498
0.000178914677796850399
3.92457827764617403e-05
1.74609868223973559e-05
-7.01908680617124132e-06
0.000112494418795981086
-7.16032137523158813e-05
6.42277155627429906e-05
6.02126628635301384e-06
-4.77578802754816071e-06
1.08215378389463572e-06
1.5298088863976557e-06
-6.01894405580516614e-07
9.64742013168042937e-08
2.14373852585829616e-06
-1.50544945439839104e-08
1.65291802497474062e-07
1.48158700728593816e-05
4.29078459356056638e-06
-7.42405954265506371e-07
7.21781733117716985e-05
-3.29512303691818775e-05
4.87336681881027307e-05
6.39486550148669737e-07
-2.21855210276087416e-07
1.6302551386800686e-07
1.13785724068491986e-07
-5.29817140859018255e-08
-3.1846623321974974e-08
2.91696446641520225e-07
1.0509611419333719e-09
-1.45799949975295145e-07
4.2748483691592055e-06
7.87799139525379121e-07
-4.72574874613091977e-07
3.18214104937290275e-05
-1.27864651218975308e-05
4.07817234611559267e-05
-1.43589670619081301e-09
-1.38384293717905628e-08
8.34267987380349911e-10
2.58507596842970924e-09
-3.37043565975043628e-08
-1.48827366204791908e-08
1.95080494322662632e-07
-2.92407285293749683e-08
-1.83001967434097555e-07
1.30178667390901142e-06
1.20736867027012673e-07
-8.17606458454344386e-07
1.08373058713626684e-05
-6.20990553977295008e-06
2.35698310707804624e-05
-6.03208103149488283e-09
-6.85391870965271658e-09
-1.24374710562366337e-10
-2.63663483878099431e-08
-1.85878192371289673e-08
-3.98610994644777335e-09
2.94002263096374222e-09
-3.31001620861711141e-08
-1.48458681474843759e-07
5.19770647674103673e-07
3.10814015415131041e-08
-4.58772582122094102e-07
2.62646218832595164e-06
-4.36496008803982726e-06
1.19876080401851103e-05
-2.48019006873164012e-09
-2.85317753742169878e-09
1.88411887316516353e-10
-2.27365036145682827e-09
-1.25238827333505384e-08
1.67100280088332465e-09
-1.70222883946460944e-08
-3.17028559578328303e-08
-3.05563763192262086e-09
6.86407776625623772e-08
-1.75314732092742153e-08
-2.59792804899965392e-07
1.81944771206064053e-07
-1.98805813057518071e-06
4.12612112493705577e-06
-8.5921076055649077e-10
-1.0264485481791096e-09
2.35775501915259366e-10
-4.44319423256166241e-09
-4.93496138862156666e-09
2.06706727292486103e-09
-4.81837249564881672e-09
-1.66884584835242058e-08
1.00699462899272013e-08
8.83287245525701498e-08
-3.72908532191615519e-08
1.3159202724272236e-08
-1.19337813370573781e-07
-3.27615316701217675e-07
4.94263782821047341e-07
-2.96094275028640277e-10
-4.05047962160140783e-10
1.0964982033627534e-10
-1.21104773668247359e-09
-2.13199171892801488e-09
8.78721088173754301e-10
-2.22584990920448834e-09
-8.82786284566867038e-09
4.72805911881397987e-09
2.46411595710671644e-08
-2.65404645583459246e-08
2.07540198488574078e-08
-7.0969725213149225e-08
-7.60075659784369718e-09
2.15874941210544799e-08
-1.13543956066563184e-10
-1.66160882968225586e-10
3.92608779097537339e-11
-5.03361244860337658e-10
-9.65179257457622112e-10
3.2568292251045463e-10
-1.13084323907250405e-09
-4.5827611227728178e-09
2.06252566206767444e-09
2.68741492224648805e-09
-1.78283197049162026e-08
1.03281177616884246e-08
-5.39152885003724474e-08
3.94234867535566257e-08
6.34827350587842503e-08
-5.08965678178680862e-11
-6.09601368253886579e-11
1.58433339197576637e-11
-2.44800330850452816e-10
-4.04863027796363954e-10
1.3175462035865356e-10
-9.33521599794352138e-10
-2.24251373194032233e-09
8.9933304540290536e-10
-2.03712991194175953e-09
-1.02474205247476581e-08
5.00213832495008021e-09
-3.57870365853248265e-08
2.33965299736785406e-08
1.24344687092377475e-08
-2.98544202731600196e-11
-1.57006625039354145e-11
4.81992669085212212e-12
-1.77040518942969037e-10
-1.27515271903861554e-10
4.384821672900884e-11
-8.83683165071878199e-10
-8.62565828887766005e-10
3.27227255535306201e-10
-3.5801480479706932e-09
-4.84463511895248216e-09
2.04063247749265726e-09
-2.16368303439255712e-08
9.65887826616956356e-09
-1.08832263544447267e-08
-1.25979514202793946e-11
-1.95486970031046613e-12
8.66819623771905303e-13
-1.02595840777863008e-10
-2.1061990602224035e-11
9.29307358363595679e-12
-7.07971132920387886e-10
-1.81747128888086789e-10
7.81552016917971574e-11
-4.16350875599814537e-09
-1.28102148697818474e-09
5.33314289826598309e-10
-7.27886075523732844e-09
2.77186765807841827e-09
-2.02274725963408589e-08
-2.0556408233259702e-12
-5.96768177193798951e-14
5.91918497870844029e-14
-2.2624335688134282e-11
-1.04513092725161848e-12
8.31287747327654089e-13
-1.99343345071366551e-10
-1.32052687615144361e-11
8.38356962137743943e-12
-1.44486471803161191e-09
-1.24617880938501102e-10
5.22853808945181259e-11
-9.02161933735726969e-10
4.74378007021771911e-11
-8.52621097504716126e-09
-6.41456847954976906e-14
-6.02144296516624896e-18
5.99822172693254016e-16
-1.13801163178907886e-12
-3.53409580306970957e-16
1.23003384034032084e-14
-1.46278323787193001e-11
-1.51640727388834721e-14
1.68982540514853945e-13
-1.40848321841961442e-10
-4.79574924374984935e-13
1.02686734408969005e-12
-1.07274741663032538e-11
-2.11496566546585874e-11
-1.02480115636866431e-09
-7.63600958225981214e-18
1.59784640479700595e-20
-4.09728929101806572e-16
8.817288709743169e-19
-1.69420641805605699e-14
3.23035706904808665e-17
-5.28269857045425488e-13
6.56408481661055132e-16
-3.46957929862543698e-16
-1.16018173724353867e-11
0.000119487820641309969
5.79314664727944241e-05
-2.80040991255355571e-05
0.00033291907439793588
-0.000182103809029253937
0.000202393405580894131
5.58089623776924213e-05
2.18443797312130329e-05
-8.09997087774848964e-06
0.000110223384158074524
-8.40337076436070826e-05
8.88128742308890047e-05
5.01173673657128569e-06
-5.74883801221648145e-06
1.15393265587393901e-06
1.35706936432830228e-06
-4.54890212078786446e-07
1.05514343137590101e-07
3.55689956540097756e-06
5.26188837758724143e-07
-9.24893072105778737e-08
1.97163452262041798e-05
7.56327927607504867e-06
-1.67738113188506354e-06
7.68838862935919323e-05
-3.01247088079178416e-05
4.94082754706182318e-05
4.84139410815175161e-07
-2.08890235562859288e-07
2.48013709812975251e-07
8.80260730532300488e-08
-5.67539213832539581e-08
-2.36133288053282508e-08
7.60067153387460821e-07
2.24181407268613532e-07
-2.82242114442825659e-07
7.13204651974769837e-06
2.26472156055558031e-06
-9.85577478250759841e-07
3.93552947273932122e-05
-1.43089352364293354e-05
4.44656884171079755e-05
-3.19955947550961636e-09
-1.16155314155549006e-08
-1.07213050003636767e-09
-7.26729086277700635e-09
-3.41158164253633563e-08
-1.62706994222150246e-08
2.91112406640101908e-07
2.24456188585235698e-08
-2.57547538695432356e-07
2.24404242366640007e-06
4.88557250473678511e-07
-8.71149820228524616e-07
1.61564484812104708e-05
-7.65797964365848611e-06
2.7895401147878827e-05
-6.72745585331902764e-09
-4.41496258091396193e-09
-3.62786301694376609e-10
-2.50383881698885117e-08
-1.53211494861500733e-08
-4.46010770425214625e-09
7.73690380397156428e-08
-3.81596506965093028e-08
-1.84756559586322671e-07
5.27317232078706782e-07
8.56279077467289709e-08
-4.19698306257255105e-07
4.72744488168473922e-06
-5.41751354632839131e-06
1.49655795255301203e-05
-1.55829152612571782e-09
-1.97841276101901485e-09
5.81902394966973788e-11
-1.40752695812367365e-09
-9.64468447760774438e-09
1.04417406267701931e-09
5.54323252992535811e-09
-2.55427353209615864e-08
-2.34948614170800977e-09
3.32793110957723858e-07
5.71783225848430778e-09
-1.5941079883893553e-07
4.72518713171214941e-07
-2.53980952225268501e-06
5.85957639898995358e-06
-8.9216476612007811e-11
-1.02877278222538833e-09
1.22296947789502622e-10
1.74751478326938307e-10
-5.11077856053539079e-09
1.1890198821404938e-09
-1.20028729578754874e-08
-1.60330234128667609e-08
7.42960969263981873e-09
1.05269603082828534e-08
-3.65424614073406609e-08
2.08058441233695259e-08
3.56215638637212393e-08
-2.4478265550433077e-07
1.25260204843752714e-06
-1.69089528675633751e-11
-4.56716909262208493e-10
1.086904305282328e-10
8.59631904406111168e-11
-2.50475724317967861e-09
8.19795153232404603e-10
4.59074891093108401e-09
-9.46162391083568536e-09
4.79285743778941989e-09
3.29607560970369297e-08
-2.98107492987182035e-08
3.00838678137975124e-08
-4.80262010262643052e-08
2.08882371431555074e-08
1.31818968215852675e-07
-5.29159486072187702e-11
-2.02778943221765429e-10
3.62340188824180859e-11
2.14763115118909603e-11
-1.20987345126845473e-09
3.29499702207071789e-10
2.37574927574706069e-09
-5.42476421150847937e-09
2.21179212100475375e-09
-5.28240128535627384e-09
-1.94952492320364473e-08
1.42902410203141711e-08
-5.71812570017185175e-08
5.87419287772252772e-08
1.37762127584857576e-08
-3.81071183925730833e-11
-8.57648158422708333e-11
1.4748273909163264e-11
-1.14424621279454029e-10
-5.77473384053526456e-10
1.28869170704347228e-10
1.93317507000913983e-10
-3.13673359633256871e-09
9.40514497473896784e-10
5.42184638976720955e-09
-1.34363697959548361e-08
5.33612312341988789e-09
-3.97317435010572268e-08
3.11869125491245164e-08
2.35559149325710476e-08
-3.20171540971879913e-11
-2.61589453393250761e-11
5.28082790309011718e-12
-1.77860447840291994e-10
-2.11746750284393991e-10
4.78738605561253751e-11
-7.55042519277348513e-10
-1.40969261322107022e-09
3.66229772409902615e-10
-1.65953792097322026e-09
-7.53829269033540046e-09
2.48150594608577265e-09
-2.94126122692588654e-08
1.3383501256468956e-08
1.99390754484274792e-09
-1.74074427042766966e-11
-3.71794863848538047e-12
1.13090110265330135e-12
-1.33609044505636905e-10
-3.95562536078119576e-11
1.17363393047241218e-11
-8.55100066369658122e-10
-3.38423639452608358e-10
9.44708214458707713e-11
-4.62992173244783767e-09
-2.34725573137992568e-09
6.64262840698431992e-10
-1.24275432085627442e-08
4.1447443279962823e-09
-1.92460190707874121e-08
-3.76612427404250911e-12
-1.49956909226607067e-13
9.24657498393690543e-14
-4.07080661152009551e-11
-2.51388223660595939e-12
1.28785493028283142e-12
-3.5611093029739028e-10
-3.0667140193055941e-11
1.25835937560507456e-11
-2.56278301742671093e-09
-2.84275292820311003e-10
7.49310133444290405e-11
-2.006912578426762e-09
1.97531171886901941e-10
-1.46034573059830589e-08
-1.59470180693077787e-13
-1.92703070455528618e-17
1.28696469924998009e-15
-2.7212415668780807e-12
-1.15316285554286554e-15
2.6469220988193505e-14
-3.37535600750787638e-11
-4.86969621452514009e-14
3.43006462813730307e-13
-3.18634730748425411e-10
-1.49677734509329435e-12
1.33691053381653577e-12
-3.2057172874723128e-11
-5.47325816767240185e-11
-2.26102601779770529e-09
-2.53204844364062393e-17
4.53119062998551949e-20
-1.32853360957582284e-15
2.46480483492522728e-18
-5.46114576729241036e-14
9.0425336887828467e-17
-1.65557301088677435e-12
2.18736838316555502e-15
2.58811378925957006e-14
-3.46955964411471282e-11
0.000128211945401289327
7.06732344959576104e-05
-2.22272410721662263e-05
0.000439433589972742676
-0.000133161421599026762
0.000202743451661807584
6.84018420687711686e-05
2.46771438483285813e-05
-6.89416739427883656e-06
0.000153300843346575909
-7.18822765698813907e-05
0.000105628041471453034
3.61118699745788652e-06
-2.97045053082570729e-06
1.14860681968380521e-06
1.11737757149402873e-06
-2.00838427953585459e-07
2.07937034955126053e-08
4.64661174143654113e-06
1.0704106527869449e-06
-5.44960566923262173e-07
1.91557978708533592e-05
1.07159446942817552e-05
-1.85706325981953593e-06
9.36554570231396124e-05
-1.89794024078309875e-05
4.89129959447361348e-05
1.70314915393975335e-07
-1.87189496926055029e-07
1.81851890360457389e-07
5.17991604671539741e-08
-4.81520326976110053e-08
-3.27989375301296101e-08
1.00814937184735226e-06
4.26318897058376178e-07
-2.24458750776142329e-07
8.93115965965001607e-06
3.222566904977305e-06
-9.62003137665256403e-07
5.38901828375685995e-05
-1.28519035461291578e-05
4.67646346978407474e-05
-4.91109129523653842e-09
-1.20626936354943996e-08
6.69955542873642504e-09
-2.25170360054566233e-08
-3.26828137259978076e-08
-4.234462869699865e-09
2.22308904445726556e-07
2.69083948859798712e-08
-7.56421500526950295e-08
2.57026781307497153e-06
6.32552311059951617e-07
-5.50665615895644349e-07
2.39021619726901965e-05
-7.01579773704358108e-06
3.26139016327753998e-05
-7.27117087061343277e-09
-3.89726827419151284e-09
1.35827900843636324e-10
-1.0775845055558228e-08
-1.37863762218068096e-08
-6.18264109949112573e-10
9.1630757887499404e-08
-2.96464702736110746e-08
-4.69183590463309045e-08
4.62392296771607857e-07
5.96955348769248568e-08
-1.65019005463538458e-07
7.39493556307813589e-06
-5.11654942641294507e-06
1.82727657951163157e-05
-1.3483110909756535e-09
-1.44484311509885001e-09
1.07269017385069302e-10
-4.65487829507693474e-09
-7.72909930256415019e-09
9.77082393049406496e-10
3.13627719622171171e-09
-3.40481721079287033e-08
-1.85078094756428685e-09
2.72705828922590793e-07
-1.04407642922050866e-08
-6.79995032448226813e-08
9.65400468174174226e-07
-2.20526791002065928e-06
6.77094655426048883e-06
-7.74632529188691889e-11
-7.97881129698333753e-10
6.25595553323451661e-11
7.88464526743105069e-10
-4.2962154099349835e-09
7.47140121656205614e-10
-3.0049056151130902e-09
-1.58995682023146745e-08
8.42410779498999647e-09
9.24930218018763799e-08
-5.0449309914606099e-08
1.84336812343598939e-08
2.24191716582142374e-08
-1.60789835273349691e-07
9.80930744058349488e-07
1.65990957197426444e-10
-4.73735060613974372e-10
5.15270498345031688e-11
1.12244691321217649e-09
-2.54996292357454721e-09
4.91697959964231241e-10
4.21377259266937737e-09
-1.09303839565590444e-08
3.4077205301573227e-09
3.4205806522597441e-09
-3.98968080350123598e-08
2.59098223074674289e-08
-2.24269906289114744e-08
1.56870714907856991e-08
4.46676764325341319e-07
6.37572670151893113e-11
-2.31387849705783774e-10
2.67757174079589831e-11
5.64728234404825836e-10
-1.41376789410551956e-09
2.84806790535398899e-10
2.69066180425057805e-09
-6.54627587119423898e-09
2.41860051194902105e-09
1.32435818636592525e-10
-2.33572785800936485e-08
1.4681575920314177e-08
-4.96535115375467775e-08
4.84774487785125761e-08
9.24794157478976276e-08
-2.57838129180670279e-11
-1.09933033608077078e-10
1.28774662344950224e-11
6.53855227183143444e-11
-7.47839037168820744e-10
1.21563798290787072e-10
1.50905254329449558e-09
-4.0484973037193256e-09
9.92074301113457476e-10
9.35391478652539811e-09
-1.64677245226586529e-08
6.39315664921211217e-09
-4.2389602877153548e-08
3.46516586401669891e-08
2.12578439354626613e-08
-3.14661060007545148e-11
-3.85228700903131389e-11
4.7579030989908941e-12
-1.60053303058274699e-10
-3.10937103108260419e-10
4.35557643609290094e-11
-5.41915796029124051e-10
-2.02573330949580969e-09
3.44606871936934164e-10
4.95361583454885513e-10
-1.03531994099837217e-08
2.59850143614478649e-09
-3.52454167288293564e-08
1.54428892256798576e-08
9.62526780953476318e-09
-2.2189269654873441e-11
-6.02704772099427949e-12
1.2018272609852386e-12
-1.66951168737543113e-10
-6.45061136888710807e-11
1.2148494174692719e-11
-1.01275000472331094e-09
-5.50851332959414464e-10
9.44889639498568779e-11
-4.80400267999948539e-09
-3.68100182119672008e-09
7.04642334819825089e-10
-1.77351390411186628e-08
5.30492183417275189e-09
-1.4724261295142715e-08
-5.77277908941159122e-12
-3.02325211578855374e-13
1.09444164767861043e-13
-6.22408212911539129e-11
-4.95808684091608076e-12
1.49630541430859698e-12
-5.44662211588056888e-10
-5.9838797673034388e-11
1.38812751164936365e-11
-3.81977111281821936e-09
-5.42824117655086627e-10
8.35329778486806014e-11
-3.5991548595789854e-09
4.00045816057361556e-10
-2.03554632821315486e-08
-3.18483149940743872e-13
-3.37976247310883226e-17
2.04793649829680961e-15
-5.35971733145384548e-12
-2.28162537271014782e-15
4.15601772691813356e-14
-6.55379659265833676e-11
-9.87955442011337068e-14
5.14349889844010399e-13
-6.04597236588636709e-10
-3.01258850092001158e-12
9.69532842548750215e-13
-6.29449743254005551e-11
-9.95073936428023269e-11
-4.04600902244154222e-09
-5.31281490191473174e-17
5.99721727024648723e-20
-2.74781383311901094e-15
3.83748235518258814e-18
-1.13618659358288438e-13
1.49445444318251146e-16
-3.38873201200824374e-12
4.33885663329478276e-15
7.67012323553256044e-14
-6.85083372818250431e-11
0.000133511230764146971
7.67695750577808498e-05
-1.35614531178268725e-05
0.000497998765553836617
-8.69395300266051409e-05