/*--------------------------------*- C++ -*----------------------------------*\
| =========                 |                                                 |
| \\      /  F ield         | OpenFOAM: The Open Source CFD Toolbox           |
|  \\    /   O peration     | Version:  2206                                  |
|   \\  /    A nd           | Website:  www.openfoam.com                      |
|    \\/     M anipulation  |                                                 |
\*---------------------------------------------------------------------------*/
FoamFile
{
    version     2.0;
    format      ascii;
    arch        "LSB;label=32;scalar=64";
    class       volVectorField;
    location    "0.209999999999999992";
    object      faceTraction;
}
// * * * * * * * * * * * * * * * * * * * * * * * * * * * * * * * * * * * * * //

dimensions      [1 -1 -2 0 0 0 0];

internalField   uniform (0 0 0);

boundaryField
{
    inlet
    {
        type            calculated;
        value           nonuniform List<vector> 0();
    }
    outlet
    {
        type            calculated;
        value           nonuniform List<vector> 0();
    }
    top
    {
        type            calculated;
        value           uniform (0 0 0);
    }
    bottom
    {
        type            calculated;
        value           nonuniform List<vector> 0();
    }
    left
    {
        type            calculated;
        value           uniform (0 0 0);
    }
    symmetry
    {
        type            symmetryPlane;
    }
    interface
    {
        type            calculated;
        value           nonuniform List<vector> 
67
(
(0.00191393361408938659 0.00492953736106317188 -8.47544283846701774)
(-0.000180826639117314173 -6.00727838269779501e-05 -5.66181817702569923)
(-0.000167372238428065021 -3.80346511915654554e-05 -5.76457766966950214)
(-0.000162999558539422167 -4.68849575680558884e-05 -5.80405736791087978)
(-0.000144625040005196183 -2.93225818648298387e-05 -5.61402353612013272)
(-0.000139062819842699525 -3.6657371466798129e-05 -5.32670905501847347)
(-0.000132858117505347514 -3.95846660994682726e-05 -4.93772636834930445)
(-0.000129297653984236508 -1.95156377742440598e-05 -5.0640335346262928)
(-0.000121670377251220069 -1.10144914693664616e-05 -4.82728176459234781)
(-0.000112154551974768448 -1.39589573842992873e-05 -4.59475200835329467)
(-0.000101439850285135733 -1.12275385723370685e-05 -4.39608771622941497)
(2.85367592379918467 1.90865024536196347e-05 -5.08378209884520344e-05)
(2.99164474696125238 2.36374313562897351e-05 -4.61727228909547763e-05)
(3.14844374237858826 3.0695805363039743e-05 -3.96254329698267674e-05)
(2.68488051043349119 2.6654780789480785e-05 -2.7109430672717826e-05)
(2.85562615231162642 3.20084830414509367e-05 -2.44411123449537663e-05)
(3.05685747338718317 3.98272324408179801e-05 -2.11930052654911124e-05)
(2.6000567119349518 3.15066517913503027e-05 -1.89302181170120787e-05)
(2.78151673201667515 3.6637984876017168e-05 -1.69265442464196771e-05)
(2.99580103892358762 4.4916148932448671e-05 -1.5039276034608712e-05)
(2.56562414672580807 3.42898639776834804e-05 -1.15588117343937236e-05)
(2.7499556151814728 3.94405777407043934e-05 -1.04396875602014456e-05)
(2.96762627004988966 4.75867059539505856e-05 -9.38211310815176717e-06)
(2.5382283258718199 3.60872637134487242e-05 -8.06301127181821482e-06)
(2.72375774751475008 4.12922627207224324e-05 -7.32868960163109682e-06)
(2.94312070666592129 4.93665185666172199e-05 -6.6404875579217572e-06)
(2.52093707432644454 3.72065563107495443e-05 -5.17390590013201976e-06)
(2.7071247880057423 4.24612054163474642e-05 -4.7253195439737522e-06)
(2.92756094141174028 5.0431608427536887e-05 -4.31317266550373971e-06)
(2.50915379181952547 3.78851789162455959e-05 -2.97178855782965137e-06)
(2.69563272216942096 4.31733543919216872e-05 -2.72496929920719133e-06)
(2.91662973702174222 5.1102226041009674e-05 -2.49723824874143572e-06)
(2.50323429326667757 3.81939581136362993e-05 -9.7210192775498702e-07)
(2.68975774497958398 4.34940764983023832e-05 -8.9446850308714239e-07)
(2.91093170171122662 5.14119893570068282e-05 -8.2190512747919998e-07)
(0.00122257684101767473 -3.0763140113952625 -0.00242305893858331661)
(0.00204002556483636735 -6.45042438382025018 -0.00293767906294778404)
(0.00213698275323980381 -11.2236178490279439 -0.0026269574792556938)
(0.00294255477296473346 -16.9739647427243874 -0.00336092068526766367)
(0.00350497268274318607 -14.9136569854346774 -0.00175167756689235737)
(0.00300366973925062343 -13.6621036382735781 -0.0014796482487881527)
(0.00246819122930177527 -14.2939453940957026 -0.000720463792392557131)
(0.00521120037593142318 -26.745434756118474 -0.000476819980640957343)
(-0.00013584174260396659 4.75047110077989121 9.95967602860015792e-08)
(-0.000131139609703086744 4.43342852225930439 -5.40475981170046059e-07)
(-0.000127971140613349657 4.36311105979027047 3.2881655766303168e-06)
(-0.000130469508926872 4.44953898348696963 4.67161569505094073e-06)
(-0.000134069080859602495 4.55535106565144954 4.1215449990308461e-06)
(-0.000132155838624318139 4.59163205408579866 2.11644744714242354e-06)
(-0.000132440052385218016 4.60444199416842714 8.84069154761705657e-07)
(-0.000131848114834629221 4.5724059309980305 -4.08586120945611874e-08)
(-6.24166918262463355e-05 4.17448868989238164 1.45933885685668107e-05)
(-5.73387891053343921e-05 4.18869724915174579 -3.58466752374873214e-08)
(-5.6075547624998443e-05 4.19428271933452201 -1.38723129125693531e-06)
(-5.67596358667619915e-05 4.24320809696126933 -6.46349726860214394e-07)
(-5.72695496637430933e-05 4.27882517420273611 -9.30042235676372421e-07)
(-5.80464442723304649e-05 4.29371491307473363 -7.83527262704492016e-07)
(-5.91869964573826839e-05 4.29437635612072377 -8.17653406159959829e-07)
(-5.99761223083678096e-05 4.28378033278242754 -4.71889678957772363e-07)
(-7.02470106848671419e-05 3.95621319981403774 -1.95340059624754522e-06)
(-6.98101883389470288e-05 4.02668486327097774 -2.15933798171958609e-06)
(-6.88812711424584815e-05 4.046056786490416 -2.99709904168609656e-06)
(-6.97089016123866016e-05 4.06654107294726241 -2.03263917400533783e-06)
(-7.01849201367567364e-05 4.0741454195904554 -1.5937600642283394e-06)
(-7.02896270139085987e-05 4.07823783721513866 -9.84887491316350002e-07)
(-7.04071998896687061e-05 4.07722237455412095 -5.54208408257704301e-07)
(-7.03916517154651745e-05 4.07264269165205661 -2.24080057692562196e-07)
)
;
    }
    procBoundary1to0
    {
        type            processor;
        value           uniform (0 0 0);
    }
    procBoundary1to2
    {
        type            processor;
        value           uniform (0 0 0);
    }
    procBoundary1to3
    {
        type            processor;
        value           uniform (0 0 0);
    }
}


// ************************************************************************* //
