/*--------------------------------*- C++ -*----------------------------------*\
| =========                 |                                                 |
| \\      /  F ield         | OpenFOAM: The Open Source CFD Toolbox           |
|  \\    /   O peration     | Version:  2206                                  |
|   \\  /    A nd           | Website:  www.openfoam.com                      |
|    \\/     M anipulation  |                                                 |
\*---------------------------------------------------------------------------*/
FoamFile
{
    version     2.0;
    format      ascii;
    arch        "LSB;label=32;scalar=64";
    class       volScalarField;
    location    "0.209999999999999992";
    object      p;
}
// * * * * * * * * * * * * * * * * * * * * * * * * * * * * * * * * * * * * * //

dimensions      [1 -1 -2 0 0 0 0];

internalField   nonuniform List<scalar> 
7248
(
42.0276920462817358
23.6026834461786166
3.65203317852496667
4.16689575015072933
-0.583856095843984235
-1.95093135813367535
-2.15415077274887956
-2.09314609453582845
-1.22438226102374692
-3.30578514492879805
-3.40942260102711536
-3.43049828013485669
-3.44773260601838283
-3.14022715570408906
-3.92546356224935034
-4.02904743721054448
-4.02795136771011286
-4.11796593799620858
-3.96741828349639114
-4.26334076721707511
-4.33165358412226098
-4.35888054301903161
-4.39437291052472023
-4.47497923306562839
-4.58888283662286778
-4.67265608027863344
-4.71385651944387174
-4.73941796599752596
-4.90854288077782464
-4.9728907067602961
-5.0541494120007604
-5.12173639314955054
-5.19706247479830896
-5.34610745720905189
-5.36357913314029844
-5.44061979192657397
-5.53170597190134927
-5.64534421395149444
-5.80831692273430722
-5.74272840317252609
-5.81851076008082746
-5.91399851383874076
-6.03690499602773656
-6.20879536161857981
-6.10424234618650452
-6.17214038697672596
-6.26020970611421301
-6.37475956657590359
-6.53059021586549271
-6.44835818991848608
-6.50259210174271995
-6.57254903933646517
-6.66186184069021525
-6.77832669208210881
-6.72731070229302119
-6.74969220254584101
-6.77882763267977762
-6.81603812946909215
-6.86256065997351961
-6.91901034495747602
-6.98669147076835007
-7.07364698499467082
-7.08594508941704859
-7.10193181826168018
-7.12195883749584446
-7.14584907523337609
-7.1724067129204343
-7.19875883041889963
-7.41768920403704612
-7.4201734020719714
-7.42390247167248507
-7.42881798082119715
-7.43444677639226192
-7.4395229171369488
-7.44142244815836484
-7.76301826514326887
-7.75654964479608111
-7.74949728501153334
-7.74184844937424543
-7.73359235671260681
-7.72474037563738669
-7.71544949847066874
54.3446442666069842
33.5428597604482093
6.02984366243314085
6.82384558236634575
-0.1733235083132314
-1.66402225334332088
-1.87629286874546586
-1.47271911388555932
1.42858859063869659
-3.20442347165030395
-3.36804370193853098
-3.42674103065862923
-3.34810774702521652
-2.91910286542729835
-3.89511920351829
-4.03984350753516264
-4.0756852676118811
-4.17166126357413081
-4.05330799815857823
-4.26032850883793213
-4.35988249535643835
-4.38489497977606923
-4.46212587226387924
-4.53828810834077956
-4.59682684194212854
-4.68981525985826408
-4.73312364575161482
-4.74557557222353132
-4.93756591881785578
-4.98547940702194303
-5.0636029176613695
-5.12188459817522901
-5.17518450307741773
-5.27278284489261928
-5.38206876595107353
-5.45865266975597585
-5.54484194535500219
-5.65000055674486212
-5.81919059809064354
-5.76563390175959878
-5.84396986638719884
-5.94159855762142897
-6.06637473457075593
-6.23584990962614594
-6.12995590685647063
-6.20367156635254702
-6.29961980256564136
-6.42433304781341974
-6.59576675530061607
-6.47388340665112061
-6.53531551730223814
-6.61594803775062079
-6.72225477998935528
-6.86867165001006708
-6.80137480821208396
-6.84523667713085526
-6.90155485184278117
-6.97308455048962195
-7.06517028581090401
-7.1193378340988005
-7.14420591443719744
-7.17477861837044273
-7.21064399284958313
-7.2506118931571697
-7.4352030166077876
-7.44283392167852931
-7.45194761100598413
-7.46137600928927558
-7.46836658822478405
-7.75447027668841216
-7.74753698797429546
-7.74006460681169628
-7.73209894551456411
-7.72402025415083493
69.4945888672621663
50.0846345072156964
9.08584439420936718
11.1373065962638407
-0.02153593012609889
-1.43491164997929399
-1.70405479037472141
-0.993610762535429792
2.35076243548646602
-3.21223723457826082
-3.33220368553321622
-3.44549893515189076
-3.2916830115649498
-2.64715631354353675
-3.88532264556535711
-4.02506082990391878
-4.07717617100703311
-4.15219789471544587
-4.08756293580200847
-4.26086075325435143
-4.35824245366888174
-4.36904998741114881
-4.5043556060936405
-4.67109885524419166
-4.59779780057144105
-4.69710788947361646
-4.7490050248464728
-4.78370506018095476
-5.02172173762681773
-4.99541232453871586
-5.07828906628254728
-5.13650330732587346
-5.20201234605631058
-5.34151435621250137
-5.39842831853270155
-5.47564127456874239
-5.56024227437453433
-5.66115091464141695
-5.82341485201127718
-5.78641693173412897
-5.86751493384381995
-5.96892423576743436
-6.0994651782866196
-6.28039770825322829
-6.15355399500549893
-6.23261695243471348
-6.33642760078915224
-6.47208265796236137
-6.66092759324930483
-6.49767391927183358
-6.56586904391827098
-6.65674370349324285
-6.77929084264907811
-6.95500999945189236
-6.82265337867825217
-6.87295156354972825
-6.9389875859688539
-7.02640704502231817
-7.14665246526245923
-7.13597569747209715
-7.16559724540664345
-7.20302712575533644
-7.24899973643398798
-7.30444289314717832
-7.44601912910216512
-7.45639594200698141
-7.46920289315211416
-7.48351783787398794
-7.49686225146742213
-7.75919823568407274
-7.7530119934819508
-7.74642309226510495
-7.73962669213364762
-7.73342981947731722
83.6898719881137652
61.1096417969092727
11.3147856354842844
15.2499763136255524
-0.0757292739514028312
-1.47225647827325812
-1.8952445396473383
-1.07479352861188815
2.00257910716607768
-3.14662240845837982
-3.28691742806934828
-3.45436980077160838
-3.27716598502101775
-2.39485106844036721
-3.8388694803731056
-3.93138471491270636
-3.94097700350895641
-3.98650345756676394
-3.96749868778488946
-4.23938955401590345
-4.31023244057996369
-4.28652431020869784
-4.44868816138880252
-4.60227762221716752
-4.5983057051734777
-4.68343827061401186
-4.74333411593492382
-4.83200419077271448
-5.11593508111372319
-5.00513810735362341
-5.0888367987032197
-5.1594125771601993
-5.25158897732937646
-5.48429717918380977
-5.41170628467868386
-5.49206969338574069
-5.58074019653981068
-5.68947158827134913
-5.86862425836503476
-5.80457577645910661
-5.88887418567457122
-5.9958719951593995
-6.13370656547236948
-6.32864669058874885
-6.17452499497057605
-6.2583683387605511
-6.36979096322856453
-6.5173263993979722
-6.72532066774955872
-6.51889450277148441
-6.59317794728968298
-6.69368284962182614
-6.83058182352101184
-7.02716785652212028
-6.84184628319068189
-6.89808425040030393
-6.97352028516983058
-7.07660018895630927
-7.22255418720189635
-7.15105810553578003
-7.18522073482966039
-7.22932634895136328
-7.28566201652025836
-7.35824726689961484
-7.45589724213250271
-7.46893018044770862
-7.48545107544361876
-7.50492125822184875
-7.52556967447892067
-7.76349046464160164
-7.75805342556545074
-7.75241847867879486
-7.74708295789120704
-7.74347034449654892
95.6769228011389998
68.1169435175304443
13.2663614981274662
18.33511793832281
-0.543151225502487733
-1.58411793319880223
-2.04010361437859622
-1.10133932217124908
2.21626935504426115
-3.14841509716408829
-3.24963641439582052
-3.36796697042632998
-3.16056040559257578
-1.90112219841383734
-3.79117136571001589
-3.83637930638740698
-3.76644997107377222
-3.72770503150277044
-3.57943217053518126
-4.20089654489337416
-4.24817666142538197
-4.19618303144825955
-4.28599254951862907
-4.24251023552591633
-4.59049318657548788
-4.66048337995082296
-4.72611345827806861
-4.84776865594224837
-5.0237354894097308
-5.01035616262807437
-5.09110915008443943
-5.17610936783833342
-5.28153708134131428
-5.54951400262302297
-5.42258734209992088
-5.50516783217559258
-5.60110089031439173
-5.72128734929115534
-5.947932459970243
-5.819278986709854
-5.9063738930984071
-6.01896764196551803
-6.166217763359926
-6.36375654886370512
-6.19181909365277861
-6.27952526680217549
-6.39743391189802502
-6.55217557867603873
-6.76820245579547564
-6.53671122099548718
-6.61598211258522984
-6.72455294811321203
-6.872116483936896
-7.08408517686587924
-6.85811765643395965
-6.91939529589608693
-7.00272983068381993
-7.11920742622468872
-7.28582923346912903
-7.16400080622279667
-7.20217573703162639
-7.25242977963340696
-7.31863775555903473
-7.40822922509992043
-7.46440834339389792
-7.47983131215386976
-7.49979565914139545
-7.52423657362922249
-7.5521401329342277
-7.7671665088856221
-7.76243245427109674
-7.75775927325198023
-7.75403906392404618
-7.75346886018860637
103.064271092123988
71.8271957594563446
15.1765927065387345
20.8902003316146647
-0.0428385105448967352
-1.21997981600714578
-1.53034372635502391
-0.527163705394336546
2.70372537783899247
-3.05655067103220368
-3.10628503657524835
-3.1715349812891942
-2.9469818687627245
-1.78847149039696518
-3.74139439421945719
-3.75020149932700253
-3.67356332550105735
-3.58161888143784157
-3.33137848820461357
-4.16193333922773245
-4.19065310363370891
-4.13941626158420117
-4.18919110613088463
-4.00971258120549123
-4.58179702375707087
-4.64128312799324938
-4.71058385149139003
-4.82555674624147635
-4.91107028718638716
-5.01563874641976692
-5.09121607420983224
-5.18556500488616212
-5.29465280380549341
-5.56798750500890538
-5.4309540317581142
-5.51367999289439759
-5.6122527140986902
-5.73009393591754534
-5.97170280223848327
-5.83069207760345165
-5.91937750753752034
-6.03499381623400133
-6.18846192938313244
-6.39147981476356364
-6.20501886353013621
-6.29535388579284305
-6.41782652334265169
-6.57719733636783133
-6.78982631260362535
-6.55037490488589569
-6.633335234207137
-6.74754296037732981
-6.90242799398356865
-7.12293217704669068
-6.87077250320186916
-6.93590389708002153
-7.02542299361396072
-7.15155166393940522
-7.33371294865849421
-7.17419006736866294
-7.21554212172740694
-7.27089371519493177
-7.3457093103295179
-7.4494692009081005
-7.47116158639522165
-7.48852747250160533
-7.51135399479794419
-7.54000663759955891
-7.57397415067811242
-7.77007288010091646
-7.76593927468456613
-7.76212609405275611
-7.75990452639060901
-7.76208260015440743
105.886201687159087
75.8210798671498196
15.7353649859465747
21.1906803481239194
0.0127861908599129492
-1.30017287850363061
-1.55986327533408087
-0.416445032876580967
2.77999790494220633
-2.96976077146984974
-3.01215529400752002
-3.05021100116945121
-2.89205390661888995
-2.15639882931295901
-3.68619965024864538
-3.64069394650030187
-3.57173988262492736
-3.53678343196674261
-3.38053747546437222
-4.12351411948831981
-4.12363360925517508
-4.11947495442252176
-4.21198879592420905
-4.15528006314504061
-4.57322739205847828
-4.62457342058379783
-4.70152582976480637
-4.8128468182794828
-4.98083056895257492
-5.01681914004587259
-5.08980824757979988
-5.18488519296438533
-5.29002828530431746
-5.56279677982247467
-5.43583236585873486
-5.5168166266147507
-5.61184700218652921
-5.72711700366299059
-5.96773924519846499
-5.8378371040756738
-5.92608925259177699
-6.04101099560694887
-6.1967428990887079
-6.40020971600092459
-6.21333798381876434
-6.3044347798538789
-6.42785069864811476
-6.591215954173542
-6.80716486300157886
-6.55926895434092927
-6.6439936303824938
-6.76102854768796657
-6.91977131684162217
-7.14756070229028939
-6.87926228166812148
-6.94659234554053739
-7.03948230897126681
-7.16998838686747852
-7.36095522341403008
-7.18119968598232461
-7.22460595639240566
-7.28298731478263583
-7.36276197749706895
-7.4749233064697771
-7.47586355609564279
-7.49459596861496724
-7.5193966375625596
-7.55085031221477188
-7.58844908068673352
-7.77209772009409683
-7.76841722041260585
-7.76526413682986227
-7.76420635396686531
-7.76871663828886039
109.479566757517148
84.7303584084309023
17.0403126853367013
26.0216665263940286
-0.456405941006913451
-1.61894337731629312
-1.66627579353075106
-0.52758948207080536
0.642836276062908496
-3.01383053402879941
-2.98117947507679926
-2.85310024723959099
-2.46262338349495025
-0.784815949430502258
-3.6270669014021788
-3.48734720333857373
-3.30018304252310557
-3.11004144975558283
-2.77648438818307852
-4.0597656500597683
-4.02549261047987983
-3.99704019617587569
-3.95752045172097899
-3.71237198364134535
-4.54788437641654131
-4.59106903873631733
-4.66085981475960764
-4.73262158658602239
-4.84220032716529403
-5.00933904492237758
-5.08101296815191805
-5.17457524937679825
-5.27810244175969778
-5.53793829343071575
-5.43764797697492774
-5.51693735781697914
-5.60810975996599037
-5.71978593055212858
-5.94913252093569689
-5.84167869619928748
-5.92972728090863388
-6.04325278418024237
-6.19448117213938421
-6.38745573517434995
-6.21813984762612915
-6.3100610635139498
-6.43353477947355756
-6.59647136192565675
-6.81728718044884818
-6.5641870110143099
-6.65026760852449339
-6.76823706212977427
-6.9298940860451772
-7.1629641664648851
-6.88395801683073039
-6.95295739770235155
-7.04797599683223819
-7.1806856620365167
-7.37525982647318745
-7.1849457075342702
-7.22973039062752942
-7.2903385142981536
-7.37338783929425734
-7.48872188067113331
-7.47833165080179718
-7.49789051742376955
-7.52404356208728231
-7.55771917657907011
-7.59859724394982283
-7.77315607238994399
-7.76976129659914783
-7.7670652399235518
-7.76680474800920706
-7.77292547552650248
2.34659910700453089
1.34114522554534954
-0.656269499159456871
-0.411799402030303963
-0.923767260790903322
-1.99741926251173973
-2.15779674203213201
-1.9378793119010651
-1.47683634031824895
-3.14123406089105117
-3.12676625424692434
-3.13134079510851793
-2.92853685606258596
-2.47768039350216318
-3.75084111388241181
-3.79005104583022989
-3.81491529532147311
-3.7173514231349789
-3.40440121885674474
-4.09873091109542997
-4.14783652792800162
-4.19088662831909353
-4.19360184173608275
-4.08677640631408323
-4.43136807063157878
-4.47953602831360254
-4.52143833607498724
-4.54582280489738633
-4.53936644332477535
-4.80247265967176595
-4.83827861250652802
-4.87820117430115552
-4.91327752987438693
-4.92748569057464714
-5.18004919317875956
-5.20771037218045585
-5.23799659435180942
-5.26835455406249231
-5.28836617068586268
-5.55481170509330102
-5.57559394592271129
-5.5979615040714048
-5.61683874162661922
-5.62414603709050187
-5.92379584774151269
-5.93777445675567694
-5.95022894375035794
-5.95691543252957345
-5.95225833165989027
-6.28664108515471565
-6.29390170944389027
-6.29905275159369271
-6.29863462901891413
-6.2877453821223952
-6.64172744442905749
-6.64411706522165701
-6.64627159251075827
-6.64743750449298521
-6.64647122558515502
-6.64106608732854742
-6.62839483873566859
-7.00864204821637493
-7.00636863934879095
-7.00360896642895181
-6.99989290172994227
-6.99438225552488735
-6.9860476779173899
-6.97371904443396851
-7.37468247217659378
-7.36843163326344985
-7.36150071918467575
-7.35377952678995417
-7.34506252674792481
-7.33515421340071061
-7.32388667121378489
-7.74182880114352212
-7.73219612568787795
-7.72187905325147117
-7.71107525060190913
-7.70008925411243261
-7.68934228891777138
-7.67932776242477555
1.61636221483141096
1.1050433048070234
-0.975252108185528321
-0.65694108959745634
-0.96630722375395095
-2.19671132744603259
-2.36427390225799616
-2.18268768282360615
-1.78692443776183074
-3.21348817792558439
-3.289425703667058
-3.3102665756946088
-3.13321053602815169
-2.7485700906152517
-3.76341440634513225
-3.82998128943606897
-3.88833270717899682
-3.78214962607015615
-3.50640001796823242
-4.09753326871322621
-4.15310644793327466
-4.17218449248801893
-4.12003938537301462
-4.01723460291559675
-4.43863309617277579
-4.48087740564342685
-4.51531930115974767
-4.54191724950003017
-4.54284463203501598
-4.80896358106897548
-4.84764440917972816
-4.89321255798967325
-4.94968207881347766
-5.0098245853829706
-5.18755196656695805
-5.21615306752688568
-5.25187348801966891
-5.29769803930307503
-5.34841408437769505
-5.56243094090402046
-5.58624775041196475
-5.61282582957047271
-5.64124218830285518
-5.66665181669903806
-5.93067372225110123
-5.94672949004491436
-5.96261157690415011
-5.97589876485273042
-5.98078876301519813
-6.29277418901405028
-6.30157788080859849
-6.30887474234575496
-6.31195909506810082
-6.30634181788112258
-6.64509568049158617
-6.64804273282069591
-6.6510155110702236
-6.65326511080039307
-6.65359590958204983
-6.65017626856947075
-6.64008716929469056
-7.01105670103729484
-7.00929710037004305
-7.00711913256767627
-7.00401300924900294
-6.99930388439042694
-6.99191912795879933
-6.98060864893720101
-7.37618226230774976
-7.37024045414123652
-7.36364698718815269
-7.35625737349301279
-7.34791189467711536
-7.33834464276429888
-7.327369513325527
-7.74250109594874214
-7.73301586827564424
-7.72282326997543223
-7.71210202361320007
-7.7011519237471342
-7.69038935326995876
-7.68035653568767351
1.54896944469508124
1.12435464972293708
-1.1325066766343368
-0.883180780606376281
-0.747208908029328711
-2.34336185470901803
-2.47226689374522568
-2.29580923197437858
-2.01609577588639954
-3.30049947744416983
-3.37080413388804079
-3.32473230368091155
-3.123285976332006
-2.80725050725331204
-3.85001489337955904
-3.91791922455002517
-3.87469221640251993
-3.67690329007655103
-3.40965518458653793
-4.11246464053783445
-4.20108509178501333
-4.20930271613944473
-4.12297485410963471
-3.99326022882808207
-4.44724882382465925
-4.49474719605521766
-4.55083435731974095
-4.60877864147023164
-4.67343886110640394
-4.82044746433718085
-4.85780374407683802
-4.91293466262322287
-5.00921337593502169
-5.15723883125546667
-5.20254370000702426
-5.23688688618820386
-5.28548744033089513
-5.35866710490449094
-5.46808753556620797
-5.57921806328577219
-5.60906192724403141
-5.64639763497893554
-5.69308163159625913
-5.75077174959046999
-5.94546230588727198
-5.96664231598215355
-5.99027878094126898
-6.01527528097538333
-6.03760145760266198
-6.30514694228088501
-6.31765397938968043
-6.33001309044125016
-6.33987738117251975
-6.34284522536262863
-6.6513541744425897
-6.65569651909864834
-6.6605708880669896
-6.66532831354542576
-6.66880734389732499
-6.66904137753015736
-6.66288789847565344
-7.01565403212619021
-7.01489835792421079
-7.01396566584974046
-7.01238600804646683
-7.00940188914645468
-7.00381562421459591
-6.9940589021421129
-7.37915641014326074
-7.37379563301428131
-7.36788241981377201
-7.36126333101579799
-7.35370206161756013
-7.34484037393920275
-7.33429347656759312
-7.7439588520229039
-7.73467166345525747
-7.72467787417655938
-7.71413292962949004
-7.70330940027688449
-7.69259139833349437
-7.682489443702603
1.91578841078122597
1.66395629175717907
-1.22812270648187294
-1.08165248990387575
-0.794308474489149319
-2.43281699255721584
-2.50867755564814265
-2.35023502130524609
-2.18429304199842012
-3.34632533975563806
-3.37794144085178427
-3.31076864874351662
-3.09692182056219645
-2.91077780690792176
-3.92669315869596325
-3.95805586544586019
-3.88274497485205305
-3.66842826005972533
-3.4581195470328745
-4.20395438264567556
-4.29958064870128975
-4.32386869273667074
-4.22976521921268223
-4.12165974025731519
-4.49138748450012759
-4.56768618038951324
-4.66467560925613522
-4.7643445193414129
-4.90514865160497759
-4.85126965198036331
-4.90570873561527865
-4.98632584631494957
-5.1179528835480399
-5.32962934174687675
-5.22964141717105413
-5.27696520671823777
-5.34581758719114486
-5.45063649311704879
-5.62176579553909406
-5.60351955857535966
-5.64303286532808723
-5.69571424796248937
-5.76548218398709711
-5.86280385562781614
-5.96653927370508708
-5.99521950540627202
-6.02994785952664536
-6.07066143535221592
-6.1171124699925663
-6.32279204031379738
-6.34070143818320897
-6.36041136210751468
-6.37996228049703173
-6.39547539154392108
-6.66017067287664499
-6.66663149267743638
-6.67431487569522019
-6.68275304166722428
-6.69087207014774688
-6.69662376072071552
-6.6964707292492065
-7.02222907553100573
-7.02293863216255243
-7.02384716628792383
-7.02452241930805243
-7.02415282162001819
-7.02135753643846527
-7.01405871006354786
-7.38345714874801651
-7.37895205008464838
-7.37404904551039841
-7.36857831653198847
-7.36222517622065542
-7.35447167791547951
-7.3446241842733162
-7.74609053596174313
-7.73709608031573737
-7.72739686596173492
-7.71712571770361322
-7.70650779227478111
-7.6958792598753254
-7.68568331645934144
2.75682577936666906
3.27180967520326149
-1.34316244762816139
-1.22992403283759622
-1.28341266577269764
-2.45355797691630872
-2.53497496253422794
-2.44262122229400624
-2.23709897718710593
-3.33966449153184008
-3.36808670145039013
-3.32142089759377157
-3.1281201426269738
-2.96700346939175752
-3.94582406551621467
-3.97222663853633184
-3.8853261929605365
-3.68351326296398707
-3.56088582141169319
-4.24524745885794541
-4.3407752596089999
-4.35951966022779658
-4.30305362249751688
-4.29324683728595069
-4.5296032603120473
-4.62878381993265098
-4.73316109574842248
-4.85700133249802501
-5.05644625874102704
-4.88465916789956278
-4.95980893827908709
-5.06336866828184284
-5.21512148264033293
-5.4620894166180447
-5.2602684514603153
-5.32289241281921122
-5.41111434972294081
-5.5394421019829192
-5.74521509148218446
-5.63170499238799138
-5.68277445441957507
-5.75126426160299964
-5.84367729920490575
-5.97696543723285334
-5.99205056908789491
-6.02955418428133161
-6.07662330757427238
-6.13394501025511829
-6.20556387751983962
-6.34453272365856602
-6.369074414761835
-6.39767266414806723
-6.42887314504089158
-6.45978736427416145
-6.67116110093133674
-6.68030121876566874
-6.69154445517301433
-6.70462377458354286
-6.71860322470785309
-6.73146282744541935
-6.7394705924125935
-7.03050988394343346
-7.03308155751945918
-7.03634917491685208
-7.0399342498760884
-7.04299056611047281
-7.04394096598592601
-7.04016825311755223
-7.38891388990935738
-7.38550308201233641
-7.38190779503461858
-7.37793855334135618
-7.37320019583574737
-7.36697726413051868
-7.35819103311196354
-7.74880030158182098
-7.74018801346102681
-7.73087681770388624
-7.72097082883645935
-7.71064153468684577
-7.70015622994964399
-7.68987280308754428
5.51407078446244725
7.53562355472987377
-1.08784488885564512
-0.793957911806378647
-1.43408797196753923
-2.41666484269565984
-2.51592416332157498
-2.497379071289338
-2.19849882002926655
-3.29365727641156614
-3.36033204067367297
-3.32994495361222098
-3.21709982321573573
-2.99012599856206451
-3.92104426407735707
-3.96410349461960942
-3.91083494893323724
-3.77130646697716188
-3.72069556219641129
-4.25922502706566952
-4.34505006994924514
-4.36192717801878338
-4.34484043619013427
-4.46889626855480238
-4.557886270338388
-4.66147748706895104
-4.7525911270370429
-4.86569771126067074
-5.06804849492950726
-4.91538430404818882
-5.00165903162962344
-5.11318566780429062
-5.26065795565025418
-5.49572121169239658
-5.29129786762837284
-5.36401654982513865
-5.46326806242264063
-5.60133769061703557
-5.81707184964971269
-5.66143389438787992
-5.72241877251594389
-5.80354824390134372
-5.91201930162946887
-6.06952006668235988
-6.01995074932140284
-6.06630614969070248
-6.12556258829956324
-6.1994156078516589
-6.29437832874300351
-6.36905384988132894
-6.40087543385428059
-6.43928866033570291
-6.48357435891761291
-6.53255732398118383
-6.68386067382886839
-6.69608020733593357
-6.71141457258589735
-6.72986262252972711
-6.7507265339512692
-6.77215648622784006
-6.79058693663893109
-7.0401598965012484
-7.04491571715990794
-7.05096709221714324
-7.05802588096840555
-7.06525433147086357
-7.07093046138102022
-7.07195791317929601
-7.39531240909871013
-7.39319698453742546
-7.39116714399387753
-7.38902196848906279
-7.38629241270934145
-7.38205769536440748
-7.37480939331540064
-7.75197728812657694
-7.74382498589523927
-7.73498704814984261
-7.72553261457238083
-7.71557733596043782
-7.70530773405992342
-7.69498673426622393
11.9465995219474994
16.3568728717616523
-0.287983591980340403
0.783820518522993837
-0.996434726032013884
-2.35512987035757426
-2.49703151472751461
-2.53189824093480587
-2.14778651042070123
-3.30949211361500062
-3.3863606803656654
-3.36502382265691624
-3.33969892499439602
-3.05999825052535712
-3.89754433679930656
-3.96596869084339954
-3.94604908036236735
-3.89047974038843725
-3.84607613152008021
-4.25156615071425126
-4.33465179195328076
-4.35323114875878137
-4.34844238303058006
-4.53037183257191334
-4.57099580788186177
-4.66840407216553999
-4.73941309274214806
-4.82206049530446634
-5.00031828199415251
-4.93915081617661755
-5.02757040049918569
-5.13222542037652474
-5.26120009771125652
-5.46603234274853111
-5.31943291565219756
-5.39620357466945677
-5.49749627968711341
-5.63510881450958401
-5.844179047371588
-5.69059764753310304
-5.75864835105187911
-5.84765121844431146
-5.96483893689665479
-6.1328628924375943
-6.04858623807308593
-6.10310614072989743
-6.17333549566825912
-6.26248234762396017
-6.37964342554418806
-6.39518406350375468
-6.43449107067857806
-6.4831576133123594
-6.54142801758121983
-6.610577877712144
-6.69777441671642659
-6.71331476875400579
-6.73310157506292928
-6.75745884204853109
-6.78608494781803717
-6.81757193377966697
-6.84908152264214554
-7.05082531937156531
-7.05799375570780985
-7.06715429973577525
-7.07816332268788351
-7.09028127567891175
-7.10173286636982048
-7.10916039871178107
-7.40241562990555924
-7.40174833642637964
-7.40149570156716674
-7.4014721368561931
-7.40113699675271874
-7.39940582368522115
-7.39432521570207513
-7.75549654064429017
-7.74786710792090272
-7.73957450511024447
-7.73065341296577824
-7.7211614764779064
-7.71120974428345551
-7.70097020985746639
24.9858824238020247
27.6756630742426069
1.10884803787130437
3.36517191850600739
-0.833277662434230848
-2.24791458904197583
-2.43509080782683185
-2.52695660825247082
-2.61704113718710474
-3.25524990256005298
-3.41071347170117267
-3.41545340793236774
-3.44368750130686774
-3.27624505158467105
-3.89570873647496141
-3.98489875911942004
-3.97939042067852577
-4.0040246330591085
-3.84243034155885521
-4.25022668709351237
-4.32637124456397792
-4.34490989789030913
-4.35049656851592115
-4.49772227087701548
-4.58166681532740494
-4.66977350447102513
-4.72089851577485398
-4.76703382486878269
-4.9338443626098023
-4.95689175111117475
-5.04207054522398845
-5.12939043880274248
-5.23138508240455291
-5.41413664452964483
-5.34297713322884071
-5.42060623321344348
-5.51754309583480662
-5.64439719348914348
-5.83083737002345615
-5.71786939102406677
-5.79040291774582183
-5.88347539746000159
-6.00417507344524015
-6.17426145723517728
-6.07689838547777761
-6.13852770667936909
-6.21816973953025176
-6.32098372002686837
-6.46015000360819247
-6.42190143082202791
-6.46870630136495262
-6.52790775894986108
-6.60115224371149978
-6.69256545901965527
-6.71243283394491552
-6.73139857343500925
-6.75582432587179493
-6.78647686669823269
-6.82370500460088358
-6.86698535614788597
-6.91489121784720062
-7.06211335808943108
-7.07182894082089852
-7.08433554626454054
-7.09969526489855163
-7.11738373365338894
-7.13579246719830707
-7.15154081393892227
-7.4099642192383115
-7.4108481911541908
-7.41253143599104902
-7.41487339193927397
-7.41733648482501273
-7.41869511422433625
-7.41659575768644697
-7.75922194185574376
-7.75216147129694555
-7.74447048959353612
-7.73615434456180928
-7.72722594777738792
-7.7177307608825183
-7.70778400613937276
23.5179153130365926
27.8843448625691686
16.7998429348978107
21.888488228707196
9.0616258200518125
12.1731723510627354
17.5365128992944577
4.7906479627429448
6.29195582733186143
9.21218710781923278
14.3996994185803899
25.612004298978313
30.0758474095281514
18.4369986891698545
23.6540100493568985
9.7856730184343661
13.3333801466435418
18.7371737407782248
5.0183901792812371
6.5688654563299238
9.90925409535544688
15.0330471515062207
28.1962819191084719
30.4944287956419942
19.7253671792862093
22.9611018287273794
11.3942572044399242
13.6869781905818826
17.5387913536565208
6.05030279222000189
7.18001372409596428
9.62882050847434812
13.8403103110098442
27.5390435101505204
23.8806441889047392
17.3408845994583487
16.0000542767343177
10.7912303087937147
10.1108639964780878
9.88759991122108772
7.3190244174124679
5.89252651244321868
5.69945569003456853
5.91096503211198865
13.9349934979607042
3.36181083562388494
5.50868399314282442
2.30255986758999143
4.51522745190112573
-0.543399902998544349
3.49786766326417364
8.12410529696232686
-1.26548378680280393
-2.41932995849157351
4.7006632432950255
-3.36105329828933463
-6.0603256389865674
-4.90042165367032112
-5.35383082863599213
-3.25074135254993735
-4.51457601430888644
-4.33015862386320372
0.48955828524935896
-3.96005390057143813
-8.17878796603818614
-3.33186761025790901
-2.6611809481095885
-3.21009915682147451
-2.74052987510319213
-3.5060199378544632
-6.89694078674773436
-2.51123634376991944
-3.65409329267426219
7.87964926091109419
-3.53177306362927368
-2.96084663442049489
-3.78305802699011551
-5.80324606623861872
-5.06361325631263703
-5.61315707520298712
-4.82765921279596721
-5.65780296511361502
-5.32539801137866764
-4.59502917349830042
-8.4570535959777402
-5.76100395328783677
-4.9363218015658763
-4.39565812041728066
1.94474950797567203
3.31065708370932299
5.81585855724895318
10.0565508507530623
0.237252464089495962
1.23509959350536214
3.01717702170638358
6.09564219572939692
-0.871773352046577799
-0.0877829652345170075
1.26351709452910743
3.72886034984082393
-1.89038616954256722
-1.21651474770808221
-0.217891963336379391
1.41977882927727705
-2.92459254703262639
-2.35712009588808336
-1.65048088370704527
-0.893542003449155686
-3.79606325412030632
-3.35768419337408552
-2.81754798364155645
-2.46456522759880858
-4.44728652906286026
-4.17702174306866603
-3.73703128356724834
-3.43288890332882213
-4.88031591987424385
-4.72780367178687566
-4.40945303897606156
-4.10921497053206419
-5.25839419119727403
-5.14853807457859514
-4.93970099599352164
-4.71062357407991428
-5.5983561114293936
-5.52040364602289646
-5.38846994303299542
-5.24431033421821891
-5.92553950987998501
-5.87280694265921799
-5.79493229694749434
-5.71371923605018672
-6.26380409815755534
-6.22647668483357908
-6.17901244466225386
-6.13278371297432212
-6.60890920989443664
-6.58331586296376692
-6.55360975010017288
-6.52585764520817602