/*--------------------------------*- C++ -*----------------------------------*\
| =========                 |                                                 |
| \\      /  F ield         | OpenFOAM: The Open Source CFD Toolbox           |
|  \\    /   O peration     | Version:  2206                                  |
|   \\  /    A nd           | Website:  www.openfoam.com                      |
|    \\/     M anipulation  |                                                 |
\*---------------------------------------------------------------------------*/
FoamFile
{
    version     2.0;
    format      ascii;
    arch        "LSB;label=32;scalar=64";
    class       volScalarField;
    location    "0.209999999999999992";
    object      p_rgh;
}
// * * * * * * * * * * * * * * * * * * * * * * * * * * * * * * * * * * * * * //

dimensions      [1 -1 -2 0 0 0 0];

internalField   nonuniform List<scalar> 
7248
(
81.4499187450025062
1069.71256671083393
13.7956432141525465
314.343819213268659
39.5489139322869292
1.38194364996770824
0.966449396464017285
2.13881521294086108
10.4109362827649914
5.5646312185422051
-0.0338813659748973262
0.117960539137109369
0.303971994735789619
12.5222208385131282
0.0242248659691141621
-0.278348322375286505
-0.165406531218593972
-0.161910202339885456
8.53851436885978998
-0.259446531634042965
-0.294931955107477717
-0.105233744622881473
0.642675399245715151
1.00908141975677301
-0.221602197053853506
-0.279943357292713191
-0.207063050342453536
0.0124670822359173178
7.22270663460807327
-0.245815949803146361
-0.316744418295560881
-0.34750173532145362
-0.257094869498422696
2.02882080980828139
-0.272678917979075286
-0.345340946426977713
-0.416250889600300877
-0.447993383767245734
-0.434896468555458382
-0.285579786971835614
-0.359408199849553689
-0.444097689312850652
-0.522732291247799963
-0.521186643740667477
-0.279443357427117567
-0.346582740574319259
-0.430554252337002064
-0.525735679210176721
-0.606471575681088448
-0.255768269800621728
-0.309805129618753228
-0.378437056550106454
-0.460038278481153085
-0.537483158257506588
-0.166873192601540404
-0.189254541309843483
-0.218387849884710217
-0.255574639191200603
-0.301879400285709643
-0.356664149973554778
-0.413879024096485748
-0.145334485093866095
-0.157632588176399163
-0.173619294922953471
-0.193645907930816846
-0.217530144024190852
-0.244020136870963633
-0.269746136910370138
-0.121501704037083894
-0.123985902072107287
-0.127714971770631486
-0.132630480789841187
-0.138259292390393723
-0.143335720041688097
-0.145236634282311983
-0.0989557651432684815
-0.0924871447960787796
-0.0854347850115299429
-0.0777859493752457026
-0.069529856791225933
-0.0606778785730524503
-0.0513870800111335749
112.200073711184032
1143.76998274302605
23.3163835301927662
97.4225422252496145
49.8116719764352425
1.66280567311056404
1.36377543230610709
4.8822108416550245
23.1360879647798718
6.75293257362150445
0.0326758400963691534
0.165079177904992574
0.488492186029390207
19.2483326682170492
-0.0244710320309597662
-0.29724750793630228
-0.254406555577773252
-0.171575781198027355
13.3798882259616274
-0.263374832294055561
-0.3326278982210783
-0.232251633945541353
0.263826792636466412
4.14142110021631105
-0.234756111461427303
-0.2997004318456718
-0.0805579982531642591
0.831339292302245458
1.15968527579370906
-0.260620111285154499
-0.323614002555552782
-0.317971922108126026
-0.107179287219733826
11.9709173445501609
-0.291378899569039895
-0.361217243410397959
-0.41598491148170802
-0.326345601379793182
-0.167921331120437028
-0.308299814639975578
-0.383580252084959716
-0.464704225617565581
-0.531239601081499813
-0.365729412027806566
-0.305010690793232286
-0.377124855714035201
-0.464603448399512342
-0.550289242045413851
-0.537154809849740955
-0.281254203717775098
-0.342242893412530558
-0.420082732458924468
-0.511456201411950362
-0.593965252494120022
-0.240929507823076983
-0.284712083692909179
-0.340368177597317856
-0.407157307949631564
-0.47067613796816915
-0.19102521402168407
-0.215891313068755836
-0.246436523695698795
-0.281995132079272293
-0.319248383874888908
-0.139015516621582458
-0.14664642129721292
-0.155760100584201755
-0.1651882866346564
-0.1721702959396397
-0.0904077766884087697
-0.0834744879747039287
-0.0760021069111442432
-0.0680364508360999515
-0.0599579347860404524
144.384348103885543
1429.20887048030158
36.3125516114550635
380.103288443861118
40.2707632548496477
1.9920125204109258
2.01114809960070051
7.01941788310054005
31.5494143639143161
5.85408481216330401
0.0410351354783888359
0.252547318684963829
1.04748681391692311
21.0639753094653734
0.0614380992131773884
-0.290577070450663555
-0.272093627978242547
0.079658115255754447
16.8368670028763852
-0.268071403922736651
-0.283135265585297669
0.580562374196759601
0.428313115623842888
5.82006589256686357
-0.23876088854277977
-0.306216019114703752
0.0213809125209814231
2.35234483622848067
1.80674718577887439
-0.270308695131490528
-0.332325748475283345
-0.281239737873984652
-0.122082988822690433
11.9841884316518783
-0.307049344605403229
-0.372483137390883734
-0.411329802245810394
-0.239621327274064211
3.7318791475971298
-0.328616264640731126
-0.404449039101482666
-0.476185314518868752
-0.476056982306063414
-0.34638999642996815
-0.328387122173030843
-0.404713184753634214
-0.494043481605075163
-0.568517917724149724
-0.184579303261787675
-0.304966259043835231
-0.372192964718115415
-0.457033070427627419
-0.547590395653022921
-0.566849725819856598
-0.262198770533086711
-0.312337265595130809
-0.377021661917160411
-0.454833547408631966
-0.518647354459746079
-0.207662771312031785
-0.237277347755094903
-0.274611239421570064
-0.319538276032480029
-0.366179299220020293
-0.14983162919502882
-0.160208440579749756
-0.17301531475799975
-0.187328005056557639
-0.200616027266728447
-0.0951357356841047025
-0.0889494934820885402
-0.082360592385361836
-0.075564200872013973
-0.0693677127797771992
182.84803784856993
1469.68808768189888
54.4481311391554073
663.708369814384582
45.5887894684788648
2.01133420107194816
4.56121107561057659
14.8864306303534217
50.3680293999956987
7.190245085852351
0.131013658442962255
0.637285941084416607
4.11760632296479834
26.6592194223808292
0.101079777589930378
-0.196353965289488813
-0.120127634828804619
1.07886329804719661
23.3535219766721234
-0.248401145121164901
-0.194199761436346457
1.65958857179065555
0.946998179015245967
9.47876354193858717
-0.241494418378156439
-0.296324213026427974
-0.114133987982624363
1.51663887769509032
1.64124682527417676
-0.280560832309600494
-0.339452067570283289
-0.204892467939118944
1.03598249222352701
0.94042831938473348
-0.31883130105485924
-0.383588321958876322
-0.410447935794978624
-0.120764806444417519
6.81195489083291683
-0.346244114554221716
-0.422093783308704562
-0.491521758902096539
-0.313468079662043597
0.824726177323126253
-0.349172693568078674
-0.428926726386312962
-0.518905424263657933
-0.591392132932185399
-0.252951149592750446
-0.326086582846579487
-0.398725954504056956
-0.489140616140126383
-0.577290789123458215
-0.518940628675918059
-0.281368909212363238
-0.337291204957733737
-0.410357208408622498
-0.49728225211025906
-0.554581671023281375
-0.2227444589846094
-0.256888246246523066
-0.300736354728652899
-0.354335480493880306
-0.405004816609923712
-0.159709742188075987
-0.172742677352810986
-0.189263315131356191
-0.208725568016861679
-0.229182180631333526
-0.0994279646419155838
-0.0939909255655094339
-0.0883559787034988303
-0.0830204611291582018
-0.0794080505017427107
223.896969673921376
1425.31904067872824
68.9419795320056323
794.303408989404716
27.5513934979936153
1.72596933459879809
5.37571834511195856
21.1780996461571434
121.939994176545895
4.13043449255910655
0.173960249676324202
0.312681838976443915
5.28736442565215992
26.9212347839350343
0.126853448274891201
-0.153186581653092874
0.018801872998355295
1.54772018483562257
26.1826032225195782
-0.209195409466938126
-0.133771893033951067
0.984892381841637965
0.687456905107383553
10.4245569460623422
-0.234254914585577317
-0.246805407221347528
-0.0313409332660926007
-0.0288746958224489446
0.461202338332678818
-0.288053314425984752
-0.351910914768587491
-0.190308647594709224
1.17878971401147536
0.632075896942491888
-0.330607053613163837
-0.397825109043760117
-0.423463689880804073
0.219043415609428055
2.12869477209802582
-0.360273465348831035
-0.438081272195293359
-0.500843135913710991
-0.329327700983248928
1.04845711074697401
-0.366317603812203463
-0.448239914929302707
-0.537834983052636328
-0.594331891117647282
0.0545714303018948188
-0.343804781679932503
-0.420725374687669851
-0.515343184848139679
-0.598340014746569615
-0.382888508764025859
-0.297600532774793702
-0.358256822135386177
-0.437075857378197763
-0.526087186073843305
-0.548549036730895501
-0.235685849199038372
-0.273820241393996133
-0.3235229801107673
-0.384006178124946251
-0.429933661949003842
-0.168220843326148922
-0.183643804645137826
-0.203607634650143449
-0.22803240174133535
-0.255542680062393224
-0.103104008886107226
-0.0983699542711383851
-0.0936967732755887017
-0.0899765687124308572
-0.0894066887105256225
237.662247999069962
1262.72766303424146
66.580860357321086
850.212234372730904
38.01505079356793
2.35171336964466304
3.70080286155299154
16.4367742928085789
176.754586019743812
5.56244883662749423
0.181000598990014694
0.57067765362262568
2.94377553733374997
20.0901010721472737
-0.0279474223466491083
-0.0925897988166885788
0.00603983013744119942
0.627428293866754139
24.1520990511178262
-0.17258545257590116
-0.186670194490302976
0.050115526299991088
0.0405400812652396969
9.82616946640082389
-0.226397282635655228
-0.209312302864119476
0.244513252324971841
-0.0119618402517157833
0.112895000710766663
-0.290981590221542241
-0.354499721362035447
-0.215023406329578032
0.681906121986783686
0.0247561231316882693
-0.338302572731047413
-0.404053777623464005
-0.439293115255624533
0.0781993504747597878
0.954397081890380194
-0.371537627093907807
-0.446106950416196246
-0.49208855101255855
-0.347413873271846529
0.366849658315052063
-0.379049607980613767
-0.46241227045968808
-0.546291355209153173
-0.568251669448461727
0.11031248472709354
-0.357347062814126482
-0.437232112930028061
-0.533724862576504089
-0.609404505143835595
-0.290509275662455768
-0.310212936530254335
-0.374369269323475362
-0.456986050944183542
-0.541346536052823235
-0.501923051475180348
-0.245873202343492969
-0.287152888872042156
-0.341527943134503686
-0.407114563833723575
-0.450943875982021902
-0.174974086152912156
-0.192339962726289282
-0.215165749417756763
-0.243794005946535081
-0.277156273330205483
-0.106010380101433085
-0.101876774690770402
-0.0980635940707302034
-0.0958420309814567717
-0.0980205283534821836
247.055070024156919
1414.64908439878604
74.2205973638936314
838.70141281120209
45.3932668090389129
2.45173286234100107
5.87927292310863869
20.0161561535554817
288.223925687440214
7.81423398600980068
0.381597682677731476
1.19348727743129523
4.99151347053257499
24.9316593954821037
-0.0540665654469380461
0.0103373391533582298
0.299965003689227516
0.726887174371434686
27.1588003598235161
-0.130883959861574306
-0.0279251186544193369
0.499608045761812947
0.241911136695088153
11.1164448489791781
-0.215063456727989766
-0.19484212100715137
-0.00891021614726389584
-0.112456372407176458
-0.117295447194332658
-0.289736551905534434
-0.346183544362020701
-0.388091919402736574
-0.0801910693331610164
-0.3839790131065835
-0.343226038240109554
-0.40962645322935981
-0.398876094462422892
0.0566760121655638313
-0.157371853264561462
-0.378811380256432906
-0.450832593838499496
-0.468377655420694761
-0.268845128728118665
0.193553268174148613
-0.387042667481928948
-0.46966243113849232
-0.547356070723566734
-0.548667172950548121
0.243408897519167888
-0.366110531381112714
-0.446975981039608006
-0.542188080959449259
-0.600214098486960612
-0.166800375154940395
-0.318667097442010105
-0.384699966765455537
-0.468448780469807979
-0.543372440468720019
-0.442364366049132929
-0.252881552375306851
-0.296194098862628097
-0.353314774821474831
-0.421511487272316743
-0.460846331700401124
-0.179676055746804259
-0.198408447995629567
-0.223208187501515942
-0.254630600571977839
-0.291430321883274168
-0.108035220094095427
-0.104354720412607474
-0.101201637032873951
-0.100143858416660306
-0.104654612415071416
257.819899903898431
1373.68771708183544
89.8269009354134909
1417.89331975416894
38.5441298873825247
3.03910014181162547
10.3314963501193162
29.5038657830251374
96.7701519379130843
5.66008979447333882
0.742640246857939834
3.45702546778030584
9.37454024026312283
40.5304166865469639
0.496598472286741921
0.699405604125919123
5.09980846905133411
1.64325615649503809
32.6724634526688007
-0.0670461807328941728
0.0677080906625679713
0.605495179089369451
0.401728437578021624
12.3975904253667419
-0.184734238202755557
-0.149385928242438681
-0.181938279161804051
-0.208142494720628679
-0.185081398368468791
-0.279962851273221958
-0.348465149651696615
-0.382175326467829923
-0.450613369227091609
-0.621581633009786194
-0.345744205138812544
-0.41359991934353374
-0.391658502760173222
-0.0662815780066050853
-0.209920615232390695
-0.382641054565398042
-0.455588669073898167
-0.492021250906317709
-0.330283946863970557
0.141149595190678628
-0.392210149439512101
-0.477166959222345644
-0.56612041708591776
-0.598026295125810958
0.130951207944884657
-0.371208647228761734
-0.454644534226428976
-0.557380369971530065
-0.646391382943346304
-0.420877150061277683
-0.323406983948479887
-0.391519227019080041
-0.480216536654825554
-0.574035852876217501
-0.574712251210643621
-0.256629579537024921
-0.301353539323271413
-0.361139504151473056
-0.436130766543919524
-0.498930765969189172
-0.182144150660922682
-0.201703009081611068
-0.227855650303976781
-0.261517109390738078
-0.30201696177945625
-0.109093572389940927
-0.10569879659927657
-0.103002739923643089
-0.102742248324757174
-0.108863099612847722
8.75664120815597258
4.95563183003622143
2.46788887036966686
2.43867595826116013
35.9226619635358233
1.01294105301120529
0.636009574419278079
1.04752041546865327
1.57943466965596291
4.03413414750913457
0.104112555464616785
0.160453063249963168
0.425738023211502892
0.911167210135416017
-0.122770054708970858
-0.139562313265369359
-0.152857585498545501
-0.0331454622944513458
0.344801247792646315
-0.110095548481228586
-0.150808536475871058
-0.170134240835561001
-0.0319299931817783947
0.410403091728717306
-0.0758001820568322132
-0.118883412412923981
-0.145508022882882032
-0.128572655244906769
0.000372641924453980108
-0.0807280800648431246
-0.114725643973989072
-0.149589402204370142
-0.169186747926942466
-0.139580634379619095
-0.0910445372120022717
-0.118570659981450346
-0.14816626009401096
-0.17588700584654493
-0.18749327465737764
-0.0979998622759514215
-0.118773619500003147
-0.141105617026571761
-0.159783562638914328
-0.166262200816844646
-0.0991084928114259051
-0.113087558539438457
-0.125544143297925487
-0.132229086639531396
-0.127543582736073524
-0.0940785910784146528
-0.101339276398355993
-0.106490509593954077
-0.106072989509057414
-0.095184768024087027
-0.0812899450895226694
-0.0836795652240120008
-0.0858340926212365907
-0.0870000054450031646
-0.0860337326273994396
-0.0806286221937398268
-0.0679574637935935061
-0.0803295482163745161
-0.0780561393488036909
-0.0752964664292852526
-0.0715804017344694732
-0.0660697555693226801
-0.0577351782475408609
-0.0454065469852228884
-0.0784949721765934999
-0.0722441332634517902
-0.0653132191846736571
-0.0575920267899594773
-0.0488750267479841419
-0.0389667134013557404
-0.0276991712205390365
-0.0777663011435224538
-0.0681336256878792845
-0.0578165532514694561
-0.0470127506019088134
-0.0360267541124338064
-0.0252797889177711205
-0.0152652624247765489
7.59018282182943871
6.43315793166693695
2.36620704141274807
4.89598005727040775
37.7415166627210468
1.23215352650270371
0.757010887808218125
1.10156719414137361
2.85191740588867626
6.1482734281451199
0.00552911721505017651
0.163408323309581271
0.30764728240294148
0.997921605717076665
0.219911530900849278
-0.170777501362398304
-0.211458813620610531
-0.0510763165710654068
0.55546323619366178
-0.100629520686886756
-0.134935727902695535
-0.0941511477261695873
1.24359460396159949
3.56756197582084189
-0.0779757807461058661
-0.105954262070766497
-0.100275799976381919
-0.0340426653270036184
1.79139909310713397
-0.0851712938407587494
-0.117076368586059312
-0.14350835836378853
-0.147998124507911027
-0.071550163765786573
-0.0983045396839508923
-0.12614688298099383
-0.158901385864123584
-0.192395120630848376
-0.208557524787624932
-0.105609953562819756
-0.129389164870524764
-0.155679409339676528
-0.183042109953282878
-0.204507509500544082
-0.105986727569445743
-0.122042054533319358
-0.137924754922396003
-0.15119429956338401
-0.155890990855954731
-0.100211716726011965
-0.109015649477149271
-0.116313460617498726
-0.119400299520149411
-0.113784964413058798
-0.0846581796994276686
-0.0876052328556352483
-0.0905780120368649688
-0.0928276193388671705
-0.093158459727645887
-0.0897390006445415445
-0.0796504834680299839
-0.0827442010372922837
-0.0809846003702832939
-0.0788066325724277456
-0.075700509299570562
-0.0709913849129404917
-0.0636066318305670564
-0.0522961712596679007
-0.0799947623077492259
-0.0740529541412364295
-0.0674594871881556007
-0.0600698734930703165
-0.0517243946778703154
-0.0421571427732412504
-0.0311820134444007468
-0.078438595948742515
-0.0689533682756445498
-0.0587607699754300328
-0.0480395236131975628
-0.0370894237471348712
-0.0263268532699612381
-0.0162940356877144324
7.42440938101235925
6.44579381537813489
2.20079396734228006
4.03143829016112321
33.284292736891139
0.845539285707676558
0.808351251867073128
1.38508293141873007
2.29559720251596655
4.4610578707567301
0.151520169340936761
0.303715425557944563
0.569736598755992141
1.56314447457210348
-0.102706982880368031
-0.179738980294275846
0.000433440679061681666
0.392613067643065694
1.8527843823299468
-0.0955527966365181253
-0.0736091793011420664
0.140554677218374502
0.747949911336491691
2.81638755065856383
-0.0679981658714933629
-0.0615392361949277239
0.0192853102056481235
0.285954532194238331
4.1574029274249229
-0.0941453332047057223
-0.118241969354783413
-0.130665718530065755
-0.0992053705739848884
0.340143503811611292
-0.112894329067499438
-0.14497569539113675
-0.184596596121446105
-0.224396138924192023
-0.233775625643013352
-0.122366666704370547
-0.152130517248241642
-0.188435843878789172
-0.231181173075481056
-0.274438513634127357
-0.120781931374889906
-0.141955049486282875
-0.165567863329834086
-0.190413048200575113
-0.211827416931733098
-0.112584625108225284
-0.125092349625379406
-0.137454412826122752
-0.147325424251479875
-0.15029372560081844
-0.0909166744503109026
-0.0952590195350514757
-0.100133393523321013
-0.104890855501466262
-0.108370075099978272
-0.108604916848247315
-0.102453917014916615
-0.0873415321262090427
-0.086585857926427201
-0.0856531658823767444
-0.0840735084635665514
-0.0810893927869298647
-0.0755031478196427491
-0.0657465337688541845
-0.082968910143260674
-0.0776081330142839587
-0.0716949198138184668
-0.065075831016327218
-0.0575145616248918384
-0.0486528740398273207
-0.0381059777159109755
-0.0798963520229037383
-0.0706091634552560854
-0.0606153741765576431
-0.0500704296294901749
-0.0392469002768835035
-0.0285288983335128497
-0.0184269437031755988
7.39545215608743245
9.61960889968479016
2.02648497314505294
3.77193428652977403
39.7132508395015833
0.564126839796574409
0.832775935560062464
1.30962720592767345
1.58522562215247209
4.62810764890514559
0.269822583763641211
0.40962653123426529
0.769299818158010518
1.59390998657848959
0.112780340841166032
-0.0220804959582320409
0.177838206712161689
0.55307645834958763
2.02209111663839058
-0.16736674594796952
-0.146781436350196165
0.0933602871504357057
1.5820833075527676
4.3769503662393161
-0.109649208189502953
-0.128462257548103198
-0.0673152432043704896
0.27004485215650148
5.33515918576725579
-0.124257148191022071
-0.163244691442148648
-0.189612634428423465
-0.146239304177056606
0.626824325734997245
-0.139714559537533645
-0.183761419124848169
-0.236641058061148712
-0.285066932397038397
-0.284939567039559749
-0.146668997122840206
-0.185714075632446324
-0.236141772752608281
-0.296803831747905922
-0.360413107725779891
-0.141851388994642308
-0.170510588183665462
-0.205129149309601355
-0.245229338240813804
-0.288768455027130722
-0.130229736504857779
-0.148140274485674489
-0.167853420612592757
-0.187406364368190165
-0.202863109536158104
-0.0997331729973742059
-0.106193993704703796
-0.113877391037841544
-0.122315648474293021
-0.130435165711569739
-0.136188791058335618
-0.136042187548491289
-0.0939165755315280598
-0.0946261321728603944
-0.0955346664284850988
-0.0962099210323464904
-0.0958403358535808159
-0.093045128257373072
-0.0857467145990462309
-0.0872696487480184024
-0.0827645500846595494
-0.0778615455105975962
-0.0723908165352769722
-0.0660376762736916006
-0.0582841786308091331
-0.0484366917495097846
-0.0820280359617415744
-0.073033580315738339
-0.0633343659617348759
-0.0530632177036093056
-0.0424452922747857661
-0.0318167598755279973
-0.0216208164652032103
8.38858521021871084
25.5992497199825095
1.90344683853397867
5.49043339747709958
26.2138956037238415
0.552321061504736921
0.788834515286811588
1.1933927138211915
1.53055805872494211
4.05949490597353613
0.255956646624323492
0.376177823512267751
0.727992540279146838
1.08256240384092806
0.0455111329822444205
-0.0606371376090670752
0.148628980622485918
1.12904429711898291
1.87440870667076287
-0.211676969035581558
-0.209013698186083952
0.00592973756381508926
3.01548631060554984
12.5405435777407721
-0.150683686388568272
-0.194746428779153991
-0.150433085663746552
0.214985336704487245
2.88984341979337245
-0.157395819775367707
-0.2164044885715318
-0.261279534239147071
-0.236501284733742434
0.666244642216340166
-0.170083155550658838
-0.228271146784676249
-0.298373065296661133
-0.36265765023650498
-0.369155378391149536
-0.174762026487034622
-0.225261186967212812
-0.289871421258322104
-0.366409395114267289
-0.440213171513447521
-0.167371538820315413
-0.20481370738819088
-0.251580378056259935
-0.30737242363093753
-0.372202990173537973
-0.151970475890208484
-0.176512075303622173
-0.205105134815378398
-0.236253740876883278
-0.266814115338074198
-0.110723602513998043
-0.119863721633023126
-0.131106983089290224
-0.144186459097425945
-0.158166639635679396
-0.171028540566435211
-0.179038547611053089
-0.102197383945491008
-0.104769057553178432
-0.108036675409720215
-0.111621755755655083
-0.114678115654329907
-0.115628768033061644
-0.111857289420848896
-0.0927263899093600796
-0.0893155820123910371
-0.0857202950357874721
-0.0817510533641484516
-0.077012696201299996
-0.0707897686116547714
-0.0620035741080570968
-0.0847378015818195662
-0.0761255134610250433
-0.0668143177038861419
-0.056908328836459722
-0.0465790346869092084
-0.0360937299518334295
-0.0258103031471865474
11.9342397227108457
46.0095496918477735
2.33555961805767964
9.700479908542329
24.0355365426768692
0.653730637376390589
0.87704869884494352
1.12223799118612
7.24497435279574553
4.08352373001650104
0.197455078342186896
0.375797232452513119
0.753303943351335215
1.62533030854131821
0.0855727130465998853
-0.127334060838132673
0.0565333693368785736
1.71656789374199836
2.0008935089602593
-0.233574603181004065
-0.258560566117294832
-0.11805956775723607
2.23117928815651245
11.5699209189486059
-0.186283996410731484
-0.250816485596687289
-0.209128898025563142
0.198833805236324129
0.826146972662806012
-0.188847575324386702
-0.260825731715023768
-0.325023178726987327
-0.342223656689829514
-0.0402180113302368913
-0.201108658182257455
-0.269541518121588608
-0.351168566886695177
-0.427189234991807221
-0.447543658253183929
-0.204406645140176202
-0.264425880083131115
-0.340128667532337614
-0.425034547141388108
-0.494649098987786584
-0.195248912659128609
-0.241497961341443745
-0.299967654464700639
-0.369909584439614636
-0.447477650463744381
-0.176492330290522803
-0.208307491457362021
-0.24667307132418137
-0.290652455461463566
-0.337997195685725671
-0.123423175775146526
-0.135642728762029263
-0.150977132518608281
-0.169425263548994981
-0.190288941325064853
-0.211712425763243339
-0.230074169251637262
-0.1118473965245744
-0.116603217327295547
-0.122654593797721756
-0.129713399243102351
-0.136941980439944905
-0.142618720336544214
-0.143648523817132973
-0.099124909098727898
-0.0970094845377266202
-0.0949796440013419008
-0.0928344686570060362
-0.0901049152051673768
-0.085870223281637667
-0.0786221309491023923
-0.087914788126576604
-0.0797624858952374616
-0.0709245481498406716
-0.0614701145723966988
-0.0515148359611983936
-0.0412452340840268813
-0.0309242348781070334
21.7818575862667494
186.787033000537122
3.71755708745670832
40.0291404443438665
39.3675013661176294
0.751430612226138828
0.828068769410884031
1.13209537708000507
22.7406281708423741
4.47845426560880533
0.102917740472059954
0.282190828598174626
0.48601210320286925
10.8064637874741098
0.0814752019222522161
-0.185097071537275781
0.0725833827321644143
1.50147619496259521
1.1258461721686468
-0.242711351921489099
-0.285274136733497163
-0.0287783210570314654
1.50410640193378975
2.1638093218783272
-0.206556661212557335
-0.278352081288378406
-0.267015558986913537
-0.0366313207624848272
3.6518938561913763
-0.214223102102353874
-0.292665498005028613
-0.363268100277124029
-0.375603672967950941
-0.330347551836154552
-0.229446485596322636
-0.302679181097248062
-0.388061486380480214
-0.46953079965369815
-0.464982691008092919
-0.23352822782896121
-0.300420223507964934
-0.38341184595578387
-0.47534286756677252
-0.549135001304471793
-0.223856446962129252
-0.278116186572149038
-0.34667877916047185
-0.42745540972984819
-0.50724513462221299
-0.202620014347388772
-0.241898018786426111
-0.290357752685312942
-0.34736595836314943
-0.40988599432217715
-0.137336920433556331
-0.152877310902173463
-0.172664094213359126
-0.19702052125127717
-0.225637942181572931
-0.257049810714755855
-0.288049438483026055
-0.122512819453315422
-0.129681256215540192
-0.13884180324379472
-0.14985085512243268
-0.16196894676588669
-0.173420624261598211
-0.180840193245663611
-0.10622812990562705
-0.105560836427485913
-0.105308201601907805
-0.105284637677464113
-0.104949509275093333
-0.103218446121896429
-0.0981387335418747175
-0.0914340406442898657
-0.0838046079209039951
-0.0755120051102493306
-0.066590912965964158
-0.0570989764845968029
-0.0471472444886709904
-0.0369077149407411875
41.6237024576578563
915.152527591576586
6.40053875846501796
538.034931885521019
29.533004742526785
0.861580291462992309
0.787219736794923075
1.16885798054891077
3.38668057849258908
3.93788943114321421
0.0181695402269066338
0.164365998691741427
0.249722767982335031
4.60215205409577077
0.0455393449102055176
-0.237633709440424501
-0.0945064688377263984
-0.0355585422147352281
0.474053919231504639
-0.244717690720358344
-0.290633498586011285
-0.174170799751852484
0.619203589235733043
0.923896652986276434
-0.217279013027849133
-0.283456065942387647
-0.265489867700976268
-0.101879945050043455
8.3206274724929159
-0.231566328546949834
-0.307390994652311622
-0.362257501734638498
-0.295476897202286648
-0.205172007509281579
-0.252876943103594432
-0.32694678546880207
-0.409173595913313259
-0.477393416307666352
-0.490063573829857602
-0.260770976607571425
-0.332000128011030571
-0.418069236165095059
-0.50975870177293614
-0.569237246657438245
-0.252139401637320681
-0.313323559161114096
-0.390467321973502146
-0.480974934329481685
-0.56625698384114842
-0.229326624460316209
-0.276041058428482533
-0.334632181446917809
-0.404279815856697977
-0.477062968864439496
-0.151995345067995974
-0.170961051734467379
-0.19538625288506134
-0.226033185845380735
-0.263209676063373976
-0.306082084108711239
-0.351356544933911941
-0.133800858178480531
-0.143516440672836504
-0.156023047425039418
-0.171382747810397779
-0.18907046920764467
-0.207468995960418262
-0.22311387845474448
-0.113776719238310023
-0.114660691157036781
-0.116343936079065124
-0.118685893774373441
-0.121149012242584314
-0.122507909081767855
-0.120410686037401279
-0.0951594418557415445
-0.0880989712969453831
-0.0804079895935454342
-0.0720918445625877286
-0.0631634478093124757
-0.0536682619180961426
-0.0437215322617425101
54.3169649441526161
59.3537500827429412
40.7672749731288562
48.4348877399257631
23.8607214136377088
27.9412860872385558
38.0565886302526408
13.6296746425383439
13.8531256007177692
19.5336967217242403
28.9851026913825365
68.1260898780103332
72.9924931437891189
51.5524863144439962
59.4416403553200112
29.2941646806559994
39.1897173023083525
47.3207452855130342
14.9918940949669075
18.1628703374724054
26.7719066616335937
37.0084626290588687
91.8374505366537193
116.867207722429413
67.3045091731835328
96.0930556433882259
46.1183834627473033
50.103012213824293
82.54829014019478
21.9943291905958809
28.3243276929081098
37.5829744514935129
91.402772862523932
298.073183957498998
301.651962533238759
270.5114153947452
274.220711049703198
84.2741671210130363
237.701321420561413
251.935989310664894
36.3009137019809813
61.1612026235738853
243.908166458105796
232.852787983823049
393.829576385554731
324.642618582262173
355.355638395086373
304.594252036915691
370.574656850243457
321.971812431590081
286.538962100102992
109.397018416096955
339.393468884041511
296.631378293535647
268.922315242692093
218.653936596917731
1.46978306708720541
260.517650413873071
5.89083853974255689
432.031653165549073
279.125695893496413
9.63447565999401334
463.517207956481911
393.956426206461117
232.38140779805633
11.7975959956815988
-3.49974057310668973
-1.67489361956397609
-2.22132978910848555
-1.82245962257712746
72.9700785651083095
-0.809403540861008075
-1.86405991162657392
471.184357316721616
81.7509495477498973
-1.03694337364557532
-1.87163752256833837
-4.25746651516312724
-3.52641613937565479
-3.93859755723853633
-3.16757574953448451
-3.83772219409577797
-3.53546522435635024
-2.81202289851517673
66.0618616211272354
-3.75167895420337016
-3.02666520731583955
-2.48921483774797103
6.0129384703513562
8.91191924360561316
14.4229188553001126
21.8530415301883032
3.96848047340316246
6.03349128146962332
9.5293141134123136