/*--------------------------------*- C++ -*----------------------------------*\
| =========                 |                                                 |
| \\      /  F ield         | OpenFOAM: The Open Source CFD Toolbox           |
|  \\    /   O peration     | Version:  2206                                  |
|   \\  /    A nd           | Website:  www.openfoam.com                      |
|    \\/     M anipulation  |                                                 |
\*---------------------------------------------------------------------------*/
FoamFile
{
    version     2.0;
    format      ascii;
    arch        "LSB;label=32;scalar=64";
    class       surfaceScalarField;
    location    "0.209999999999999992";
    object      phi;
}
// * * * * * * * * * * * * * * * * * * * * * * * * * * * * * * * * * * * * * //

dimensions      [0 3 -1 0 0 0 0];

oriented        oriented;

internalField   nonuniform List<scalar> 
20536
(
0.000703027463539901507
0.000368965659208296852
-0.000338281772741261505
0.000380181521645125693
0.00147886495620206749
-0.000938443608729015396
0.00116469575230510351
0.000564294553684205162
0.000626876510090291356
0.000244530718692331686
-0.000231557339225886793
0.000268193157431780081
0.0013703460557863258
-0.000719465644526671804
0.000884320286617450873
0.000570540735270092555
0.000357643199517019162
-0.000980625026326222829
7.51406766461703711e-05
-7.00937415649000842e-05
0.00036048300349195378
-0.000705455461605937191
1.28521592138188849e-05
-3.9233026731618528e-06
0.000412024463369484585
-0.000221641437432364271
-0.000134751873592043144
0.000163303197709529255
0.000484462434792092586
9.98031612366209308e-05
-0.000188715354767458139
0.000261004746021371587
0.00113973741249094205
-0.000554235360852170229
0.000660822259775254079
0.000608483919084517417
0.000256248809238747129
-0.000955047229204969883
8.56859660437529985e-05
-8.83749803719392334e-05
0.000185462951266634373
-0.00062080926418853731
-3.56083007507607436e-05
2.17474419316576949e-05
0.000246952798057216384
-0.00024791585478613448
-0.000163548062414380102
0.00012833112420237045
0.000311315799108790366
1.75110010251267089e-05
-0.000172347908816334141
0.00019027733659687866
0.000792517055217985852
-0.000386873671880278011
0.00044918506636974732
0.000596224788544166828
-0.000204398675104651141
-0.000770031053450921112
4.72182281236745196e-05
-5.71244460719270061e-05
-0.000196233607530313305
-0.00059168320542717979
-0.000100982535264104351
6.36921562793818773e-05
-3.15939184441439469e-05
-0.000329814388093469522
-0.000306642367304737172
0.000223902899603039196
0.000120858298804603186
-4.56761464319071825e-05
-0.000372237028735573959
0.000282974599344440578
0.000387503481069324872
-0.000289315206822208506
0.000309091652449376697
0.000506093603023371683
-0.000409412686305743955
-0.000650026465663291184
4.53187773672755333e-05
-6.73934078648422792e-05
-0.000387110396296498898
-0.000597070374102994352
-1.02691597434642139e-05
-6.64466476044756814e-06
-0.000225329424276887519
-0.000421475357822359131
-0.000244969000683806085
0.000174851522526866729
-1.21285209015972094e-05
-0.000171079128220280103
-0.000453449585897451894
0.000365653957461251847
5.19293646457721653e-05
-0.000287133499265854262
0.000308320759781543076
0.00030225711458534317
-0.000365325287935036494
-0.000558022061256121518
9.7698624602199401e-05
-0.000146648293137866556
-0.00039208891445612911
-0.000540056340310113986
0.000133571244039661227
-0.00016382064992842381
-0.000333190151723276493
-0.000453926597968630453
2.18856380625426325e-05
-4.83318999336107474e-05
-0.000156318861976656193
-0.00031523233241706884
-0.000191762506753877628
0.000159045045877941819
-0.000187125017874639277
-0.000310203613886542726
0.000344998531951435598
4.79414106460997191e-05
-0.000306100027811605137
-0.000481799030319103605
0.000110992937596867547
-0.000147290819729142564
-0.000340984458625743407
-0.00046327215061760734
0.000156595973208004027
-0.000198495865762337502
-0.000317734959572374051
-0.000428225436195322985
0.000127351340880107284
-0.000176301550189659204
-0.000194021021670085381
-0.000376613876520982946
-1.24856634083753398e-06
-6.10838178067443462e-05
-0.000249956459897133034
-0.000232902475329258268
0.000158591675388591218
-5.68779832254510259e-05
-0.000264572794819153446
-0.000431705465939782255
9.232052472951457e-05
-0.000107722846598342465
-0.000294541832880051545
-0.000415245950256454375
0.00013987583583200975
-0.000157932475563588379
-0.000296656303718411058
-0.000398796994020013146
0.000163501572865699626
-0.000190815049429269321
-0.000253708094749922485
-0.000383412494020353943
0.000147172423775878395
-0.000183322256741536021
-0.000326938922188492107
5.25313269566253505e-05
-6.23946097995883874e-05
-0.000166860603605098207
-0.00023083498417266103
-0.000388303855669262169
8.36597857636024522e-05
-9.36970270491423933e-05
-0.000261397075628555357
-0.000375119574710706689
0.000111329669230520085
-0.000120892737264206358
-0.000282158456002654817
-0.000366314475814046709
0.000141310575994652596
-0.000153030378396238405
-0.000280033458857459848
-0.00036414224217862451
0.00015930816595741029
-0.00018070242295323429
-0.00034556340400345543
0.000124145795192092117
-0.000163648448885361542
-0.000221903761211940289
-0.000207175793507630678
-0.000352337144533579046
6.81751259551628886e-05
-7.48800783510997659e-05
-0.000236001954358741129
-0.000339429803089020936
8.86662973751746637e-05
-9.5528476773790733e-05
-0.000266029460277184351
-0.00032855480278434128
0.000111244623534309601
-0.000118975800701789857
-0.000295555027931573692
-0.000323205108886302555
0.000133257883157790973
-0.000144667870043917001
-0.000317737205894516887
0.000140223104652100654
-0.000158318417689156114
-0.000305283032790121039
-0.000183738830959396854
-0.000321401196673180747
4.91852943262691106e-05
-5.3044673159774168e-05
-0.000213176305443967082
-0.000305884462574247706
6.24243676504249666e-05
-6.65306229127068775e-05
-0.000247494003340078118
-0.000289999135960815075
7.6882553498120262e-05
-8.11203048737838071e-05
-0.000290192517157015931
-0.000276398537277196276
9.19331997777418641e-05
-9.60397189654312099e-05
-0.0002659367704413993
0.000101812112183378669
-0.000106943649505421515
-0.000336859439102211414
-0.00010945238652641646
-0.000325368797224058286
-2.17129445710425965e-05
-0.000130533832751002248
-0.000311601547433186022
-2.85042117374018158e-05
-0.000154256804203192451
-0.000295196899900555831
3.32140082251985145e-05
-3.56941290981556826e-05
-0.00018156720669957257
-0.000275889982458172624
4.01701733256955556e-05
-4.28537567278912369e-05
-0.00021503810969547045
-0.000253611030447486866
4.6210192280399759e-05
-4.91268609015614414e-05
-0.000259653677557309347
-0.000228673250136917483
4.96532499200872638e-05
-5.27615441112123495e-05
-0.000202387452353489734
4.59182074246478346e-05
-5.08996591623075498e-05
-0.000318220614275990777
-8.2397108611806876e-05
-0.00030979820347914295
-1.42842748038347856e-05
-9.85727894267407511e-05
-0.000293981462888178488
-1.80606413138018884e-05
-0.000117196561440430355
-0.000275010014013302032
2.02571333190090944e-05
-2.18193919497239135e-05
-0.000139165716172342255
-0.000252193909883334749
2.32132347641017501e-05
-2.49386703412706385e-05
-0.000166022926306918015
-0.000224695454731711612
2.43943406454506905e-05
-2.64509828711024917e-05
-0.000200375357384704978
-0.000191469220333019509
2.17296165975347237e-05
-2.45800843552527754e-05
-0.000151537783591160365
1.14074637258905332e-05
-1.61322023256411389e-05
-0.000246499963823151186
-5.05171769260808054e-05
-0.000300324013606198341
-8.53547049443457763e-06
-6.07399690718857073e-05
-0.000283008565242097551
-1.02493653743601258e-05
-7.27179255113461252e-05
-0.000262211435261647404
1.09318397275071211e-05
-1.17507041714037747e-05
-8.69259455954726361e-05
-0.00023703479129331712
1.17156929945252546e-05
-1.26649618917057883e-05
-0.000104091304771639597
-0.000206373944538001724
1.11432478712646495e-05
-1.22974813838788317e-05
-0.00012522763511542645
-0.000168788778706825487
7.95949731611352676e-06
-9.50274669933428132e-06
-0.000122441892708740415
-3.38559019763607955e-07
-2.3626240585341634e-06
-0.000151621926404876155
-1.66254225222705629e-05
-3.18178710871183802e-06
-2.00703415696450616e-05
-3.60326796525769159e-06
-2.42006256484949619e-05
3.67319990052407358e-06
-3.90283588312340166e-06
-2.91442824351403022e-05
3.71357375162080027e-06
-3.98871280065847778e-06
-3.50134443397706781e-05
3.31333483790881019e-06
-3.63815105586325846e-06
-4.18040785725086559e-05
2.16174161455864233e-06
-2.53562173527522354e-06
-4.22260504897760955e-08
-2.50421771937251757e-07
-4.91833249092030373e-05
0.000662244799704752706
0.000586175532995540692
-0.000329439168036382932
0.00157782602873147537
-0.000750284954479146478
0.000593971037091156531
0.000606066691636028771
0.000469892272210836303
-0.000212882819460637895
0.00149597212297293818
-0.000606970403230028439
0.000575425428255526379
0.000320446615397916058
-0.000934919731325056704
7.20908550641848853e-05
0.000326598493993999128
-0.000623316972044213628
9.89316355886907332e-06
0.000359184617254335557
-6.48577377448104789e-05
-6.71447839700326562e-05
0.000455363422243494805
0.000292296677983509281
-0.000107299097876371413
0.00122832058414439841
-0.000449356889163380984
0.000618136643865383568
0.000194332609447660709
-0.000921117059762059068
9.76381326616822471e-05
0.000201528741375438849
-0.000615514998697924329
-5.0607978862878e-05
0.000268641206756791448
-0.000160443518240763476
-0.000135075936377244152
0.00034933776472928068
0.000133495918354973469
-9.42423028079897524e-05
0.000885863626229442406
-0.000300752117320668639
0.000605673315370038609
-0.000117506208281283926
-0.000730290957902893375
6.32313406939919847e-05
-6.76091469422636235e-05
-0.000635144225752649351
-0.000131247900800589881
0.000115175794435599249
-0.000266006031196053066
-0.000383863437087789377
0.000186148419077072653
4.69502363132062972e-05
-0.000356662619533105313
0.000493342301983937552
-0.000234539343347110128
0.000523893917740451878
-0.000321793361431241774
-0.000628867786218785356
3.03288492268885499e-05
-0.000312905616869309472
-0.000602379718684929819
-5.19176738294154806e-05
-0.00012024817024429245
-0.000338484280624993302
-0.000365147287115357171
4.48378763245742577e-05
-2.8529327736118596e-05
-0.000543056512633457045
0.000174245695431515064
-0.000282433945727312446
0.000359235755425670218
-0.00032046209566186719
-0.000548421737611882705
6.6941155610523973e-05
-0.000356862206532757259
-0.000533403820776944242
0.000100995674379717005
-0.000274935949436911709
-0.000393047496114590591
-5.47824066285980263e-06
-7.65252150481223522e-05
-0.000162617936995831122
-0.000256084972179699655
-3.06965347013886131e-05
-0.00031585219460514226
0.000134067306315160603
-0.000276478217190457599
-0.000481804862001594897
8.97213877504847733e-05
-0.000326002526591013348
-0.000465297399625405454
0.000138013725141807503
-0.000311051358358871563
-0.000401139128151060519
0.000120491018871180601
-0.000195414071067619328
-0.000292504031523071225
1.29982483784450593e-05
-0.000190985068203446216
-0.000236706053966870408
-3.13216285981864767e-05
-0.000238575712835793931
-0.000438548469051417257
8.26846518707321945e-05
-0.000267113773541874356
-0.000424465226337854393
0.000127582295393264996
-0.000257006032186083224
-0.000399289645040790955
0.000151545422835287698
-0.000177630858067446651
-0.000358241741083927001
0.000133535977280411491
-0.000238798060191832556
1.76386391605824755e-05
-9.49246845710960191e-05
-0.000209940449399463293
-0.000395849165248853484
7.3707642298118735e-05
-0.000238174569500824415
-0.000387962850451148032
0.000103063277741658623
-0.000249814818909111587
-0.000380831252591776203
0.000134494966566855989
-0.000233834527029869302
-0.000366563171498794583
0.000151652512641887549
-0.000304902819286203511
0.000121948435221744689
-0.000165529994349532163
-0.000191259587149712496
-0.000360546340197825097
5.99910148819909325e-05
-0.000218766420246877159
-0.000351497083312673965
7.97090374117004384e-05
-0.000245169030931488216
-0.000346227531780289512
0.000103045226414977912
-0.000260755281552131754
-0.000343774833424203272
0.000126058908945263259
-0.000322596473793826952
0.00013061639640633637
-0.000233452025256263999
-0.000173118241886165467
-0.000328910846859200678
4.38630989193639211e-05
-0.000202240211338658611
-0.000316228304855823957
5.62785715012067294e-05
-0.000236787081547668217
-0.000304897606564892652
7.01002250289953796e-05
-0.000275783861207588626
-0.000297651149573572075
8.48079831585013777e-05
-0.000288036504430948053
9.25682710828989384e-05
-0.000301098313169765588
-0.000148576161215595515
-0.000301502568146909552
2.95717301024393029e-05
-0.00017670008685318297
-0.000283912982754618449
3.59800983814178037e-05
-0.000212572243323494963
-0.000264127825840607014
4.13137701939174888e-05
-0.000261576176785869707
-0.000243542613557919146
4.45496513493700866e-05
-0.000222988674949178579
4.16158455127900451e-05
-0.000322320723868833815
-0.000114645360475547792
-0.000280025733164062762
1.8002070768363017e-05
-0.000138038329945874952
-0.000257997492664893842
2.06925741706967507e-05
-0.000167927543017936531
-0.000231250095727396506
2.14074168009243816e-05
-0.000208682925512552466
-0.000198788656888466129
1.77318861859940836e-05
-0.000160098669834648236
4.80191401999573451e-06
-0.000264966468038704416
-7.18167562492698494e-05
-0.000266341662409141607
9.74663113565781083e-06
-8.71127419268075224e-05
-0.000241376064957957891
1.03918365088878007e-05
-0.000106354081461269146
-0.000210528248801186468
9.66400600867648616e-06
-0.00013140379842611338
-0.000171988064579414767
6.20930374206886485e-06
-0.000123255646744572676
-2.92532459812758883e-06
-0.000165659124486044757
-2.40427010832997938e-05
3.31448667317658184e-06
-2.93508168107691873e-05
3.32653048821242262e-06
-3.58198979123029387e-05
2.91371535203954833e-06
-4.34844212130431899e-05
1.84111503847485489e-06
1.09376291742213291e-09
-5.18254793910489042e-05
0.000605293491645640669
0.000661843569177994083
-0.000265554948726416532
0.00163499125729385086
-0.000592338697691431192
0.00059213195224362648
0.000563842367148861389
0.000515357364290725765
-0.000148320513924179542
0.00151557069870665562
-0.00048401728712790912
0.000560309737359729961
0.000354911024224038212
-0.000937842648759822485
6.03007227474708552e-05
0.000377723395521788663
-0.000644132843284349636
2.20443759986039639e-05
0.000331416886089391815
-1.64025132041608051e-05
5.02501532013345954e-05
0.000431674439858927223
0.000343501175707644957
-3.57004772702385759e-05
0.00123962548330407889
-0.000344180916814209757
0.000602443746563411818
0.000271599947973614184
-0.000936259357131134827
7.16501725464774384e-05
0.000286426179293800562
-0.000624331742152736831
-8.52345210994316486e-05
0.000240046337852949825
5.50535827364162533e-06
-0.000110603721043189753
0.000317514458414664812
0.000228378187813425512
-5.65865295693604941e-05
0.000894482699204707634
-0.000225892561424873007
0.000587797821226587313
-3.22207291971914121e-05
-0.000764519926676027867
8.1050094141101278e-06
3.32713058131439669e-05
-0.000605481899154240374
-0.000215589048483761438
0.00018294867338190671
-0.00010165711719212759
-0.000426379208456148723
0.000209485859955458979
0.000149183374456384599
-0.000304004446544434864
0.000552095014358884909
-0.000200363725908343966
0.000517697975914434023
-0.000237293059845010369
-0.000623356760725323378
-1.50994816707564375e-05
-0.000203004376373609074
-0.000593475211233748475
-9.82132857549111374e-05
4.60740772664041239e-06
-0.00023294705479251035
-0.000441471432373292038
0.000113044900141058774
7.27158383859013904e-05
-0.000575027090357101449
0.000277359342690146034
-0.000285061957989162038
0.000390408480290898273
-0.000253101321243810403
-0.000533548272577473296
3.25091313502815933e-05
-0.000289167851030072481
-0.000531722598316536495
7.53079554362072446e-05
-0.0001777936908920186
-0.000319175991266438933
-3.06262871620718055e-05
1.99229522215520595e-05
-4.14427889317818153e-05
-0.00033964418475937615
0.00010913406975401592
-0.000347576330695523585
0.000219872649784902396
-0.000231173320886548118
-0.00048067595670997623
7.332255069738941e-05
-0.000287936278504749674
-0.000462687370974522081
0.000125740453031531775
-0.000258382453313275135
-0.000369197335471654941
0.000140958165253574742
-0.000135295780829458936
-0.000193318841255366632
4.17873350044492553e-05
-6.89867396154691774e-05
-0.000223086746285204151
2.92063460488956386e-05
-0.000210143936219730901
-0.000444849675919352643
7.70603005159423284e-05
-0.000235445895584279324
-0.000432942053114532916
0.000123139648346032353
-0.000216921949350373127
-0.000391991828697585551
0.00015581740039883246
-0.000122821865963200841
-0.000305264463439607297
0.000151383103565912028
-0.000142816346302376785
-5.15634623298876112e-06
-2.61962283536957934e-05
-0.000189929608412866668
-0.000403082962329285026
6.21262957588855435e-05
-0.000214159228143955395
-0.000400335267095001046
9.46877572582384251e-05
-0.000213358609133491585
-0.000391207374422734703
0.00013291135398193956
-0.000170856058840396658
-0.00035482483125352332
0.000158712208158540841
-0.000231764859547742633
0.000142589830521890667
-0.000102548669250856605
-0.000176376064855126918
-0.000367897402619901291
5.06821062734678229e-05
-0.000203166223217835504
-0.000363533437250390331
6.96989043038521197e-05
-0.000224188906298155828
-0.000362745062070402783
9.56056588395581629e-05
-0.000224595144850444722
-0.000354099818272754919
0.000125741188446674675
-0.000298773811041431179
0.000135471306489881127
-0.000162440626860844723
-0.000163201459610600228
-0.000335653473380904401
3.71862631571311022e-05
-0.000192333369794605625
-0.000326154632774375915
4.80328747553196835e-05
-0.000226226626265367309
-0.000319938784463892904
6.11874078916243755e-05
-0.000257485499729948129
-0.0003158305981708442
7.77987022381127689e-05
-0.000295277745240456516
8.8192757535435082e-05
-0.000256604937929037617
-0.000143322803970972405
-0.000307208061079860466
2.50407688516233898e-05
-0.000172667892645507741
-0.000291349035780013438
3.0520730056520675e-05
-0.000211815394692109661
-0.000274526796628171504
3.50504187789811767e-05
-0.000263617363220429164
-0.000258742512923609575
3.92648137276690028e-05
-0.000238258861638703374
4.05304983392105683e-05
-0.000319549495133552729
-0.000112365677919601341
-0.000284642524366687593
1.53350678085198987e-05
-0.000137322314972508332
-0.000263279172510856889
1.75801367200743769e-05
-0.000171076168831858392
-0.000237212319804442983
1.78479462338812007e-05
-0.000220249073090498523
-0.000205779728268356302
1.39428547493439284e-05
-0.000168260829980983401
2.73629986160739947e-06
-0.00028818060929044825
-7.10103864254624966e-05
-0.000270152360147892694
8.29942528180411825e-06
-8.74054349363682871e-05
-0.000245312596289764715
8.82056054515183173e-06
-0.000108746636388004013
-0.000214213410648358624
8.00670741368877885e-06
-0.000138131059798872691
-0.000174564951439185701
4.37911795127592663e-06
-0.000123397874756018568
-5.12224475473141823e-06
-0.000180796834931730248
-2.39099260565246031e-05
2.85618258545153897e-06
-2.95645635690779305e-05
2.85943275721122908e-06
-3.65706204331188591e-05
2.48683288867464304e-06
-4.48807402621346555e-05
1.66978954016231888e-06
4.54355963198022612e-07
-5.36860720903331069e-05
0.000598737406400842893
0.000699361701523598233
-0.000212594078437795543
0.00167087307463396504
-0.000439995743719500852
0.000610477345806516997
0.000538447363017033158
0.000591787122987617029
-0.000130372857976318807
0.00152561212215078816
-0.000365014955454907451
0.000564705938669261224
0.000304367142342436281
-0.000915010864479326187
6.30952587315580338e-05
0.000303581988241229984
-0.000514166986502459294
2.42393429780129401e-05
0.000268518226200892144
0.000295616481543797415
-1.2306782359503964e-05
0.000413536308043883092
0.000477236413870692786
-6.61676282826770018e-05
0.00128473900160015276
-0.000281053225182345935
0.000591281800432374061
0.000170134385472306372
-0.000917513121282226892
8.88482185903489876e-05
0.000163800370045783861
-0.000486346030820190118
-0.000106720716085799796
0.000131302507511383204
0.000357742756218534601
-0.000140229832844300512
0.000280409637251088938
0.000364342026703465803
-9.27983465765235715e-05
0.00097558401614335666
-0.000208265953119481789
0.00057193815755520426
-6.79969951166842495e-05
-0.000710729476083784163
-1.12675652180346167e-05
-1.94897226571818023e-05
-0.000526161096352295858
-0.000224280250624382563
0.000129134804071566586
0.000128686822427838377
-0.000345947177355685571
0.000203568148376256268
0.00025562389705891317
-0.00026971897402393194
0.000663071603021361572
-0.000196195999438270562
0.000511912954309637173
-0.000182390639978634832
-0.000577201149615562403
-4.25486337835359336e-05
-0.00014185090944291432
-0.000569242881441422749
-9.5672079078311297e-05
5.75154450282542998e-05
-0.000164063257808653214
-0.000348088335005333402
0.000133923283796858828
0.000149529998475826837
-0.000545340515524308849
0.000370331273620848149
-0.000273279816538755851
0.000414881622944189045
-0.000188092440828300161
-0.000506561191906243925
1.51634940133315837e-05
-0.000229304854417063195
-0.000514842598131359168
6.21192975121295896e-05
-0.000100473623162647689
-0.000291166371998724559
-3.23548466270628037e-05
7.15477153381391444e-05
1.23459411385374955e-05
-0.000374481199834768709
0.000168672043164780209
-0.000351017960418816596
0.000276648931676224882
-0.000178368782182885014
-0.000472994470224289321
6.23037719513460427e-05
-0.000215069146832737941
-0.000467726243346108903
0.000115324449616005406
-0.000158188001030128535
-0.000356052536864441289
0.000148964430600031887
-2.12879295484458806e-05
-0.000141230626363086887
5.84642314940700896e-05
4.14796603790106716e-05
-0.000231072996492108826
0.000113891070629219132
-0.0001820479853659544
-0.000448993529200897258
7.43330042114768243e-05
-0.000199205131701958924
-0.000443741659573924766
0.000116313703642695402
-0.000170605816403447393
-0.000389798316166837242
0.000160965357437812043
-7.7684600032530346e-05
-0.000260554533430691138
0.000177786219323160201
-7.20514995359872873e-05
1.50030188462760804e-05
1.56873366137886151e-05
-0.000166627974921681392
-0.000410009965970722814
5.00437789484183695e-05
-0.00018610887611365519
-0.000412937471489825854
8.33661604341463022e-05
-0.000170818621656705432
-0.000400962279655803114
0.000128785746191432911
-0.000100145524402697858
-0.000342507005899022839
0.000169992347256492951
-0.000162883114538076945
0.000152597408457045967
-1.93214071502451458e-05
-0.000162821380107124248
-0.00037497026835225678
3.95974318595310399e-05
-0.000187228086809581093
-0.000375601094843917968
5.67707990427620781e-05
-0.000199430346708268222
-0.000378069812471482157
8.49160022679434944e-05
-0.000178802309799548929
-0.000359813778885441392
0.000122421381180146474
-0.000249737713206521603
0.000144297639489627394
-0.000100772891365106133
-0.00015486201537086232
-0.000341560449239875581
2.9323473145314937e-05
-0.000184923931921586861
-0.000335272091373341251
3.77673071045881716e-05
-0.00021843283394575315
-0.000333603418272744156
5.02312553320542201e-05
-0.000242419912609083855
-0.00032977459686375657
7.17486620561414004e-05
-0.000283582445555062188
9.49705326432383608e-05
-0.000215351056355460248
-0.000138792715923749207
-0.00031213341392687978
1.97974362149796383e-05
-0.000169387077293963232
-0.000297930658853872083
2.37749937387766269e-05
-0.000210957006283173315
-0.000284000195262746203
2.70186408885864543e-05
-0.000263472218732381709
-0.000271185998161296361
3.3192890819442026e-05
-0.000247256213650588763
4.45720252004515611e-05
-0.000303838612736431432
-0.000110392565542912776
-0.000288571836232470746
1.23196534640338217e-05
-0.000136940071610067458
-0.000267850984940937002
1.40483659492990959e-05
-0.000174545892962043301
-0.000242530115449917147
1.39841176607899622e-05
-0.000230339551126033677
-0.00021239113046068504
1.09417474117586391e-05
-0.000175081052062360173
5.35796638860774427e-06
-0.000305136181650885916
-7.03274100601247645e-05
-0.000273422387746649349
6.70319220593058177e-06
-8.77550419434966928e-05
-0.000248704267313173857
7.10097648450091083e-06
-0.000111192731091867711
-0.000217333135752220853
6.24688122694242891e-06
-0.000145130444347811328
-0.000176591831300119728
2.51688779715923635e-06
-0.000123510658554582112
-6.71811092200501583e-06
-0.000195105407089373519
-2.37953331717195613e-05
2.33267174844303183e-06
-2.97351810473789989e-05
2.34236794790973805e-06
-3.71336656932629833e-05
2.05842189165715734e-06
-4.57308769283406094e-05
1.60901160031220016e-06
9.9575650145734647e-07
-5.43853710304744735e-05
0.000590759900840052022
0.000755934324765078643
-0.000156249807429067008
0.00177564666862284793
-0.000317966521236037823
0.000606552279187437928
0.000529612409510214852
0.000661756688041462019
-0.000107613339688727275
0.00166002495385670647
-0.000268338408379246236
0.000548557602077544369
0.000282253084809151343
-0.000853084061141869176
8.00977679738496635e-05
0.0002836005197012702
-0.000320550762867395406
5.87507845186694474e-06
0.000274050698113935333
0.000378827202629577055
-9.54821459844965774e-05
0.000419109414787698521
0.000539138204991780265
-8.86074599422166241e-05
0.00144248016975894811
-0.000221913999326076088
0.000577515044162028434
0.000106498508979218157
-0.000835948966542043761
0.00012266172820710262
0.000121202402298332121
-0.000352598758296019917
-8.93751750428355634e-05
0.000132546048553882582
0.000427000195777749668
-0.000199744321973973921
0.000299796042215073519
0.000392386368895283996
-0.000113295804218730529
0.00113893443673684816
-0.000174360473933873379
0.000569436373028865163
-0.000111198710604787864
-0.000713754815689641954
7.19297436389371939e-05
-7.75218006531059944e-05
-0.000454357935169574117
-0.000156196579320407069
8.9632817510223279e-05
0.000183882142228784155
-0.000269982057557686418
0.000213883597273007093
0.000260744017654946497
-0.000262326565942041503
0.000793410537533312168
-0.000165304252346264993
0.000528515814260712476
-0.00018542529479766441
-0.00062761635731740993
1.71457255560439254e-05
-0.000126307763652164923
-0.000568240183537280881
-4.09068829086060596e-05
7.87468797376901205e-05
-0.000135390977221964146
-0.000233868982052895524
0.000126363887342941308
0.000150004883936330892
-0.000482217201413927103
0.000436155690363894334
-0.000235776413767152336
0.000446115520015105162
-0.000169023351717841129
-0.000562454151106266489
3.71303346499305206e-05
-0.000206073763787668695
-0.000532930356526670527
6.38607113449972717e-05
-4.65649040967937579e-05
-0.000311775988498613397
-1.54771121731135317e-05
9.4934929963442485e-05
-2.45828407223151052e-05
-0.000341391950890070702
0.000162835215374181877
-0.000304214956258722893
0.000321452706496038604
-0.000140246549693953508
-0.000505996299072772391
4.98552915837708032e-05
-0.000164462645442630751
-0.000488631418106822172
9.5243119678693831e-05
-8.16220156959758221e-05
-0.000381484701442019671
0.000135834327868050215
6.68890949434713684e-05
-0.000178959793977454494
6.43307804802155879e-05
3.50486545907138076e-05
-0.000220683696026934494
0.000184286345597552831
-0.000150178036887243854
-0.000457266121425846438
4.963285312071352e-05
-0.000159242748232267355
-0.000456277671835493917
9.3026474307795405e-05
-0.000118620652346518546
-0.000405369214514979064
0.000144229037775414853
-1.27919556506312813e-05
-0.000268490086201347302
0.000161487863840428043
-4.44601469004665272e-05
2.70426578840052105e-05
5.46772965424446172e-05
-0.000148541455017696074
-0.000416226652038580798
3.32301613385538639e-05
-0.000163573181514578379
-0.00042309728928939446
6.52189065742936878e-05
-0.000140690754319684145
-0.000414050317094859927
0.000114585324216027291
-6.04034223724453931e-05
-0.000342312790948472027
0.000163528784251907038
-0.000142522294517058868
0.00015460837232833145
3.56486803668772795e-05
-0.000151503618379144754
-0.000380933641191662394
2.86868550076958042e-05
-0.000175781794735956233
-0.000385254065233712876
4.32074248838524815e-05
-0.000185615357184418331
-0.000390101967568173434
7.08027111424807358e-05
-0.000154000285965581404
-0.000365660156329352857
0.000114155679383143337
-0.000226539982437057237
0.000139601187546966341
-6.52842777630136331e-05
-0.000149089014790337881
-0.000346159989023451966
2.0588068877497171e-05
-0.000180883598919535801
-0.000342426166646822919
2.67358923153700012e-05
-0.000214690537006974471
-0.000343471392422725586
3.7409505703765295e-05
-0.000230295472880212571
-0.000339603165609888874
6.1298670855640077e-05
-0.000270358482188075332
9.18023814816173317e-05
-0.000183307036132749962
-0.000135373156119892235
-0.00031598772062249803
1.44595609722035936e-05
-0.000168007126630030916
-0.000303137671785279241
1.71216852463539708e-05
-0.00021236864303294064
-0.000291437316492166806
1.93470503256852453e-05
-0.000265108831337988694
-0.000280002606732429387
2.63332756726778955e-05
-0.000248988321897559669
4.49610242058226273e-05
-0.000286867295108894139
-0.000108800631210319217
-0.000291699064049891666
9.16550778105546194e-06
-0.000136681644915840066
-0.000271538105006504564
1.03294738661714477e-05
-0.000177162783277410348
-0.000246963909536916703
9.99124881162044939e-06
-0.00023643339980359811
-0.000218041749231598781
8.25082026941502624e-06
-0.000180265646250656812
7.24981665471279864e-06
-0.000307048272226337967
-6.97835554876654609e-05
-0.000276048482724877361
5.06574067824734549e-06
-8.81316361279450519e-05
-0.000251462657076461315
5.37227756794540296e-06
-0.000113631383337490423
-0.000219832397099582782
4.61385461974544724e-06
-0.000152193548325091506
-0.000178134348453790655
1.1705989545652383e-06
-0.00012363665334662018
-6.85626226269922529e-06
-0.000208684962384140122
-2.36922168889125232e-05
1.77773273693017145e-06
-2.98487337371977086e-05
1.80853470562845115e-06
-3.74700623515561475e-05
1.64032707897624312e-06
-4.59177524550350623e-05
1.48709991546250914e-06
1.17251815393875591e-06
-5.35727887615148241e-05
0.000587850085691343565
0.000771004218265659499
-8.75575790329603077e-05
0.00185256600942936413