/*--------------------------------*- C++ -*----------------------------------*\
| =========                 |                                                 |
| \\      /  F ield         | OpenFOAM: The Open Source CFD Toolbox           |
|  \\    /   O peration     | Version:  2206                                  |
|   \\  /    A nd           | Website:  www.openfoam.com                      |
|    \\/     M anipulation  |                                                 |
\*---------------------------------------------------------------------------*/
FoamFile
{
    version     2.0;
    format      ascii;
    arch        "LSB;label=32;scalar=64";
    class       volScalarField;
    location    "0.209999999999999992";
    object      rAU;
}
// * * * * * * * * * * * * * * * * * * * * * * * * * * * * * * * * * * * * * //

dimensions      [-1 3 1 0 0 0 0];

internalField   nonuniform List<scalar> 
7248
(
0.000179256400854243875
2.29636651187569255e-05
0.000599499113195615832
6.49618512640167051e-05
0.000488451316608325158
0.00280641419618918092
0.0073098373866673106
0.00278520983901885946
0.000188459895655288521
0.00282554685067411791
0.0106068867454353795
0.0152090486236741637
0.0096971891757693298
0.000351155009660498064
0.011841555982132837
0.0139684689964432573
0.0155514209933046033
0.0153503774509517882
0.000785308226776823635
0.012936400785520167
0.013550292535569752
0.0138456840376552613
0.0136135072961375524
0.00239006048234490951
0.0134086019884137233
0.0130625995456383238
0.0146159570891158403
0.0151292236873891307
0.00585525991830863554
0.0144741741379078599
0.0138750597892014285
0.0142434732365614228
0.0161308360191316953
0.0115521672275489713
0.015629059063256949
0.0150252228783272802
0.0147482083476693608
0.0149156664391810953
0.016508959069475599
0.0165334833949487767
0.0160686342713068087
0.0155832029604435415
0.0151364595105839758
0.0151701111073626188
0.01739116591895256
0.0169753559215568284
0.0164927915614708764
0.0158715615489061768
0.0152761142605950442
0.0183118650618516662
0.0179676978500944544
0.0175600958127691657
0.0169994298519817941
0.0162451522079759721
0.0197028606665354059
0.0194971147809343236
0.0192900678695088722
0.0190780589356850036
0.0188370926065583241
0.0185097300529300166
0.018027909068398202
0.0204681407350937976
0.0204023369587036409
0.0203484680028863558
0.0203128393461112292
0.0202992774915093481
0.0203089538934901823
0.0203278432307194001
0.0212448931849547017
0.0213369631302233395
0.0214636283343051584
0.021640545094468909
0.0218900040828841971
0.0222470349284751186
0.0227462398857395283
0.0155642358482165517
0.0159775305677062884
0.0165065234019876467
0.0171989522195865122
0.0181295755718484074
0.0194237375661083164
0.0212856333023881197
0.00014783375671685223
2.55054321219562398e-05
0.00045064384887888876
9.77388069386172359e-05
0.00042587248503225323
0.00284345049085927854
0.00747938491484111383
0.00137093717662687764
0.000166696205237939197
0.00255680059742412463
0.0111072279926999404
0.0160906179957223984
0.00487766404593390629
0.000301426367008600523
0.0126342112949434041
0.0144844795261421331
0.0155407485591049881
0.0107660980394407822
0.000652195850646706664
0.0138821089705690216
0.0138386778309353836
0.0145644764169864781
0.0126380229108563839
0.00166239398153492221
0.0141746986656506712
0.0135642048245376984
0.0156835070178675505
0.0155159093938513418
0.00523965345115224093
0.0150216109603127004
0.0142533237496811193
0.0147302548614543869
0.017353083754799839
0.00622108368139281508
0.0159573845524790571
0.0153333625760251509
0.0152619344854906143
0.0158444401128600386
0.0174475664254353062
0.0167783238554527377
0.0162589627528144168
0.0158244993203068007
0.0155957661094665752
0.0159020187684415955
0.017556705283699809
0.0171025535000123644
0.0165826720782787061
0.0160307115145441811
0.0157400460509861048
0.0183999857555234257
0.018022597093719922
0.0175485704954212937
0.0169174828692531636
0.0162603641102447571
0.0193154993071735781
0.0190699481328549594
0.0187621404101566691
0.01830246998824369
0.0176426260880904601
0.0203335798397635409
0.0202657130278734998
0.020197490241022506
0.0201023102298595741
0.0199401766261360844
0.0214209931014053383
0.0215762737291643261
0.0217935165553996314
0.0220988904486814353
0.0224294337777862438
0.0164068274789928789
0.0170853391501520416
0.0180091807796620082
0.0193155357759998113
0.0212386330966631148
0.000126181890797366023
2.13588578806867712e-05
0.000351779183654115442
6.93975344896159777e-05
0.000476596626481582569
0.00275713101288629654
0.00648812128223105397
0.001102586928494314
0.000155377671808852418
0.00283243655341692364
0.0100204608788116573
0.0150767941519074668
0.00362525798487238005
0.000277090357382766411
0.0123876776599250865
0.0146885691238214013
0.0151507764344962752
0.00728671518543323564
0.000564906623759432128
0.0146117592881028907
0.0143431277283404199
0.0142493887257430594
0.0101621900963854532
0.0012456944238041182
0.0151185338384450564
0.0143766540272582399
0.0172277021297360736
0.012487349080635415
0.00357913300520963044
0.0156274572747111679
0.0147275518617539757
0.0155022818639416506
0.0198888030229437615
0.00557751776885156893
0.0162675780400720962
0.0156383130508571458
0.0157414451245372726
0.0168926043717479157
0.0135931187364210174
0.0170220769840825695
0.0164505390918719789
0.0160983366135475578
0.0162382604548056732
0.0173205681541117734
0.017740678586707824
0.0172361094547421635
0.0166867442744038814
0.0162543511731925508
0.0159671455553838833
0.0185084646938861105
0.0180942228221754597
0.0175564272021361441
0.0169160274139177891
0.0164474003470996243
0.0193597647490842406
0.019078574350762087
0.0186898196364484806
0.0181047962437950113
0.0173596153594977043
0.0203314156426642398
0.0202324719738562302
0.0200994871894096712
0.0198648140339366223
0.0194862603547215733
0.0213885957455682875
0.0215239301044057932
0.0217091302766590812
0.0219557197949443207
0.0220814733953843649
0.0163169922839211667
0.0169847750238218721
0.0179037571788920429
0.0192240916903416922
0.0212229196512654684
0.000106161278241048449
1.98168449703737957e-05
0.000261172781697973548
5.27652648270199331e-05
0.000465382321264872043
0.00313850790520478267
0.00398547989890743991
0.000780263243808667056
0.000149757874685453254
0.00252378912084791525
0.0116440171524359749
0.00928986149126973838
0.00209860280411230298
0.000248398748347437826
0.0126385773450988243
0.0150236789087635509
0.0123292244353666262
0.00475607127658347027
0.000452807328425294722
0.0155306827280268806
0.0149600449355624526
0.0119532950432903653
0.00844552445668539029
0.000934533664290596901
0.0163329778722272369
0.0152767036672074967
0.0187736564553569255
0.0109823011112833817
0.00251770230077895917
0.016384946079454548
0.015451250828183544
0.016343993714717394
0.0185275099647390327
0.00823234804264181934
0.0165660372914156334
0.0159122966594139777
0.0161498221715647323
0.0173908462052351498
0.0108331716501959257
0.0173325404596826778
0.0166882052957732264
0.0164198488157645608
0.0166519355591458161
0.0165651624794123029
0.0179294697979975361
0.017387374133598317
0.0168439083218325028
0.0166235616221079678
0.0170268527933958545
0.0186260738610572046
0.0181710079008175103
0.0175715174095654215
0.0169316276662240493
0.0168084544318318728
0.0194174986949763768
0.0191054950829725526
0.0186471007360361658
0.0179670421968770519
0.0172757780605610339
0.0203414858975790799
0.0202139504825342674
0.0200145896627791052
0.0196486786788642454
0.0190595459999993271
0.0213678989134006604
0.0214844544844429476
0.0216370118430792256
0.0218182492833767575
0.0217593101344988361
0.0162417219812378243
0.0168998364803511561
0.0178150120792359319
0.0191495661108832711
0.0212147627183718705
9.39134236184432008e-05
1.90755310580969043e-05
0.000216342910584670935
4.27659341347984593e-05
0.000661253761780748609
0.00448147651669042555
0.00301891838249194067
0.000670206937509087303
0.000124756130799197058
0.00413716189547935851
0.0150404899303886886
0.0077248849114350494
0.0016276579911545712
0.000211670337645067759
0.0127461618794587894
0.0159303181097693938
0.0122724995109969332
0.00432298590757313091
0.000361865317652761956
0.0154277430112852911
0.0155993810523785831
0.0132794953578250913
0.00921114730139696927
0.000743806818408419119
0.0161452813493999717
0.0154079115077021041
0.0193665523706752635
0.0137298000487621336
0.00215906219064937368
0.0165616974028383844
0.0158634232331631951
0.0166375832683960771
0.0168256727335253306
0.00924885029295270146
0.016848890684977795
0.0162618643060563547
0.0164770868057038042
0.0169019094643996226
0.0135151422185869705
0.0176076734388336299
0.0169400936094508091
0.016603282884565064
0.0168188113909419554
0.0159338865762619943
0.0181306315098264149
0.0175512964932321887
0.0169525804426606357
0.0167686848669490914
0.0170804693400836601
0.0187441985263570934
0.0182562365883355733
0.0176088633456075831
0.0169571841756041841
0.0168977500542589684
0.0194850807251190361
0.0191423216913830137
0.0186211675569687846
0.0178515936536280569
0.0172125061458218778
0.0203635274146714007
0.0202134166903487691
0.0199596758381702689
0.0194897235320126358
0.0187866231412194967
0.0213584910083475729
0.0214581649755572722
0.0215777483060080114
0.0216876636843677875
0.0214747145672314101
0.0161829582808399215
0.0168321164502275161
0.0177442012402198
0.019093371905429788
0.0212120695683642342
9.12545469688096588e-05
1.99116950577455267e-05
0.000217474878705590819
4.0348632744802626e-05
0.000515729670550519118
0.00296413796111324969
0.00367328021061279382
0.000736947355126112277
0.000115346715607203448
0.00305195717033355162
0.0113275467465735
0.0104735396563528944
0.00197967192015589474
0.000206961643951781573
0.0140217372686699624
0.0168152060612077013
0.0171736773683865279
0.00594166824036507918
0.000349130562404853279
0.0160380925409357132
0.017069421034484878
0.0181288543417142227
0.0130343287886154624
0.000727513459365694299
0.0161756606057575185
0.0154601402046967325
0.017987164745101529
0.0166502733060472641
0.00238747635189315386
0.0170582896307744716
0.0161378537572358441
0.0163194712553087831
0.0162223075911596265
0.0117592248725255141
0.0174064529941859863
0.0167003449147576227
0.0166688813386645686
0.0168112252188787718
0.014091882899789944
0.0179388279325763782
0.0172408257894558908
0.0167868733953961784
0.0169198337012981086
0.0162066956449997863
0.0183269754640832915
0.017726991788292637
0.01708280979873434
0.0167687456280143227
0.0172860610682270335
0.0188601745212756411
0.0183321389402796922
0.0176409212210174617
0.0169762093324966681
0.0170068627306598705
0.0195520063588477643
0.0191761396616290623
0.0185930484164577581
0.0177938495896592629
0.0172115919513587401
0.0203938211520964634
0.0202250025526671436
0.0199263168324990622
0.0193881550516708349
0.0186894172240263529
0.0213592136977686503
0.0214441036882865727
0.0215299268898604644
0.021557433365374877
0.0213063374102607957
0.0161407891584804848
0.0167819855663483321
0.0176910554541079151
0.0190538665981971334
0.0212165224936879636
9.02836650862177102e-05
1.91300730981934611e-05
0.000209041750041970677
3.9020602548763457e-05
0.000494923119108689035
0.00311062327300351505
0.0034806490717839084
0.000682553066859568143
0.000101196459063810767
0.00243313376591755386
0.0128331658448423338
0.0102263927145415153
0.00185740999369647208
0.000204109398268062335
0.0145683004868202848
0.0169278411423594739
0.0162277855890136137
0.0062444815811545434
0.000340715676166325303
0.0157781752402659584
0.0174063690872105874
0.0175850611184683488
0.0149496166730827152
0.00074569936022488546
0.0163545789875445408
0.0157789456723205872
0.0168515541448504211
0.016441599309439503
0.00285777185638458808
0.0178592634070256495
0.0167935267173020646
0.017331306897538902
0.0173848352331895419
0.0163264466559767847
0.0180688256178660432
0.017478471372788594
0.0171380820750444834
0.0170740196982327626
0.0155294325771394813
0.0183992555143729364
0.0177466260408997469
0.0171843674271398329
0.0170597778014789127
0.0169165521493587628
0.0185078969560117865
0.0178793142575682587
0.0172111960306555525
0.016928698085466487
0.0175800940239975584
0.0189619026285054761
0.0183664696259939579
0.0176039646005721889
0.0169819055778378213
0.0171481485967163207
0.019615940077237437
0.0191974522074666379
0.0185296861961197455
0.0176956357161598861
0.0172239881515536437
0.0204294320168091938
0.0202387355145653945
0.0198813880063541219
0.0192658987016912434
0.0186097111095143743
0.0213698785353325198
0.0214432752385600098
0.0214984491938816774
0.0214477667250269413
0.0212379422725831497
0.0161143448326296415
0.016748687896201403
0.0176534742328181837
0.0190223507685716511
0.0211980850967326447
8.73680284563588727e-05
1.82881614616115692e-05
0.000191220067592796163
3.38362395588200052e-05
0.000634462169962828559
0.00479578148047759244
0.00251080390690032983
0.000513248408125035506
0.000136913679831286462
0.0037266533701499154
0.0176491195760834774
0.00910172087027195584
0.00145878875881789538
0.000203866053093559364
0.0118437523611329733
0.0172550703566509735
0.00979242258191454114
0.00559693183520243616
0.000357928489390547
0.0166013028595319162
0.0189188074371598978
0.0153819529779179211
0.0149119373150460987
0.00082094448849200953
0.019057937764909199
0.0181429572460916101
0.0173019560685463772
0.0179041036146190165
0.0033854623221761782
0.0196810959600461598
0.0192391600056689427
0.0189427702160300283
0.0189972469532706627
0.0161923171113578374
0.0187503582607943323
0.0184276695894951791
0.017856858654808138
0.0178220800393850791
0.0164765411025665533
0.0187142728916512499
0.0182465539226705012
0.017803161602890992
0.0175718774096241502
0.0174317406865950597
0.0187681318732274144
0.0182641814827416427
0.0177172504657713316
0.0174570900825581146
0.0177221061545948973
0.0191000195931272307
0.0185672255782654318
0.0178772464506874625
0.0173414644951902334
0.0175031009726954144
0.019691164460079822
0.0193055014016022992
0.0186960115456418635
0.0179181979920247127
0.0173287312804928477
0.0204627809940402111
0.020283819670031001
0.0199651214568753177
0.0194022988690440192
0.018609894155338827
0.0213746318835940814
0.0214473772388368046
0.0215069261621249966
0.0214720353501959733
0.0212910551366756635
0.0160935438539471995
0.0167222132894693613
0.0176182960815829369
0.0189700672197153572
0.021094165539091745
0.000749036831435655475
0.00204492009637465433
0.00397410985462312398
0.00973910523221062883
0.000498947716485986011
0.00224523137813931878
0.00580303526440582428
0.0109681958261893774
0.017002562678687317
0.00329152510623269886
0.00876366369484348796
0.0122441986884782982
0.0151271598653905503
0.0190377760003099875
0.0131911406484557688
0.0145782661551507112
0.0159669645621663692
0.0184535636815919071
0.0216923102615411041
0.0141395247533244346
0.0140666768364349996
0.0141649724083887305
0.0149687775085515194
0.0168770433950573666
0.0141657767497542185
0.0138781810659986456
0.0136788498447279732
0.0140783685997867506
0.0149616350411501658
0.0147329312229685979
0.0143690486184815842
0.0140162563468229744
0.0140300434593794866
0.0144288684445493028
0.0157283065169202332
0.0154773098843317344
0.0152563892848079172
0.0152673603318102865
0.0155257409861300766
0.0168677533092988739
0.016676185507546095
0.0165313820765392062
0.0165617098109752045
0.0168352183156535752
0.0178546499681298439
0.0177367312719686997
0.017700384597623995
0.0178415624189335112
0.018251069088901891
0.01890859225717164
0.0188744421311488296
0.0189255436782320326
0.019128381865013977
0.0196441134858078778
0.0198686721542181942
0.0198454611673696789
0.0198813833296189735
0.0199739078171580417
0.0201461038330002784
0.0204521886707298671
0.0210355230060018696
0.0207339601756037877
0.0208101795461807272
0.0209450834520892512
0.0211523082536382856
0.0214507152446292322
0.0218692796689877837
0.0225065708099461727
0.0215792495630043359
0.021772609929448461
0.0220265000189270276
0.0223571066619153193
0.022786182861307052
0.0233359859946683269
0.0240600861452367754
0.0160392799102309115
0.0165545385450341712
0.0171936573076257003
0.017992998347777768
0.0189996085167181243
0.0202722377687177685
0.0218992017855893888
0.00102951637471277043
0.00315121757006117274
0.00541325288132233663
0.00936455841283855527
0.000502953598960054183
0.00257081811807442599
0.00750768552835967377
0.0152435994242759044
0.0103759409631616357
0.00267054022160018298
0.00962317108589168246
0.016186464836742586
0.0181410310580034928
0.0109227635996596555
0.0114340294302736067
0.014269574916389579
0.0156857110587542113
0.0153487294724459281
0.0106334497321101101
0.0136303401020025309
0.0127708534693278686
0.0136469126733732762
0.012544085281352136
0.00869718477307213772
0.0141151926451232989
0.0133707781989408237
0.0136814452196321479
0.0149132355322240586
0.0115191386641904526
0.0148946456027511699
0.0141256076116951981
0.0137357264367954264
0.0137807598351343454
0.0136964094165183264
0.0158328493704219704
0.0153588280436544582
0.0149533675059376515
0.0146641957086155583
0.0145561011089227511
0.0167428966355886479
0.0164664969821946283
0.0162021613536527699
0.0159908670193228512
0.0158529207754325996
0.0177236854322433447
0.0175703909157853798
0.0174573083894020292
0.0174188198121006735
0.017520755278316074
0.0187772264539409345
0.0187260960662988807
0.0187480729982543275
0.018874761339809254
0.0191916036805145074
0.0198745106675531497
0.0198243818533823113
0.0198310789488330246
0.0198980792519100821
0.0200515697775903064
0.0203285017152277578
0.0207997250889252264
0.0206993613708826504
0.0207539476400816665
0.0208688205106693885
0.0210629763875028256
0.0213587866991492431
0.0217821766670918543
0.0223888008971162809
0.0215392007159572151
0.0217169190225829888
0.0219557048563601143
0.0222771820055130756
0.02270767897426176
0.0232734325704817141
0.0240058953019207169
0.0160208905166891458
0.0165278976141172255
0.0171580305766144033
0.0179502425034374635
0.0189555467915469775
0.02024158172760121
0.0218917382766832501
0.000958954430839772855
0.00264396602870448517
0.0062442211322400595
0.00958412009117744906
0.000510537809801122895
0.0028797332514748572
0.00976059721208764539
0.0164954713618468765
0.0107926159700659167
0.00369940692455838398
0.0126011754969417456
0.0170691819227445467
0.0139240400732224892
0.0101355637685503434
0.0125921923976783506
0.0140824903601316723
0.0156154059077857968
0.0126830766032066233
0.0104348762679683082
0.0133944784925913718
0.01323342906751542
0.0136059961710894468
0.0114874054573301573
0.00989483693150821665
0.0134700989506322272
0.0130468066907494327
0.0132262440579869085
0.0125392084173340974
0.00942110499575983008
0.0144317038104559529
0.0138522320280385896
0.0138350384615342319
0.0136217788627468212
0.0127078014922059161
0.0156904810438130739
0.015093147124217705
0.0146812830010120965
0.0143226425223048955
0.01394082263950433
0.016525048032092416
0.0162218842455380194
0.0158834848043126441
0.0155312936036980515
0.0151406481476627254
0.0175306877666569702
0.0173508895079327076
0.0171737164075725403
0.0170159763140237189
0.016886524547775953
0.0186194500751916854
0.0185261217065064467
0.0184944660554337906
0.0185470335917121178
0.0187391203521068209
0.0197960322004452627
0.019725086032577329
0.0197016526911060683
0.0197345540963431293
0.0198467988179532769
0.0200735680350738119
0.0204863372064533686
0.0206373053269154512
0.0206761997292240936
0.0207704924863393488
0.0209396996155099824
0.0212068156554541705
0.021603782035208241
0.0221897293791087427
0.0214883366206838657
0.0216573096106359823
0.0218844485973845142
0.0221918026264985614
0.0226067725846229063
0.0231607454356182359
0.0238933206146496289
0.015979767098594895
0.0164801552413311216
0.0171029702251515626
0.0178876832805956489
0.0188872577916271156
0.0201730118207273205
0.0218367747396264675
0.000860484120327841668
0.0012999917635288941
0.0062395746455849643
0.00479907169290839236
0.000513233273420912088
0.0034539843326473231
0.0112641062424914031
0.0188717647303486072
0.0103385999104127126
0.0037349254647831274
0.0148222469074681413
0.0173930411245603947
0.0182221321208668845
0.0152766717997198168
0.0110149011373270531
0.0135083489861278667
0.0157549148409932595
0.0153222729922433739
0.0130180816625223069
0.0115785120441647248
0.0125041823759328534
0.0147461999798673155
0.0123820131701315294
0.00960814539557765419
0.0121718160017320436
0.012062993828551501
0.0127207181731093088
0.0136534636512035592
0.0100887179838377618
0.0136880015049819226
0.0131226353203792844
0.0130532753542452092
0.0130154197634199092
0.0124174973225844275
0.0152353451577491236
0.014618181618352372
0.0141778932802006652
0.0137318930802920978
0.0132208677489314697
0.0162632903386498544
0.0159028882929875687
0.0154811427033901168
0.0149558464840744126
0.0143244704765398672
0.0173504501029491214
0.0171137845759114643
0.0168549445701271228
0.0165477328841643345
0.0161691521794596824
0.0184694032725309168
0.0183235090988238501
0.018219840086722585
0.0181640766580896604
0.0181802836956280502
0.0197259069895793608
0.0196263756280035603
0.0195686624358130945
0.019560759239256105
0.0196189524068507669
0.0197728507624416183
0.0200871065794572222
0.0205762705332740332
0.0205961063871355453
0.0206665132352547888
0.0208056239282925146
0.0210350732272861426
0.0213882963460754819
0.0219275112657383413
0.0214353495597883713
0.0215925789731850476
0.0218049539694899867
0.0220944697617068732
0.0224889855939834279
0.0230228975215625783
0.0237439847842427325
0.015925233176697251
0.0164152480077079978
0.0170268531237892998
0.0178003882348279317
0.0187909895293209284
0.0200752595535074671
0.0217576331151090353
0.000736700280920398669
0.000466490297145918725
0.00550906770215342251
0.00109124982578424358
0.000687263452970647451
0.00421615416945969514
0.012516863011084926
0.0183773187772270502
0.00245323081288998084
0.00417728598095257024
0.0154037056965110036
0.0186729541362126751
0.020940073504951591
0.00783147155499312395
0.0108266222194351308
0.0139627891359768129
0.0159894180783124867
0.015423843852537469
0.0121925493962718751
0.0114794020653198794
0.0127972965163339492
0.014878389642007989
0.0105733233557814849
0.00520074030271667955
0.0119527173619535382
0.0119964180991091671
0.012806595209024484
0.014066183462616429
0.0105529282111193421
0.013340138025524223
0.0128148173325288925
0.0127184735157319703
0.012713073792218102
0.0122599026727731267
0.0148911420594301305
0.0143399065857365005
0.0138754674564570968
0.0134271076854333409
0.0129682467293796948
0.0160778363739150533
0.0156839342891045008
0.0151991093159033318
0.0145617664132413061
0.013771288882759648
0.0172267011570371546
0.0169309240348299861
0.0165952685419036641
0.016155964029859287
0.0155660320681120911
0.018343371023142211
0.0181490257141087886
0.0179745819208208223
0.0178096719069865614
0.017637817308471547
0.0196692792637135974
0.0195432699643435237
0.0194521647301585977
0.0194022199225818218
0.0194026068628949562
0.0194736225030524152
0.0196637880011359401
0.0205260143014452945
0.0205268133844816666
0.0205715653473521054
0.0206768527903539445
0.0208630979537945231
0.0211609394122850777
0.0216328977155078525
0.0213847113341416976
0.021528858190865998
0.0217245726038150094
0.0219936995107476753
0.0223635182171653263
0.0228708636657521634
0.0235703077711524461
0.015860594448528588
0.0163375774545812917
0.0169349635622588306
0.0176941632296820014
0.0186730427954012387
0.0199552437092326562
0.0216613702432593355
0.000597434491310670952
0.000154953736917432531
0.00398016775106931845
0.000308489039478708341
0.000783389543651741792
0.00492815777893818811
0.0120684888950431252
0.0155402700967982067
0.000643415943085317026
0.00411492461959726916
0.0146471944708937863
0.0174661777361924675
0.0211704047966561719
0.00194043544261551532
0.0111009406791495128
0.0142230450491033066
0.0153214435345134237
0.0137522678198845269
0.00660309281812142268
0.011839944575960366
0.0131555440350048479
0.0147464267240542089
0.0106019563981680168
0.00438088033950206641
0.0122413095151834538
0.0123309080744312804
0.0132820787541088822
0.0145541836857879109
0.0111516831200344033
0.0134090224083214526
0.012932181780533767
0.0129214908606373018
0.0131936989383361104
0.0141912932278662595
0.0148459451061669339
0.0143523710541397561
0.0138815567635213952
0.0134520506975225693
0.0132167101871716805
0.0160234151070087656
0.0156251804744751317
0.0151241475603269924
0.0144328884117658207
0.0135915509224698045
0.0171762133595838584
0.0168345004777192588
0.0164456527103114675
0.0159052783657538908
0.0151413234643276197
0.0182607242484307507
0.0180237327204452145
0.0177866143619336732
0.0175164268659423299
0.0171492178239989572
0.0196383679383891341
0.0194893610733244543
0.0193661292280905249
0.0192726610628095631
0.0192123251753441998
0.0191950416115411401
0.0192433040133228629
0.0204899519092411816
0.0204712007397116758
0.0204894543233278166
0.0205594929146916475
0.0206985802767835278
0.0209334168968471727
0.0213218368505629745
0.0213390476965405577
0.0214697607656696605
0.0216476827242666203
0.0218945680991517073
0.0222365071999940829
0.0227123249641673144
0.023381382600867591
0.015789012774774118
0.0162511509268666587
0.0168320964761459815
0.0175747444883504918
0.0185404929483207019
0.0198211774645371021
0.0215574525653209961
0.000525784704518402228
7.20009489947022539e-05
0.00267851677447316326
0.00014872258130334265
0.000552115990886219155
0.00443196233627497944
0.0111236438959564261
0.0105961896748719454
0.000296225577535347946
0.00360272700198365761
0.0137754773092726209
0.0169982146938751875
0.0191184527802167083
0.000760974829075091765
0.0105731050552607155
0.0137751392488100147
0.0146974421681171346
0.0134664173154414486
0.00266751384211333376
0.0123283277690387355
0.0133080458689836013
0.0139180458991237689
0.0110008431083512895
0.00726145235366297201
0.0126611457481011352
0.0126543442802693074
0.013689987441892577
0.0145344165191429071
0.00873649081256108739
0.0137198519794051003
0.0132634754742303584
0.0133155000002691086
0.0139124981071879778
0.0151863245262847668
0.0150979849331024461
0.014579781305123312
0.0140904427902154798
0.0137044639953283563
0.0137746125792805266
0.0161224267943163198
0.0157160147915485389
0.0152070630508832402
0.0145216189915863911
0.0138163159372410495
0.0171900749791321292
0.0168177382675321271
0.016389846350119381
0.0157849351220881277
0.0149147355473130093
0.0182296817496453677
0.0179534699151914987
0.0176590517684092549
0.0172869663652257775
0.0167416501866587582
0.0196368351503792976
0.0194647580990655183
0.0193113096888887746
0.0191752038929341277
0.0190547361422696536
0.0189460467264436494
0.0188321591497811504
0.0204685722697785059
0.0204319441831795311
0.0204243230084472996
0.0204587603432017373
0.0205483178001586927
0.0207155022736636406
0.0210059856250351673
0.0212997761548098553
0.0214172498512985032
0.0215775677335197855
0.0218009657117004645
0.0221132512888382697
0.0225533517129729646
0.023184610597097581
0.0157137320889895321
0.0161596335193091023
0.0167232718694697406
0.0174482489154604917
0.0184008805385134228
0.0196825326372970788
0.0214567970606048056
0.000286388303167508075
2.76932763610555075e-05
0.00129917585804786026
6.08259422739498807e-05
0.000643441749072815733
0.00372815220488598381
0.00882842726367835326
0.00649573741524938318
0.000241169517606993814
0.00396435859888488121
0.013405118850353755
0.0173739778097057804
0.0160531738844792403
0.000492591242537127874
0.0116442002144134197
0.0135262679672787552
0.0150339745104987894
0.0163449114762278906
0.00130734392882395469
0.012639396618561699
0.0133157938222499481
0.0137790247718389616
0.0128285791323382668
0.00510964898847703162
0.0129273426330445106
0.0128035304921180343
0.0140140703214442219
0.0145190135577806488
0.00608649427598614411
0.0140075355924400968
0.0135464381645583245
0.0136953603963644293
0.0147036659205541393
0.0138936711710663727
0.0153319249813497951
0.0147862482905374137
0.0143647304423525617
0.0141516313706608297
0.0148782859472552358
0.0162970386976443969
0.0158715483339917154
0.0153644126874200055
0.0147381429220294086
0.014228426449274233
0.0172625645379076639
0.0168728876588809737
0.0164165290234420252
0.015786432843823639
0.0149559539923583631
0.018251444057502373
0.0179403198506293965
0.0175910694744912492
0.0171186242997522255
0.0164336598523727138
0.0196591155471544064
0.0194682991668306341
0.0192869257414617495
0.0191122004985638527
0.018933537614911549
0.0187260085370908012
0.0184357191990880374
0.0204618388185877007
0.0204100019346145044
0.0203782142672671168
0.020377045162429705
0.0204156939400948097
0.0205090618127090202
0.0206809695194947046
0.0212683098257456515
0.0213726495470680546
0.0215160081973449768
0.0217158531011972904
0.0219972862981690775
0.0223978222328607736
0.0229826239852366047
0.0156378382895345884
0.0160668629051117125
0.0166130477843243196
0.0173210039380334128
0.0182617905698792896
0.0195479366904024281
0.0213636876845797706
0.000355744733187545467
0.000314765052807167926
0.000522843513625834188
0.000421554366203045463
0.00103509896481788826
0.000817242227172544264
0.000585141498690544331
0.00126886473912490557
0.0019627757122846444
0.00132133697631123996
0.000824290844168375811
0.000244180569841140403
0.000224663990344417828
0.000344891219329144854
0.000291805819403276366
0.000653572664584188188
0.000488493406380941376
0.000374644925949483307
0.0015697470931547667
0.00111898173037307735
0.000693698981709453826
0.000453256315840234363
0.000150463951477275399
0.000107553343931220761
0.000197723707690158364
0.000125786393541733101
0.000376199150020495288
0.000247714186125460971
0.000139316484176226543
0.000841165987128207355
0.000543848297607932426
0.000275525756107909887
0.000137092827250021639
5.20988562033007109e-05
4.47520878614159927e-05
5.92818061340565522e-05
4.92870686721123667e-05
0.000119556931163804299
6.60154407728369685e-05
5.32780694630143002e-05
0.000320286887012432989
0.000136363051235204469
6.70184248379382402e-05
5.62808823273856093e-05
2.88552425761911361e-05
3.6006773697232123e-05
3.16994556689889466e-05
3.98412769802405488e-05
3.71271481330349848e-05
3.47511011161674206e-05
4.39853138490322663e-05
8.52446662621594154e-05
4.07036239902415706e-05