/*--------------------------------*- C++ -*----------------------------------*\
| =========                 |                                                 |
| \\      /  F ield         | OpenFOAM: The Open Source CFD Toolbox           |
|  \\    /   O peration     | Version:  2206                                  |
|   \\  /    A nd           | Website:  www.openfoam.com                      |
|    \\/     M anipulation  |                                                 |
\*---------------------------------------------------------------------------*/
FoamFile
{
    version     2.0;
    format      ascii;
    arch        "LSB;label=32;scalar=64";
    class       surfaceScalarField;
    location    "0.780000000000000471";
    object      alphaPhi0.water;
}
// * * * * * * * * * * * * * * * * * * * * * * * * * * * * * * * * * * * * * //

dimensions      [0 3 -1 0 0 0 0];

oriented        oriented;

internalField   nonuniform List<scalar> 
20856
(
6.01532929583585963e-06
-2.03979565557427601e-06
-8.21235229053908212e-07
4.74242708173019067e-06
-1.1627617578483939e-06
4.05259179963995813e-07
-5.30074848575452841e-07
3.1420947893164693e-06
-6.83622136085341689e-07
3.12511973210179256e-07
-4.28184943629423775e-07
1.98587125448658065e-06
-4.10364061649229093e-07
2.527959997025164e-07
-3.50748315781322477e-07
1.19712942453561657e-06
-2.19678261863239345e-07
1.81941153514615185e-07
-2.37239286330941466e-07
7.80338810001032251e-07
-5.83716219437809477e-08
1.08032402883308748e-07
-1.31967571091401988e-07
7.16357076309605125e-07
8.53008154141098232e-08
4.59229634803342974e-08
-7.28925435096960537e-08
7.03089755150830723e-07
3.02926367956078622e-07
1.40847729710045572e-08
-4.14930903880592264e-08
6.68131683689306365e-07
7.52295595348866813e-07
-6.44923841396037445e-08
1.75704807790115052e-08
4.13332908251112787e-07
1.49789739544794073e-06
-2.48585416396763334e-07
1.56780635737600346e-07
1.41622403475746062e-07
2.33308390306878829e-06
-6.86494284475758426e-07
5.07631982636811959e-07
-5.72371553690960408e-08
4.86848804003854411e-06
-5.49463935157463986e-06
3.67086009988636373e-06
-7.2539751155776362e-07
2.90346715597138072e-05
-2.97487170636394913e-05
1.81677547388699298e-05
-3.25300039820354539e-06
5.41447877002226505e-05
-1.03675455766896394e-05
8.84001909280003053e-06
-1.43142363690967356e-05
0.000153431904081962874
4.20117248081011533e-05
-3.00550514668650607e-05
0.000848915308346464463
9.97084445823402091e-05
-0.000102352466618057532
1.79243342138428909e-06
-5.43096823472373495e-07
-3.44237309118423408e-07
9.25058852351287504e-08
1.16670673758513477e-06
-3.60923656316901184e-07
-1.82270877531372073e-07
-8.25257071568605656e-08
8.33916508230908518e-07
-2.34267762920925005e-07
-1.73458979134536468e-08
-1.5852783067657251e-07
5.86235580753509599e-07
-1.3699664467621369e-07
5.161549416823212e-08
-1.20524098093139861e-07
3.95700130912703542e-07
-5.12760493548657712e-08
4.03438370479029142e-08
-4.98532574600509723e-08
2.90721812274720956e-07
1.49894865228841541e-08
1.90307530407283898e-09
1.80090764235802306e-09
2.49353360112538285e-07
1.07095268632928217e-07
-2.38246219026971351e-08
2.50121340247922066e-08
2.64911338793190759e-07
2.88200703057825519e-07
-6.31972361213289886e-08
3.74521002989316936e-08
2.53400011115074898e-07
7.93485541725609998e-07
-1.52765494290176253e-07
8.87635145389659498e-08
7.2387120188483105e-08
1.74472032374519812e-06
-3.66616772629065297e-07
2.30815648398620204e-07
-1.83640139425299766e-07
2.68121005581345656e-06
-8.56494907747753937e-07
6.24695180444488176e-07
-1.23636011904224958e-06
8.18285702739010961e-06
-7.76591497636054779e-06
5.40881263324107169e-06
-4.47624654436382721e-07
3.22404767008141745e-05
-3.16594989860956031e-05
1.61666574651966352e-05
-1.1040705797369257e-06
5.40589270662649314e-05
-1.06726533499411302e-05
6.89653146010668818e-06
-1.87137165551943289e-05
0.000165791990662073871
3.92049701168422721e-05
-2.91187785782414169e-05
0.000818959546347866542
9.79435172583386672e-05
-0.000100447191819789161
4.30081151657243135e-07
-4.16152314923058979e-07
-4.07578195735285391e-07
2.02006340944001932e-08
4.43765614531142208e-07
-1.77062878880270874e-07
-1.19805986055868344e-07
-1.16297215700477756e-07
3.6757756177991311e-07
-9.54186226280142427e-08
-1.5573718860322362e-08
-7.04604987765367015e-08
2.43279071322535439e-07
-4.80429113108140716e-08
-2.42999078460408477e-09
1.38808575920440441e-08
1.27627393424249268e-07
-7.43923935577482894e-09
-2.14532788544338939e-08
6.31149763418574007e-08
5.97747992678601039e-08
2.29850068742156496e-08
-5.66889086486060654e-08
7.52635570699193132e-08
5.03556686693290922e-08
9.92939475845908747e-08
-1.04008991862054199e-07
8.51643776357554928e-08
5.34132477492792034e-08
3.19929159265435668e-07
-1.57214203532990707e-07
1.04552740234204907e-07
-5.6452151332472287e-09
9.35072375585442075e-07
-2.76403158833851137e-07
1.67309625354616772e-07
-1.10268414006279106e-07
1.98804757875681872e-06
-5.5551450409371404e-07
3.51947710981281346e-07
-3.21671133950798164e-07
3.23053160122028828e-06
-1.28647996771268055e-06
8.98990762591125279e-07
-1.09040745100262347e-06
1.27821223726556054e-05
-9.17912816387048868e-06
6.74646214485481931e-06
-5.71740109759792241e-07
3.52568963509283998e-05
-2.75220566362857543e-05
1.39294564815401963e-05
-1.23545796410454636e-06
5.3722395103943464e-05
-9.77058631012814485e-06
6.28991972737865316e-06
-2.09679075520734376e-05
0.000171731865043820049
5.0709078287425491e-05
-3.17520813766569086e-05
0.000796926780839356708
9.57811543953399476e-05
-9.74175094055922179e-05
1.60485606015293205e-07
-4.6294856218248565e-07
-3.68235220672597568e-07
-6.26599124833646238e-08
1.75698326670655681e-07
-1.22103603997955857e-07
-1.3692651469164915e-07
6.97048126083107342e-08
1.00752841324271047e-07
-6.49594837272580396e-08
-1.6061045358007697e-07
1.99218244154900743e-07
7.41762710081432877e-09
-2.66563651436157211e-08
-1.23036574322479136e-07
1.65276103440627658e-07
-3.71153575288723405e-08
-3.07972110096687666e-09
-1.25845465057156929e-07
1.31063722517153622e-07
-5.80286904923289837e-08
1.73763087702932066e-08
-1.62454271771196192e-07
1.54927546705690641e-07
-7.21703288406002241e-08
1.18854471789116105e-07
-2.17317773638112547e-07
1.69787151505803821e-07
-1.12693974844824787e-07
4.08026603694248103e-07
-2.93312543613600233e-07
1.91867749668593172e-07
-1.83788953492077458e-07
1.11199530453730181e-06
-4.43157495130956824e-07
2.73755340481512523e-07
-2.07849941046623416e-07
2.18901595199038107e-06
-7.86681925937445769e-07
5.2471895696989431e-07
-3.02282567675272267e-07
3.97341909188770053e-06
-1.88510394384241616e-06
1.34002135597682629e-06
-1.01825768491885952e-06
1.82584826744908609e-05
-1.09391653594167771e-05
7.06464232084948964e-06
-8.47284073906091954e-07
3.71203469136724073e-05
-1.95577845764986815e-05
1.26647813320945279e-05
-6.01469969818211055e-07
5.09733699604513e-05
-5.99466419435228089e-06
4.72661242691524595e-06
-2.51831337707006113e-05
0.000140340442162343335
4.58550055288526991e-05
-2.47065781605756524e-05
0.000772752792763779892
9.61928233245680579e-05
-9.66929061644917386e-05
-1.57158414488199846e-06
-5.14051917494454576e-07
-9.56200414591547553e-07
8.18380605592894712e-07
-1.5123087618929754e-06
-8.31539667078540074e-07
-1.25026038067234805e-06
7.36221849825650866e-07
-1.0604050367176926e-06
-9.09509197217995306e-07
-1.04380335611596131e-06
3.53058255825265507e-07
-6.34734026010420741e-07
-1.04435987323554645e-06
-7.50280846046378247e-07
6.29706417977344696e-07
-3.10935391220084743e-07
-7.57085909873256711e-07
-4.92579155297290075e-07
7.69229388771088784e-07
-1.33194781355617408e-07
-4.89249429106540608e-07
-3.83296838295598526e-07
6.41614100605146314e-07
-8.28593660934511253e-08
-1.69496457782865875e-07
-3.09126403727826868e-07
3.7320865566543796e-07
-1.12742387284319465e-07
-6.81751200362123065e-09
-2.40519333485782344e-07
2.43415167258282616e-07
-1.43147648828005675e-07
1.81352282618195316e-08
-2.59792321019848074e-07
2.47747313445783989e-07
-1.86539656468418164e-07
1.5645938394199365e-07
-3.29649623453676193e-07
2.76721371949115508e-07
-2.62121425116041451e-07
5.3453137881023628e-07
-4.42267786375317299e-07
3.17673127511369274e-07
-3.25783275725780781e-07
1.32305434404549781e-06
-6.49795470209156033e-07
4.25228791028519823e-07
-3.01837580220645695e-07
2.46180130321374881e-06
-1.16739273306737474e-06
7.88747256890201099e-07
-2.79912185721604158e-07
5.13549038590152126e-06
-3.28108377413295074e-06
2.03290486491935295e-06
-1.89839846607646426e-06
2.61672203780900159e-05
-1.37843796369933002e-05
8.37818550240668574e-06
-2.80385667344995895e-06
4.14874156771330319e-05
-1.94785575985284586e-05
1.36060801338498678e-05
-2.40814580353648028e-06
4.72176523077252831e-05
-5.03521349429780886e-06
3.96544050898463955e-06
-2.78076089536562923e-05
0.000136684613207263566
3.02144232044016976e-05
-2.55721169231293936e-05
0.000739694497848862771
9.52811171019505166e-05
-9.5873050807083145e-05
-2.88940249065379779e-06
-9.76541279545886492e-07
-1.2601699508894808e-06
8.61998351664310169e-07
-3.71609552920884451e-06
-1.96653368159163751e-06
-1.98441970527950586e-06
1.10505983163856659e-06
-3.04673567735957027e-06
-2.0659547156036384e-06
-2.09298634085199795e-06
1.1864393359092175e-06
-2.38214490933138744e-06
-2.36980146331866615e-06
-1.45130386269522623e-06
1.72368094803354762e-06
-1.7130458600298421e-06
-2.67192242144177481e-06
-1.03187556487776701e-06
2.10286483431363463e-06
-8.56790410060414985e-07
-2.50546735602380771e-06
-6.53169099105943048e-07
1.86611473768254233e-06
-2.26830052446387558e-07
-1.29917034507451358e-06
-4.79848765206100181e-07
1.02928427952168873e-06
-1.81864657539975795e-07
-1.28661494792499598e-07
-3.44454476367593692e-07
3.8491820740981867e-07
-2.17712003914625086e-07
1.13370625182105211e-08
-3.50242873553128857e-07
3.31331308409372158e-07
-2.83236505080135419e-07
2.05236542095781751e-07
-4.3162473121515278e-07
3.76192413126696542e-07
-3.90936679592945512e-07
7.1320897699838668e-07
-6.09335652713962145e-07
4.67680049127225284e-07
-4.76586136285416507e-07
1.67076956681649983e-06
-9.36653334784115006e-07
6.40090755869736232e-07
-5.93988983114747134e-07
3.15670028491915014e-06
-1.8958487332212867e-06
1.26504168273372637e-06
-1.06035885831420442e-06
8.15237813397640733e-06
-6.3031633815162345e-06
3.73927459513265022e-06
-4.87193170131864491e-06
3.6934630292258831e-05
-1.92055351018968033e-05
1.21388345838405653e-05
-3.67698344988977265e-06
4.3683841426909324e-05
-1.8677323389444771e-05
1.32744211050192142e-05
-4.0321229729105077e-06
4.51909070563722521e-05
-4.43692161505642254e-06
2.54885976368527137e-06
-2.82799548158138415e-05
0.000163650096950475527
3.62924298145209947e-05
-3.00723034290435956e-05
0.000705290969491767701
9.44592767740944723e-05
-9.50043156558734561e-05
-1.10145424383929371e-06
-1.08219611912189373e-07
2.70551514047350502e-07
1.71099554887779904e-06
-1.27048158033743616e-06
-6.27740828540468769e-07
5.28040806957106223e-07
8.00734011222326074e-07
-2.73113512068654934e-06
-1.38354216011215776e-06
7.63319766659816941e-07
-1.44664261752614908e-06
-4.2008564314490197e-06
-2.34652819892625161e-06
1.6086001809564397e-06
-2.95611795912979465e-06
-5.8006034712594898e-06
-2.94410960521849375e-06
2.38766654844961506e-06
-2.61453938318087917e-06
-6.05805964523051547e-06
-3.12217571491685995e-06
4.11603185387825658e-06
-2.963340063697138e-06
-5.95035830071520726e-06
-2.41898267334890662e-06
4.69541667852348554e-06
-6.18556908382742783e-06
-3.91034629328319844e-06
-1.95408584986562646e-06
5.11627090069531022e-06
-8.17712002534437409e-06
-1.20737727775387872e-06
-1.42979678513248224e-06
3.89856693963185848e-06
-6.23161000612924183e-06
-4.71239175109507544e-07
-9.35987468575239218e-07
1.16709040706934113e-06
-1.01697701521083954e-06
-3.87028219555904537e-07
-5.70175731713340245e-07
5.44570625033008135e-07
-1.13774495074396921e-07
-4.18454419385340309e-07
-5.57048015827990615e-07
5.56230620911062151e-07
2.8987575063780145e-07
-6.68291886139585017e-07
-9.31786541400630074e-07
7.54250638027532917e-07
1.12050912501112839e-06
-1.10079472693889456e-06
-1.64338639045987746e-06
1.18989402530769876e-06
2.55299530859417697e-06
-2.42667269136574685e-06
-4.17764075494413581e-06
2.90026978968993204e-06
5.69113890124172203e-06
-5.72284232498766358e-06
-1.35948304813062174e-05
8.95749373321194059e-06
1.59485506418570424e-05
-1.01390758500343365e-05
-3.8656394360260109e-05
1.95970466103153479e-05
5.49483718222586816e-05
-5.02017428812622626e-06
-2.86779879818278257e-05
1.1694194702537452e-05
4.47546941303992489e-05
-5.29475838918681676e-06
-3.01789955833389004e-06
1.20459078234927816e-06
4.26620285146327182e-05
-2.86720270091436561e-05
4.26343449219198346e-05
-3.35732188380782385e-05
0.000171153160893853151
9.34086013301207183e-05
-9.34414907374352956e-05
0.000668254974784936759
3.19198114638141862e-06
-1.35595456868428866e-06
2.95689396082230278e-07
2.61262294763791036e-06
-6.45211306047125649e-07
2.24215770622135549e-07
1.59879582226059872e-06
-2.85187681914122331e-07
1.62705975684980261e-07
9.18258069019443537e-07
-1.24548733547531782e-07
1.16787882530453743e-07
6.05554716691896984e-07
-2.69256300400187071e-08
5.43437345891883638e-08
5.5511500115571926e-07
8.71827835993154098e-08
1.08246985221872414e-08
6.63276636049082827e-07
3.41191915996692669e-07
-4.31609440375939366e-08
6.82088547751192081e-07
9.92197678826989023e-07
-1.455545786405551e-07
4.35232508797626103e-07
2.07339079380616179e-06
-3.78972974310776071e-07
1.87108228244643911e-07
3.38889306028324876e-06
-1.07745426725679251e-06
-2.00079103805294323e-06
8.26141936335238799e-06
-6.92620908749131839e-06
-3.61680554516691582e-06
7.34469114659140707e-05
-4.6759072596649677e-05
-1.12166300061365088e-05
0.000116296062757095594
-4.30466005070278935e-05
-1.86441279960709054e-05
0.00025900080905715266
3.698711109193264e-05
0.000859677214176125066
8.56185072482509364e-05
1.16979672914316223e-06
-1.3757434224705685e-06
-4.51067644313609507e-07
7.00629182011404443e-07
-7.01416041571917416e-07
-4.21730367429980618e-07
4.61248298026189515e-07
-3.02620125942636255e-07
-1.77822255584252716e-07
3.13949860232487936e-07
-1.05993539048658123e-07
-3.09583743860495976e-08
2.05950903105791114e-07
-2.93399720181622469e-08
4.01773345205649281e-09
1.4519651626013003e-07
1.67087816798162297e-08
-1.48440757774190295e-08
1.54150621609454992e-07
9.19918893212294517e-08
-6.28815005216671903e-08
2.20670204376916323e-07
3.43487436470757226e-07
-1.41634146163911976e-07
2.2775321458349246e-07
1.09229492420576751e-06
-2.77186362777969951e-07
7.32766909010894406e-08
2.37457186861445137e-06
-5.99044067106310661e-07
-8.0024026721468377e-08
3.85490428953156307e-06
-1.31821582496939527e-06
-2.66637839515398771e-06
1.26452755554161772e-05
-8.62636114049991055e-06
-6.19221766367126514e-06
6.51519770011864418e-05
-3.40018264160929631e-05
-6.56217014118873888e-06
0.000119496320769173128
-3.94233495512191044e-05
-2.70040496549077094e-05
0.000279445769441155666
3.07867569763814185e-05
0.000861438593366552576
8.28367804963654048e-05
6.62713174276519897e-08
-1.36435005183500697e-06
-9.44555787985223672e-07
1.76087205774879143e-07
-4.24549338148101865e-07
-5.72832766449907694e-07
1.75727960531775607e-07
-9.5973194929521063e-08
-2.5629393965726392e-07
1.0359563335775256e-07
2.11874842487588265e-09
-8.14372872948317198e-08
3.79388769561163317e-08
2.19647534817628952e-08
-5.47831851301602751e-08
1.24185182421570222e-08
3.97517169523636115e-08
-9.78066327327542254e-08
6.65986850869913675e-09
1.2939054735543331e-07
-1.67634299192532789e-07
-8.69243649826531906e-09
4.30340522874132511e-07
-2.65995087917304328e-07
-7.3049562056780756e-08
1.27145883617986087e-06
-4.58174645082797941e-07
-1.63243846558512376e-07
2.64563970899834074e-06
-8.59827043272480293e-07
-5.6985241891391723e-07
4.58052261375898323e-06
-1.653773402038518e-06
-3.29312417328499375e-06
1.82789223802123807e-05
-1.13740454626037268e-05
-2.8162876173861275e-06
6.35196808801675815e-05
-3.51576555386207709e-05
-1.57191009654734965e-05
9.55370138584145823e-05
-3.58343137249101144e-05
-3.59182825484751604e-05
0.000314718207069817528
3.78465463250893445e-05
0.000833833070856765087
8.27031958914564822e-05
-3.2506401711023979e-07
-1.54024317238518357e-06
-1.14034069790716979e-06
-3.07979638256802131e-08
-3.08018502009764907e-07
-6.95772773350663054e-07
2.50003678158399267e-09
2.80206505313168092e-08
-4.04392160766955654e-07
-1.61079275627114171e-08
7.28698879352919974e-08
-2.31037405810276131e-07
-4.43330596358413949e-08
5.33208722757914961e-08
-1.66114776242750018e-07
-7.8695920294653321e-08
6.0570148648830586e-08
-1.914988538499283e-07
-1.18702163560151817e-07
1.68424863594101743e-07
-2.77031108621006052e-07
-1.88929773812151239e-07
5.33807044661776476e-07
-4.12663621631761585e-07
-2.82917097222592687e-07
1.45710511292998723e-06
-6.4293022862659578e-07
-3.37161908082599605e-07
2.88927452380425782e-06
-1.1164560842589716e-06
-8.2691590729903913e-07
5.57090360704709795e-06
-2.41836823025417061e-06
-4.00800165100178105e-06
2.71206117826189098e-05
-1.51758066668563841e-05
-5.96965275432763078e-06
7.75216836720793765e-05
-3.55050220009711943e-05
-1.50329530514098733e-05
8.65207699132786845e-05
-1.33581928615656745e-05
-4.09601741482277742e-05
0.000207880257720728054
4.28193115983031472e-05
0.000801023959355146747
8.29836720638677476e-05
-3.27607262906086269e-06
-2.4771933529569234e-06
-6.74693045195934864e-07
-3.52040135676343804e-06
-5.03296162786757917e-06
-1.49831681282020266e-06
-2.35319222918103831e-06
-5.02136345433025698e-06
-1.77429811114481757e-06
-1.00665837715747267e-06
-2.42799633956223447e-06
-1.41635297633651708e-06
-3.51319753885779572e-07
-7.18551806492482927e-07
-8.99200477204969097e-07
-1.50467197606152573e-07
-6.88347447885015595e-08
-6.46453352668892447e-07
-7.80501037344114372e-08
8.08606474184168607e-08
-4.84865758267165829e-07
-9.04093888700194002e-08
8.40665388977495736e-08
-3.14428468375517067e-07
-1.32819018871831907e-07
8.24462130759142568e-08
-3.01025210858790696e-07
-2.14216071006976941e-07
2.1557667486907119e-07
-3.79497704697998413e-07
-3.36383283613467102e-07
6.67861743895640485e-07
-5.49472656298910207e-07
-4.63368581583537025e-07
1.69407015480534787e-06
-8.5353311389769781e-07
-6.39664854170068735e-07
3.31787704232153495e-06
-1.55318521552938379e-06
-2.12254619605054106e-06
7.95598949605148409e-06
-4.3298545531414448e-06
-7.72940925365848051e-06
3.9545401389129828e-05
-2.07418082779734726e-05
-1.32973637864216035e-05
9.73455506826689636e-05
-3.60397411385121117e-05
-9.51248056595344029e-06
8.76151566160133648e-05
-1.70278280303334659e-05
-4.4351822268739144e-05
0.000196138379188821318
3.11466613238025737e-05
0.000765080353035887104
8.1090057884133316e-05
-4.4319594965279943e-06
-3.6968004257376637e-06
-1.19606593060014968e-06
-5.10502285328828008e-06
-6.69127196033449302e-06
-1.97596140090360709e-06
-4.45365859537860855e-06
-7.79783241904560603e-06
-2.56619062321102986e-06
-2.48406831058907001e-06
-4.89535822814836994e-06
-2.20641699110935415e-06
-1.10290200351816862e-06
-1.9723570686790774e-06
-1.25058088235382264e-06
-4.78956794062631481e-07
-7.52058079798039336e-07
-6.91039993375537722e-07
-1.91375767704684833e-07
-2.84372952704428981e-07
-5.19522534484340391e-07
-1.50412002626991672e-07
-1.34790547229403905e-09
-4.00838272814052885e-07
-1.93448255240625065e-07
7.32054744070886914e-08
-3.85927829272173155e-07
-3.07186562214349955e-07
2.70679533624561741e-07
-4.71355134954817821e-07
-4.87465772673014077e-07
8.58484096572007203e-07
-7.00364692892828557e-07
-7.26544575112008532e-07
2.11473598178363997e-06
-1.16239925212193348e-06
-1.54487377007318e-06
4.53160811836688296e-06
-2.39873833407370578e-06
-5.67822762987003018e-06
1.36615200157758507e-05
-8.07887889929244031e-06
-1.79615572992599115e-05
6.0389078855817032e-05
-2.88453991597052778e-05
-2.22558987017994577e-05
0.00014400465123318794
-6.94567660132548281e-05
-9.41564624242489961e-06
9.98760764869378133e-05
-3.45240564500573599e-05
-4.52070882073619089e-05
0.000226006516316669517
3.48825198397038512e-05
0.000727929392757272874
8.03869953225067182e-05
-1.43314298762147682e-06
3.24508957456409424e-07
1.41630855116935904e-06
-2.58755187041539609e-06
-4.20366241484676773e-07
-6.33234414087866153e-07
-4.84007972004328736e-06
-1.44349784806344155e-06
-4.40462627165601796e-06
-6.11817537846892885e-06
-2.43389658620419869e-06
-7.47824282088572175e-06
-6.71273839522361644e-06
-3.34902984294058104e-06
-8.69893922375211902e-06
-5.5664940923144713e-06
-3.37157493188575787e-06
-7.62785380797082522e-06
-3.32725172493762111e-06
-1.99902651053668608e-06
-4.81334119559265093e-06
-2.23443939394666373e-06
-1.27631188001216092e-06
-2.58302180225154695e-06
-1.0428653005859989e-06
-8.98455029196997186e-07
-2.06001938879518542e-06
-4.36569064707003251e-07
-5.5606634231131176e-07
-1.08773959596910875e-06
-3.66334247320918575e-07
-4.46930983717199643e-07
-2.34705885643841963e-07
-5.18875382863876385e-07
-5.75635768680305827e-07
3.49908528815113247e-07
-8.81551962428375239e-07
-9.93689860420450606e-07
1.25169852688967827e-06
-1.76313520049122607e-06
-1.87305635230094548e-06
3.24456825889990567e-06
-5.02285811377677729e-06
-4.45222192728001717e-06
7.94632950965493334e-06
-1.70350225831611089e-05
-1.45702643536064094e-05
2.64384099718004214e-05
-4.59894770087907666e-05
-3.92493824570588239e-05
7.89835714988117881e-05
-3.48870329099470181e-05
-0.000105242483189024023
0.000194776087316204472
-1.44297707242510254e-05
-3.74633108847203484e-05
0.000106202380540994085
-4.44411810615741778e-05
4.68589690390212984e-05
0.000266881409090278805
8.01504795419071702e-05
0.000688268913775863154
2.86096560203220817e-06
-2.2319477682780981e-06
6.21778240251768336e-07
1.78365055510443288e-06
-8.39574180325422556e-07
3.94416928176447691e-07
1.36321597994906566e-06
-2.71773174122692117e-07
3.30954624520920207e-07
7.74203972364051207e-07
-6.00755415162432655e-08
1.09869889396900751e-07
6.33530856365429036e-07
2.09575932545187702e-08
2.70839399491493401e-08
6.90555974105166411e-07
1.64214864617883511e-07
-5.42252685102852353e-08
8.64504703064838419e-07
5.67652763485445112e-07
-1.33007933772841958e-07
8.57713096737101759e-07
1.44653375337724135e-06
-2.32540668592243879e-07
7.38365955264313936e-07
2.9058626982958902e-06
-7.37270607283408028e-07
5.01960918082434859e-07
5.35978589266048324e-06
-1.82319747401396113e-06
-3.58965867843764408e-06
1.2119302389855025e-05
-6.28358815602302245e-06
-3.33238951001208064e-05
6.69881701743775223e-05
-3.5652309684743517e-05
-2.96201464757536701e-05
0.00025124812226365431
-0.000105548219540783
-2.32636518949580967e-05
0.000542315219983881508
-1.17463073450752923e-05
0.000910787637987390489
6.43930873057160064e-05
6.79848119879752026e-07
-3.12245595286522007e-06
1.5375017415485359e-07
5.72884442467970085e-07
-1.66755759672536879e-06
-3.61468664930722335e-07
3.35032667234538383e-07
-5.62593427511986207e-07
-3.27987078265171502e-07
1.81608513599945154e-07
-1.07460867658916094e-07
-1.52721019891502704e-07
1.24784481789695817e-07
5.57572684950257201e-09
-8.50495733975329407e-08
1.44868064444592074e-07
5.42877450174459646e-08
-9.71042091203200087e-08
2.30573206201301154e-07
1.79450821725938387e-07
-1.87485293192197617e-07
3.44866942154758122e-07
5.63850229069155469e-07
-2.94304117269038192e-07
3.69954355813383633e-07
1.54573471890163208e-06
-5.08566974919490199e-07
2.97379753368317597e-07
3.22684679038107406e-06
-1.06160808040088292e-06
3.22441695911165969e-07
5.69022224122785341e-06
-2.00916698551069285e-06
-5.40581123864759172e-06
1.55464094080706978e-05
-6.74225014995480785e-06
-1.33905226296932175e-05
7.65069987903706027e-05
-3.72140477478702259e-05
-4.92675327613334365e-05
0.000194958827969603048
-6.28326795510184542e-05
-3.66462091675152999e-05
0.000552734095679283111
-1.21894118681251101e-05
0.000891645844431766094
5.92519449171925657e-05
-5.07272678343675984e-07
-3.84631765111038671e-06
-1.14419104259010128e-06
-2.22688345015990536e-08
-1.72123213242939617e-06
-1.21877095630516752e-06
7.10432303588420903e-08
-3.72138953328369113e-07
-6.62591966895588678e-07
4.22615726090783181e-08
2.41223703221180682e-08
-2.64573945143669873e-07
3.49561040469200457e-08
9.33288799020165153e-08
-1.84762891404192661e-07
3.24160798502243549e-08
1.32250277336160492e-07
-2.04856696196760488e-07
4.34080449035598512e-08
2.37800667037492917e-07
-2.75954338228408727e-07
4.14839000645525437e-08
6.40568218446266686e-07
-4.21005505642826203e-07
-1.78867302566130476e-09
1.6788329356258312e-06
-6.86234625012956236e-07
-6.90273475550395291e-08
3.51292285616461468e-06
-1.29740960722954812e-06
-2.38371871957277588e-07
5.99370924482891403e-06
-2.12345771976084959e-06
-8.71149205842431029e-06
2.10948287778600727e-05
-8.1745855069062848e-06
-2.0007093173811355e-05
9.05454504027976943e-05
-3.84010883977043248e-05
-7.86005362088130956e-05
0.000224471981923341749
-5.79904169865274051e-05
-4.37335075089627753e-05
0.0005201679920712899
-7.82402852395953776e-06
0.000867219385069270218
5.78215554639162376e-05
-1.26928823855004262e-06
-4.54642678092401083e-06
-1.94514390311556783e-06
-4.55545262118690218e-07
-1.81189978347021374e-06
-1.79009427050225897e-06
-4.48316318312870404e-08
-3.21856377571288768e-07
-1.05560085213542471e-06
7.16989108551969867e-09
1.45172461166475408e-07
-4.96925829647481462e-07
3.23535270660648644e-09
1.98965809103865276e-07
-3.24156951205225935e-07
-2.57092162846795529e-08
1.98321552877922978e-07
-2.92137471911230215e-07
-7.37070464711429468e-08
2.91796988511984974e-07
-3.7160554647561262e-07
-1.46032139660338093e-07
7.04186841389849015e-07
-5.25039081357623713e-07
-2.55059748771910913e-07
1.81667851657917477e-06
-8.24778484235486182e-07
-3.68199227456841056e-07
3.70269178249840496e-06
-1.43464948866827146e-06
-1.77471360976563166e-06
6.9743772305536566e-06
-2.56879809073111769e-06
-1.37600840377397632e-05
2.87199165795770626e-05
-1.16030160886774693e-05
-2.69519922419425001e-05
0.000114048796177125154
-4.731358702700164e-05
-7.13330705672119482e-05
0.000268908390216436631
-9.34682405585049941e-05
-5.04051729439553426e-05
0.000401819207347929933
-7.17572670344097356e-06
0.000835429185278299268
5.76788166842711936e-05
-3.24663943257030291e-06
-2.51662787671103765e-06
1.99693086480278515e-07
-4.25661310963826225e-06
-5.79227122767271561e-06
-1.26062956160619822e-06
-3.9206592199019825e-06
-8.3833267901972611e-06
-2.20459618144798477e-06
-2.45640775977876906e-06
-6.59738577323712062e-06
-2.5773979958510137e-06
-1.04778889361596532e-06
-2.554333509649375e-06
-1.930055071378684e-06
-3.1911235722707437e-07
-6.33314647897267527e-07
-1.36844146499834051e-06
-4.41460422590406124e-08
1.17341458037422338e-07
-9.04255328329027743e-07
-1.72335202999894005e-08
3.10871002078814151e-07
-5.51348267293076878e-07
-5.89408673956749031e-08
2.75838983823630939e-07
-4.25583358002582585e-07
-1.5467744868526727e-07
3.60232442566398499e-07
-4.5624778229879921e-07
-2.88537967418485891e-07
8.06621138434008093e-07
-6.29538233914872299e-07
-4.92671172122587049e-07
2.02844601318461917e-06
-9.87844247592366758e-07
-9.18956313978311444e-07
4.11524183347714766e-06
-1.7669554017350125e-06
-4.89356958349606265e-06
9.98267582876913485e-06
-3.84595039853865532e-06
-2.09255987370414123e-05
3.93824952466805217e-05
-1.59214860146383709e-05
-5.37818075375466034e-05
0.000174296092171199844
-6.15042788239892328e-05
-3.93190541416568365e-05
0.00033643617321197386
-0.000103038668176133941
-5.32510183753816493e-05
0.000365510748264947008
-6.80873963045111164e-06
0.000797981055359663917
5.79739671181594231e-05
-4.30503851758817135e-06
-4.09392227572126413e-06
-9.00594502235444208e-07
-5.64229836566890114e-06
-7.86080786761159763e-06
-1.9560151011115962e-06
-5.66818238872579994e-06
-1.20213496044964811e-05
-2.74756136206054844e-06
-4.32612968942534817e-06
-1.13967628062272469e-05
-3.1840151594377144e-06
-1.98538453992845569e-06
-4.34658703616197134e-06
-2.4425831445562537e-06
-7.91810440827455848e-07
-1.51290898595301015e-06
-1.30300101358784937e-06
-2.52970001710781952e-07
-2.21707215143624124e-07
-9.399721361083004e-07
-1.11193939886707282e-07
2.33014844684832427e-07
-6.04683067861498252e-07
-1.27265170387772719e-07
3.05201863905675938e-07
-5.06394200010135661e-07
-2.61172609707769868e-07
4.28998975076369474e-07
-5.22205080650027651e-07
-4.93691876793264564e-07
9.52998310562542249e-07
-7.12297921908950336e-07
-9.15595318125737306e-07
2.40243806589831357e-06
-1.21943493492832779e-06
-2.53064799947189488e-06
5.49956911152351815e-06
-2.32566963661761619e-06
-1.16840583969904516e-05
1.68773346668221322e-05
-6.05532296201243057e-06
-3.74013009649421397e-05
5.71469991365490201e-05
-2.07818670356374084e-05
-0.00010552168985954054
0.00024442829775176019
-7.9631784233234515e-05
-5.58262378569405278e-05
0.000365652399640768668
-0.000106274350046996346
-5.79237876493783515e-05
0.000424453478730034872
3.23574699602976581e-07
0.000756606206504658154
5.75315581613119919e-05
-1.09601863564203352e-06
6.71763071673629048e-07
1.6278693712322311e-06
-2.07559633490987275e-06
1.46610188376564227e-07
-1.09542249213022214e-07
-4.80240318224893522e-06
-1.5119806975296199e-06
-4.93600182586584385e-06
-7.12344584146488812e-06
-2.33047127118235014e-06
-8.61533917757061014e-06
-7.7653303550277938e-06
-3.34019405836882404e-06
-1.36394198522345856e-05
-6.71823942101780131e-06
-4.01996177186909643e-06
-1.51206022175022139e-05
-4.2162918131765128e-06
-3.28355691667963614e-06
-9.5345178310397622e-06
-2.17199344427290137e-06
-1.6717793372939949e-06
-3.48721408417421148e-06
-7.46519673838697477e-07
-9.71367176426550832e-07
-1.80793894303021558e-06
-2.93573178488264455e-07
-6.47243567787115623e-07
-3.01140586352068944e-07
-3.10810603139961162e-07
-4.53654773988447525e-07
1.74092476804496198e-07
-5.57506950182276906e-07
-5.47541731307036762e-07
5.29229688804435093e-07
-1.05535381346585091e-06
-8.75084748663240816e-07
1.27638318500253841e-06
-2.34500662668964628e-06
-1.64597842538687719e-06
3.43606325120836863e-06
-7.29355991552825665e-06
-3.39880384803364071e-06
9.4197923610851333e-06
-2.27127949693481004e-05