/*--------------------------------*- C++ -*----------------------------------*\
| =========                 |                                                 |
| \\      /  F ield         | OpenFOAM: The Open Source CFD Toolbox           |
|  \\    /   O peration     | Version:  2206                                  |
|   \\  /    A nd           | Website:  www.openfoam.com                      |
|    \\/     M anipulation  |                                                 |
\*---------------------------------------------------------------------------*/
FoamFile
{
    version     2.0;
    format      ascii;
    arch        "LSB;label=32;scalar=64";
    class       volScalarField;
    location    "0.780000000000000471";
    object      rAU;
}
// * * * * * * * * * * * * * * * * * * * * * * * * * * * * * * * * * * * * * //

dimensions      [-1 3 1 0 0 0 0];

internalField   nonuniform List<scalar> 
7340
(
0.000507060451686822209
0.000678699300633538736
0.00101665342348807269
0.00146829067555464383
0.0021188199519395789
0.00317234709638839927
0.00425982461023870738
0.0036502142337537704
0.00278120367188907074
0.00206361151306474816
0.00157812875947244526
0.000751771790703087569
0.000148093935533598472
0.000111461180067774977
2.5200706623477104e-05
6.73408442973110694e-06
0.00145255465605073283
0.00215520897683013028
0.00288442639376018184
0.00362955062684364952
0.0048294411238718549
0.00665524447097982138
0.00622797800018185226
0.00480190029812974269
0.00318786478367322646
0.00208749448100247186
0.00146909445715459413
0.000500145018757817039
0.000125164149199007949
0.000112041050136077127
3.33665352918430019e-05
6.98596304257920207e-06
0.00383308251743972803
0.00429890167822090125
0.0050907025269147782
0.0064447750092258586
0.00797611129471239265
0.00885954366090509204
0.00739315456893314005
0.00532627942262765917
0.00323764369500158635
0.00188760066890526811
0.00123803187972279386
0.000387623967532449204
0.000126873005847738475
0.00011528368315654254
3.01001445756086597e-05
7.04865693490708823e-06
0.00452521612211751519
0.00656397876024423978
0.00709553519171066561
0.00872074886841836538
0.00939135504002575755
0.00766591094916678744
0.00598020358971686986
0.00419022407072633472
0.00253383919324166613
0.00159153746552597678
0.00103888881102781497
0.000295276894912876412
0.000135699547653899229
0.000120671678402684083
3.22207774118762067e-05
7.17072310670892378e-06
0.00182635169644897524
0.00158854261332741476
0.00182955571749504218
0.00217450934424350288
0.00294701668178995761
0.00401346720380712802
0.00553372883565505114
0.00635335103806972373
0.0056222624430698068
0.0044166540742738682
0.00311858483579480769
0.00203054293972928677
0.00136982927131215973
0.000809653021005544765
0.000216536396541756816
0.000127078042190125422
0.000123845471884692811
3.65288341725927222e-05
7.34658949220310293e-06
0.00120531627232700633
0.000833231290865236876
0.000859327496708455732
0.000989360024392448674
0.00111393273878067464
0.00142911590884253086
0.00243776200692150113
0.00463873562539137557
0.00472979777265592274
0.00365794387063530547
0.00252263181032684209
0.00167506094899020101
0.00111006071103126355
0.000534861303360525692
0.00015025522986323415
0.000115741276377172574
0.000128148800495908404
3.37183173776821302e-05
7.59517543434874906e-06
0.0019727492118103802
0.00187318196142070652
0.00111443180640958097
0.000669032672139440094
0.000546260018491431278
0.000482348456213197276
0.000436526996168349647
0.000449455008628013044
0.000728140013590922825
0.00212075603542113533
0.00344235469686713117
0.00293379868036996918
0.00194225534694958055
0.00120978955538945054
0.000656828446301488747
0.000262859331679626091
8.75649822171411482e-05
9.45280164482408138e-05
0.000133123631733509897
2.87294107057345266e-05
7.88645310654188906e-06
0.000813672351450073239
0.00110421844384730821
0.00171045876888158686
0.00260827732561426211
0.00393824502669092979
0.00508402382449065111
0.00372250967479479137
0.00244287529928054019
0.00168686592061590562
0.00121048530349852804
0.000477362717825596436
6.92645588845170954e-05
4.78016426031458781e-05
1.70400090272486983e-05
6.83352931757965538e-06
0.00133491319715133439
0.00224290612645408095
0.00364523557360687395
0.00527946613935786815
0.00699790138105826562
0.00887086364481569703
0.00741332168728090456
0.00483754044204042812
0.00276337273469231181
0.00168456806932633764
0.00113910296834431285
0.000366821508275864787
6.80059155316514101e-05
4.43254950869196961e-05
2.10306413807082318e-05
6.71913511509819587e-06
0.00227114950327230803
0.00403088138845666705
0.00620803433291032374
0.00910530261375844599
0.0110686165340675713
0.0109563618150471456
0.00805231441653528508
0.00501151134031244117
0.00262288931128044737
0.00149445596682646568
0.000956744375915613023
0.00027040752977481225
7.4406462562217376e-05
4.35116506772592084e-05
1.69120204599036112e-05
6.73216146796679894e-06
0.00184758983974259335
0.00434107950645987953
0.00804042837944615729
0.00938332726634454398
0.00867432367983331058
0.00719737074340576558
0.00539324347492208932
0.00353647100482431176
0.0020574797194780883
0.00128183473567998734
0.000790639263469469864
0.000201319234796549487
7.25867768028114191e-05
5.9117279157903001e-05
1.83388113135788356e-05
6.89825284021431766e-06
0.000982722138206326484
0.00066053127499707113
0.000712047668214801574
0.00121419154204930831
0.00262141420323057633
0.00486522493204112789
0.0055844383086397038
0.00604481699654064748
0.00548077583224155715
0.00420459077753588661
0.00279717793896153838
0.00171218237052038979
0.00109030808713850617
0.000554399054883391467
0.00013686088236782216
5.98342614066558803e-05
6.38291513980911412e-05
2.5416396067529026e-05
7.1160340725491832e-06
0.000706494706446717316
0.000468202456233102649
0.000436167276985689376
0.000662961295876084589
0.0013370906992615061
0.00263611131554838301
0.00399098510045436082
0.00510376084622713583
0.00466771402816568062
0.00353771449882494182
0.00231156094349929285
0.00142144232854329302
0.000838552342361431743
0.000329530890059142299
8.83510674504972766e-05
3.96893497457913956e-05
5.24024993481343859e-05
2.50008030367960983e-05
7.36912180780126046e-06
0.00189172860561845194
0.0016199198537165645
0.000611934014473984145
0.000398193254512055773
0.000338575026981056634
0.00036468904549405315
0.000629988329843065458
0.00101597953318454661
0.00149934198990678931
0.00250563576233863491
0.00350648268450994135
0.0029050523566557661
0.00176898062517301391
0.00100364838394196242
0.000484061445165735694
0.000163725586233506816
4.89919621589997908e-05
2.47879943272959067e-05
4.48932126696389305e-05
2.02643961623981654e-05
7.65983368282709201e-06
0.000831988990608204383
0.00120072584517687373
0.00183915200429120729
0.00314208434690433931
0.00472065830134891975
0.004226664518058359
0.00280051508935487371
0.00188424056515406474
0.00128058633203434057
0.000845385623123815822
0.000362671522468969792
6.4825172640360629e-05
1.67862122374898219e-05
1.05845188916042742e-05
6.60519402606378245e-06
0.00111345723149207701
0.00171749245267427712
0.0032897312780845343
0.00610988008305723886
0.00940512155870688177
0.00910151657974286356
0.0060633818227431649
0.00360267597048924979
0.00208199434612655297
0.0012721306010999051
0.000803269821845592783
0.000299007207078362926
6.49881332056335981e-05
2.04892966951639543e-05
9.99864371500320321e-06
6.49101739549566153e-06
0.00111625932396812108
0.00191055942263734986
0.0042505166598539746
0.008336312276763444
0.00981310144774749822
0.0083449749275931618
0.0062063039837103361
0.00383584738674555689
0.00212333233902385881
0.0012234294660925342
0.000785974566165947722
0.000231464528462603096
5.68833941074992435e-05
2.25757809015505663e-05
9.6914305512916534e-06
6.59821566342994752e-06
0.000818982386239728243
0.00147552713266124584
0.00347169235691772212
0.00661360569029244109
0.00676498106437525316
0.00630934200202298845
0.00494691867307960054
0.00318637690937085931
0.00180861453863732664
0.00108409627080625621
0.000658400110786838428
0.00016345146753738533
4.69606591586897799e-05
1.89868782315340058e-05
1.14754859725649642e-05
6.74550752042416298e-06
0.0010692482034003485
0.000588890766172084118
0.000470595397366606989
0.000573335798054041158
0.00111462972391743534
0.00242075950235581643
0.0042440727993482601
0.00481754437142884427
0.00483262813829625406
0.00399359245444335514
0.00267867538455175518
0.00156312923094547272
0.000935142767181818099
0.000454282147922800607
0.000116767478074372789
3.27211787143711223e-05
1.71827024438392499e-05
1.42927407305339744e-05
6.95449797626406373e-06
0.00071100197391865314
0.000440383499850086806
0.000340764830773764796
0.000366308257115234841
0.000731996506250987369
0.00163895570645543223
0.00334455338057148112
0.00406560848093017423
0.00403632287278027184
0.00335827771420896043
0.00226838602563303069
0.00131337583620655027
0.000713272871828405514
0.000263666612897563016
7.81809746814435605e-05
1.9520201085826375e-05
1.23260820093444958e-05
1.38937217286386981e-05
7.19858669253024135e-06
0.00180309675491751751
0.00218053724342242303
0.000596973816767402076
0.000364742289949258761
0.000264736885200521561
0.000256505672336857925
0.000399710199361466957
0.000868201789113758255
0.00170667488824048164
0.0032568991491691286
0.00366357176560089823
0.0027434735969416842
0.00173830270008825056
0.000934159797944694422
0.000423116958696678812
0.000151439371876300436
4.95459812912817736e-05
1.39085795929260397e-05
1.11735850372933528e-05
1.13295770815911579e-05
7.49417225385277012e-06
0.00127995547917357879
0.0011889459399116553
0.0012656979708439832
0.0013800393194840139
0.00195057874296841174
0.00264518559779647637
0.00233755847308700099
0.0018260769143682706
0.00130859393162470017
0.000825107074965725738
0.000521858524205951585
0.000328209691745154418
6.22390598449380311e-05
1.25415888156851617e-05
7.7993224433339023e-06
6.5203695731983564e-06
0.0017095300408131208
0.00196417610326760431
0.00299449996941644064
0.00404409492750505695
0.00379322232608510484
0.00341752635199729128
0.00272386690768607704
0.00197032844584377025
0.00132491878111437415
0.000824718408722016193
0.000545483207066347502
0.000303186254208254755
7.02049731985811374e-05
1.75293785472458611e-05
8.70204079726055109e-06
6.51216468769549579e-06
0.001646232227038198
0.00170946024476305281
0.00314492630828278096
0.00534788635320130636
0.00435016506627223902
0.00368633633024381983
0.003028957642160482
0.0021787595599055791
0.00139484555606297304
0.000872293224270255692
0.000575978536652347879
0.000261188012928185141
5.8304342427330336e-05
1.58107363007739349e-05
9.09058231531612048e-06
6.60128250801846392e-06
0.000833417785256356284
0.000965368779298600454
0.00201468321654323535
0.00469888896254994168
0.00399325033703471118
0.00366150515734963442
0.0031932915644430084
0.00238478020045481982
0.00151930974806423679
0.000968148581154568426
0.000616942438527978893
0.000184892023499519907
3.80128268229930756e-05
9.9049272845785702e-06
7.94491469048472527e-06
6.73439661498114542e-06
0.00202713200658592458
0.00085903300602683814
0.000523424789014209635
0.000464827274685723291
0.000644507638623132784
0.00127857735164782949
0.00300568250012507501
0.00334560973160260558
0.00332416060711648734
0.00329624033729155209
0.00249333237820926644
0.00150025431825355515
0.000913737472226177185
0.000473279309045991983
0.000129330034357179032
2.49919753844548163e-05
8.48005298012838524e-06
7.5230867903430464e-06
6.92720467843022049e-06
0.0014493486709111329
0.000554994910105888824
0.00037774305012879477
0.0002979325288661477
0.00041400742015916417
0.000828588850195320615
0.00184705174512877091
0.00353893518991798585
0.00339023084366114414
0.00305826540950249496
0.00225181230140032631
0.00134478009193447832
0.000769088642683177746
0.000312972094254574751
9.72612001345357098e-05
1.95688076055052095e-05
8.29908486521281483e-06
7.62949970432539803e-06
7.15820299047260666e-06
0.00205043530923661914
0.00203478467343694899
0.00134896476986897176
0.000452290566483516394
0.000295841683645636224
0.000220769229799752469
0.000252043047780619277
0.000514936848195866642
0.0010762923751925493
0.00253099886441479236
0.00320650163843772635
0.00262426138518042024
0.00185155077590150492
0.00109996472269326367
0.000556742167250768834
0.000202235245331471573
7.40078938735003628e-05
1.57755418917311305e-05
8.42663306106209207e-06
7.78356841191820423e-06
7.44056253696124857e-06
0.00209267158706995856
0.00201289395728191907
0.00188063040444566131
0.00182687025729050159
0.00150242464459652419
0.00117979221860093297
0.000857119851968937826
0.00056362902946529615
0.00038121641701909046
0.000310711867433282349
0.000274306118723968739
0.000191718022921965524
9.80765204102888242e-05
1.6378235272169339e-05
7.10143284226512196e-06
6.48349457932952862e-06
0.00254315293043506051
0.00287359028858414842
0.00273986043751921681
0.00246640223220661019
0.00198332691314414764
0.00156530207315826327
0.00120380791761855155
0.000881421832558494656
0.000629636007400582358
0.0005038961630895089
0.000396069012415445874
0.000256577251401178595
0.000111550354598252794
2.1253433277753595e-05
7.07260214522589723e-06
6.41064255268305104e-06
0.00324743079635811871
0.00290042526522297454
0.00332160570178297856
0.00327308001507338421
0.00254854486562329247
0.00195301975999247028
0.0014634356158622179
0.00107914325499901742
0.000836518916885825689
0.000665763353767191419
0.000548311169462582641
0.000353473467561086509
8.29635493976550129e-05
1.50425318375159783e-05
6.62269124092873999e-06
6.45739662976422505e-06
0.00132403397144801433
0.00118330529848934235
0.0017959335436257425
0.00302402749908549416
0.0030258348230803255
0.00254190448527885334
0.00203881776609055607
0.0014723384276020368
0.0010913036323184533
0.000885278098821302571
0.0007379043374397703
0.000320983947203579568
6.04966467641586256e-05
9.90364493285515035e-06
6.43322083658828076e-06
6.57647165657899884e-06
0.0018309191692309516
0.00216121012060538527
0.00118012985326850406
0.00074832771317562437
0.00060270484235809248
0.000903860605389109539
0.00203098749811096713
0.00285459194044973379
0.00247086758866450285
0.0024514706093057277
0.00205925050596159715
0.00148110589679627909
0.00105498323012130461
0.000716869384548631514
0.000259124039552968276
5.02552928713654573e-05
8.59486663713840652e-06
6.53724496215750165e-06
6.74736079162692524e-06
0.00193392957999192453
0.00167491310503519353
0.000757120944619737914
0.000478596069680760697
0.000398823044555060731
0.000555331251127853484
0.00123062363004537018
0.00304395932203806348
0.00268619043465040527
0.00249917579902005516
0.00224189719986008689
0.00153660744082951412
0.00107815090175394489
0.000639660928027335329
0.000211579767961547505
5.62711671001685313e-05
9.58749067305875153e-06
6.67276805092354186e-06
6.9631254545267305e-06
0.00248233777344501099
0.00188374834568923156
0.00179542509217691824
0.00116851383226020599
0.000488588700377429099
0.000333972790873478882
0.000288051849810916783
0.000352354573400153945
0.000694650265257190343
0.00138990129718899631
0.00370177710759342056
0.00279232352280188749
0.00212510442710485935
0.00147033547501634041
0.00104577705813444031
0.000538614072195519288
0.000170206486949714549
4.92076606888920692e-05
1.01041911592971607e-05
6.84793719094008007e-06
7.23735680151249119e-06
0.00130273253398238806
0.00126878848731815531
0.0011628893617723643
0.000995797714248925934
0.000739041663658238784
0.000574806142590287314
0.000476714777757610258
0.000338006602556769795
0.000285512877458302117
0.000269115559521603746
0.000260504299588597526
0.000169299382682025398
8.76880541728012865e-05
2.47968071328675044e-05
7.70382419726458285e-06
6.46907342686111612e-06
0.00150975854705442752
0.00165775100687209085
0.00174535534921679012
0.00160765503822271421
0.00128447638550205031
0.000980371685372929697
0.000767068407108729522
0.000658109175242786791
0.000662007590104199601
0.000672199793426388561
0.000631013977232208604
0.000347370718230012414
0.000139017486008416414
4.00603807363457434e-05
7.57983199728226078e-06
6.29358761213583331e-06
0.00202265921297214209
0.00252309087928746702
0.00273549089986128155
0.00259999608957423717
0.00224755296754327065
0.00179006372181882319
0.0013842748830328465
0.00113634384587762028
0.0010501902315190124
0.00107917508813592752
0.00133329292539723218
0.000740303271959126433
0.00022249488991685413
3.71483605950779984e-05
7.04252742480162465e-06
6.28464495838514055e-06
0.00315976680895972391
0.00352116785519652467
0.0022650999536110287
0.00263810157951729473
0.00320272670700401342
0.00297757502434099547
0.00243508845045755425
0.00187582670067455476
0.00160657096502308974
0.00147452051002253462
0.00165785675139310798
0.0010929127539917676
0.000343847369124495228
2.71639115940954373e-05
6.62823263785212111e-06
6.34811068837570153e-06
0.0015979794425522401
0.00157507546762260969
0.00212572691754980359
0.00299896986267896752
0.00139804500187578219
0.000982631022296366662
0.00149371929250690033
0.00214081494800712072
0.0024745501722173162
0.00247304759485045484
0.0023735155566236895
0.00185029069602194308
0.00162327693365859932
0.00182917261102615416
0.00114899442971664917
0.000336718781339664203
2.00826322714848447e-05
6.77099889299595304e-06
6.49451338150296941e-06
0.00164074447645849264
0.00165934517510103068
0.00192821457407528919
0.00124059784031522189
0.000700841065021720979
0.000632041379411722162
0.00103956739051315342
0.00145743110776472675
0.0022310731796618753
0.0020830784113640686
0.00223827682722651774
0.00205807270351320189
0.00222247597994174864
0.00194930189129315329
0.00108585228445036821
0.000271636910595202715
2.33751547431281511e-05
6.94762260331067572e-06
6.69395169245502047e-06
0.00278541026911642217
0.00207997349331331483
0.00175371757167113091
0.00154816937778281508
0.00130610349855044623
0.000647540646696455769
0.00042155322941491661
0.000392181699199289631
0.000736455110587013839
0.00150690545830082677
0.00311806900010327785
0.00288654436268999219
0.00229171477535454774
0.0021415985335102119
0.00238580556718392652
0.00204042697095903986
0.000990837395565885657
0.000234408879771921217
3.7251686674369126e-05
7.14893732251846287e-06
6.95191352992958366e-06
0.000696800839721386199
0.00071492925193905241
0.000706880415876892285
0.000711132883415548783
0.000486771091739338828
0.000382965693710336872
0.000330407743037707815
0.000394919054599403426
0.000477480769090965571
0.000575672664641771578
0.000575556829535572574
0.000215961965338995753
7.71858548837795302e-05
2.0214295148764722e-05
6.95590977273847048e-06
6.45844089007244817e-06
0.0010721790079019492
0.0012212915612788268
0.00137762100911083935
0.00150554650936679892
0.0016168382494398479
0.00171079390358709442
0.00169209130555953314
0.00162139616860641094
0.00180591192417348351
0.00210698651534117157
0.00140648637605926834
0.000740619545810683412
0.000163676152535480418
4.71257340420093933e-05
7.95242408680646833e-06
6.37871521310052464e-06
0.00107576822735444859
0.00145673340459591622
0.00185865954784324356
0.00214577745459931021
0.00233996182877954
0.00253103669199246329
0.00266865330066172685
0.00307884100361972661
0.0033349280289423017
0.00433624253190279321
0.00302978667001377452
0.00191669701058963852
0.000380625528196252194
7.76409313508904072e-05
9.46032035329437731e-06
6.39727120441405075e-06
0.000597676727516657596
0.000863436907304647406
0.00173230855090948481
0.00186907270498421255
0.00206960341460928326
0.00235238724357230734
0.00285011701487307726
0.00332699457138785565
0.00241503793569054813
0.00175939725184848282
0.00141403422920721267
0.00135820019613942192
0.000778552435363380501
0.000125518027411945923
9.41399543965675892e-06
6.50514647501353634e-06
0.00186565801385621204
0.00134584789077281798
0.000851180384734494689
0.000632295664867038218
0.000588794901982989615
0.000608044120612894964
0.000635907330876007916
0.000784399768624276933
0.000884588701200570652
0.00119365942622081419
0.00119886814579255475
0.000759059464948755899
0.000665218899292432269
0.000932808612729403488
0.00115623898662314557
0.00109055735717936554
0.00019843548060808296
8.85267261739946672e-06
6.69737555466078869e-06
0.00216460586922507039
0.00179713013400716265
0.00147523887568633207
0.00117144052981987563
0.000897416260217125789
0.000551950966449652456
0.000495539415523686667
0.000545188265366159329
0.000688416713738446563
0.00103101161598661813
0.0009400630730234228
0.000727363583919559916
0.000732941584159085445
0.00094416436641130174
0.00112351165909078173
0.00100525150160292974
0.000279608812054960205
1.04802208903635967e-05
6.88252811541452711e-06
0.00360849828554639981
0.00260444670178860277
0.00232924438633652165
0.00239752629209884563
0.00237081425987161441
0.00254274545299081793
0.00158698743994428347
0.000607975788722947487
0.00053656473536271539
0.000717281124221181795
0.000900058904635991355
0.0013207729665420337
0.00134379503303095715
0.00122672717484706125
0.00107393457452771763
0.00103591942455304479
0.00121617686148234165
0.00108084258586319784
0.000306976174023127814
1.31918432007642461e-05
7.05181458378717232e-06
0.000202469696008340116
0.000230462066791388193
0.000228059608288300772
0.000218949065166488844
0.000181390423935131543
0.000189406864808433506
0.000201469152021172985
0.000258985717893430399
0.000553366274255919313
0.000615863107412836243
0.000343447155504088915
0.000156907973943709339
5.31639456491320313e-05
1.39775288735406989e-05
7.17905166174147856e-06
7.09219735978839783e-06
0.000306095275595747493
0.000374819400622169584
0.000500680587937911447
0.00060902476861040113
0.00070004967086811714
0.000806766076949130546
0.000899389521360817912
0.00103655114768929626
0.0011642513763397192
0.00125713525149326148
0.00124057343721104777
0.000833931892820710587
0.000172087143850492168
3.77246788216445522e-05
8.39309703024579094e-06
6.92030829231870764e-06
0.000377409854626199607
0.000451331383980077354
0.000602253160199147318
0.000818242751666251869
0.00110850055179217651
0.00129053368392411803
0.00151593278797598112
0.00178328788294792023
0.00209512356323901311
0.00226671759292596279
0.00193138997965551984
0.00156161032294291758
0.000460509980122283035
6.97709328089552323e-05
9.67056143285522382e-06
6.90330768972069278e-06
0.000444801719526713045
0.000453692803057470083
0.000556081080713199732
0.000660404621330387383
0.000725830882175099472
0.000655075132121770093
0.000628051616764265658
0.000669266856576722705
0.000813640047401235087
0.000842241912875596813
0.00103040310548932782
0.00133987526391286956
0.000927405335079227889
0.000131843573780703185
1.04099127027447772e-05
6.97773651128537737e-06
0.000762399434598409319
0.000590702156015353763
0.000478966626568535928
0.000437363455026367571
0.000428242014091637373
0.000380983967435103051
0.000354725064735724122
0.000331826641026773943
0.000319256939344976986
0.000309873863316793439
0.000317641032179489071
0.000347152278122104163
0.000388534353641302606
0.000442912256476431297
0.000634616923587277035
0.00094752879196658465
0.000248590507381006543
1.06288358096641725e-05
7.13789723481839202e-06
0.00124836113563744282
0.000868607935823298601
0.000713920667889303483
0.000649711131846087732
0.000617004822617632205
0.000544473032571480089
0.000387111479401756615
0.000287590138750140503
0.000252625921640794147
0.000270144506504263059
0.000278907724482719481
0.000302154129316273029
0.000343332255498511303
0.000370824270558871381
0.000492337253510359866
0.000734448959009789183
0.000375179897370102387
1.42509496130284608e-05
7.29148340129072946e-06
0.00809879637533605055
0.00398528555704144062
0.0020860053810665192
0.00138867986008074564
0.00111359267172487391
0.000987520358081371607
0.00093945457857107402
0.000906304570887571078
0.000556187580736700136
0.000347420425879659965
0.000243476223537990647
0.000229800421643727286
0.000238088741089214939
0.000261347801127341268
0.00031871912895628827
0.0003528411166443751
0.000527297909682175104
0.000749592463414876448
0.000424637786429995405
2.63643489256758083e-05
7.59453474045516767e-06
0.00275757259018424373
0.00261545844679269852
0.00347983109033808647
0.00586131890911450407
0.00646864795612332906
0.00522962945359992364
0.00515170330596097497
0.00471232315417686488
0.00269365053832279272
0.00164274686949813305
0.00103040653718373672
0.000619771383544842343
0.000200688695465889712
1.98675714074538355e-05
7.97596797815292507e-06
0.00321780269245678079
0.00214690166227412237
0.00235435847064356576
0.00320830312072126721
0.00443364688165402612
0.00539997645212245223
0.00475559133970640362
0.0047847830415854789
0.004594090307240172
0.00340958093128380631
0.00200474312009188112
0.00123177371187495094
0.000819089106579140103
0.000587748670762025917
2.90725073998905892e-05
8.12858846084088311e-06
0.00260151441046362888
0.00207995272995406891
0.00204693117459150715
0.00254824989506834999
0.00367656573354197816
0.00476742583725495248
0.00458616298877228927
0.00484046115878826542
0.00474618798969619546
0.00430385451340686495
0.00300934916347043481
0.00160772071420993553
0.00109834859574142415
0.000998585908617411096
5.94115043534911786e-05
8.34366189567736102e-06
0.00210674042287685567
0.00157531261056400944
0.00140901271274330477
0.00178668120899427981
0.00322755750909159119
0.00434112758446543717
0.00435742519448580057
0.00454578581485108255
0.00435255414376305595
0.00404163811963412136
0.00375366986260171689
0.00228088523771622026
0.00169464588192273758
0.0012659253992218511
6.71576779913141673e-05
8.64853346337886791e-06
0.00247141138321835306
0.0022422927786474524
0.00203176569272348669
0.00158601766947603635
0.00124034602784945324
0.001040472408571892
0.00144267673661891923
0.00300726394234924772
0.00401915897401184611
0.00416174302046193843
0.00430590989051836924
0.00413556043875510856
0.00389049855051608068
0.00393234980821390197
0.00372108357045905589
0.00278319414022452395
0.00188232380614640287
4.82223556288742224e-05
8.99943186650902355e-06
0.00239188722353890016
0.00213730297828097944
0.00188900938327844314
0.00141485783710193968
0.00121176050749082355
0.00122253433813170422
0.00175146517008497194
0.00296100526432965588
0.00394453038751880949
0.00429272190728581006
0.004395244395095756
0.00450274903719040127
0.00429695900054754328
0.00442327632722206224
0.00449364925270904093
0.00371334256053833028
0.00371007117398467054
3.94843106491503414e-05
9.40484535286290922e-06
0.00315973718301256184
0.00282608023977582367
0.00249783081418859234
0.00203596585941064447
0.00165177836701258613
0.00158802278134227096
0.00146761764021622167
0.00167163176106175401
0.00201164659566170244
0.0030771418815643322
0.00401246848081124666
0.00437061045795653514
0.00444878566875149279
0.00445804465477870563
0.00426581129857271993
0.00422193125140980525
0.00337784901681510751
0.00349993655553786
0.00696616144417136311
4.47391355744676135e-05
9.89317668820121154e-06
0.00270798224175276651
0.00148852645092727469
0.00200335550710343006
0.00402580336991112658
0.00568501505086730415
0.00455158665390839861
0.0044601790498903747
0.00442575804378999259
0.00338402417279090898
0.0020891431403582514
0.00124372242752617511
0.000750310779179727918
0.00104993327830048039
2.72351410373183895e-05
7.54463570846602152e-06
0.00325139350613944328
0.00118809170060174964
0.000917285994393246019
0.0014630813135595958
0.00264727781096814069
0.00463959029988688949
0.00421001172731010759
0.00447730265778558366
0.00425136026464498738
0.00332426461928466517
0.00223303173954189508
0.00147425108672825694
0.00067048061706848636
0.00128048661070701334
3.12955356963003997e-05
7.66614552916476109e-06
0.00172782566665126273
0.000897248046897916661
0.000884341338950417506
0.00132945680034915925
0.0020488871884345259
0.0039274457549738238
0.00397417527637978964
0.00435805880358354405
0.00418177805246285322
0.00355161023988431485
0.0025759518079210399
0.00160761068856666439
0.000748802871657966418
0.000930469305209199451
4.3257304279571045e-05
7.83196155483192423e-06
0.00138489220401172308
0.00090154744258814359
0.000884763283538769502
0.000966434857629466099
0.00194756551242401322
0.00347513379453549083
0.00373311910326429167
0.0039944857371925482
0.00390958495680973454
0.00339304779737759857
0.00261211016381812135
0.00190395916147659858
0.00110123388031259893
0.000887028868443286676
4.80281638173541266e-05
8.27773989098316811e-06
0.00238631266700106487
0.00197168505615505059
0.00167400493963917678
0.00119246939359512029
0.000970519618166605018
0.000862895731350886235
0.00103826985377411638
0.0016820652578558319
0.00308677548114684929
0.00352460477892450668
0.0038218461855419922
0.00388910582933860985
0.00339821682698994302
0.00270938283985970715
0.00206457038261404456
0.00137462641608960927
0.00129739361867909752
5.34770438819126941e-05
9.23396849914512236e-06
0.00221665368219274876
0.00184080870354171207
0.00151345136833842559
0.00126628516316408101
0.00111522508116489389
0.00125934785561013294
0.00144410908849749021
0.00172669706624760128
0.0028398859049583421
0.00340481384951202629
0.0038008518814634162
0.00405815258631513857
0.00374732881469286338
0.00298029202882557588
0.00220270633588825213
0.00143487866530386658
0.00156699113595510525
7.21696793559212967e-05
1.00455325182648081e-05
0.0036098559095596814
0.00278526180015274639
0.00216239940605087149
0.0018942337249060416
0.00141911012112256978
0.00142489184538898946
0.00186559785564847339
0.00192094958471783483
0.00155687022215785929
0.0017740980727560785
0.00272280393979210068
0.00334876227680392909
0.00394026043587602549
0.00443059951987220813
0.00416390869031620179
0.00321886530405730235
0.00213273258066856925
0.00177533837104967406
0.0028711640679460991
9.48240531124443594e-05
9.81459597213448789e-06
0.0064827033273740526
0.00306994056171364669
0.00144291338510176806
0.00163527696887095521
0.00321640908209487944
0.00495440240507262659
0.00527052771386315056
0.00528920920300903798
0.00504662142841586121
0.00379329740157543236
0.00232317590975167267
0.00116683513528529682
0.000511450564549034681
0.000322759937004250548
3.71311088961682472e-05
8.01278486878165505e-06
0.00447665012029093215
0.00118172172386862297
0.000714431285183153748
0.000929790548118266161