/*--------------------------------*- C++ -*----------------------------------*\
| =========                 |                                                 |
| \\      /  F ield         | OpenFOAM: The Open Source CFD Toolbox           |
|  \\    /   O peration     | Version:  2206                                  |
|   \\  /    A nd           | Website:  www.openfoam.com                      |
|    \\/     M anipulation  |                                                 |
\*---------------------------------------------------------------------------*/
FoamFile
{
    version     2.0;
    format      ascii;
    arch        "LSB;label=32;scalar=64";
    class       volVectorField;
    location    "0.780000000000000471";
    object      U;
}
// * * * * * * * * * * * * * * * * * * * * * * * * * * * * * * * * * * * * * //

dimensions      [0 1 -1 0 0 0 0];

internalField   nonuniform List<vector> 
7340
(
(2.25135352258945431 -0.425229574308761016 0.220341927175287)
(2.1757981520464309 -0.384268754556604419 0.210810501032307696)
(2.09508538328586891 -0.331135033794793809 0.224531218758038914)
(2.01347829025579772 -0.266206938579570063 0.258211234724589345)
(1.89559030149092078 -0.192759003335024909 0.277561826934606348)
(1.73229165629968596 -0.0666465670189022308 0.261685760162553127)
(1.56194878892552325 0.0955197670996329323 0.233417938478422488)
(1.34083359700514437 0.356686523897797703 0.186862414797752452)
(1.07362299986664222 0.643076295450440649 0.0132921930444174219)
(0.897130375131430347 0.937538080969786636 -0.389620992493360963)
(0.849400099739521353 1.55094434811394821 -1.09127569973089189)
(0.129360009953017913 2.16076664417343345 -2.94448485759125589)
(-0.675596099487863033 1.06691200049623536 -2.51021278287500271)
(-0.2089474339701618 1.49023512729067265 -0.590388406114243591)
(-0.277871420639420108 1.3917830463463261 0.455819690892207807)
(0.212065848950659219 1.87365296105425783 0.446899389295323191)
(1.42267843410947159 -0.327961963777216647 -0.106369132616594544)
(1.42159015152218648 -0.265858033365215407 0.0104962090105399711)
(1.54665427565388192 -0.206412366362550781 0.20198634301973889)
(1.59317450059672794 -0.139990047500842374 0.298440470349554121)
(1.48515580955337279 -0.0680001719128336957 0.266584951982967389)
(1.27973755580248572 0.0331304779653937564 0.162832201278178629)
(1.04308707734879302 0.219379370467628593 0.104312159350790246)
(0.774679720671073602 0.49349135315649062 0.0255823459121269151)
(0.531738422880551509 0.790278196067016991 -0.123333840930404559)
(0.468908784488872687 1.07925254332454656 -0.498251866037701163)
(0.52960196193043152 1.82235103075447591 -1.28717876924720098)
(-0.231466362437128759 2.22811108561799287 -2.79656721444092682)
(-0.703101437770863202 1.11000732531438162 -2.31297523132648708)
(-0.271964512631920841 1.40440149587773755 -0.569365786920029815)
(-0.360837461136177262 1.34271176563645711 0.468041673895679688)
(0.211367357811831136 1.8299859340156841 0.438206140205820993)
(0.63787266248814567 -0.22835409544686483 -0.128928746434194968)
(1.1150245799977565 -0.155208773341894646 0.245368289589782462)
(1.31713197494180445 -0.125630322828489321 0.365251599811144245)
(1.25388509917894564 -0.110036886181221163 0.229665765746712686)
(0.977516889893848218 -0.0465739936718313069 0.0272453326695635545)
(0.55386344437941093 0.107727199351513953 -0.196774917398765847)
(0.276567297558799885 0.354997105768352861 -0.29832003215196301)
(0.154575246983577275 0.657310633457937832 -0.28722472988281289)
(0.00883374390555752287 0.914855135083771698 -0.321347120340258086)
(0.0474242235682652002 1.24796823485655661 -0.654620762189400129)
(0.13608541280636019 1.99970145159395418 -1.48614367453227758)
(-0.567541466543220907 2.20876039944922775 -2.58601869333376344)
(-0.776804334450941436 1.15111930382399641 -2.08719133066579632)
(-0.300666292617422615 1.2895817765396107 -0.495458320324538182)
(-0.417447742007452161 1.30309918975631978 0.483095573621719065)
(0.215624764657204038 1.77219836667279629 0.432280368450239483)
(0.188280452073019133 -0.235038461366735341 -0.0169353030504424129)
(0.617214115979740408 -0.133870063403694145 0.131151873020541321)
(0.694389277263539051 -0.0679986011908320642 -0.0971912894418403284)
(0.468798237836087206 -0.0174403253003576272 -0.408589977583770692)
(0.0255031142643990377 0.0785003963359265089 -0.624727713328933065)
(-0.23522707480459551 0.202514279593737634 -0.744719012862790408)
(-0.329719083678757352 0.435971733036860321 -0.734768184748447961)
(-0.337014799291663003 0.736555390333688886 -0.609608167406260115)
(-0.401780822960396022 1.010793648858475 -0.555389409467998196)
(-0.359997667671307531 1.33381681830240018 -0.84717843851479524)
(-0.20698506588065943 2.02428661468982884 -1.65248634937805483)
(-0.609020726485164143 2.0772270570343947 -2.3746181535078561)
(-0.756259066959407145 1.19212594369314084 -1.90285925661264166)
(-0.311941060087258359 1.16136706364323672 -0.578470932018788409)
(-0.442599939526708619 1.24873842899584386 0.487725886923232821)
(0.22327406382308071 1.70622361489119556 0.424772062931114081)
(-1.30119843900897503 -0.209012691354743263 -0.674191696021563147)
(-1.10088790017096216 -0.403601331273987673 -0.589405626977038577)
(-0.82159692464899492 -0.384128320633362441 -0.449437084307696411)
(-0.563771225017287714 -0.305647416734509791 -0.369467503974823419)
(-0.341417341196220803 -0.188497065854223156 -0.420033772655567239)
(-0.235761733217960456 -0.0766811936124322802 -0.609722897907815309)
(-0.197884360577078561 0.0171988939527392762 -0.845459436825420907)
(-0.321095021494527177 0.0968637798798932526 -0.994714872529027239)
(-0.496946647817962439 0.196041754215596858 -1.07495311597477428)
(-0.60050260976412162 0.434417866145328069 -1.01932369171528592)
(-0.638889881215487732 0.7680743405673508 -0.858849168620160031)
(-0.699244512311043676 1.07873080733684557 -0.790628367340003635)
(-0.674618318776668113 1.40634770544838972 -1.05285647784466274)
(-0.354888203021115289 1.86841272795180235 -1.73041300011602917)
(-0.699157840049131285 1.88554380026021806 -2.14793056306559782)
(-0.710866445749778308 1.09813793763494272 -1.69162179481789643)
(-0.242438767338337247 0.971895220224031076 -0.561288822188071523)
(-0.460023042623068146 1.21095979502457252 0.498011983357115828)
(0.230819237975996544 1.63380398006887484 0.418592187532398352)
(-1.48037379488381737 -0.327309779629226694 -0.648209946926301961)
(-1.38443807181839285 -0.490595412802075082 -0.653619447493916761)
(-1.24191434297303305 -0.480310442092420908 -0.631032719669495812)
(-1.12625816120538969 -0.437909542648171557 -0.624125985548623086)
(-1.0225650822054857 -0.384766223993225409 -0.669165798194920503)
(-0.90611312061685112 -0.309402027588943696 -0.76974103224533863)
(-0.741689434704643324 -0.169508990319511804 -0.962755737440766257)
(-0.559954393400271866 0.0348373242813609582 -1.15948402228874436)
(-0.629953370885219188 0.151263891490882735 -1.22761696791592212)
(-0.725141640968031465 0.411057174968969208 -1.17435066670210286)
(-0.799610019113916715 0.739020226610871633 -1.03340806927270923)
(-0.883011311218372286 1.05560180499680212 -0.994208816013695262)
(-0.875694274102990944 1.34552395296149374 -1.24731440434443908)
(-0.515436870505525335 1.65666311888934836 -1.73845956537220991)
(-0.741410260312107328 1.62758766070066518 -1.95114597654693855)
(-0.704080839737422193 1.05285621051795553 -1.54154415478505591)
(-0.192165919375248906 0.791099564695813218 -0.522888008862874232)
(-0.479751380525533233 1.16769778289449877 0.511340782171233688)
(0.238146386447590369 1.56067902676057679 0.411851762062869886)
(-1.2546209267590307 1.001279704854106 -0.272242449142126641)
(-1.52784232589484836 0.310799827041536691 -0.526225149336442488)
(-1.44703636431275129 -0.393532907904134754 -0.630704908743809245)
(-1.4685403377310926 -0.58586614882282384 -0.709387721231540036)
(-1.40254930713002235 -0.614915772355387524 -0.739133966113114993)
(-1.34297896710977205 -0.60761306251419156 -0.774060955349681667)
(-1.2692300118843709 -0.608043829661309099 -0.8159496733217243)
(-1.16881276967632264 -0.547781175024374734 -0.879541782773959113)
(-1.05781627084989305 -0.395864326200448646 -0.976128584656206111)
(-0.925730208540401112 -0.0673588537501435963 -1.1884231167935797)
(-0.878781649305688806 0.132354254670376759 -1.33359721978825574)
(-0.85916757200160343 0.36885924240520096 -1.27734815460778139)
(-0.912796359915595712 0.751818414799288015 -1.197882944572638)
(-0.998081508883324364 1.05337641631963219 -1.22903664965616222)
(-0.990936618651410694 1.32675838786774869 -1.43884238127104913)
(-0.778096614838586054 1.39278010275569719 -1.67647619143990023)
(-0.831309341282007175 1.42993341474997893 -1.727067717235792)
(-0.69293331151047266 0.938789458787072206 -1.33882331094156859)
(-0.220584965130171506 0.595509720471851356 -0.435171801890551546)
(-0.489792191668741994 1.10791500728125247 0.49543571453744234)
(0.246247807057615953 1.49009476386440642 0.402699693651896062)
(1.73654654799297048 -0.42562968455892064 0.141565280941546578)
(1.71553023669878035 -0.343866019989368998 0.174904921406804387)
(1.62400481108694539 -0.266588668356380731 0.205291138745675256)
(1.5103123782110861 -0.180443049959595703 0.226685431573108415)
(1.37311001664479093 -0.0649410517362107309 0.203433214694503955)
(1.24556614034524227 0.159695200233870876 0.176938394850232966)
(1.09939882815509704 0.455536812506370348 0.0814398695353465846)
(0.926081373777193129 0.841752082027078519 -0.125456226249507058)
(0.768613825843880827 1.18217232198744915 -0.474488160278723092)
(0.699193886885306704 1.77607187611078676 -1.22829713211832203)
(-0.076725946069343437 1.97507346350907964 -2.80230368249191608)
(-0.853994318428650701 1.06542619477684286 -2.24437082523572951)
(-0.609936769131010914 1.24948427869569789 -0.665441938493258833)
(-0.279460021792689306 1.4605607056153429 0.334969960651943122)
(0.124709577753002884 1.86826529878331415 0.400365045161776401)
(0.825355614375077984 -0.46698424885737605 -0.223489077951771697)
(0.82435157854369856 -0.355325839244956587 -0.259493614480073798)
(0.943395031721190325 -0.274839527256928007 -0.0910896737853257032)
(1.05651615634181573 -0.180116947871072547 0.129061981141306181)
(1.03554145825088062 -0.0858931891985458551 0.219927808736718383)
(0.897062809942673733 0.0251840033348148251 0.173516229639095659)
(0.690779044555499877 0.261341791482537111 0.0635674846932054727)
(0.493299881236635318 0.624176789599054094 -0.0977283840955565919)
(0.375990503378587138 0.969539918279543778 -0.285709264341138858)
(0.371617373577845855 1.30744165182485128 -0.585064050297409599)
(0.407700298196529254 2.02456610504487022 -1.3678138175493646)
(-0.343955076824301098 1.96710195831197598 -2.50790254288231784)
(-0.89603042843527303 1.14461944206320565 -2.08842525058314443)
(-0.644656709182845455 1.20033307335690598 -0.686178806456753221)
(-0.371601251823014844 1.41079288678427317 0.312946482957353167)
(0.119539296914366919 1.83195393471355961 0.386034723164687898)
(-0.0844790691354908585 -0.486677910671751035 -0.560952143685333637)
(0.350299366929226419 -0.276568829936274851 -0.403604923229706813)
(0.66177659670272948 -0.138956115087177645 -0.19490443920925285)
(0.76859270747638242 -0.0748539661333854356 0.0131020464621476457)
(0.596677190323656403 0.00416464603427718801 -0.00114461142666828775)
(0.282689780882873221 0.153073769837936857 -0.195240646531568529)
(0.0986956889715652208 0.40852742763637806 -0.336763538777044735)
(-0.00795434869843336667 0.723672890578543671 -0.414217522109347147)
(-0.059589933592585187 1.04787781266341051 -0.477279275507205725)
(0.0335038098460239131 1.39861351968832626 -0.698157782339068556)
(0.0369503692739331646 2.03915681977152774 -1.48945192305874818)
(-0.413782396458211299 1.91167831740259597 -2.25505931211212296)
(-0.843367991772715264 1.20143072243743321 -1.87474710292745961)
(-0.670207482620208461 1.07595795019952578 -0.629320428449550828)
(-0.435021153099712898 1.37820537108431296 0.341328159442187584)
(0.121569774566429811 1.77358226207550751 0.376546969266358555)
(-0.436453896024007082 -0.50691019564308204 -0.500336885064933234)
(-0.0333930028417338265 -0.191608470455150809 -0.444100935889209847)
(0.193737388819442968 0.00589643303210683756 -0.519195721840597368)
(0.250812513660490677 0.0949019483589204904 -0.466519747600579016)
(0.0645451988390716713 0.15925510195289172 -0.507331053316827596)
(-0.10930040198590249 0.24262430267742266 -0.634628771644881962)
(-0.234928567177461467 0.471100415106248449 -0.699776473612973793)
(-0.311117823633025314 0.773519292887835497 -0.67095622953352152)
(-0.346064752043515944 1.08327078190710058 -0.6413363048186278)
(-0.292138634060932101 1.41323708347187904 -0.812968942915219261)
(-0.230145701418539295 1.95105406993225117 -1.53006998102930769)
(-0.561793839051488719 1.81977444389437948 -1.99116496806942966)
(-0.813696911126321587 1.25197436986626753 -1.68025800448887641)
(-0.66070469450684477 0.969224383059567929 -0.542067552042368894)
(-0.454424763297323453 1.32374743336059408 0.334430834241220221)
(0.123708230569510136 1.70753471489268205 0.371088493502878702)
(-1.47919879213731997 -0.626727665018461444 -0.469543665330888815)
(-1.32818035160179515 -0.871101030699368062 -0.578499187123402758)
(-1.13171357916766313 -0.837230760032226184 -0.577361602189298551)
(-0.838410286731462784 -0.570624196355350777 -0.499448670696586883)
(-0.493061578221881291 -0.207342755218243718 -0.431239744065409047)
(-0.247108342070251924 0.0384391947247158042 -0.562836873018319306)
(-0.110599947182472791 0.154228619399701727 -0.763029738213915509)
(-0.144385981160067955 0.208878374989846793 -0.871438856714586541)
(-0.240016094842601058 0.260397233802460659 -0.95484150816832325)
(-0.36824850282144217 0.465306952653803785 -0.948021294670947867)
(-0.454991408956004151 0.766474542718670104 -0.841636296973791276)
(-0.522584964728638912 1.08134956308706864 -0.778726610871375957)
(-0.533160817978802437 1.41230128061603244 -0.935979942944170751)
(-0.445563689965652265 1.76371908773696884 -1.51457449421329993)
(-0.62539648214574195 1.63789781095173215 -1.75746340390719347)
(-0.802878151728918077 1.24899715558102442 -1.50103566274582478)
(-0.645927412779533028 0.910926128332959051 -0.483727154602737741)
(-0.476466962406791317 1.27838252380614326 0.342470766638814705)
(0.129492908934978224 1.6377584543127488 0.36792521450233967)
(-1.50803765747004981 -0.761605177431979863 -0.519170161524537654)
(-1.44599314683365843 -0.950679665079817049 -0.610964269575807961)
(-1.34001676812511605 -0.926036714757421997 -0.627480732483169712)
(-1.18721759475078326 -0.678380948427049435 -0.564947669426009047)
(-0.960142475987183275 -0.311144635875041542 -0.488752791663637443)
(-0.737902315726569946 -0.0479702330730864962 -0.484107612898579953)
(-0.523293218816041183 0.0763212123561292088 -0.710287772042492049)
(-0.362980863444288204 0.168004066989374645 -0.97162267872251995)
(-0.372353186068105857 0.228994513469814864 -1.08224989366351054)
(-0.458088388308854844 0.447093578779557743 -1.06299204542747638)
(-0.548823282566299975 0.724512215641160084 -0.948089613794546815)
(-0.644419267573953625 1.01463799944052591 -0.897664547121728051)
(-0.697304270487787869 1.32536662721100851 -1.06794087750273836)
(-0.632685248417529378 1.55177474016294137 -1.43454476548030052)
(-0.75629475852710093 1.45864760390635317 -1.55111400573249969)
(-0.83526643377950982 1.18696383050114762 -1.28889192540725661)
(-0.617434367426942021 0.865425904518728362 -0.451899637981947155)
(-0.492407637263882314 1.24165545577189351 0.349280822668225965)
(0.134222759698884031 1.55837298319588924 0.364845157568450706)
(-1.5337856468528277 0.642981568930951264 0.0639028504591958313)
(-1.51313392005785929 -0.241156213895026117 -0.365162046394613471)
(-1.45873299297086056 -0.84706761862887503 -0.557783962149688728)
(-1.45751505569160233 -1.02468990512694424 -0.632795337286390924)
(-1.41251142140137476 -1.00402696903206534 -0.668552939478956887)
(-1.35893274389859919 -0.796160652445169315 -0.652018987814516948)
(-1.26151957123543812 -0.481134664065592965 -0.595761478039247505)
(-1.13019142190461541 -0.28301856701534478 -0.57850203978009529)
(-0.99183949407912908 -0.196738946386914609 -0.694887686882866618)
(-0.798407355688075637 -0.0352729758647884473 -0.919652706043051271)
(-0.676100699816298056 0.12151066713471001 -1.09838757153777866)
(-0.67391827539268967 0.394499183632620376 -1.11729135640093635)
(-0.726528963355438484 0.699923646495444363 -1.07093959011648399)
(-0.79836244757087127 1.0387295959269105 -1.06514084987406443)
(-0.908726380847719062 1.30977994799925068 -1.18669734130372917)
(-0.895365239013165892 1.41576199488661958 -1.35119685726881356)
(-0.907151651292629091 1.27037900280302463 -1.36443472098860474)
(-0.874409905924398601 1.06583007172993205 -1.10360900815285157)
(-0.630270883146473837 0.826090223283627134 -0.370619644403993975)
(-0.500831250385550097 1.2004789026359528 0.384670080719159313)
(0.1429863083754567 1.4835611053552471 0.359128879033003057)
(1.37768892436193502 -0.432205511168954837 0.13606511264957355)
(1.42299125010189376 -0.301651063811005926 0.0720268197466693294)
(1.42732417907289033 -0.191988778107741453 0.108925556756099981)
(1.28315939249502153 -0.06773803491437691 0.101119618890665147)
(1.16912415735064013 0.0518392491899473673 0.0783947519366099271)
(1.15398875313025551 0.29199941103665128 0.0274840512995347813)
(1.07604914016143227 0.613497968690353002 -0.0886346833126420985)
(0.923588290997098604 0.992216601221660555 -0.256296504070026965)
(0.759093853822051967 1.30489935981637628 -0.555745080864158969)
(0.599062116265130729 1.77393598023221077 -1.27074092102799474)
(0.0501022478214240841 1.69837014410002873 -2.33150480804283644)
(-0.845375591177872088 1.20096415491269681 -1.85716463688697742)
(-0.758663104518291109 1.23141143542855636 -0.879777497847195611)
(-0.266226734205023241 1.53647880806522674 0.084850338966162106)
(0.0282879820809965737 1.84820194732624832 0.304330295129640327)
(0.368799475091431406 -0.709738407926051251 -0.226948596403607789)
(0.493716211284706996 -0.507246508269848184 -0.454117237813485342)
(0.685173628222047193 -0.305148103852376007 -0.469024455028709153)
(0.758276365633043681 -0.151084013282360069 -0.221761807368954011)
(0.743158566034450407 -0.0150339321592588386 -0.0262449115043733028)
(0.730103108972448123 0.145930005723689138 -0.0140245896016048671)
(0.644643010859445198 0.384055960033002686 -0.129353009324564366)
(0.562931908696071126 0.738965817862135443 -0.288482881604363306)
(0.466658050794186874 1.0571214011203276 -0.399116589343238348)
(0.45365932412156651 1.36848671744002481 -0.572242044186725529)
(0.454154048112303255 1.82069382304435545 -1.23633388440971603)
(-0.265338115322084844 1.81306758226025599 -2.10586152573294294)
(-0.814977921181972098 1.25430724091510903 -1.70545684923317364)
(-0.772144616224480274 1.19715863294559588 -0.836412422512084031)
(-0.340208347959988666 1.49496162806609711 0.0859612013184785084)
(0.0189616687882880677 1.81988864206016632 0.285583614685817111)
(-0.491658130925663461 -0.905148537608102877 -0.728573451051226173)
(-0.159275639925116674 -0.612822115479380702 -0.812529286925739225)
(0.300941767496620383 -0.244673573289130392 -0.800071230219096763)
(0.50469341137795698 -0.0097174740510851676 -0.502389510628195368)
(0.471410436697150104 0.131295551451715259 -0.30347041831138849)
(0.426633508445692644 0.243817010354253516 -0.306426297102214695)
(0.32741929207535353 0.465651642904527041 -0.406031347762245864)
(0.218530794730278977 0.740411244212635045 -0.488403397335992195)
(0.156301631674808206 1.04475485338175655 -0.506036625297417331)
(0.244416997179413564 1.32794973316255582 -0.590542916838184051)
(0.241684336660593829 1.78188529747320801 -1.22586728991903615)
(-0.353418114944534567 1.69963507966858551 -1.77258279044856693)
(-0.806583164428217869 1.40874993431274342 -1.55939062364184933)
(-0.764165983404337501 1.1890256671525381 -0.707688993137293165)
(-0.393685831082480509 1.44579271054198344 0.109135602030216411)
(0.013877408856287507 1.77529580381381225 0.27336568070761974)
(-0.81856845229459152 -0.991450631288614437 -0.713758258938041568)
(-0.458787527495774117 -0.648619863361088234 -0.834270526251341238)
(-0.0808686873039848875 -0.225209524618921214 -0.977602989458277727)
(0.201926171725503478 0.110048691834073314 -0.91956681789472805)
(0.275620386040720977 0.253636302874664543 -0.725705463899002701)
(0.254801328822784279 0.332793910423430317 -0.668283687784965275)
(0.154792540560064168 0.506221234962612399 -0.67710231353764383)
(0.0382483451906397987 0.757408033464061048 -0.651936476886847749)
(-0.0219058406178371801 1.0008992693001062 -0.592292927655271528)
(0.0618270700846275667 1.25264049007096623 -0.616218295754130674)
(-0.0288536232890670985 1.67882732589167571 -1.17898577728710041)
(-0.470190486582584777 1.61797681138411042 -1.54278924512095328)
(-0.811331453785254064 1.39836749373171743 -1.35782210868686648)
(-0.76719175458532729 1.20387166747547392 -0.631799369112584053)
(-0.424565414031429056 1.40464705288575176 0.118198380796691344)
(0.016637075213877351 1.71788434595891482 0.267996703324623498)
(-1.56362737541771657 -0.620697100893695453 -0.208457042398671855)
(-1.43849931997221869 -1.04349877344534736 -0.497375116759967262)
(-1.27838249642880375 -1.15693860338859156 -0.606867493270159986)
(-1.08381040510558835 -1.05719181153141872 -0.62077295450687453)
(-0.777323584786244859 -0.672501398792966665 -0.63857202053326434)
(-0.439871665919614074 -0.249888624329500125 -0.782264784681076741)
(-0.0756803011254078839 0.1043409731435955 -1.00321456560271827)
(0.0892056988843117349 0.320270984540732495 -1.03348050607364428)
(0.100201773720278442 0.399017583907017304 -0.962790372309730302)
(0.00369028646187011256 0.535494466889907872 -0.90799392279183877)
(-0.0740681088637571705 0.739139873536444836 -0.764458995618434112)
(-0.125971694696324632 0.948525226493969309 -0.636158233451062816)
(-0.156270757015440132 1.20150018721041119 -0.682747320158578308)
(-0.344658533220523866 1.5243566081038622 -1.12139143992222823)
(-0.684239664147278326 1.53524672091590308 -1.34094277819287355)
(-0.825783477609264072 1.34564299724727743 -1.22132442761670079)
(-0.766426044406544715 1.18463077340322931 -0.614515612731757033)
(-0.457637528253172665 1.36993837078939573 0.103896303049043778)
(0.0161902360652845662 1.64772609912442736 0.264220464358156437)
(-1.56626659950460212 -0.774244071129010059 -0.415649627398475496)
(-1.4775212485610616 -1.13062029469316805 -0.569518950532698076)
(-1.36935940100451448 -1.21687788065755531 -0.626190975663396543)
(-1.26871695580771582 -1.10742019913425871 -0.589984071987136205)
(-1.07297013104697969 -0.737882218182048022 -0.520437500169301903)
(-0.815018923876018819 -0.270978466556232755 -0.514847091741276852)
(-0.494613669072363815 0.0591030191182982251 -0.711624273920565709)
(-0.182913183714485311 0.295364119362655386 -0.96620697421191748)
(-0.0859712841489371077 0.385226442952075032 -1.03161246580597865)
(-0.153893267145644719 0.538289354405749876 -0.985919774756226386)
(-0.210702295687466234 0.700546980854330092 -0.832582283279690638)
(-0.269888661626747184 0.888488465830798657 -0.742225319063263944)
(-0.406228336697501746 1.15551308678658904 -0.808887023016165441)
(-0.629526675866593166 1.41548316915577188 -1.07787548877367745)
(-0.813641315122669018 1.43901827991135889 -1.19148913316896965)
(-0.868620619034367714 1.26345246461034821 -1.06652357976026235)
(-0.766014951797191368 1.13800781570135334 -0.540878817209226481)
(-0.47095140386392792 1.33444907478026553 0.118962979299726351)
(0.0200357548856240943 1.56805860529819463 0.263094185958277438)
(-1.29829638701247707 0.755500857317577101 0.55749103502619124)
(-1.57453265563097888 -0.0549134122456634288 -0.208287003831736039)
(-1.50566494146778829 -0.822511144028138852 -0.543512593325341631)
(-1.46133989900005701 -1.17525960971673027 -0.606607026389205606)
(-1.38658689168932314 -1.2457527402816202 -0.639164417496923876)
(-1.33926547982654043 -1.14050744882780974 -0.608294542700680951)
(-1.2597062758728943 -0.816090031628077361 -0.517194252626247963)
(-1.125807377368363 -0.393946302835732176 -0.461706974904396938)
(-0.941832284748917337 -0.134235683866293143 -0.511626443521742691)
(-0.653138409627471606 0.153086334354937126 -0.719392992636814887)
(-0.429169268603330434 0.341626812632064791 -0.919507640112864566)
(-0.462432286424161898 0.517313744142080423 -0.958769216706632732)
(-0.527902482421430896 0.642779903092183691 -0.898543049030511076)
(-0.570353191592257058 0.871750029288012374 -0.854657654356832608)
(-0.728672465781290191 1.17154765239473124 -0.913899558888885855)
(-0.864142412720450004 1.3401287376504043 -1.02273864881339338)
(-0.928550729274442044 1.29801886235359376 -1.08308083576095404)
(-0.911859465243819112 1.1843945771197284 -0.920196035669024193)
(-0.749776951953584958 1.06120075106264578 -0.408579342576825488)
(-0.467530850095643935 1.29302873398532148 0.179388370543330511)
(0.0248804302829393614 1.49153655526151607 0.263114152932549195)
(1.29733309121218254 -0.346483264572599925 0.715684444991893765)
(1.48004702593488546 -0.192730142098078649 0.507173208943480391)
(1.62933266481613548 -0.0252131503044812494 0.40917543196086803)
(1.70364876137412158 0.0772827301088702262 0.362200590340526485)
(1.700562740623347 0.150335535265384318 0.30531325373979068)
(1.62485259201075705 0.300882244318395164 0.233125041675698086)
(1.47622776232336728 0.548930372745228601 0.123862044112727249)
(1.27046828612278206 0.868374107626484704 -0.0293550058024688379)
(1.06109550345795012 1.10968325141111968 -0.235658387436594091)
(1.02810029554249316 1.25247735361055512 -0.469962441852565527)
(0.906042699402629825 1.4730993456788275 -0.998209252044428341)
(0.359087741595695009 1.38003170446244749 -1.78328568433624235)
(-0.703123930703631772 1.26062196961891604 -1.68308339058751733)
(-0.693640183421865508 1.30684734826912519 -1.08639534605329979)
(-0.287029015047351233 1.59692639607620257 -0.248522479219847769)
(-0.0451663246577511876 1.81875512817083007 0.169009470827199387)
(0.71648150274882072 -0.494080097522794359 0.317483624646849594)
(0.821284814940825836 -0.356835997957913931 -0.128665250561329825)
(1.09411296323103358 -0.0786005460324014221 -0.244543896634065838)
(1.26223752983656223 0.112936701104396575 -0.174358870858382864)
(1.31769428083290507 0.220313025513154181 -0.101435754119426152)
(1.27279458246308907 0.363714878230885053 -0.0772244307317593026)
(1.15551789951030148 0.601288008178312294 -0.0893014036016441942)
(0.982575191334781328 0.843989595115771873 -0.160343988123573367)
(0.834142361096882223 1.04078936145276169 -0.273974769988380218)
(0.868423518002847006 1.15312760588094942 -0.426702698917085121)
(0.765175805509130447 1.31853360663636288 -0.848082228376602965)
(0.47478208777287656 1.43379963128507892 -1.54752395961178468)
(-0.587696621389136697 1.30588419119870625 -1.50266234282971278)
(-0.700933610832104703 1.34294208436398188 -1.01637896796603067)
(-0.348196759343168072 1.59710341621644947 -0.26834522463809396)
(-0.0593046419227806973 1.80672172959675237 0.156682917101378133)
(-0.381205638095254318 -0.836911306937554778 -0.531442044855106377)
(-0.12709487126823793 -0.701339963154936852 -0.902972628225490515)
(0.431972911122069481 -0.243081979687667982 -0.987420295662859049)
(0.778620691618338023 0.113943141386081817 -0.784940155285587804)
(0.952628999315190184 0.297508361429628221 -0.561086005582088099)
(0.964689435621302716 0.446597737710618448 -0.423213609990115869)
(0.88309906307938757 0.612354129092067434 -0.357430698784761358)
(0.758887622623238944 0.800727465986825648 -0.333441961095705564)
(0.648820188256718056 0.931487655271047599 -0.326518431100295325)
(0.714651439562864366 0.990758933260911134 -0.315474295712375952)
(0.693388343268904639 1.16138654517962459 -0.662784508366487279)
(-0.00191685660368241806 1.46785488756078175 -1.27252921978853273)
(-0.572997565009560006 1.36901181427626262 -1.34374193457614988)
(-0.740433721358073726 1.38526499397738734 -0.96492030782046867)
(-0.407049151991420888 1.59373711226358261 -0.281168633857615424)
(-0.064076085331700075 1.77502081401356016 0.151026186656906786)
(-0.884359390398359868 -1.16375531152425449 -0.800911285846440335)
(-0.522025008647601485 -0.987967528292031716 -0.992519598233878808)
(-0.0157261900278583173 -0.509562436301306709 -1.20417187908617018)
(0.38831386959433889 0.000299075112726435166 -1.25215539820512656)
(0.627466564064384169 0.311721187492776775 -1.03486337986895016)
(0.687141704532294728 0.470742441714657067 -0.800249252313016801)
(0.642609240346788457 0.611907867776217529 -0.652149647939134214)
(0.542940810155951858 0.773522147810386751 -0.53956303601353639)
(0.474924712436428753 0.860173665909799046 -0.415363406583520778)
(0.573090485320708054 0.904672425272329606 -0.335338508822806469)
(0.370400843611298769 1.10745438820813047 -0.635944344409705264)
(-0.190085962405864173 1.39832418471849174 -1.06857826314063509)
(-0.674398854345983456 1.47464098222814943 -1.19359028427237002)
(-0.779456683251423144 1.4129520160600666 -0.87529713517109986)
(-0.437679321998398485 1.57388527751452467 -0.251639210058195673)
(-0.0653693767948113624 1.72562710739387604 0.150783233260914307)
(-1.49199596797347001 -0.13626562286611682 0.339275807608848123)
(-1.5069458951079624 -0.869140964675528482 -0.37767027280487997)
(-1.35007119711404133 -1.2172254349540732 -0.66012845503438522)
(-1.12985775742397565 -1.29535176552937403 -0.762607106098025844)
(-0.839015387254469558 -1.11079078473659321 -0.834672576432606839)
(-0.420236169754996614 -0.675915695556040808 -0.964987642853047389)
(0.042799842919222314 -0.178480095011640749 -1.16970583451685362)
(0.357880433060205783 0.254588507654394003 -1.23199850788490961)
(0.443772773871394632 0.479597104958082721 -1.10822555285750179)
(0.373384151966768219 0.593262579034663173 -0.901369919859255742)
(0.309398250073303516 0.713358659715887078 -0.67881114360064676)