/*--------------------------------*- C++ -*----------------------------------*\
| =========                 |                                                 |
| \\      /  F ield         | OpenFOAM: The Open Source CFD Toolbox           |
|  \\    /   O peration     | Version:  2206                                  |
|   \\  /    A nd           | Website:  www.openfoam.com                      |
|    \\/     M anipulation  |                                                 |
\*---------------------------------------------------------------------------*/
FoamFile
{
    version     2.0;
    format      ascii;
    arch        "LSB;label=32;scalar=64";
    class       volVectorField;
    location    "0.810000000000000497";
    object      U;
}
// * * * * * * * * * * * * * * * * * * * * * * * * * * * * * * * * * * * * * //

dimensions      [0 1 -1 0 0 0 0];

internalField   nonuniform List<vector> 
7340
(
(1.80012191183986214 -0.335825977892631078 -0.00283237955335042049)
(1.62612525813028252 -0.267946406093529044 -0.0126073999186925041)
(1.46438977767988154 -0.22284353203310886 0.01825557880146228)
(1.37871062945211786 -0.20356281967603207 0.101386225126521637)
(1.32047822764756351 -0.166202874615828528 0.198516312671000339)
(1.21906165761519203 -0.0910787796365320063 0.247078263983913443)
(1.10499039120564535 0.0541114051900417614 0.253067203785768857)
(1.00193588958994195 0.26323735490730682 0.245203882626071901)
(0.85150544217699986 0.579920862579679341 0.133247497354250344)
(0.75512309794492305 1.07334219934653863 -0.188850039273236125)
(0.302659941364503804 1.61680957099845246 -0.739153299589694779)
(0.0372028976682937662 1.44306983729050731 -2.25542694810008548)
(-0.528882847573998283 1.06427307048245612 -2.31210976733510742)
(-0.407556962880761986 1.30557693731485136 -0.7203167553800367)
(-0.240424766876896373 1.47319265063717464 0.347946372971475903)
(0.160649616648892324 1.79235250592882167 0.375348197842912013)
(0.602651654270762616 -0.0860124940478383671 -0.287094489223439442)
(0.705937777594407123 -0.0181891621871516501 -0.109736586650981557)
(0.902936861556040693 -0.0219453514099844788 0.0968747652778470247)
(1.06730590308745987 -0.0556327919363099332 0.253472193086946684)
(1.06491899925253053 -0.059075105259578993 0.292381882380697011)
(0.903831908615512436 -0.00901274536744401701 0.219784133269719101)
(0.677067612675564368 0.125381786554036645 0.153449148768254606)
(0.446742082230396798 0.366895691113602374 0.126700332912357411)
(0.274375052669996677 0.730892390868385866 0.0345879749809048162)
(0.235771962424674186 1.27182818600733016 -0.296518538368959472)
(-0.147498827265019977 1.82585773576622912 -1.10955023343036463)
(-0.29975132338459809 1.44678840901495098 -2.2599713280278797)
(-0.677010312842809547 1.07089948938165636 -2.08542386210230823)
(-0.475986082830445689 1.24084041918538368 -0.616072440985344971)
(-0.303615721684851902 1.39624613483904292 0.33384392960444631)
(0.15204522332037107 1.75668372977273113 0.365324279903438187)
(0.513418611838143746 -0.00217474504690862158 0.155717970685832291)
(0.873853988967077444 0.077805600139330966 0.391269592665123123)
(0.937384518941737355 0.0803658814983748693 0.454541725381834683)
(0.877197027285528952 0.0133210202154537827 0.363533539286343799)
(0.64094730375179787 -0.0205108770959506193 0.149129291819732251)
(0.127641792014904387 0.0794057958236142336 -0.111614105205309622)
(-0.123893088936122081 0.273066844582912027 -0.191930263348873448)
(-0.154828948371098812 0.521047373011488957 -0.135988957398151644)
(-0.183119192619551285 0.885763697228120872 -0.154340344708414096)
(-0.212081395798426497 1.48045404708503336 -0.513188277592880326)
(-0.452047453039798097 1.8493726959467276 -1.43894716802792089)
(-0.561106836695079103 1.30516651799435546 -2.14308002525223973)
(-0.762303620560048967 1.00782023433924128 -1.81700561671096339)
(-0.51330962980493211 1.16389856046116957 -0.553503951073207712)
(-0.357241430585165443 1.33370148113194165 0.325065478123977125)
(0.148570026082882445 1.70540577585896291 0.357294290196381814)
(0.169142156769445329 -0.0127416311466415633 0.335139974482239977)
(0.416052259893756937 0.105623208978337171 0.368232987467129735)
(0.468087817248350857 0.146498053948092649 0.259132684211473341)
(0.0873589823524857367 0.12875166826039125 -0.115403209409549803)
(-0.421091619492933722 0.142317779299141911 -0.429906497398057197)
(-0.666863265420026163 0.198573617878235548 -0.582109227233800763)
(-0.684071753397387794 0.358916209950253251 -0.567639164326306123)
(-0.595856764681184981 0.629665671139216565 -0.444652746242080066)
(-0.527039348596327173 1.05996692281397564 -0.41986162205296651)
(-0.543138494303884389 1.62070863333565773 -0.817979759727424871)
(-0.590590469811240748 1.76496948311517365 -1.61846790442864186)
(-0.673933002529712777 1.18988364548134973 -1.96314002370487861)
(-0.793872247927342345 0.903217725833361573 -1.54150713442074516)
(-0.535694995161021481 1.06893651454607763 -0.507832381039872494)
(-0.395352488060282115 1.28581541527037513 0.330292137611043091)
(0.148185065894932633 1.64121810591077022 0.350159066763156335)
(-1.42632853318815123 -0.513350021484032526 -0.516487810235911393)
(-1.25861529950613105 -0.428323838999454198 -0.429912887607957095)
(-0.999128121509268663 -0.220947308062963643 -0.297746302704361476)
(-0.756277209750399582 -0.0525632145682018159 -0.183286252240797698)
(-0.639332022374605402 0.0501426761570506127 -0.185758278358042261)
(-0.604744447336507451 0.123290381601131246 -0.337341347770100108)
(-0.634486355021047888 0.162190601358634279 -0.563988997073486598)
(-0.78795016308768584 0.157095672184779711 -0.761728281388236561)
(-0.913772672003382302 0.183398835095672397 -0.879718875746855367)
(-0.936351160295913587 0.379568708485289008 -0.851048883855245908)
(-0.855963561084834179 0.716324596490600096 -0.722681666155376545)
(-0.784104271627587224 1.18593851767481384 -0.712670101958395308)
(-0.744190103213163257 1.58836643146124867 -1.09841458635420985)
(-0.644001896565396859 1.58710462993541279 -1.67305774417130282)
(-0.707286054594155389 1.08512595464566619 -1.78406601487544769)
(-0.802744807939476446 0.78878899711931183 -1.30810763482104053)
(-0.53686490229575845 0.951290303541657223 -0.437902691735668981)
(-0.420930974107022959 1.2298785552150564 0.335774993633615348)
(0.150015989116051324 1.56917414742015948 0.34519379468862893)
(-1.52618285943936338 -0.55045421325439492 -0.559251455860734881)
(-1.48323976508685473 -0.492635288675793148 -0.572167009265459048)
(-1.40208853180173953 -0.316334322323346739 -0.540331039706577698)
(-1.34645694505896674 -0.195757793018339482 -0.52806471598670468)
(-1.30313825059114263 -0.180723743227891476 -0.552511151602157136)
(-1.23595933009935965 -0.165910572143301904 -0.61328148812050487)
(-1.06669894092570372 -0.0816105555466196397 -0.743352601602348839)
(-0.934243288332630373 0.059053864011705183 -0.935496319553858147)
(-0.98277046679212221 0.116237742903952376 -1.03368342702869809)
(-1.03040630688466583 0.360009028658933139 -1.01807030680826816)
(-1.01663859765638964 0.732011882350342202 -0.930778441187164796)
(-0.977001016863466187 1.19446848815210882 -0.966308278349059857)
(-0.884101897894056354 1.50366949239969672 -1.29192218749476662)
(-0.675542615798696455 1.35809389118350987 -1.63358995105362825)
(-0.727890696604425291 0.959336387247402111 -1.6264783033118051)
(-0.798941005811332872 0.683641654297165946 -1.15738368656719293)
(-0.51940634057944135 0.831032510298985505 -0.385075176308577072)
(-0.434522260262802162 1.16774126268518863 0.340802923046476469)
(0.153513641292746389 1.49084351311947438 0.34216882913957386)
(-1.34384070448877213 0.504083415698581505 -0.242849527623665629)
(-1.3078758421588359 -0.318917772633511509 -0.455936470335959076)
(-1.45054116086294549 -0.578662149728546682 -0.574772988643619143)
(-1.53740126566012214 -0.591618115606035055 -0.643296829369477519)
(-1.50777997958200238 -0.465341001453840719 -0.67605475412118865)
(-1.4730140716435749 -0.398105802725548186 -0.720190343362958618)
(-1.41275613763466468 -0.425595355516186546 -0.751697472791042598)
(-1.33858533680420888 -0.418196481510711759 -0.774933853835110376)
(-1.28218211715194363 -0.334087942510759017 -0.827576492189652013)
(-1.22688152078674451 -0.121885113314801105 -0.972118806901763333)
(-1.18972561761662154 0.0331539562259369758 -1.12091112632784151)
(-1.14769108087557559 0.404910140026189524 -1.1193467941558306)
(-1.17466670507682358 0.831660340290493072 -1.09113540895402417)
(-1.13165768500909025 1.1856972295121051 -1.17386851883851362)
(-0.99289562761724437 1.29165050979805751 -1.37800464727193206)
(-0.786971680013413333 1.05712241551723807 -1.53352876983083575)
(-0.791912890243673617 0.836651553416986271 -1.46270358501290776)
(-0.766042712546699978 0.658126061753763536 -1.03152305361450081)
(-0.50014732737323786 0.729909058816682221 -0.26430685242961377)
(-0.450845020816959985 1.10265752390404459 0.355837541270395352)
(0.15753557274329974 1.41306249936103434 0.338381498920805657)
(0.743027387728732225 -0.335479183509548085 -0.286566051025521018)
(0.668104802402269771 -0.28034221761684136 -0.247203907172991455)
(0.612374482255252817 -0.243190196081019161 -0.0839007008317759484)
(0.620956068730861288 -0.184910916904167444 0.113119375409414441)
(0.600772294764561732 -0.0739330283713480613 0.176359314793346794)
(0.637729191853527388 0.11771207539230788 0.157556448029780083)
(0.767609235388891253 0.375610655701421714 0.0746568590757892003)
(0.847853740651236421 0.769764264591600966 -0.0881403764536552448)
(0.744260107645896118 1.30000976428667503 -0.268930657614282809)
(0.322173946040936965 1.77586310106709089 -0.738052561623416259)
(-0.12422264054350729 1.48179804030963136 -2.09935352119627705)
(-0.733216920923069115 1.05208323546498028 -2.08104066073974669)
(-0.666493816532082173 1.23069323768465155 -0.827125662653371729)
(-0.241751342161027061 1.51445847886910334 0.21293974529643378)
(0.0798258483757730702 1.77408917819479739 0.32709008666576217)
(-0.105514780350587423 -0.332773607400669413 -0.528198061729361346)
(0.0131830887766135399 -0.217756222228100232 -0.48341569774343468)
(0.179818399605563728 -0.167143475096784455 -0.388672548927159467)
(0.327305349415480396 -0.130088013208780579 -0.0931010032022701883)
(0.392642120620526558 -0.0968943639529804696 0.158287057357600486)
(0.309893211547142611 -0.0159819956524919725 0.170938249029671641)
(0.129267673845283204 0.167537247398514694 0.0380827545470673462)
(0.132407388226879474 0.459541707471484873 -0.124077906180251246)
(0.274734481117489771 0.875312778254756729 -0.27003119411953469)
(0.298567914096219744 1.45144153400695974 -0.411719968268432601)
(-0.0162159961008102871 1.94444106264551664 -0.929614873162699196)
(-0.400856885912600991 1.43907968282815379 -1.9701734477521089)
(-0.8014558325143184 1.06224949948245428 -1.79790098687296229)
(-0.700111525613370533 1.18099474916456271 -0.740363130660488977)
(-0.298411680804706148 1.46026574462935477 0.185989746049154858)
(0.0665159628430701255 1.74542605520787708 0.309820919425590702)
(-0.370397081525927541 -0.264836693507354559 -0.342248721877536188)
(-0.154513415754789551 -0.0786547724492911993 -0.217978964172707262)
(0.00708771039474268005 0.00369471544139468588 -0.194905335542208569)
(0.142704233446856621 0.0545442950993157288 -0.147447529747861628)
(0.0762079221391028239 0.0842169282256082508 -0.0310432586564017426)
(-0.177000433803730511 0.163784330281246671 -0.159405669988702176)
(-0.303977793988534417 0.30572495417594503 -0.327588601963341164)
(-0.286990160255383486 0.548548303354392752 -0.449357507872018724)
(-0.145258337203877708 0.959165378866694063 -0.514456061382910446)
(-0.0787256082352013054 1.55099710474803554 -0.588788455394644084)
(-0.254213372844797725 1.90433323283868439 -1.13596012818955283)
(-0.568956741151239287 1.38233165726106022 -1.81424926862573499)
(-0.830787036070568252 1.01730345658110921 -1.52712406098526099)
(-0.70936912509016703 1.0876690269387459 -0.653066942061036881)
(-0.352161369502165866 1.40988923992467918 0.173934320048029584)
(0.0590470380203724082 1.70145775079154493 0.296804076679098694)
(-0.607883422283191699 -0.240537249490460625 -0.215631808326906232)
(-0.285463914247760853 0.0827848258849005203 -0.0549474260582206442)
(-0.285551516969938857 0.198467010319530929 -0.135153769840199917)
(-0.201229598272302412 0.257316816118532132 -0.230602282367531303)
(-0.241389898188972857 0.281752222500318783 -0.30137021808543174)
(-0.40543835763998004 0.29282817705908526 -0.485026780063687379)
(-0.539025703801976341 0.384794233328549673 -0.658988265021261732)
(-0.524591289130137306 0.607135717914803252 -0.743759361807113439)
(-0.436878193837714757 1.02015906901056796 -0.738271080310437644)
(-0.365656057138084301 1.59164226194886926 -0.781900236039151153)
(-0.390373563156408365 1.79219204788537501 -1.25875681577581289)
(-0.624960075571148965 1.28282862865309299 -1.64225602438400498)
(-0.854291127069726874 0.970854627162380246 -1.30975424167117649)
(-0.715198981862070537 0.998966860378049382 -0.530665170115734441)
(-0.387722779243836302 1.3536009148944399 0.196981517670426876)
(0.0559208041248377696 1.64429387798994031 0.287903204236625243)
(-1.50774719545739977 -0.962986557251277131 -0.452027967297637945)
(-1.45634780669626118 -0.991399335841634755 -0.498888697103742507)
(-1.29686994816689238 -0.754965818914007603 -0.433871567660593038)
(-1.02503406965612598 -0.318440885803369822 -0.269509563518500528)
(-0.686760460698182529 0.0732644397721331359 -0.125819180086150062)
(-0.588692271471509043 0.22584117687281291 -0.185850994774035994)
(-0.487818562834046121 0.296040225846996352 -0.354393879687453339)
(-0.440046090295816317 0.334846700559413735 -0.522150311112886234)
(-0.496277468281687506 0.327022493591144991 -0.704720188763127475)
(-0.602188974505201147 0.417317850338513263 -0.865855676367151994)
(-0.662989196142596771 0.655666037982603367 -0.923015568242974149)
(-0.641417293535173738 1.07743833051080129 -0.895152043560226818)
(-0.579878253201106975 1.53323505479244426 -0.952959903205721659)
(-0.483870397201923153 1.60881900740931361 -1.3073887672572575)
(-0.667269658133386678 1.18214293430050854 -1.48807313968576538)
(-0.867625005508045111 0.938296704276254778 -1.16505289484961083)
(-0.718810662968736636 0.923493422685029208 -0.419359100173215427)
(-0.412368372751431789 1.28795194079318165 0.205200950109873936)
(0.0555479275750709253 1.57815758417952234 0.282632089167171197)
(-1.49333780991388876 -1.00435860557089551 -0.46014265090556522)
(-1.51763151025742804 -1.03059522395442316 -0.525442721736017138)
(-1.46708173315550572 -0.823292134174938628 -0.515893289379603548)
(-1.34967803710300505 -0.435582500666731542 -0.400541253412533771)
(-1.17585233175721626 -0.021181227929131588 -0.250477692748188818)
(-1.00865684950309387 0.127530009355465684 -0.21462076471568689)
(-0.843732763773749062 0.161554250389082665 -0.39034819787779218)
(-0.661343642079380345 0.218516422033163127 -0.626184347382777506)
(-0.616170529235119946 0.252747921502297412 -0.815182417371233092)
(-0.679772476895807443 0.414704273763628284 -0.970698040847324806)
(-0.770189294910914257 0.656405586774051253 -1.01897406859196527)
(-0.806634078335827009 1.04987578881173826 -0.995796513313531806)
(-0.731565738575801094 1.41999420632609552 -1.05669243910876975)
(-0.599231972792023004 1.3798723962526247 -1.26575902976507249)
(-0.736812726244622351 1.07421082517259348 -1.33060981031275638)
(-0.863651151127035166 0.909834967883518919 -1.0540138528677796)
(-0.716555158790118218 0.821941079780701633 -0.377874535934177969)
(-0.439258146787996018 1.21516502003151805 0.199411053655996734)
(0.0558262570886709775 1.50129425895371038 0.279518845689455453)
(-1.32887024605266713 0.0878566823463628466 -0.0414085045743174673)
(-1.26514506931635373 -0.669349085563949786 -0.395281137602239596)
(-1.39502929560138034 -1.0094656520316676 -0.469244719383767772)
(-1.49765001750855675 -1.06153133491201901 -0.530764190221972854)
(-1.51371204111020075 -0.881743685269626765 -0.571031528041150649)
(-1.48531660546334221 -0.544541501769981839 -0.540174861355414593)
(-1.45699033244278597 -0.186427516075598848 -0.466400252314953911)
(-1.35962119392716985 -0.151161330394419563 -0.448212228194742435)
(-1.23751520320077324 -0.170762093307853358 -0.517411947775023973)
(-1.06587390255249992 -0.0869770357241233943 -0.676546872549474987)
(-0.887596833837609789 0.0584485133127429779 -0.858124490301464649)
(-0.874900624460997034 0.399637790862354403 -0.998134472087194191)
(-0.962212227690987132 0.711508855898236869 -1.03157502026266656)
(-0.978335713842100718 1.05899218865423062 -1.02418546119485998)
(-0.895039299704790015 1.25297914853052639 -1.07488063466039119)
(-0.794828003265052097 1.15331521931354253 -1.18358276033902077)
(-0.848682926500869628 0.970537807494126992 -1.20667272799892666)
(-0.864056791833409665 0.872765267566042002 -0.947326872063033454)
(-0.700696378476253545 0.802975255025253354 -0.333784718910712486)
(-0.46617024495234699 1.15548210902582893 0.210425480870671422)
(0.0577866388552134222 1.42055131599223516 0.277292163543589321)
(0.450059006161317499 -0.543555465264570548 -0.569679515855550433)
(0.749925846728354717 -0.294194331593121139 -0.513993121811102016)
(0.848967896111207265 -0.106788529999925053 -0.366761302443621762)
(0.798785309228081886 0.00348210034717391561 -0.204795631939028944)
(0.739290254931310731 0.0945544883142576675 -0.123615592481685826)
(0.847004978034986422 0.26523829318702874 -0.12925529927624646)
(0.973855656116626278 0.530360899571192812 -0.179149654717198958)
(0.995775272918307808 0.920864622575621961 -0.214780535731918271)
(0.816015452195282265 1.35764113007249443 -0.244913633477083947)
(0.559129537746117622 1.70975047011224413 -0.628145439675856343)
(0.0259701006181342342 1.45531668946814974 -1.63199164696712584)
(-0.73555176864480698 1.09129777997722521 -1.78490553244688677)
(-0.775082472750236895 1.23798039067395838 -1.04943607306684794)
(-0.271420129838015389 1.54479321339431031 -0.103671488622276847)
(-0.0014017620867412886 1.75094818585436429 0.224110557271578442)
(-0.445809488743088789 -0.86728796979314704 -0.694816324062456192)
(-0.196578979725865161 -0.600653182002954367 -0.929791961172132031)
(0.178411951431845683 -0.283922886274053266 -0.995111614019177471)
(0.473927603053411195 0.00877230989955591831 -0.752622833103954503)
(0.516934892950507652 0.132752228887548229 -0.364712601452074459)
(0.428766216171785175 0.197358896848481041 -0.189407958263477838)
(0.416332486035741522 0.325018145795929747 -0.272601193406101006)
(0.474284825711019098 0.584726479667511234 -0.412488823286095374)
(0.522581374026274026 0.968157168349760511 -0.454201357197382305)
(0.475934836824430663 1.4179773439966803 -0.408559530142413085)
(0.359734676446407831 1.78394965989058174 -0.652444969786285078)
(-0.18833418810183411 1.49725739980112116 -1.49925583101404181)
(-0.773943223476059039 1.10202167207660162 -1.53462878622678844)
(-0.764157006645695303 1.21454265953433183 -0.939912113294254725)
(-0.317992709860556222 1.50840194935249783 -0.0982654583518078606)
(-0.013221245941358966 1.73162554221393106 0.205394285219209105)
(-0.834053679888309363 -0.911919445609957413 -0.586516955668349049)
(-0.504647945999392444 -0.552158854142495437 -0.733742560120056786)
(-0.15077112050916594 -0.221276417764272954 -0.975312634994921934)
(0.184430990352926205 0.108485390913471716 -0.969793090510248423)
(0.375134874801833385 0.310568390955690443 -0.649399893692728658)
(0.368577059608692248 0.368843456236483458 -0.419772860993425756)
(0.257888655181582993 0.423241270929559821 -0.474858938426038546)
(0.178166947321587554 0.607458170324985058 -0.624742019586716824)
(0.16509246969120317 0.962500965956761378 -0.662324542315106624)
(0.172934672425533675 1.4050821001174032 -0.572410203460446243)
(0.15222876424805068 1.76670002015631478 -0.711922638600411273)
(-0.30042468987188975 1.41089499406145014 -1.33053353321789203)
(-0.797136067683409943 1.09654707734472789 -1.33384532262687361)
(-0.755180814233855635 1.18783609113136501 -0.826394410864528473)
(-0.354292972609618728 1.46715673435741079 -0.0670290424678704477)
(-0.0212163338632521646 1.6967355952206078 0.193894577754104958)
(-1.07086700647692434 -0.955502219646010009 -0.41140936308982784)
(-0.750934798972823891 -0.469002384231952396 -0.423246232632541131)
(-0.447737345881705662 -0.0834653236357625894 -0.589442079524332918)
(-0.132396141591320571 0.228982084127934915 -0.800928919448332)
(0.144685129816918057 0.463457690852346893 -0.709140614011689263)
(0.227258175183359556 0.51005773089728168 -0.586165677224566695)
(0.12977968576258464 0.516131001201478479 -0.65180706974806657)
(-0.0060779711899678901 0.648031545137652487 -0.784701992554590944)
(-0.0872604753383276477 0.953573806506673671 -0.809343144709805395)
(-0.0737151029180058703 1.34865928979650995 -0.708187338991922988)
(-0.0159545545719461113 1.66562708158832673 -0.789706226629382502)
(-0.383702719025027617 1.3403045649582479 -1.20844645630478453)
(-0.801996506298037315 1.10295038549411606 -1.16539056465794255)
(-0.754668862955739206 1.17308493766446365 -0.70404629656780926)
(-0.381559825520444762 1.42491963292632717 -0.0264167568185440585)
(-0.0255267582559690551 1.64795140616938962 0.18856625599072957)
(-1.52771524595100461 -1.14457775881402357 -0.366389518449019957)
(-1.46811874649185592 -1.31100146038272825 -0.478273672168640474)
(-1.40703683725969442 -1.28058349517794978 -0.490758021407288414)
(-1.27417783342743318 -1.00996104637804751 -0.397181500284226552)
(-1.0275707865049728 -0.518193816849554456 -0.29597137246011207)
(-0.710228734457171385 -0.114623159040804667 -0.347992781177033084)
(-0.426908370315807917 0.207312348725223639 -0.539299277112420317)
(-0.144147720867382756 0.470772668989601184 -0.651272840598739577)
(-0.00987738352417180665 0.55481143540202349 -0.668934551538433175)
(-0.0575049322285978715 0.570142073853847742 -0.786285310556121164)
(-0.178136070506260291 0.67384769856843596 -0.890958966954599418)
(-0.281264006323806826 0.931427766109482191 -0.911904602081674343)
(-0.291436185195979247 1.27536601652285531 -0.791288173162930097)
(-0.217096411029160774 1.49417980864507505 -0.836639051411225854)
(-0.492939999127088746 1.24761902967749805 -1.09389796464395728)
(-0.818598161656973966 1.12387740908325484 -1.04489811524722565)
(-0.756802593972215054 1.15060295353505149 -0.61901868536026261)
(-0.40302037320566525 1.38248839525459455 -0.00158554959458467176)
(-0.0287936994222386874 1.58643620371353533 0.186651369842173093)
(-1.48272696457440789 -1.16644282914187025 -0.414011565263841586)
(-1.46744893765539342 -1.32996134262268817 -0.487220159079498005)
(-1.44879181768512133 -1.28880528376261028 -0.510310849119927634)
(-1.40028613982452055 -1.04455696912127749 -0.443246382188091315)
(-1.2710988719875902 -0.597535406775758005 -0.31504383961272564)
(-1.03909878232131936 -0.179746466647710268 -0.2393820189704986)
(-0.765707240227963437 0.0925995848174602232 -0.299417374735954533)
(-0.467436139997161271 0.350026635687990195 -0.519637014601028735)
(-0.296634949826628636 0.504108257159359807 -0.675983870130198783)
(-0.308587503410878761 0.564453510475478426 -0.84130926532332706)
(-0.386782502881331536 0.660178287089723703 -0.922258491335192554)
(-0.482802090466839751 0.876623066004658669 -0.908710025718264203)
(-0.513339470365006045 1.16697570547159679 -0.806069991768270433)
(-0.473229318981697178 1.30756831142463681 -0.83814695907508252)
(-0.669685353453338128 1.16714174317485009 -0.994094193893952593)
(-0.847394110961304459 1.1185561047252206 -0.964085131573236831)
(-0.754237935946030502 1.1199743267918616 -0.553622598071995542)
(-0.415831819994020246 1.33414289644526307 0.00955642737912625051)
(-0.031834416535781937 1.51286745119571053 0.185765695291837091)
(-1.21676313930191271 0.108198015235827449 0.108854563989889325)
(-1.3046689277165493 -0.640257896277800498 -0.412783359756776658)
(-1.38992846253328484 -1.1388439895974225 -0.452552111575191818)
(-1.42829744382295432 -1.3332759866189039 -0.47576420797024277)
(-1.44745710310401865 -1.29551553230962146 -0.507127605658892033)
(-1.44872263071835783 -1.07106834392835859 -0.475882593302927037)
(-1.39284704407336468 -0.695935123129164612 -0.397502973917401581)
(-1.31541566795896947 -0.306486053179430784 -0.308014630806401568)
(-1.18161496125286036 -0.133100914017736105 -0.285723099909665657)
(-0.914468928540278614 0.107637895118206484 -0.385118640058365047)
(-0.660551440259514511 0.361215308358629417 -0.632739830287603389)
(-0.661761718150825073 0.497479653911542641 -0.836151824650232522)
(-0.726749997842456086 0.631657996231576035 -0.890490642750294437)
(-0.777164195020948467 0.869693388263706013 -0.832056782066510014)
(-0.774548714689587303 1.09926514135699005 -0.765243818755574789)
(-0.766418786613082048 1.1532171383792722 -0.823589123270983214)
(-0.844305431740242196 1.08102655777166423 -0.936116887110656215)
(-0.880865109753079079 1.0830380031118918 -0.874930139920461536)
(-0.739188593643215652 1.06891259118012427 -0.469718189132499131)
(-0.432935456047110867 1.27384411931992125 0.0303792536959407236)
(-0.0353098699876540356 1.43498935222146384 0.186225028858961889)
(-0.12638056174775586 -0.852647640846909249 -0.564158580291923561)
(0.671009554755399029 -0.377139006825740086 -0.506258178266629444)
(1.16513828542928688 -0.0250711236135718607 -0.32257501434175162)
(1.42776692968065722 0.199243307769998657 -0.13608189931242648)
(1.51776491677089331 0.324023262952401192 -0.0169803826412689984)
(1.51113252824642341 0.451628838988934633 -0.00663083731513498809)
(1.4405868650911815 0.604752980113850702 -0.0496230750115380162)
(1.31836096142090353 0.8234756576319745 -0.111854545690853985)
(1.17204197058985349 1.05527722883558273 -0.15058181842541013)
(1.10505985807919838 1.25507086756653607 -0.21782962659188887)
(1.02986293662981288 1.41725063186682276 -0.438924026458950622)
(0.590967184489251895 1.32675497949936938 -1.00866672380569167)
(-0.418681682945785005 1.14199060812955566 -1.49285897908770648)
(-0.560873377285382668 1.26560055926261272 -1.17285949858220784)
(-0.297309901061442172 1.57695338273300401 -0.426767624092821263)
(-0.0609758871344368292 1.71995515021732093 0.0761259209278184745)
(-0.62024131292154383 -1.17256975286806742 -0.865662298038395783)
(0.0105517775763857638 -0.727846216267678203 -1.07901941523568556)
(0.5783546903387774 -0.220703492289431091 -1.11738029655944526)
(1.00235114334402198 0.19106864933833867 -0.915709454689668356)
(1.24707760794519107 0.426598356029265269 -0.606640440212206866)
(1.31025467514008742 0.551803268100960476 -0.368113406700605994)
(1.23240156052308381 0.645649611386381772 -0.271555930769267762)
(1.09473035733215696 0.803111523285841788 -0.282157588114281599)
(0.947582439214338268 1.0093813484427574 -0.306927921248943913)
(0.89001694995396996 1.20848353690409804 -0.303498171218073431)
(0.830426713786189152 1.37790051750951537 -0.402555933031452207)
(0.608790589779452995 1.3992920488971432 -0.802651601865216668)
(-0.402951909182789891 1.15295602636671912 -1.24655111596538992)
(-0.548062064008774774 1.28280908822429351 -1.07778097052963262)
(-0.346029083380965718 1.57866739712738502 -0.414831864176470777)
(-0.0704872970088215867 1.7153758130816803 0.0635730822014642927)
(-0.969450367775828381 -1.34256420611162741 -0.811636481493754225)
(-0.469792440778484088 -0.971549745070759196 -1.04107310709902978)
(0.0881230699018225733 -0.4656078698476811 -1.21267858138185236)
(0.526442705435534952 -0.0263143306867337778 -1.28590373359416255)
(0.886998088718611855 0.372490463520452786 -1.06671407306860155)
(1.04114845029858349 0.589008390738311904 -0.744771010184007043)
(1.00899439724095652 0.682779987102531183 -0.535809873379034518)
(0.873186949154754588 0.787390424312514159 -0.483789642741268344)
(0.715649189835375177 0.953461446951478608 -0.480741632766021387)
(0.663519853694380823 1.12022793974209689 -0.437656333863638058)
(0.680440975416183202 1.26692299851297907 -0.435365318774361076)
(0.535221680333272221 1.40248966393885266 -0.645436914746915669)
(-0.385764690911341523 1.14521875836775089 -1.03760324017378669)
(-0.57937405393090613 1.30555466749638271 -0.974268821028843601)
(-0.391863082790967598 1.57592677358464339 -0.399311967576624405)
(-0.0777416563134827182 1.69453471199751426 0.0627619215291136678)
(-1.19155994999942605 -1.40992414319499559 -0.595586272859911392)
(-0.827568112569061709 -1.04586428889408611 -0.638752901803525286)
(-0.389314951702454226 -0.521284042196075603 -0.773880375011223642)
(0.0102654120776128621 -0.0707804903234600935 -0.958834652591792347)
(0.453631832421205083 0.367305164909893012 -1.04846550081234469)
(0.68743716876761729 0.632115087270637366 -0.886469431497747484)
(0.711781352942719492 0.721397960962976592 -0.721114001057151399)
(0.606953441156044771 0.78383972418261405 -0.64680614881742815)
(0.464595357584717816 0.900206183393725823 -0.612916345319103995)
(0.430880606067457816 1.01852909428678884 -0.54419477536467642)
(0.424163001318952793 1.15011477278207419 -0.478110503776347284)
(0.348013282282808589 1.29708970835486048 -0.546877422012881587)
(-0.422664317380236909 1.19611348842077869 -0.929577982734646424)
(-0.643486339995525625 1.34202257575651807 -0.878671862340997922)
(-0.425577340249282843 1.55960161262015551 -0.365110612880483743)
(-0.0824312873748981462 1.6563768670277077 0.0694161990907929821)
(-1.59525067140304899 -1.11895428614637304 -0.377814784465554887)
(-1.51642422923332676 -1.38695722363545437 -0.54325802297071546)
(-1.4056712260030666 -1.45629820173407731 -0.584247093442573084)
(-1.30629198213664877 -1.40600023262682305 -0.503732531007891948)
(-1.14363096170109446 -1.10631067299118557 -0.387575508410448577)
(-0.833046391332005642 -0.60924530032523172 -0.400700574729326298)
(-0.473913608986782364 -0.174456678662491399 -0.55654887285023924)
(-0.0637778545858301016 0.275663350174539024 -0.791298220841252009)
(0.250489578963521475 0.615102622307268643 -0.84112964870240714)
(0.320437987649607514 0.724253659251252624 -0.78628844362773731)