/*--------------------------------*- C++ -*----------------------------------*\
| =========                 |                                                 |
| \\      /  F ield         | OpenFOAM: The Open Source CFD Toolbox           |
|  \\    /   O peration     | Version:  2206                                  |
|   \\  /    A nd           | Website:  www.openfoam.com                      |
|    \\/     M anipulation  |                                                 |
\*---------------------------------------------------------------------------*/
FoamFile
{
    version     2.0;
    format      ascii;
    arch        "LSB;label=32;scalar=64";
    class       volVectorField;
    location    "0.179999999999999993";
    object      faceTraction;
}
// * * * * * * * * * * * * * * * * * * * * * * * * * * * * * * * * * * * * * //

dimensions      [1 -1 -2 0 0 0 0];

internalField   uniform (0 0 0);

boundaryField
{
    inlet
    {
        type            calculated;
        value           uniform (0 0 0);
    }
    outlet
    {
        type            calculated;
        value           uniform (0 0 0);
    }
    top
    {
        type            calculated;
        value           uniform (0 0 0);
    }
    bottom
    {
        type            calculated;
        value           uniform (0 0 0);
    }
    left
    {
        type            calculated;
        value           uniform (0 0 0);
    }
    symmetry
    {
        type            symmetryPlane;
    }
    interface
    {
        type            calculated;
        value           nonuniform List<vector> 
352
(
(2781.64772000351604 -0.0419228612157727179 -0.0608522910444130871)
(2703.75376823303941 0.0066281724832381872 -0.0640967524232910618)
(2584.75955085653095 0.0190165995563312783 -0.0624076677059324167)
(2437.0204008151627 0.0258899963822212149 -0.0597203823699144001)
(2255.40000628130792 0.0333061821517202095 -0.0581586371845481814)
(2041.38256109151712 0.0414429932473048268 -0.0570775256675351214)
(1810.23231255065957 0.0485056580729294057 -0.0558210601015846491)
(1562.52988782521174 0.054195629386089017 -0.0539457989087073833)
(1312.86291569664058 0.0640066566461239272 -0.0556814855359204428)
(1075.88455803655393 0.0751340537295547561 -0.0581916783196266135)
(866.321003392707325 0.063786760286544758 -0.043949737775085311)
(683.181567153937749 0.072532604514018148 -0.0445173598162719591)
(516.331412254878956 0.0744673410401578556 -0.0412221536090565527)
(373.010244582352811 0.0718800811061722916 -0.0365043740546764431)
(253.410597537647504 0.0720725691378401451 -0.0338929594925816979)
(161.056165767888047 0.0715859786302542739 -0.0318834352098944854)
(3343.94699806882227 -0.0113070707072933548 -0.0352624643542118893)
(3244.55689659499058 0.0114218275171174902 -0.0435963099375504468)
(3099.44144546118241 0.0209093372529254376 -0.0417953567337442378)
(2917.87321923584841 0.0282024391706069688 -0.0385378367499280769)
(2697.4746969863877 0.0355706700218849994 -0.036517768012337283)
(2445.4007809854711 0.0428421512388617032 -0.034579681798753592)
(2177.92944267534676 0.0494982425065508061 -0.0333645535169150922)
(1900.76045174746969 0.0558267682032219034 -0.0328245320805804278)
(1624.36423092066229 0.0624190615667462589 -0.0326525122576730026)
(1360.51758729816879 0.07087558777019215 -0.0333183290370181184)
(1110.51737387067942 0.075266097214322536 -0.032026894381674352)
(880.444784583080377 0.0717166178227413992 -0.0278490961045668797)
(666.103574846792412 0.0832851494525801983 -0.0299142889796460455)
(479.592149169013737 0.0600802652492105627 -0.0200622252960652274)
(334.908693706882502 0.0436577258331037332 -0.0136837728749902299)
(218.402852525237563 0.0441992673720845997 -0.0132387174622815764)
(3641.56044137847221 -0.0124369586318427965 -0.0273844548395920581)
(3541.16158685799746 0.0116917415734003258 -0.031081437777540917)
(3396.17588959063278 0.025558885102946273 -0.0358281616782622908)
(3205.43866858429101 0.0402056763620886812 -0.0395924582068962819)
(2972.31566692705064 0.0478051536716943351 -0.0364910090022794939)
(2710.60880364908917 0.0485006552890688558 -0.029909028078481812)
(2441.46256444044047 0.0537610325227017988 -0.0283813992718917399)
(2161.99675410976579 0.0597948375197779047 -0.0281440724284786684)
(1865.32274290358851 0.0659044339511932753 -0.0276838884130720594)
(1566.04305009243035 0.0824381062974822582 -0.0307452047358751264)
(1280.40424304532007 0.0919496382320779265 -0.0308378801840974055)
(1018.18307194461272 0.0909178828908407677 -0.0281199234913723124)
(780.565351297664733 0.0888988755821705223 -0.0258236807226248435)
(571.366475019744939 0.077029051641049201 -0.0212100539925999254)
(402.938072327967973 0.049846211341611886 -0.0129176522754091277)
(265.15465523312696 0.0546461072242692067 -0.0134498445722479876)
(3788.07867343011685 -0.0103305234036145319 -0.015396730571224683)
(3689.10641160210207 0.0120936170937357822 -0.0206812736643777785)
(3546.93946068614605 0.0231366720674879046 -0.0220902179516127596)
(3359.85928096781618 0.0432562686812659331 -0.0283495485314027816)
(3123.69848176816231 0.0566224521662547012 -0.0288836250626716591)
(2855.32594136047237 0.0531544259799477739 -0.0221175264105009442)
(2586.73644689883213 0.0563161702870005124 -0.0198742391557247891)
(2310.58317098204952 0.062453794853322385 -0.0194284914444382423)
(1997.16608454955167 0.0879273676844405383 -0.0243461630022234719)
(1668.84362880468166 0.0971467243830318322 -0.0240708015407980515)
(1373.88485370966578 0.0895288724997723578 -0.0202502233925380762)
(1117.16100684162075 0.079405612653028354 -0.0168453794233450853)
(875.975385273712618 0.0968050558013258539 -0.0196140254529276609)
(648.336346476616541 0.0961043253397062258 -0.0188197443283082098)
(449.022449600538266 0.100748975647481698 -0.0189097853049921064)
(286.213923533729883 0.0961522843339061434 -0.0173253837375992141)
(3885.2494006067609 -0.0104497562861687095 -0.0121309752566816156)
(3788.73015825241282 0.0123218391234654334 -0.0143625517637068194)
(3650.2802457308162 0.0235199986002049728 -0.0152888360955890021)
(3465.6865871199625 0.0403785415129995287 -0.018155544734561848)
(3234.58990440652133 0.0615504119501444624 -0.0212300848768683381)
(2963.83874831839285 0.0686371526458929848 -0.0194275638780678113)
(2683.66331703533524 0.0622636569626919267 -0.0147959624579393541)
(2395.94833562459871 0.0656493128949925814 -0.013580826010177835)
(2088.36849731998927 0.0742589335625465502 -0.0137755639830463086)
(1770.83457881652816 0.102959013883203734 -0.0178710888318464566)
(1466.4502505002099 0.101682999957381628 -0.0166328383989556364)
(1198.87911094066021 0.0837689095817137075 -0.0128790200166743682)
(955.941001777282736 0.0769979456785058608 -0.0112233820905435124)
(727.580517525106984 0.0740469254314508746 -0.0103437167999783503)
(521.425485446094513 0.0890847124761611903 -0.0119942611220889405)
(335.52285513825467 0.122200496689045146 -0.0161600282560511177)
(3945.72896187197784 -0.0100407045486404813 -0.00712906902209811243)
(3851.71888805527806 0.0122736051665255242 -0.00960279470734699131)
(3716.71008841752837 0.0237619001083746346 -0.0101572955876158815)
(3531.46159929959458 0.0415710847238414047 -0.0118046286482594107)
(3294.93438997536259 0.0627309637942316256 -0.012947490730502418)
(3013.70551807703214 0.0735355573860384248 -0.0118800972844716295)
(2723.23586443597242 0.0677561773463215972 -0.00908456606743892475)
(2442.120453420785 0.0661294498351431143 -0.0079305511172494559)
(2148.97446711300563 0.0737926369138330457 -0.00835203701541937377)
(1838.87561571439232 0.0876317638224631823 -0.00945896506227901675)
(1532.16868729229327 0.0957112479662697163 -0.00985632494618030389)
(1255.22125721992461 0.085969761267367148 -0.00836138250361634187)
(1005.49460907346565 0.0774998323844865444 -0.00709873784906410975)
(768.866136150844113 0.0770883202798216399 -0.00669292902904279358)
(552.61816626943812 0.0822607125384173382 -0.00679432292757232298)
(357.172652237306977 0.133301618197556176 -0.0106135237668571643)
(3986.66822555359204 -0.0107585584883288631 -0.00410720692258469567)
(3891.99165832861945 0.0121975022311240095 -0.005426840245336172)
(3760.89517133514391 0.0249423552887072693 -0.00571535091158803608)
(3574.07113754531838 0.0473666596145763605 -0.00698191555510346753)
(3318.12806458083423 0.064224395787238403 -0.00687921909398926321)
(3024.39434366366822 0.0725076791370391771 -0.00585379771792184003)
(2748.33683236399293 0.0606374391180302258 -0.00405686403830689876)
(2483.99998128614197 0.0673765002838568605 -0.00411118762402603363)
(2195.33034339632559 0.074089578042241977 -0.00440231919887695833)
(1881.9497996948071 0.0839880784654337686 -0.00504275076099438505)
(1570.55474370060483 0.0953842852415237863 -0.00577635436260603551)
(1285.38450983714824 0.0982585562519147776 -0.00566395820896513705)
(1030.0481528895516 0.0780556835331543825 -0.00407425149466134843)
(792.47082840818905 0.0788711160437934045 -0.00377796852904737149)
(572.211310264414692 0.0869355622173733356 -0.00388383702213914404)
(371.945589398267032 0.135884132636053145 -0.00579978390489345984)
(4004.14357490589055 -0.0100320209041594045 -0.00134382549068098617)
(3909.6336096527757 0.0123637144941826597 -0.00175247053873891384)
(3780.1323046267762 0.0250091762723058629 -0.00181164560660131038)
(3593.66727183740977 0.0480201438997272176 -0.002229468960255848)
(3337.731790105051 0.0648027667140179259 -0.00225883244927704233)
(3041.98523455026771 0.0721727438062156751 -0.00198011833770339509)
(2764.28415954451657 0.0596322314599007641 -0.00133835060543675702)
(2499.6097781407716 0.0657427782361620361 -0.00128310081364209762)
(2218.59515666157631 0.0723672445398353681 -0.00135878054287293906)
(1920.15911027014386 0.0809136656268852339 -0.00167982257321557448)
(1606.48705570305697 0.108637136917144481 -0.00249270893876582609)
(1296.90162651865694 0.11797826271158765 -0.00262695341373024322)
(1026.54189301786664 0.0849131282968545176 -0.00160945372771860527)
(796.891836666047311 0.0788032072580996529 -0.00128871545395420903)
(581.02284196874507 0.101399197089986112 -0.0014696100449145739)
(379.60578862864935 0.119699867080080291 -0.00163453039897999653)
(0.148606344640409199 0.0520949938638047005 -557.592841485984877)
(0.155857284487039977 0.00753209686569527529 -633.385659147676051)
(0.144647034289497656 0.00576719860578374897 -598.643366937990322)
(0.144220282930168892 0.00896868579760293563 -511.008619215549857)
(0.127727275738377249 0.0123154473353854869 -413.288957117939503)
(0.103001485250354075 0.0151432896430048428 -304.8023965311491)
(0.0906104308366912081 0.0176167725950341428 -192.153889267653796)
(0.0548199755111195286 0.0154903846838369569 -31.1706399724392718)
(0.0313437076864870115 0.0176875783007111667 -9.54225146150785619)
(0.025559371856597346 0.0203406612758905113 -6.65734117154609173)
(0.0170448072804590019 0.0210907181937445704 -8.89756228146287853)
(0.0071096752920586535 0.0107005217626611505 -9.49731464530445812)
(0.00243912326454549192 0.0043355024815955618 -10.2809700201284926)
(0.00429396059585308246 0.00898913646928806674 -8.30248703149584522)
(0.00330900398047621631 0.00857417934144341816 -7.26478787439199269)
(0.000438181326552768765 0.00130040893651033941 -9.4189747727637787)
(0.120281686349784492 0.0435090053763869736 -237.033163280292939)
(0.119927106198593245 -0.000994319641717796325 -251.409024627482523)
(0.0787387290350044233 -0.0111339404074088499 -182.56842281387847)
(0.0252854412404002402 -0.00461995781788926332 -91.7593737815572155)
(0.0172675984283224941 -0.00219724261190619528 -12.5634099084736182)
(0.0099178090981761613 0.000646844828974737422 -5.93895176796510516)
(0.0029340016415319403 -0.00020156982213228786 -11.8618667608235828)
(-0.000198441996900119847 -9.44648839175726086e-05 -11.6053806857519231)
(-0.000169947482597000954 -4.0388803950221757e-05 -9.16606453038589741)
(-0.000243986932788369486 -8.62550506574327909e-05 -7.97254461738805542)
(-0.000239805788203088137 -8.54515051262011265e-05 -7.63193168645328424)
(-0.000231389504338946395 -8.0129975461301094e-05 -7.33547801984448089)
(-0.000211905656777641575 -7.78797739879865265e-05 -7.11595173166407502)
(-0.00021076077554040297 -7.13946496983718852e-05 -6.83163595364101539)
(-0.000190276594982925388 -5.58752302420285164e-05 -6.51171486604723526)
(-0.000185096685063450023 -4.28892827532168048e-05 -6.42560456250194534)
(0.0949870313674551492 0.0201156701071074084 155.847464404989154)
(0.0726478380521978079 -0.00746573109170615198 69.6529888270997901)
(0.00905678503004311332 -0.0048015245824104321 12.3240013259688794)
(-5.54005737444372731e-05 -0.000105772918725287663 -4.90879980683411166)
(-0.000179512131235280671 1.24091165319791068e-05 -4.50941790674601961)
(-0.000181086758537964923 1.50277354450280333e-05 -4.32546842349193117)
(4.71044378872739278e-06 -1.55925895755062873e-06 -4.44373269988680963)
(-1.67631708594462561e-05 -6.64354499710902549e-06 -7.31130068928084764)
(-8.80237671301079255e-05 -3.18499114080696664e-06 -7.78961512631169573)
(-0.000168197932585730512 -1.38867568370522448e-05 -7.46548718086891405)
(-0.000168714377149808953 -2.42952326097306175e-05 -7.03097998285339365)
(-0.000157302535123947737 -2.87735439128623345e-05 -6.73741766041315238)
(-0.000148439542385571453 -2.92293975367007262e-05 -6.54942148955647063)
(-0.000137352245866078428 -2.89528664120793559e-05 -6.44064672460992149)
(-0.000136591662975993583 -3.48336611425479996e-05 -6.16999777777139169)
(-0.00011832885041924728 -2.4398968822469287e-05 -5.74844056712266926)
(0.0705182121809625889 0.0112999367016602906 106.628528672475184)
(0.0222736193722313305 -0.00438778173409829029 30.7030206191482726)
(0.000243239071080775997 -0.000324861298403436962 0.834017747912470742)
(-5.45322149878132699e-05 4.42899009700097282e-05 -4.03926808440370788)
(-6.54354681126732168e-05 4.12098391892523611e-05 -4.81106618030207045)
(-9.84795912058063737e-05 7.98835961803934413e-06 -4.52789752510013077)
(-0.000126232478691760866 -6.37630418613004834e-06 -4.31183079189721852)
(-0.000159188908453407655 1.63571925362688185e-05 -4.57996716474189647)
(-0.000177696776746337281 2.64409539531099812e-05 -4.99892924094446123)
(-0.000155985597720983336 2.80776409330423869e-05 -5.40046142341132995)
(-0.000139928036096284455 2.9164122128777632e-05 -5.56184443386168681)
(-0.000127412652522454397 2.60858968193163126e-06 -5.4968315788429134)
(-0.000119597293083853194 -1.11790112221243439e-05 -5.30095725046036659)
(-0.000117027242428875155 -8.60687059499738932e-06 -5.13020359094217682)
(-0.000110826952327064659 -1.00103025460182394e-05 -5.01206887889981445)
(-0.000106483362071171117 -9.61489507838856724e-06 -4.89366915080297016)
(1.39361329923673605 1.34059417781549642e-05 -1.03369396666116592e-05)
(1.37782501455771267 -2.22412260078059753e-05 2.65094767852463002e-06)
(1.52813940597717068 7.53232932167642508e-06 -5.20256997202947578e-05)
(1.68163964054434611 1.72345523131726527e-05 -5.66848298893348051e-05)
(1.86702050262840569 1.99982924352453348e-05 -6.13242517475346544e-05)
(2.04727642185344871 2.05191445300832694e-05 -6.29250661789246838e-05)
(2.23075532798351439 1.87313172858200071e-05 -6.22120997261876011e-05)
(2.40988800454715868 1.58983020309103045e-05 -6.1679276240822077e-05)
(2.57327454374889797 1.36777932595941453e-05 -5.98231949066539942e-05)
(2.7201046836812206 1.21628762220843861e-05 -5.85094402116377094e-05)
(2.85760468022468483 1.17721774580417154e-05 -5.62926113821106644e-05)
(2.99261707207457484 1.2339434242210632e-05 -5.41795417619449614e-05)
(3.13121182046250368 1.38838979386409017e-05 -5.15146617495568801e-05)
(3.27420394004328097 1.76564275108517773e-05 -4.7802890770547331e-05)
(3.44094278264237463 2.25771238983305913e-05 -4.21590661619441017e-05)
(3.63568674308713069 2.90288131429503094e-05 -3.52024350972685637e-05)
(1.25408740312636824 -5.97353789335034531e-07 -4.08046823466152569e-05)
(1.36702841873658909 4.93046791997203113e-06 -3.13674466567245524e-05)
(1.4994897775419449 9.48699398318215005e-06 -2.68257051492083028e-05)
(1.6389082247184148 9.86597530517381937e-06 -2.45241043578899961e-05)
(1.78262117472897885 1.04288011650249526e-05 -2.55855525596632571e-05)
(1.92744422905580359 1.09244161166790108e-05 -2.80255906518778716e-05)
(2.07272162450673658 1.12600850047008988e-05 -3.04891120928741561e-05)
(2.21662583320657713 1.17948912033765729e-05 -3.22288297666480143e-05)
(2.35817940728660025 1.24577118405191379e-05 -3.27951641004262478e-05)
(2.4993989225830533 1.33883492642958188e-05 -3.23754706864920415e-05)
(2.64202471212718581 1.48317595768239453e-05 -3.12486261231366985e-05)
(2.78755000024873834 1.72051392958476688e-05 -2.95358500394312094e-05)
(2.94097074846729845 2.03176512439662949e-05 -2.72539052689904645e-05)
(3.10646036174666929 2.55388855380910215e-05 -2.46700830748885102e-05)
(3.30783598548946367 3.16207841661660414e-05 -2.16196125722486846e-05)
(3.55125660143018429 3.88820371818365194e-05 -1.80955672751680818e-05)
(1.21245563049958172 -5.29780700341617567e-06 -1.54024339899771843e-05)
(1.33243692451405238 2.76215671589055244e-06 -1.80980285356780406e-05)
(1.45590264936926483 5.26997182241841311e-06 -1.97710363138529402e-05)
(1.58179580251246787 7.02570858336877848e-06 -2.19439207571136573e-05)
(1.71070879268480569 8.72478111519849633e-06 -2.32035579937841141e-05)
(1.8424202676198469 1.01811261434430112e-05 -2.38612392503923289e-05)
(1.97678385938888579 1.13082195774138135e-05 -2.40524243085244726e-05)
(2.11343186927252225 1.24155191468308696e-05 -2.37508237802596384e-05)
(2.25188553840531958 1.37557985211602643e-05 -2.30823120440951296e-05)
(2.39240598387337977 1.54865301255312216e-05 -2.21695752360818893e-05)
(2.53631673118876977 1.77027436157717938e-05 -2.09269886960080114e-05)
(2.68544119221344868 2.0918930838555048e-05 -1.94046935331406143e-05)
(2.84557457811790826 2.46058547569557013e-05 -1.76478734223101398e-05)
(3.01982340637184343 3.1188178115596308e-05 -1.57302934271567553e-05)
(3.23378037686639752 3.71408739241424645e-05 -1.34856076018751824e-05)
(3.49229439444240164 4.49948163367436084e-05 -1.13866375206899279e-05)
(1.16865453399125152 -3.27563102351787342e-06 -1.40295411028244048e-05)
(1.29202568194792544 2.73487017520691467e-06 -1.43698762537673411e-05)
(1.41782409620603511 5.24180212001077893e-06 -1.4079434180353683e-05)
(1.54530559295844472 6.77497747667786053e-06 -1.39771859504162522e-05)
(1.67414482650080121 8.16125452812875273e-06 -1.41001054296382969e-05)
(1.80458222769141852 9.58151084524928427e-06 -1.42311495972108225e-05)
(1.93682034633763656 1.10790086038813066e-05 -1.42519433441461856e-05)
(2.07110517879919032 1.27423303849737983e-05 -1.4104423247416111e-05)
(2.20783462619178428 1.46667307140324523e-05 -1.37502005006116634e-05)
(2.34767444164203454 1.69939230659074435e-05 -1.31746953524265644e-05)
(2.49201985516955427 1.97759058062156037e-05 -1.2374050272890345e-05)
(2.64254539045095438 2.35362985664057868e-05 -1.13775241291161914e-05)
(2.80512214008137617 2.75027895646955074e-05 -1.02302514905371274e-05)
(2.98217124591138472 3.46733387441164074e-05 -8.98875577156301432e-06)
(3.19941248851097226 4.05986403738327979e-05 -7.62733109235526291e-06)
(3.46139026740128175 4.85293793923874021e-05 -6.34651178777541103e-06)
(1.14151467370042137 -2.98152529420480772e-06 -9.26793427156544885e-06)
(1.26490068628047148 2.40980614266092905e-06 -9.98925074699849098e-06)
(1.39014292119926974 4.55135644792619605e-06 -9.83860946338816496e-06)
(1.51669879952444608 6.19396794926160358e-06 -9.91595759765423368e-06)
(1.64469276969575007 7.80221476833660816e-06 -9.97504799131318399e-06)
(1.77441724796186229 9.49734601440646056e-06 -9.93480959909271023e-06)
(1.90603548717622817 1.13040779816001275e-05 -9.78832985463315377e-06)
(2.03980946503799121 1.32871248207397749e-05 -9.53821465028213142e-06)
(2.17619599407606046 1.55311242376348393e-05 -9.18560084736382097e-06)
(2.31588947334198769 1.81690654926527795e-05 -8.72299995127758169e-06)
(2.46032694090155735 2.12458806994095766e-05 -8.15864579033855355e-06)
(2.6111001725121632 2.53173385908966007e-05 -7.48553375087120344e-06)
(2.77402774202811919 2.94816768646589477e-05 -6.71772525844521831e-06)
(2.95144422471661771 3.69104924041012755e-05 -5.90449105989839431e-06)
(3.16950773256710239 4.28673873341201827e-05 -5.02453993726388745e-06)
(3.43240901827518696 5.08432726600853405e-05 -4.20618360967360613e-06)
(1.12168307619985019 -2.50275760600879913e-06 -6.32854882844880818e-06)
(1.24541793039197723 2.38144922959160417e-06 -6.6361314370445915e-06)
(1.370786315207839 4.39122098908764271e-06 -6.4508485886769248e-06)
(1.49745826112243652 6.08214558574788292e-06 -6.40387793753843652e-06)
(1.6254771951093423 7.78622806693778156e-06 -6.36647798811913617e-06)
(1.75509305330855314 9.59771446419037699e-06 -6.29067208193731016e-06)
(1.88650366829691185 1.15553458546902004e-05 -6.16682641668871495e-06)
(2.02001165144639927 1.3709434233567227e-05 -5.98645465335809834e-06)
(2.15612066112861411 1.61339103558616504e-05 -5.74564924073980407e-06)
(2.29556270910297844 1.8963634828885648e-05 -5.441028570319202e-06)
(2.43976685027353035 2.22188963178547825e-05 -5.0663042358190456e-06)
(2.59028173426815167 2.64568578243980312e-05 -4.63265887702049855e-06)
(2.75289413100583369 3.07511817714292793e-05 -4.15574375526122272e-06)
(2.92992171444842153 3.83246182756742096e-05 -3.65614523379361534e-06)
(3.14774442447135527 4.43219077992178009e-05 -3.11467998123621348e-06)
(3.41006748341197907 5.21800572016200328e-05 -2.62235290518048475e-06)
(1.10942176309116913 -2.25374479518849838e-06 -3.63894738066504912e-06)
(1.23314834988919886 2.37356340369428404e-06 -3.80113735379423293e-06)
(1.35848328685906239 4.34183348323785627e-06 -3.67594471595820298e-06)
(1.48511898070451553 6.06390584332882729e-06 -3.63894885500980429e-06)
(1.61307917227742248 7.82480129969379852e-06 -3.60538065755700872e-06)
(1.74260287003788572 9.71558611163067776e-06 -3.54814389755870702e-06)
(1.87388861028350062 1.17562036270675584e-05 -3.46408235002368191e-06)
(2.0072376443378861 1.4004684707569819e-05 -3.35304747319955171e-06)
(2.143143087674789 1.65348530409555351e-05 -3.2094724892627513e-06)
(2.28232190220060449 1.94685737174134924e-05 -3.02844860079909024e-06)
(2.42618769882235297 2.28239617633458722e-05 -2.81712242418552279e-06)
(2.57630784427809223 2.71525933803154681e-05 -2.57905634996560184e-06)
(2.73845419318762007 3.15425859873373184e-05 -2.31595835429636693e-06)
(2.91491329527530185 3.91859293792884785e-05 -2.04138856068514977e-06)
(3.13225134716893461 4.52313197838150434e-05 -1.73860526083538771e-06)
(3.39374297653076029 5.30301248939863193e-05 -1.46075186588726028e-06)
(1.10343744783302689 -2.15670824200140403e-06 -1.19330202210640513e-06)
(1.22719265481094064 2.36550511612093087e-06 -1.24231452235041997e-06)
(1.35251248643746202 4.32588658009872632e-06 -1.19986112873927761e-06)
(1.47912517407112443 6.07296115524501184e-06 -1.18517617325245919e-06)
(1.60704154399110299 7.85838151133356196e-06 -1.16995073289309102e-06)
(1.736506214155221 9.77592864671279328e-06 -1.14823854078310686e-06)
(1.86771945042231224 1.18560431002108999e-05 -1.11986120121339559e-06)
(2.00096819522256553 1.41516084273970487e-05 -1.0814281262194045e-06)
(2.13672949710321713 1.67289417512306822e-05 -1.03227225874648612e-06)
(2.27572114364815681 1.97077861578645861e-05 -9.72806015928609351e-07)
(2.41935999828171511 2.31113056428063619e-05 -9.04171267245373606e-07)
(2.56922828525403268 2.747864440258023e-05 -8.27267995790250137e-07)
(2.73106353721991768 3.19163202093046867e-05 -7.45013931425445477e-07)
(2.90718403753491428 3.95839160048758293e-05 -6.63062272087170694e-07)
(3.12423707709868514 4.56607665623666835e-05 -5.62045417287091843e-07)
(3.38527493133380197 5.34516285667501295e-05 -4.67238967070248947e-07)
(0.000285778851905572927 7.67758357618614529 -0.00053399683248347117)
(0.000379752804289359416 7.12448030668594612 -0.000549766674012008567)
(0.000223957470091257584 6.63269211761384891 -0.000314086637367145432)
(0.000540201469292793022 5.85398016153109335 -0.000514801706274089512)
(0.00050564057263903831 5.73254685976681078 -0.000282628576477213884)
(0.000362982998073166244 6.28502088607865872 -0.00024709460590153793)
(0.0001193486821978245 5.46205304796973312 -0.000100648061531939296)
(0.000718195173116071856 1.9116105562195338 -3.05319904992737157e-05)
(-0.000156986657069587993 6.14553711215950216 1.33767313875918446e-05)
(-0.000152995743254252965 5.94636507268657954 6.44660174911348518e-06)
(-0.000149766825842548469 5.88999537410554996 9.10607342615197793e-06)
(-0.000153201380876965383 5.93357828536869558 6.6954617194115219e-06)
(-0.000153997076670365785 6.01953269684519299 5.99088158648956854e-06)
(-0.000151598433512475044 5.99943406681184399 1.73410485467344972e-06)
(-0.000151837688558325716 5.95583064350205849 9.76586098521331698e-07)
(-0.00015218535184214794 5.88068849918335079 1.11734719766143869e-07)
(-6.65134511075200232e-05 5.25362721601163507 1.37749463725896409e-05)
(-6.15756128216435073e-05 5.35369393665890936 3.7891593174485537e-06)
(-6.07799222368641824e-05 5.36369571226131203 3.05575933513109911e-06)
(-6.09439479845959832e-05 5.38058424460364115 2.5293532632069859e-06)
(-6.10286200949839049e-05 5.39728887594355733 1.27471825793975076e-06)
(-6.12140781959805478e-05 5.37683749841199532 2.35437699101557782e-07)
(-6.40785177285707001e-05 5.34050906573328543 -1.41726074001403439e-07)
(-6.65238200124965173e-05 5.31164762237586796 -2.81798820422632333e-07)
(-7.19808556289884766e-05 4.75088718679342481 4.96320658946712623e-06)
(-7.27402522861912308e-05 4.86426826648057364 3.07383305143980052e-06)
(-7.23957998053110922e-05 4.89987463435388815 1.69809448019453613e-06)
(-7.32356808950304617e-05 4.91733287791047324 1.48279537700919357e-06)
(-7.36909294696267878e-05 4.91964200149797293 9.45024873568862109e-07)
(-7.34082563310535231e-05 4.90842485640698722 7.59331375695976555e-07)
(-7.32754998328135856e-05 4.89250991677867297 6.57431912733612356e-07)
(-7.35136785299092332e-05 4.88160251186308702 1.873195230839555e-07)
)
;
    }
}


// ************************************************************************* //
