/*--------------------------------*- C++ -*----------------------------------*\
| =========                 |                                                 |
| \\      /  F ield         | OpenFOAM: The Open Source CFD Toolbox           |
|  \\    /   O peration     | Version:  2206                                  |
|   \\  /    A nd           | Website:  www.openfoam.com                      |
|    \\/     M anipulation  |                                                 |
\*---------------------------------------------------------------------------*/
FoamFile
{
    version     2.0;
    format      ascii;
    arch        "LSB;label=32;scalar=64";
    class       volVectorField;
    location    "0.179999999999999993";
    object      faceForces;
}
// * * * * * * * * * * * * * * * * * * * * * * * * * * * * * * * * * * * * * //

dimensions      [1 1 -2 0 0 0 0];

internalField   uniform (0 0 0);

boundaryField
{
    inlet
    {
        type            calculated;
        value           uniform (0 0 0);
    }
    outlet
    {
        type            calculated;
        value           uniform (0 0 0);
    }
    top
    {
        type            calculated;
        value           uniform (0 0 0);
    }
    bottom
    {
        type            calculated;
        value           uniform (0 0 0);
    }
    left
    {
        type            calculated;
        value           uniform (0 0 0);
    }
    symmetry
    {
        type            symmetryPlane;
    }
    interface
    {
        type            calculated;
        value           nonuniform List<vector> 
352
(
(0.869264912501098275 -1.31008941299289677e-05 -1.90163409513790806e-05)
(0.844923052572824851 2.07130390101193346e-06 -2.00302351322784579e-05)
(0.807737359642665798 5.94268736135352368e-06 -1.95023961581038772e-05)
(0.761568875254738487 8.09062386944413089e-06 -1.86626194905982526e-05)
(0.704812501962908899 1.04081819224125669e-05 -1.81745741201713113e-05)
(0.637932050341100232 1.29509353897827807e-05 -1.78367267711047573e-05)
(0.565697597672081498 1.51580181477904497e-05 -1.74440812817452142e-05)
(0.488290589945378939 1.6936134183152828e-05 -1.68580621589710654e-05)
(0.410269661155199361 2.00020802019136859e-05 -1.7400464229975102e-05)
(0.336213924386423169 2.34793917904858641e-05 -1.81848994748833196e-05)
(0.270725313560221503 1.99333625895452725e-05 -1.37342930547141838e-05)
(0.213494239735605912 2.26664389106307129e-05 -1.3911674942585011e-05)
(0.161353566329649423 2.32710440750492926e-05 -1.28819230028301529e-05)
(0.116565701431985344 2.24625253456788575e-05 -1.14076168920863971e-05)
(0.0791908117305148013 2.25226778555750348e-05 -1.0591549841431775e-05)
(0.0503300518024651367 2.23706183219545143e-05 -9.96357350309205121e-06)
(1.04498343689650697 -3.53345959602917319e-06 -1.10195201106912157e-05)
(1.01392403018593447 3.56932109909921536e-06 -1.36238468554845123e-05)
(0.968575451706619295 6.53416789153919803e-06 -1.30610489792950723e-05)
(0.911835381011202872 8.81326224081467904e-06 -1.20430739843525271e-05)
(0.842960842808245348 1.11158343818390518e-05 -1.1411802503855389e-05)
(0.764187744057960194 1.33881722621442916e-05 -1.08061505621105048e-05)
(0.680602950836045495 1.54682007832971184e-05 -1.04264229740359603e-05)
(0.593987641171084713 1.7445865063506857e-05 -1.02576662751813911e-05)
(0.507613822162706452 1.95059567396081857e-05 -1.02039100805228023e-05)
(0.425161746030677856 2.214862117818505e-05 -1.04119778240681646e-05)
(0.347036679334587539 2.35206553794758089e-05 -1.0008404494273242e-05)
(0.275138995182212798 2.24114430696067023e-05 -8.70284253267715588e-06)
(0.208157367139622324 2.60266092039312733e-05 -9.348215306139375e-06)
(0.149872546615316904 1.87750828903783133e-05 -6.269445405020388e-06)
(0.104658966783400614 1.36430393228448948e-05 -4.2761790234344403e-06)
(0.0682508914141369272 1.38122710537764757e-05 -4.13709920696300408e-06)
(1.13798763793077384 -3.88654957245087798e-06 -8.55764213737252751e-06)
(1.10661299589312545 3.65366924168760565e-06 -9.71294930548154694e-06)
(1.06130496549707365 7.98715159467071701e-06 -1.11963005244569748e-05)
(1.00169958393259217 1.25642738631527284e-05 -1.23726431896551035e-05)
(0.928848645914703508 1.49391105224044833e-05 -1.14034403132123444e-05)
(0.847065251140341813 1.51564547778340439e-05 -9.34657127452558245e-06)
(0.762957051387638252 1.68003226633443244e-05 -8.86918727246617488e-06)
(0.675623985659303039 1.8685886724930629e-05 -8.79502263389959972e-06)
(0.582913357157370804 2.05951356097478796e-05 -8.6512151290850095e-06)
(0.489388453153885072 2.57619082179632377e-05 -9.60787647996098838e-06)
(0.400126325951663198 2.87342619475244011e-05 -9.63683755753045563e-06)
(0.318182209982692032 2.84118384033877913e-05 -8.78747609105386274e-06)
(0.243926672280519841 2.77808986194282434e-05 -8.06990022582025134e-06)
(0.178552023443670826 2.40715786378279471e-05 -6.62814187268749638e-06)
(0.125918147602489927 1.5576941044253706e-05 -4.03676633606535019e-06)
(0.082860829760352514 1.70769085075841965e-05 -4.20307642882751316e-06)
(1.1837745854469115 -3.22828856362954134e-06 -4.81147830350771343e-06)
(1.15284575362565689 3.779255341792432e-06 -6.46289802011805565e-06)
(1.10841858146442052 7.23021002108996895e-06 -6.90319310987898612e-06)
(1.0499560253024427 1.35175839628956069e-05 -8.85923391606337122e-06)
(0.976155775552549176 1.76945163019545658e-05 -9.02613283208487985e-06)
(0.892289356675147749 1.66107581187336823e-05 -6.91172700328154618e-06)
(0.808355139655884236 1.75988032146876425e-05 -6.21069973616399023e-06)
(0.722057240931890942 1.95168108916632588e-05 -6.07140357638695542e-06)
(0.624114401421733578 2.74773024013876099e-05 -7.60817593819481929e-06)
(0.521513634001462778 3.03583513696974332e-05 -7.5221254814993877e-06)
(0.429339016784270611 2.79777726561788687e-05 -6.32819481016814986e-06)
(0.349112814638006586 2.48142539540713644e-05 -5.26418106979534041e-06)
(0.273742307898034498 3.02515799379142524e-05 -6.12938295403987823e-06)
(0.202605108273943013 3.00326016686582479e-05 -5.88117010259632547e-06)
(0.140319515500167913 3.14840548898379671e-05 -5.90930790781002131e-06)
(0.0894418511042907871 3.00475888543457391e-05 -5.41418241799976721e-06)
(1.21414043768961299 -3.26554883942772256e-06 -3.79092976771300573e-06)
(1.1839781744538791 3.85057472608294828e-06 -4.48829742615838125e-06)
(1.14071257679087967 7.34999956256405177e-06 -4.77776127987156139e-06)
(1.08302705847498881 1.261829422281236e-05 -5.67360772955058048e-06)
(1.01080934512703746 1.92345037344201356e-05 -6.63440152402135241e-06)
(0.926199608849498257 2.14491102018415698e-05 -6.07111371189619438e-06)
(0.838644786573542911 1.94573928008412413e-05 -4.62373826810605169e-06)
(0.748733854882687733 2.05154102796851978e-05 -4.24400812818057746e-06)
(0.652615155412495596 2.32059167382957614e-05 -4.30486374470196484e-06)
(0.55338580588016506 3.21746918385011681e-05 -5.58471525995201808e-06)
(0.458265703281316161 3.17759374866817971e-05 -5.19776199967364226e-06)
(0.374649722168956367 2.61777842442855402e-05 -4.02469375521074104e-06)
(0.298731563055400717 2.40618580245330685e-05 -3.50730690329484584e-06)
(0.227368911726596096 2.31396641973284135e-05 -3.23241149999323683e-06)
(0.162945464201904366 2.7838972648800345e-05 -3.74820660065278984e-06)
(0.104850892230704942 3.81876552153267431e-05 -5.05000883001599197e-06)
(1.23304030058499414 -3.13772017145015317e-06 -2.22783406940566219e-06)
(1.20366215251727549 3.83550161453922974e-06 -3.00087334604593758e-06)
(1.16147190263047784 7.42559378386707428e-06 -3.17415487112996357e-06)
(1.10358174978112422 1.29909639762004508e-05 -3.68894645258106916e-06)
(1.02966699686730023 1.96034261856973747e-05 -4.04609085328200338e-06)
(0.941782974399073325 2.29798616831370288e-05 -3.71253040139738729e-06)
(0.851011207636242162 2.11738054207255178e-05 -2.83892689607466658e-06)
(0.763162641693996502 2.06654530734822549e-05 -2.47829722414045897e-06)
(0.671554520972813873 2.30601990355728127e-05 -2.61001156731855271e-06)
(0.574648629910747943 2.73849261945197582e-05 -2.95592658196219439e-06)
(0.478802714778842398 2.99097649894593327e-05 -3.08010154568134986e-06)
(0.39225664288122658 2.68655503960522424e-05 -2.61293203238010789e-06)
(0.314217065335458123 2.42186976201520527e-05 -2.21835557783253504e-06)
(0.240270667547139161 2.40901000874443018e-05 -2.09154032157587637e-06)
(0.172693176959199279 2.57064726682554006e-05 -2.12322591486634958e-06)
(0.111616453824158843 4.16567556867364556e-05 -3.31672617714287617e-06)
(1.24583382048549773 -3.36204952760277018e-06 -1.28350216330771774e-06)
(1.2162473932276936 3.81171944722625329e-06 -1.69588757666755383e-06)
(1.17527974104223243 7.79448602772102145e-06 -1.78604715987126127e-06)
(1.11689723048291256 1.48020811295551206e-05 -2.18184861096983489e-06)
(1.03691502018151005 2.0070123683511989e-05 -2.14975596687164336e-06)
(0.94512323239489715 2.26586497303247643e-05 -1.8293117868505767e-06)
(0.858855260113747687 1.8949199724384442e-05 -1.26777001197090571e-06)
(0.776249994151920086 2.10551563387052882e-05 -1.28474613250813677e-06)
(0.686040732311350876 2.31529931382005854e-05 -1.37572474964904758e-06)
(0.588109312404627049 2.62462745204480462e-05 -1.57585961281074484e-06)
(0.490798357406439456 2.98075891379762111e-05 -1.80511073831438758e-06)
(0.401682659324109181 3.07057988287233962e-05 -1.76998694030160689e-06)
(0.321890047777984412 2.439240110411071e-05 -1.2732035920816697e-06)
(0.247647133877559295 2.46472237636854606e-05 -1.18061516532730457e-06)
(0.178816034457629336 2.71673631929291304e-05 -1.2136990694184809e-06)
(0.1162329966869588 4.24637914487667361e-05 -1.81243247027921154e-06)
(1.2512948671580908 -3.1350065325498142e-06 -4.19945465837808188e-07)
(1.22176050301649264 3.86366077943208176e-06 -5.47647043355910675e-07)
(1.18129134519586754 7.81536758509558195e-06 -5.66139252062909507e-07)
(1.123021022449191 1.50062949686647601e-05 -6.96709050079952755e-07)
(1.04304118440782778 2.02508645981305888e-05 -7.05885140399075314e-07)
(0.950620385796959511 2.25539824394424196e-05 -6.18786980532311504e-07)
(0.86383879985766121 1.86350723312189836e-05 -4.18234564198986455e-07)
(0.781128055668991794 2.05446181988006544e-05 -4.00969004263155888e-07)
(0.693310986456741718 2.26147639186985223e-05 -4.24618919647792901e-07)
(0.600049721959419746 2.52855205084016281e-05 -5.2494455412986687e-07)
(0.50202720490720576 3.39491052866076824e-05 -7.78971543364321343e-07)
(0.405281758287080629 3.68682070973711735e-05 -8.20922941790701705e-07)
(0.320794341568082952 2.65353525927670045e-05 -5.02954289912063565e-07)
(0.249028698958140005 2.46260022681561636e-05 -4.02723579360690672e-07)
(0.181569638115232579 3.16872490906206173e-05 -4.59253139035803703e-07)
(0.118626808946453152 3.74062084625251628e-05 -5.10790749681249912e-07)
(4.64394827001279767e-05 1.62796855824390059e-05 -0.174247762964370667)
(4.87054014022001566e-05 2.35378027052978144e-06 -0.197933018483649414)
(4.52021982154680448e-05 1.80224956430742244e-06 -0.187076052168122092)
(4.50688384156778022e-05 2.80271431175091906e-06 -0.159690193504859412)
(3.99147736682428986e-05 3.84857729230796518e-06 -0.129152799099356119)
(3.21879641407357226e-05 4.73227801343902412e-06 -0.0952507489159843124)
(2.83157596364660948e-05 5.50524143594818805e-06 -0.0600480903961420134)
(1.71312423472249219e-05 4.84074521369906866e-06 -0.00974082499138731114)
(9.79490865202720803e-06 5.52736821897224932e-06 -0.00298195358172121013)
(7.98730370518668432e-06 6.35645664871579569e-06 -0.0020804191161081574)
(5.32650227514345397e-06 6.59084943554519734e-06 -0.00278048821295715778)
(2.22177352876833359e-06 3.34391305083161608e-06 -0.00296791082665764884)
(7.62226020170467742e-07 1.35484452549861566e-06 -0.00321280313129016035)
(1.34186268620409362e-06 2.80910514665253233e-06 -0.00259452719734246193)
(1.03406374389881827e-06 2.67943104420107004e-06 -0.00227024621074749938)
(1.36931664547740629e-07 4.06377792659482172e-07 -0.0029434296164886891)
(3.75880269843076106e-05 1.35965641801209136e-05 -0.0740728635250914591)
(3.7477220687060342e-05 -3.10724888036811008e-07 -0.0785653201960881953)
(2.46058528234388239e-05 -3.47935637731525733e-06 -0.0570526321293368874)
(7.9017003876250577e-06 -1.44373681809039153e-06 -0.0286748043067365649)
(5.39612450885077118e-06 -6.86638316220685003e-07 -0.00392606559639799985)
(3.099315343180047e-06 2.02139009054605237e-07 -0.00185592242748909347)
(9.16875512978730438e-07 -6.29905694163398907e-08 -0.0037068333627573659)
(-6.20131240312872934e-08 -2.9520276224241366e-08 -0.00362668146429746645)
(-5.31085883115626635e-08 -1.26215012344442675e-08 -0.00286439516574558571)
(-7.624591649636535e-08 -2.69547033304477063e-08 -0.00249142019293376342)
(-7.49393088134649248e-08 -2.67035953519378109e-08 -0.00238497865201664754)
(-7.23092201059207089e-08 -2.50406173316565804e-08 -0.00229233688120139903)
(-6.62205177430128174e-08 -2.43374293712457256e-08 -0.0022237349161450177)
(-6.58627423563757612e-08 -2.23108280307411568e-08 -0.00213488623551281185)
(-5.9461435932163969e-08 -1.74610094506338492e-08 -0.00203491089563975379)
(-5.78427140823281005e-08 -1.34029008603802448e-08 -0.00200800142578185696)
(2.96834473023297619e-05 6.28614690847107076e-06 0.0487023326265591527)
(2.27024493913118358e-05 -2.33304096615817461e-06 0.0217665590084687027)
(2.83024532188847657e-06 -1.50047643200326185e-06 0.00385125041436527957)
(-1.7312679295136664e-08 -3.30540371016524253e-08 -0.00153399993963566125)
(-5.60975410110252519e-08 3.87784891624347376e-09 -0.00140919309585813219)
(-5.65896120431141371e-08 4.69616732657126876e-09 -0.00135170888234123075)
(1.47201368397731105e-09 -4.87268424234571758e-10 -0.00138866646871462873)
(-5.23849089357695872e-09 -2.07610781159657205e-09 -0.00228478146540026655)
(-2.75074272281587765e-08 -9.95309731502178796e-10 -0.0024342547269724092)
(-5.25618539330407593e-08 -4.33961151157882431e-09 -0.00233296474402153436)
(-5.27232428593153347e-08 -7.59226019054082373e-09 -0.00219718124464168699)
(-4.91570422262338064e-08 -8.99173247276950488e-09 -0.00210544301887911596)
(-4.6387356995491113e-08 -9.13418673021898323e-09 -0.00204669421548639863)
(-4.29225768331495384e-08 -9.04777075377480554e-09 -0.00201270210144060191)
(-4.26848946799979779e-08 -1.08855191070462466e-08 -0.00192812430555355926)
(-3.69777657560148398e-08 -7.62467775702166603e-09 -0.00179638767722583724)
(2.20369413065508336e-05 3.53123021926884465e-06 0.0333214152101485306)
(6.96050605382231434e-06 -1.37118179190572027e-06 0.00959469394348386705)
(7.601220971274258e-08 -1.01519155751074163e-07 0.000260630546222647384)
(-1.704131718369163e-08 1.3840594053128025e-08 -0.00126227127637615734)
(-2.04485837852103809e-08 1.28780747466413632e-08 -0.00150345818134439702)
(-3.07748722518145455e-08 2.49636238063729934e-09 -0.00141496797659379329)
(-3.94476495911752909e-08 -1.99259505816564122e-09 -0.00134744712246788142)
(-4.97465338916898696e-08 5.111622667584003e-09 -0.00143123973898184203)
(-5.55302427332303114e-08 8.26279811034685596e-09 -0.00156216538779514161)
(-4.87454992878072712e-08 8.77426279157574192e-09 -0.0016876441948160399)
(-4.37275112800889662e-08 9.11378816524302547e-09 -0.00173807638558178012)
(-3.98164539132670718e-08 8.15184275603636178e-10 -0.00171775986838841339)
(-3.73741540887040667e-08 -3.49344100691385204e-09 -0.00165654914076886206)
(-3.65710132590235136e-08 -2.68964706093668593e-09 -0.00160318862216943139)
(-3.46334226022077737e-08 -3.1282195456307059e-09 -0.00156627152465619495)
(-3.32760506472410715e-08 -3.00465471199643644e-09 -0.00152927160962593265)
(0.0004355041560114798 4.18935680567342411e-09 -3.23029364581614191e-09)
(0.000430570317049285174 -6.95038312743936587e-09 8.28421149538946767e-10)
(0.000477543564367865732 2.35385291302388242e-09 -1.62580311625921092e-08)
(0.000525512387670108152 5.38579759786645409e-09 -1.7714009340417127e-08)
(0.00058344390707137689 6.24946638601416836e-09 -1.91638286711045848e-08)
(0.000639773881829203898 6.41223266565103258e-09 -1.96640831809139985e-08)
(0.000697111039994848729 5.85353665181875613e-09 -1.94412811644336379e-08)
(0.000753090001420987447 4.96821938465947299e-09 -1.92747738252569074e-08)
(0.000804148294921529011 4.2743103936231617e-09 -1.86947484083293337e-08)
(0.000850032713650381651 3.80089881940137114e-09 -1.82842000661367868e-08)
(0.000893001462570215568 3.67880545563804262e-09 -1.75914410569096127e-08)
(0.000935192835023306306 3.85607320069082908e-09 -1.6931106800607831e-08)
(0.000978503693894530952 4.33871810582527502e-09 -1.60983317967365007e-08)
(0.00102318873126352582 5.51763359714118358e-09 -1.49384033657960493e-08)
(0.00107529461957574148 7.05535121822830661e-09 -1.31747081756075258e-08)
(0.00113615210721473088 9.07150410717199259e-09 -1.10007609678964507e-08)
(0.000391902313476990096 -1.86673059167198303e-10 -1.27514632333172683e-08)
(0.000427196380855184108 1.54077122499125983e-09 -9.8023270802264219e-09)
(0.00046859055548185768 2.96468561974442141e-09 -8.38303285912759336e-09)
(0.000512158820224504607 3.08311728286681887e-09 -7.66378261184062413e-09)
(0.000557069117102805306 3.25900036407029437e-09 -7.99548517489475965e-09)
(0.000602326321579939035 3.41388003646219316e-09 -8.7579970787118407e-09)
(0.000647725507658354844 3.51877656396902899e-09 -9.52784752902316907e-09)
(0.000692695572877055914 3.68590350105518151e-09 -1.0071509302077512e-08)
(0.000736931064777061775 3.89303495016222674e-09 -1.02484887813831924e-08)
(0.000781062163307204359 4.18385914509244434e-09 -1.01173345895287649e-08)
(0.000825632722539746105 4.63492486775748641e-09 -9.76519566348022537e-09)
(0.000871109375077731363 5.37660602995240031e-09 -9.22995313732225908e-09)
(0.000919053358896029294 6.34926601373945747e-09 -8.51684539655950746e-09)
(0.000970768863045834885 7.98090173065344959e-09 -7.70940096090266499e-09)
(0.00103369874546545585 9.88149505192687166e-09 -6.75612892882770341e-09)
(0.00110976768794693575 1.21506366193239457e-08 -5.65486477349004168e-09)
(0.000378892384531119705 -1.65556468856755668e-09 -4.81326062186787542e-09)
(0.000416386538910641787 8.63173973715798536e-10 -5.65563391739939371e-09)
(0.000454969577927895699 1.64686619450575568e-09 -6.17844884807904916e-09)
(0.000494311188285146796 2.19553393230274602e-09 -6.85747523659802625e-09)
(0.000534596497714001878 2.72649409849953058e-09 -7.25111187305753712e-09)
(0.000575756333631203144 3.18160191982594644e-09 -7.45663726574761589e-09)
(0.000617744956059027234 3.53381861794181929e-09 -7.51638259641390285e-09)
(0.000660447459147664321 3.87984973338465374e-09 -7.42213243133115008e-09)
(0.000703714230751661626 4.29868703786257834e-09 -7.213222513779721e-09)
(0.000747626869960432076 4.83954066422851303e-09 -6.92799226127559844e-09)
(0.000792598978496491993 5.53210737992869553e-09 -6.53968396750251509e-09)
(0.000839200372566704174 6.53716588704846424e-09 -6.06396672910645242e-09)
(0.000889242055661844974 7.68932961154864514e-09 -5.51496044447191049e-09)
(0.000943694814491203779 9.7463056611238743e-09 -4.91571669598649965e-09)
(0.00101055636777074866 1.1606523101294514e-08 -4.21425237558599246e-09)
(0.00109134199826325484 1.40608801052324343e-08 -3.5583242252156169e-09)
(0.000365204541872266128 -1.0236346948493355e-09 -4.3842315946326268e-09)
(0.00040375802560872672 8.54646929752160883e-10 -4.49058632930229413e-09)
(0.000443070030064385929 1.63806316250336807e-09 -4.39982318136052507e-09)
(0.00048290799779951405 2.11718046146183194e-09 -4.36787060950507939e-09)
(0.000523170258281499588 2.55039204004023149e-09 -4.40628294676196088e-09)
(0.000563931946153568408 2.99422213914040181e-09 -4.44723424912838269e-09)
(0.000605256358230510882 3.46219018871290555e-09 -4.45373229504567906e-09)
(0.000647220368374747373 3.98197824530431507e-09 -4.40763226481753767e-09)
(0.000689948320684931099 4.58335334813513178e-09 -4.29693765644113583e-09)
(0.000733648263013135407 5.31060095809607381e-09 -4.11709229763329917e-09)
(0.000778756204740485873 6.17997056444237774e-09 -3.8668907102782335e-09)
(0.000825795434515923395 7.35509330200180965e-09 -3.55547629034881051e-09)
(0.000876600668775427672 8.59462173896732264e-09 -3.19695359079284339e-09)
(0.000931928514347309589 1.08354183575363988e-08 -2.80898617861344737e-09)
(0.000999816402659676811 1.26870751168227233e-08 -2.38354096636101473e-09)
(0.001081684458562903 1.51654310601210972e-08 -1.98328493367982053e-09)
(0.00035672333553138163 -9.3172665443900232e-10 -2.89622945986420229e-09)
(0.00039528146446264731 7.53064419581540315e-10 -3.12164085843702827e-09)
(0.000434419662874771582 1.42229888997693547e-09 -3.07456545730880024e-09)
(0.000473968374851389633 1.93561498414425216e-09 -3.09873674926694984e-09)
(0.000513966490529921619 2.43819211510518868e-09 -3.11720249728536851e-09)
(0.000554505389988082359 2.96792062950202108e-09 -3.10462799971647396e-09)
(0.000595636089742571638 3.5325243692500416e-09 -3.05885307957286224e-09)
(0.000637440457824372565 4.15222650648118174e-09 -2.98069207821316759e-09)
(0.000680061248148767844 4.85347632426087994e-09 -2.87050026480118942e-09)
(0.000723715460419371241 5.67783296645399482e-09 -2.72593748477424469e-09)
(0.000768852169031737599 6.63933771856550062e-09 -2.54957680948080133e-09)
(0.00081596880391005119 7.91166830965518972e-09 -2.33922929714725154e-09)
(0.000866883669383786831 9.21302402020591691e-09 -2.09928914326412955e-09)
(0.000922326320223943721 1.15345288762816571e-08 -1.84515345621824965e-09)
(0.000990471166427218507 1.33960585419125436e-08 -1.57016873039496333e-09)
(0.00107262781821099965 1.58885227062767252e-08 -1.31443237802300652e-09)
(0.000350525961312453491 -7.82111751877750387e-10 -1.97767150889025424e-09)
(0.000389193103247493263 7.44202884247377006e-10 -2.07379107407643678e-09)
(0.000428370723502449811 1.3722565590898889e-09 -2.01589018396153973e-09)
(0.000467955706600761939 1.90067049554621553e-09 -2.00121185548076363e-09)
(0.000507961623471669282 2.43319627091805588e-09 -1.98952437128722931e-09)
(0.00054846657915892346 2.99928577005949607e-09 -1.96583502560541139e-09)
(0.000589532396342785448 3.61104557959069078e-09 -1.92713325521522523e-09)
(0.000631253641077000752 4.28419819798976499e-09 -1.87076707917440878e-09)
(0.000673787706602691416 5.04184698620676224e-09 -1.79551538773118747e-09)
(0.000717363346594681174 5.92613588402676839e-09 -1.70032142822475164e-09)
(0.000762427140710479493 6.94340509932963029e-09 -1.58322007369345422e-09)
(0.000809463041958797722 8.26776807012438745e-09 -1.44770589906890637e-09)
(0.000860279415939323383 9.60974430357165264e-09 -1.29866992351913246e-09)
(0.000915600535765133242 1.19764432111482091e-08 -1.14254538556050665e-09)
(0.000983670132647297734 1.38505961872555503e-08 -9.73337494136315885e-10)
(0.00106564608856624739 1.63062678755063201e-08 -8.19485282868904516e-10)
(0.000346694300965990395 -7.04295248496405752e-10 -1.13717105645782782e-09)
(0.000385358859340374663 7.41738563654463743e-10 -1.18785542306069786e-09)
(0.000424526027143456964 1.35682296351182985e-09 -1.14873272373693828e-09)
(0.000464099681470161269 1.89497057604025934e-09 -1.13717151719056424e-09)
(0.000504087241336694187 2.44525040615431033e-09 -1.12668145548656444e-09)
(0.000544563396886839769 3.03612065988458938e-09 -1.10879496798709699e-09)
(0.000585590190713593771 3.67381363345861088e-09 -1.08252573438240018e-09)
(0.000627261763855589943 4.37646397111557228e-09 -1.04782733537486079e-09)
(0.000669732214898370831 5.16714157529859906e-09 -1.00296015289460861e-09)
(0.000713225594437688691 6.08392928669171434e-09 -9.46390187749715419e-10)
(0.000758183655881985931 7.1324880510455917e-09 -8.80350757557976653e-10)
(0.00080509620133690455 8.48518543134859086e-09 -8.05955109364251324e-10)
(0.000855766935371130152 9.85705812104289957e-09 -7.23736985717613649e-10)
(0.000910910404773532635 1.22456029310276607e-08 -6.37933925214109806e-10)
(0.000978828545990290686 1.41347874324421814e-08 -5.43314144011057928e-10)
(0.00106054468016586576 1.65719140293707749e-08 -4.56484958089770179e-10)
(0.000344824202447820962 -6.73971325625438921e-10 -3.72906881908251664e-10)
(0.000383497704628418985 7.39220348787790971e-10 -3.88223288234506236e-10)
(0.000422660152011706874 1.3518395562808521e-09 -3.74956602731024233e-10)
(0.000462226616897226542 1.89780036101406693e-09 -3.70367554141393607e-10)
(0.000502200482497219326 2.45574422229173638e-09 -3.65609604029090697e-10)
(0.000542658191923507042 3.05497770209775053e-09 -3.58824543994721186e-10)
(0.000583662328256972368 3.70501346881590518e-09 -3.49956625379186012e-10)
(0.000625302561007052334 4.4223776335615814e-09 -3.37946289443564207e-10)
(0.00066772796784475444 5.22779429725958074e-09 -3.22585080858276475e-10)
(0.000711162857390048708 6.1586831743326814e-09 -3.04001879977690302e-10)
(0.000756049999463036596 7.2222830133769946e-09 -2.8255352101417951e-10)
(0.000802883839141885864 8.58707637580632922e-09 -2.58521248684453389e-10)
(0.000853457355381223104 9.97385006540770122e-09 -2.32816853570451399e-10)
(0.000908495011729661562 1.2369973751523708e-08 -2.07206960027241026e-10)
(0.000976324086593337737 1.426898955073957e-08 -1.75639192902215949e-10)
(0.00105789841604181519 1.67036339271094476e-08 -1.4601217720945307e-10)
(1.78611782440983314e-07 0.00479848973511634667 -3.33748020302169897e-07)
(2.37345502680849801e-07 0.00445280019167871959 -3.43604171257505609e-07)
(1.39973418807036409e-07 0.00414543257350866775 -1.9630414835446647e-07)
(3.37625918307996058e-07 0.00365873760095693787 -3.21751066421306335e-07)
(3.16025357899399327e-07 0.00358284178735426102 -1.76642860298258906e-07)
(2.26864373795729183e-07 0.0039281380537991668 -1.54434128688461398e-07)
(7.45929263736404684e-08 0.00341378315498109012 -6.29050384574621912e-08)
(4.48871983197545833e-07 0.00119475659763721115 -1.90824940620461134e-08)
(-9.81166606684923402e-08 0.00384096069509968271 8.36045711724488957e-09)
(-9.56223395339079547e-08 0.00371647817042910665 4.02912609319592218e-09)
(-9.36042661515927398e-08 0.00368124710881596699 5.69129589134498293e-09)
(-9.57508630481032137e-08 0.00370848642835542881 4.18466357463219477e-09)
(-9.62481729189784613e-08 0.00376220793552824 3.74430099155597435e-09)
(-9.47490209452968061e-08 0.00374964629175739876 1.08381553417090503e-09)
(-9.48985553489534557e-08 0.00372239415218878194 6.10366311575831526e-10)
(-9.51158449013423368e-08 0.00367543031198958904 6.98341998538398231e-11)
(-4.15709069422000423e-08 0.00328351701000727421 8.6093414828685312e-09)
(-3.84847580135272146e-08 0.00334605871041182036 2.36822457340534728e-09)
(-3.79874513980401804e-08 0.00335230982016332607 1.9098495844569403e-09)
(-3.80899674903725112e-08 0.00336286515287727772 1.58084578950436706e-09)
(-3.81428875593649609e-08 0.00337330554746472508 7.96698911212344602e-10)
(-3.82587988724879024e-08 0.00336052343650750226 1.47148561938473854e-10)
(-4.00490735803567241e-08 0.00333781816608330617 -8.85787962508772323e-11)
(-4.15773875078103569e-08 0.00331977976398492016 -1.76124262764145365e-10)
(-4.49880347681178553e-08 0.00296930449174589431 3.10200411841695786e-09)
(-4.54626576788695455e-08 0.00304016766655035992 1.92114565714987623e-09)
(-4.52473748783195136e-08 0.00306242164647118524 1.0613090501215869e-09)
(-4.57723005593940423e-08 0.0030733330486940459 9.26747110630745978e-10)
(-4.60568309185167961e-08 0.00307477625093623662 5.90640545980539575e-10)
(-4.58801602069085258e-08 0.00306776553525437172 4.74582109809986087e-10)
(-4.57971873955085217e-08 0.00305781869798667271 4.10894945458507991e-10)
(-4.59460490811933149e-08 0.00305100156991443229 1.1707470192747229e-10)
)
;
    }
}


// ************************************************************************* //
