/*--------------------------------*- C++ -*----------------------------------*\
| =========                 |                                                 |
| \\      /  F ield         | OpenFOAM: The Open Source CFD Toolbox           |
|  \\    /   O peration     | Version:  2206                                  |
|   \\  /    A nd           | Website:  www.openfoam.com                      |
|    \\/     M anipulation  |                                                 |
\*---------------------------------------------------------------------------*/
FoamFile
{
    version     2.0;
    format      ascii;
    arch        "LSB;label=32;scalar=64";
    class       volScalarField;
    location    "0.179999999999999993";
    object      p_rgh;
}
// * * * * * * * * * * * * * * * * * * * * * * * * * * * * * * * * * * * * * //

dimensions      [1 -1 -2 0 0 0 0];

internalField   nonuniform List<scalar> 
29184
(
3148.69661589318821
3146.48594462763731
3138.37601333164412
3126.04676963640895
3110.0366100902479
3089.16499703191175
3063.0896454779745
3031.890590878284
2995.81664774577666
2955.6511242662018
2915.89880519429744
2878.07559381027977
2854.55757251267323
2851.26373700716431
2900.44105184220325
2824.75703402805766
3147.97619240807762
3145.41274643732049
3137.39844077551425
3125.07191894265543
3108.81992492557174
3087.78032044178462
3061.45508812590788
3029.8131265178863
2993.00143906692028
2951.86579428792584
2910.12322766872057
2870.49771239641905
2843.62845251492809
2838.07359297485073
2883.85493673135761
2837.04692650551306
3146.35790697370066
3143.27430743142213
3135.30279369201526
3122.94988680239931
3106.40453963235541
3084.99959005576011
3058.11598377276778
3025.5810460660955
2987.38714357444724
2944.22538228287249
2899.2557544914248
2855.69856274645235
2823.81119919549883
2814.37029910470528
2854.19158998029616
2799.10699139803182
3143.76997652977934
3140.25349123196111
3132.24258919955037
3119.78794170942501
3102.86139592914014
3080.89136618630664
3053.16945316796273
3019.34084232810801
2979.14533886804702
2933.00737024081172
2883.39875028357301
2833.91420559185508
2794.09258132911145
2776.11803459320845
2812.82951338346265
2724.61675635033998
3140.27308019127304
3136.43357974797937
3128.28025399418311
3115.62208694578794
3098.22317583403083
3075.51935470905937
3046.7011226684358
3011.19568061323071
2968.40861310801074
2918.3475132077524
2862.67529365401424
2805.19688260530347
2753.21657926744092
2720.33453006257605
2736.34604771807062
2614.26415873470387
3135.94241367614268
3131.84318288539589
3123.4802395752231
3110.52775051492472
3092.56636017185792
3068.98017563452231
3038.83483965576761
3001.30383303795361
2955.3805001991509
2900.49983429357098
2837.38747138650342
2769.52158478392721
2700.45376811820643
2648.20818393134505
2618.99629142481717
2464.38570267827117
3130.85681408871051
3126.53746786194961
3117.91864865134266
3104.59178989247175
3085.98218821835462
3061.38589234530946
3029.71755885075027
2989.85462079043191
2940.31402754801866
2879.76930256066998
2807.8670620931639
2727.16370841598746
2631.06330198046089
2559.9568660658997
2450.27761582099311
2285.1446671841054
3125.10047669017831
3120.58548905554517
3111.67551587833532
3097.90969936763076
3078.57648360049279
3052.86449437780811
3019.51655315040443
2977.06603755722517
2923.50436777137611
2856.53604750841305
2774.50897645531541
2679.25975725379476
2552.98182536496006
2430.02738561460455
2268.40059017297472
2079.05783708440731
3118.76012750699465
3114.06755300401483
3104.83450861483425
3090.58007813232871
3070.45952034071161
3043.55050969923104
3008.40722940481464
2963.17076757252835
2905.27750771334559
2831.22594984886928
2737.86444793639885
2624.32976168363257
2470.1115023802713
2264.96576777264136
2115.20350791871715
1898.28006054326283
3111.91021085632701
3107.06337497503546
3097.4768840138172
3082.69892763501593
3061.73537191432342
3033.57441217114001
2996.55625179411209
2948.37769541691205
2885.94489361644082
2804.2454114219513
2698.65827970138798
2563.46654089323829
2368.66143076151729
2041.27752916427949
1881.84213770723295
1751.11748039738904
3104.59915577886932
3099.62766475496073
3089.65767418054884
3074.33482037381464
3052.47116155548383
3023.02703072394434
2984.07110412237989
2932.821254696491
2865.66796945873557
2775.96502008643711
2657.57454888944176
2496.73967158282949
2216.26001125288394
1782.98055267566815
1287.40522941864833
1439.22325473646083
3096.87789732509964
3091.77831947391678
3081.35907512132098
3065.4746188652166
3042.64615469950877
3011.90017854041753
2970.94346734879264
2916.52754670966715
2844.55622936956615
2746.4814451556108
2615.72748049449456
2424.71383055678007
2102.86244447085483
1322.99905365043196
959.608623772657324
1345.45606362571357
3088.82718681881715
3083.53984954627458
3072.47906441558507
3056.00469312391397
3032.13440750227664
3000.08317978162586
2957.06427885486073
2899.44621045159511
2822.58666382048386
2716.24125714899174
2573.71693667420686
2348.33546921777861
1781.6356831342157
952.282408477634817
740.487314877163612
1209.04079858441514
3080.29290034313544
3074.83560779939035
3062.76681775546922
3045.66203889599183
3020.60616699918228
2987.31609777915719
2942.06879838872283
2881.06026200941687
2798.81188519762327
2685.12001025818154
2531.73328988599815
2271.11186207256696
1209.1245170096895
577.983224879734848
551.599464563188576
1058.86809886788069
3070.08111465888305
3064.76970202817847
3051.35328427881632
3033.57275286825688
3007.027605626492
2972.64603825564973
2924.50575717082347
2859.27865843606014
2770.35781103982163
2650.06217932889376
2484.81239654952469
2191.54793914116317
828.393186724823408
383.963429767505886
385.574443195022411
957.799770893502568
3055.71747100847324
3050.94306771201946
3036.32391548830265
3017.62213035042487
2989.30345093498181
2953.6390506292787
2901.38309501877575
2830.48700896839955
2733.97942967686731
2606.74351769665009
2421.76484127307322
2107.12146812004539
565.333044795337401
208.187921446507488
207.278866215931885
889.699118933172144
3152.58303007140876
3150.70718865792333
3143.37656232456447
3132.33431816603706
3118.2612742332617
3100.26435068741557
3078.40720775857699
3053.39864357999113
3026.44394168056215
2999.99555814403357
2980.71566735056467
2975.13660311426156
2999.92386694435845
3079.23802546335173
3222.16588632680759
3385.84868348907639
3151.85034709308138
3149.62577844913631
3142.38227127778373
3131.33133311506981
3117.00707595897529
3098.82131712813361
3076.68127750276972
3051.17925083230239
3023.42255795125311
2995.85450071907599
2974.50676608884942
2966.69573653409907
2988.22042664912942
3063.21437074452479
3212.39673165409613
3375.16793002839586
3150.20957155209589
3147.46917343792529
3140.25689349025015
3129.16109231788005
3114.52069495085607
3095.93236766694781
3073.17715609848074
3046.69918586771337
3017.44038422059248
2987.66265296079609
2962.87004068747865
2950.74321545894145
2966.43022807065472
3036.31793020246278
3180.85182944022836
3311.58845990133659
3147.59114567773759
3144.41858450349127
3137.15167884499715
3125.92870151238685
3110.8718605209001
3091.66510591577162
3067.9898685273356
3040.09737301538416
3008.66413097527084
2975.65576698511177
2945.87781731561472
2927.32868881381364
2934.47467117472524
2993.68617405308396
3125.02377477196114
3196.33781729384509
3144.05621104865622
3140.55700131565027
3133.12856360447176
3121.67072251185118
3106.0947212616129
3086.08501707000596
3061.20683580904642
3031.48064930268356
2997.23061665985597
2959.96918484569733
2923.6528995394433
2896.42308486253069
2890.91037601641119
2929.68639652650199
3045.83406674653679
3038.66640366330876
3139.68020615341129
3135.91374521444186
3128.25188449082862
3116.46287565411285
3100.2666296271118
3079.29042464253962
3052.95367331358466
3021.01119869615786
2983.34641851684091
2940.85732634746137
2896.48197296684748
2858.04225106463218
2832.75093603820233
2841.18982428894287
2918.22088900227254
2836.01496350018442
3134.54303174786719
3130.54443270471074
3122.59796169111178
3110.39289396029153
3093.48032995578296
3071.39603690812737
3043.38041913438155
3008.88446134510195
2967.27074199961135
2918.64020767289776
2864.68671045482233
2812.53163824969215
2758.05314073109366
2747.95096356424801
2723.2255150646256
2611.50955968023254
3128.73129571655591
3124.51849310347916
3116.24797605294998
3103.55778615775807
3085.84380378617197
3062.53306006457251
3032.65838591176589
2995.32541357595437
2949.31746908131345
2893.72443249378966
2828.65203498140272
2760.45209576696061
2676.58084349763658
2641.65891869686993
2439.57641460226978
2373.81875025158388
3122.3361445925816
3117.91603401933344
3109.28848028643642
3096.05781376716823
3077.47050250312759
3052.83896679712689
3020.96634509279829
2980.57569029859906
2929.848018372767
2866.55715555241704
2788.89878580073218
2700.8775458261407
2584.53534709519909
2480.92410702488723
2296.03018591719047
2138.05941946850999
3115.43880051808947
3110.81516280008464
3101.80774734617034
3087.99126272666308
3068.47112645175957
3042.44580518100884
3008.47362631487249
2964.8584820716037
2909.20993095121048
2837.55726425656349
2746.19265315105804
2635.04200836786868
2476.93010522340819
2285.22085080466059
2140.20076697509694
1933.23411208606035
3108.09716385831916
3103.26872208341319
3093.87497321341334
3079.43152505494118
3058.92522886851884
3031.44491793447787
2995.29065586156366
2948.33639513941171
2887.57619107627397
2807.06607397328662
2701.46682133269724
2563.01804331378116
2342.94854298323662
1946.07980879702222
1773.30985512139227
1716.60239145104401
3100.3754032770612
3095.29559815878383
3085.49143960197534
3070.36868270047535
3048.82263916269403
3019.82434090495735
2981.40883308839057
2931.03593796541554
2865.15364629074656
2775.12704440723655
2655.67929221479335
2485.11667255155817
2166.43966838672623
1586.40235782950867
1102.59849247121792
1462.6728937382818
3092.37801651197697
3086.92075784856343
3076.58105658862769
3060.67824310525202
3038.04176441989557
3007.4397008932192
2966.69572171915479
2912.91459411003189
2841.87262841919755
2742.75119184170808
2609.32756522415502
2404.17656881496168
1862.62035250392728
1046.14672190044803
862.075200536286275
1356.12461579674209
3083.99421976239637
3078.06832682062486
3066.97109509762367
3050.07724942093955
3026.30048194064466
2993.91362936322002
2950.76678799157571
2893.46869985817784
2817.03008951494485
2709.18935003072284
2564.84213685714394
2321.47393785567783
1359.44124797718723
741.732661241307028
667.197645959363513
985.013885743425362
3074.07751349033788
3067.90223203491632
3055.93679549297667
3037.70496546157801
3012.68940247620867
2978.11335875093255
2932.26826078473141
2870.63464269287124
2787.82159612435044
2671.57867278787944
2514.88084620263817
2239.87286792072837
1052.55214185525051
463.974935600536753
462.737794604555688
710.874737951489806
3060.0625861479698
3054.24966955314358
3041.48080093862563
3021.58510667086557
2994.99600348571039
2957.72405136319503
2908.26780751532897
2840.69481726084314
2750.54249974340519
2625.66087899093009
2449.94777514687212
2148.0208148560755
602.119311662821133
255.176100953094107
268.556993171726788
614.504739823725231
3156.26238700590466
3154.70971216225234
3148.11418704242897
3138.28254238375303
3126.02791738684391
3110.7208920560488
3092.78348761698271
3073.47626901653121
3054.75239158450859
3040.4248443091401
3038.39524923634053
3057.98852285006251
3117.81617982042962
3245.89903983513477
3447.38241172241942
3682.71288857003901
3155.51794243331096
3153.62137638089553
3147.10506107319588
3137.25396581407676
3124.7395287134791
3109.22451938722998
3090.97643197056868
3071.12971713465049
3051.55890927247128
3035.98316592410265
3031.84944626369543
3049.0440142354887
3105.62240543214011
3228.45503903611097
3434.6742355981637
3667.85080471104447
3153.85632602451278
3151.44888146854828
3144.9538604796935
3135.04039819940817
3122.18840833423701
3106.2368784447126
3087.32444581399795
3066.42863901808187
3045.26043470456761
3027.309709855253
3019.58086447683991
3032.34005574546245
3082.13694541095174
3196.9555359695637
3396.94377465208709
3636.74904095512056
3151.2097633208391
3148.37162199963132
3141.80999832773887
3131.74467560611674
3118.44287135047716
3101.82447050934161
3081.92109641597654
3059.50592753587352
3036.01935585687806
3014.60929175706633
3001.67026126164501
3007.65259249815745
3048.70861509976521
3148.52116361747039
3336.03308477726978
3570.57294222328301
3147.63921313610444
3144.47201201521921
3137.73549991049504
3127.40356702965983
3113.53820287335884
3096.05434656413354
3074.85632068829
3050.47374029395496
3023.97491668690691
2998.02294475324334
2978.21936675655661
2974.99890334625434
3002.3685892138933
3083.59249535605477
3246.25456538984326
3396.56448776367142
3143.21909188089103
3139.77967241395254
3132.79528881010174
3122.09236822615185
3107.55219298227257
3089.02621274583089
3066.25932481606287
3039.49805575128767
3009.33729546826089
2977.80318320970355
2949.48622507991331
2934.33436688614211
2941.53079155884689
2990.05584354321991
3106.25514394089987
3121.10804725636535
3138.02784768409037
3134.35031731664503
3127.06656097235782
3115.89835169943308
3100.57825484340628
3080.85719091238389
3056.28533551639657
3026.7798274504662
2992.36756301525566
2954.27384694167267
2915.7778481887608
2885.81516893298431
2863.80658159729637
2897.08275805452922
2903.13032585807741
2879.1685060736354
3132.15009816247994
3128.25385086237611
3120.63161060999391
3108.91788499375389
3092.7251100168869
3071.68208472223705
3045.11259631364237
3012.55067947185671
2973.38998579015424
2927.84159785464135
2877.50436635744518
2830.26820224939274
2778.14617156331497
2769.15194021448906
2728.93827387820238
2640.5647309194369
3125.67426646579997
3121.57167296386797
3113.57749259753655
3101.25038910899548
3084.10671286195839
3061.64408858146862
3032.92893954513283
2997.05837301850806
2952.77025737975737
2898.96712255962029
2835.24974270688381
2766.55221552100829
2677.15294544223707
2593.7949865031951
2561.74329692976153
2385.43676624965155
3118.67649912111847
3114.38425992431803
3105.99249322882815
3092.99502057939435
3074.83440991756333
3050.88373252388965
3019.91144711329207
2980.53817765052054
2930.85385533369526
2868.09919221271002
2789.82090082553987
2698.15962338292593
2565.46212548849053
2387.82501571907414
2324.64344486651089
2206.48279584708598
3111.20673553686356
3106.74937261973855
3097.94732230351292
3084.23194477284733
3064.9911294775261
3039.50249867595585
3006.17748536887711
2963.15346489969897
2907.88469685484097
2835.56157148157945
2742.08637878546324
2621.39070360610413
2425.23112021990573
2054.06324171635333
1904.54219914393093
1989.47914093849431
3103.32870336880706
3098.69317121220229
3089.44316750253984
3074.9645697642768
3054.57394603155126
3027.50155499634411
2991.72884211547807
2944.94934413617602
2884.03716860973918
2801.7022535999572
2692.71645957815508
2538.31593660069166
2234.77787699510327
1733.68790121601228
1213.16207460320197
1721.3347145907801
3095.16360529064605
3090.24153698564805
3080.3898938428847
3065.0870839118752
3043.46106516427608
3014.76563470482188
2976.44077082891044
2925.89092591978533
2859.3269818622075
2767.24094988740035
2643.11485045959989
2450.98418359079915
1959.79365726141828
1177.71822102074725
957.558342054383616
1477.94637685316161
3086.60289380212089
3081.31554730718835
3070.60158775344871
3054.36003991272037
3031.33887536886505
3000.97720939058627
2959.87824392427092
2905.47454919933807
2833.13092489849851
2731.65979264756925
2594.63328153645716
2362.66194980679393
1425.16082165028206
866.547996574506215
752.410756997922704
1185.38325608362084
3076.50964027136297
3071.10718562992724
3059.42331173014782
3042.00589225615613
3017.26573074998942
2985.05607075561875
2940.55593977904437
2881.70840473275348
2802.65099500943415
2692.11338026914336
2540.65783209158644
2273.58678515339489
1175.08593297728112
518.525076316285549
531.073685622565677
810.233695164464848
3062.54692598155589
3057.43900898611491
3045.05851336746082
3026.05604056065931
2999.2295010919961
2964.50555870581275
2915.61846927586612
2851.08267373725812
2764.18546587382025
2644.04974609494911
2471.72514305738969
2175.08851977786117
605.654664787983165
290.014608164952733
311.893401915200911
731.111633019215219
3159.59653803635683
3158.33294837131461
3152.39797908292076
3143.65078785214109
3133.01700084525373
3120.09263716189571
3105.59975478118031
3091.22198426477598
3079.50660804220252
3075.10446608480152
3086.79084328007366
3124.78331211819659
3208.47548229116364
3365.35420001203147
3587.66831005583526
3828.94200821751383
3158.8423171929021
3157.23905215462173
3151.37585995463678
3142.59962212987739
3131.69848892419895
3118.54929356120647
3103.71983610385132
3088.76939913681326
3076.16161132649586
3070.44975276010655
3079.98011692958335
3115.6246915050574
3196.1546631459305
3346.99400071423543
3574.04009417737325
3812.65252466867696
3157.1631415614761
3155.0538216247819
3149.20259728544124
3140.34878254836258
3129.09070420947592
3115.47390917782968
3099.93524326218858
3083.8749637803412
3069.58733663730209
3061.39202287455464
3067.20159715579166
3098.35997348868341
3172.17997143441562
3314.79314416332727
3531.38631442482938
3759.39735151988771
3154.49345767486557
3151.95532540044451
3146.02569444609844
3136.99896342020202
3125.26054998270683
3110.93167763201518
3094.33666368905779
3076.66748720469832
3059.93874283756031
3048.12115946592212
3048.527906131495
3072.77262471407812
3136.38373182296255
3263.67957169651254
3464.75498901659785
3736.61250035098828
3150.89477940144479
3148.02615864307927
3141.90711134308458
3132.58765992975123
3120.2444773974521
3104.99042010473659
3087.01496487751319
3067.26108613981205
3047.35799480536252
3030.78650440895944
3024.06324458718973
3038.81756386750158
3088.53058659688031
3195.85991782054134
3378.84144597160684
3608.07530695590094
3146.44201920686237
3143.29732207500592
3136.91200212439662
3127.19071795290165
3114.1208295342667
3097.75026170522005
3078.0996914386601
3055.82249240975716
3032.06226344208653
3009.64223353160105
2994.0321845151343
2996.44263033334073
3025.61822896145532
3103.92836767751169
3239.39693708382583
3296.74588675967152
3141.21482928725027
3137.82583991929414
3131.11777110664343
3120.8962203553333
3106.98377041803633
3089.3289771132404
3067.7457936372316
3042.55624065786242
3014.32213063194604
2985.00398527419839
2958.74468515046874
2945.78793224535502
2947.9394264821467
3008.15317252184423
3059.2781859377169
3040.48750118024827
3135.29986583396339
3131.6829633024081
3124.60714345307542
3113.80143713889265
3098.94303966084181
3079.8618608096449
3056.13081710688357
3027.70196245876741
2994.47020141306166
2957.26884236960314
2918.64065791179928
2887.39002471175627
2859.49163918207978
2870.61246580389206
2910.90097728223645
2810.91714292837605
3128.78889841774389
3124.95067763498582
3117.46796998727132
3106.00657501719797
3090.11474560622537
3069.4918600285946
3043.44289244832908
3011.52059339889092
2972.87715187878575
2926.89952595512068
2874.31780732204015
2823.05652300594193
2749.50277722967303
2691.17429973674325
2755.32239398786123
2698.06253149698296
3121.76327207046506
3117.70782668915899
3109.78819446822718
3097.61008087166647
3080.61438453806522
3058.35604996848951
3029.86151084913763
2994.2683691332586
2949.90582431127086
2894.33966500561473
2826.54707057238647
2749.77229615507622
2623.1762353378308
2479.18764835098773
2421.64108956433756
2426.59687350987269
3114.2776566214261
3110.00930325314812
3101.63602046578808
3088.68785984892293
3070.52947821471253
3046.54776146683935
3015.51153993720663
2976.14320016114243
2925.81638924573281
2859.90244336122532
2776.01087981315231
2669.12487608140009
2445.8330673246619
2185.67721242528842
1880.01245054370111
2060.70512395145943
3106.39914662033243
3101.88031451109555
3093.01431104101312
3079.23490401243998
3059.85935118801717
3034.0651923291357
3000.41326958023183
2957.22383665545794
2900.78051263914313
2823.83751283094171
2723.29477284937002
2581.91441085639053
2340.32489802839245
1782.01789614715267
1322.95612149485373
1726.40806528209009
3098.25364131572269
3093.3312662315443
3083.83935642738652
3069.12674941387104
3048.49436808593919
3020.79998692925938
2984.47608497670853
2937.49526390163373
2874.75488552957222
2786.79903407758275
2669.67157171590088
2490.44505114126378
2104.77018948243267
1400.29390704385423
1048.5936988675528
1628.45708117972845
3089.7130738109613
3084.20343028582647
3073.90073002719691
3058.08054021691669
3036.17253533388521
3006.38179078272697
2967.31632703875948
2916.56215943574989
2847.07079665959463
2748.02446866787022
2616.90328063937977
2394.21891534861606
1518.08174457297582
992.314027173877889
847.825121837237134
1411.40266615163728
3079.6662368993143
3073.5861222385488
3062.45982159180357
3045.28095638961031
3021.98256810113617
2989.53991336507124
2947.56997863694642
2892.68792478360729
2814.87903534272073
2704.62072790670254
2558.56688805531712
2297.79009610400954
1219.12258077878937
562.53875321420287
627.764744557904123
1269.22806598493685
3065.78377703916294
3059.47630757946081
3047.63426641293108
3028.83643350053444
3003.6500397552868
2967.85122487122953
2922.57391590693851
2862.3826033160999
2774.04695179376449
2651.47964832849084
2485.85910043720651
2193.10295741252548
661.70180769204228
327.637357542171515
397.271905235102679
1097.30392493461113
3162.46184343739014
3161.43051651989072
3156.05411891975336
3148.22123452074948
3138.94833183960372
3128.01057015436663
3116.36331020004764
3105.99465544557461
3099.87827962059737
3103.14361963169631
3125.08329778474445
3176.53317251287444
3276.21288581834006
3450.88399963305164
3681.14776239905814
3926.08668790703496
3161.69963198150117
3160.33179274337863
3155.02262334130182
3147.15425153697061
3137.60739243817534
3126.43110916326759
3114.4273090412762
3103.46445106606006
3096.42850409947141
3098.35533254111897
3118.17928123844695
3167.19084127787482
3263.47625893169607
3431.48337563270934
3666.43573527459694
3911.40763081554087
3160.00521554845591
3158.1355122574555
3152.83287796818013
3144.87521926834052
3134.95495055624224
3123.28545579611819
3110.53653461170234
3098.41805947959074
3089.63530437495365
3089.00851054937584
3105.04060041960747
3149.31806974373694
3238.51896314608848
3398.40373916209228
3622.71224446738643
3859.77456487189193
3157.3141051619059
3155.01792394013501
3149.63133683831074
3141.48411326307451
3131.05788126647667
3118.6389851521003
3104.78165270581667
3090.98308913470237
3079.6547468477138
3075.2920062180724
3085.76011636350086
3122.92502048316146
3202.5065455870058
3345.23657206718735
3553.24411723306321
3809.72329403039885
3153.68649164118915
3151.06089950283604
3145.48073971714939
3137.01969158114343
3125.9541345141638
3112.56102166068194
3097.25625049103519
3081.27491436133278
3066.63459257142495
3057.346824473374
3060.47345680657509
3088.08936336133047
3152.96001738542509
3276.91090616243264
3468.74958715092134
3741.5450300169623
3149.19485814665131
3146.295771791878
3140.44764037148389
3131.55891607533158
3119.72317034900288
3105.15354069227624
3088.09239004346
3069.46311946428523
3050.78973023263097
3035.42214057087904
3029.43579921750143
3044.66907728500064
3090.73282058673067
3187.18631770242473
3343.49615213487868
3520.06687074260253
3143.91558389717466
3140.7802859428939
3134.61130011638488
3125.19124704935848
3112.46040246472239
3096.53668152254249
3077.44890269351254
3055.75535396604164
3032.38525894062741
3009.83404603880172
2992.95886739516754
2992.77153518042633
3011.19264778835077
3075.05411107908867
3161.92871694846963
3177.50219986205093
3137.93026801022461
3134.58778536765112
3128.05718753638484
3118.01604543768872
3104.27694068468145
3086.84903677579632
3065.50898963744112
3040.39179451083646
3011.74208692628645
2980.98101016285682
2951.46700310695769
2933.09613528694399
2913.90567020637036
2944.04936382523056
2963.08504288698396
2910.60732416228529
3131.32212085597712
3127.80579861772139
3120.87728232777908
3110.13772796855073
3095.29066319882259
3076.23917735182204
3052.46814332697613
3023.63018254877852
2989.21987543330715
2949.32226911077851
2905.55352637313945
2865.84514482317854
2804.89209180135822
2781.47565149479578
2826.0817636057418
2657.14442378838839
3124.16411066149976
3120.52508230300782
3113.1630386429606
3101.66064738776504
3085.61766195466271
3064.85359256078345
3038.51339144340773
3005.72259991075452
2965.16416333300413
2915.31402462383403
2855.9905668034894
2789.79657353914536
2694.09413981727494
2567.97842492006339
2564.80074202123797
2543.9486116604271
3116.51833069313898
3112.82029592470553
3104.98130027835805
3092.66547309848238
3075.34419166713178
3052.79852409522846
3023.77513851479489
2986.84610674150508
2939.85957866310309
2879.32635115888797
2803.42034217679111
2705.91061736415304
2535.03116739342067
2315.74505852923176
2150.33367513326584
2217.85598052994055
3108.47849517792019
3104.74512667523049
3096.33848018209619
3083.15894024496174
3064.4747115204168
3040.08313308916877
3008.26923329633109
2967.08764902519806
2913.39672636335945
2841.88353576666759
2748.34765763936139
2614.44815304683243
2359.81320462300437
1928.94343235552492
1418.89751699506473
1816.77946215578891
3100.17604933157054
3096.338134121454
3087.18001814090803
3073.06146761966875
3052.91074200560161
3026.60538299186055
2991.9010915322151
2946.41007383593796
2885.95205227640508
2802.99568855005055
2692.60739327658848
2517.04478232205929
2135.18014230961717
1480.32139923810132
1110.10011706941759
1531.0247800478478
3091.46343308679479
3087.47156377931606
3077.31875164259191
3062.16796780152663
3040.36266964258721
3012.03526954261952
2974.28268020854057
2924.40443758159563
2856.64997714626043
2763.2670019892339
2635.12720326129283
2417.02472104334038
1792.77791663896483
1082.52839397498451
898.294267291477922
1292.65110018710993
3081.36552675657867
3077.29721774549762
3065.96872669243521
3049.70073686062506
3025.86095943904957
2995.21406287452237
2953.97709327107441
2899.28034139479223
2822.75873800182353
2719.44373048354828
2574.0118115501823
2307.38930005309749
1381.16693891763407
659.727622906755641
663.920549009813499
1221.01417755105126
3068.29813831750789
3063.65919309696164
3051.32279093713669
3033.62006035950253
3007.30497005413645
2973.59801388584583
2928.16047132617132
2867.5985607100115
2780.60509196699968
2666.43179454030678
2497.54055017806468
2194.71260438157833
720.207663333571531
354.136848504768807
468.449349497655305
1343.62002496046375
3164.74960086106103
3163.88391768606607
3158.94171429451535
3151.81855873861196
3143.59665369229333
3134.18662822370015
3124.71006056620536
3117.37093299893513
3115.41921092147641
3124.27759220997677
3153.51968928120141
3214.16838022162256
3324.50618590514705
3508.80169895002382
3745.42808113450792
3986.56620976302383
3163.98343450198809
3162.78392773581345
3157.90356167129676
3150.7396877197898
3142.23945492313487
3132.5802529847665
3122.73222717723229
3114.78016457588228
3111.88887241737939
3119.38411906051351
3146.49897872482961
3204.63352003866748
3311.12701170519313
3488.34490480577324
3728.27573688079156
3974.30738681468074
3162.28305463728748
3160.5847313122631
3155.70288301900564
3148.43924921991038
3139.55247706893852
3129.37863258561583
3118.75557187319237
3109.60998955316199
3104.9238938110343
3109.80891745563258
3133.06681832761797
3186.2723657977449
3285.50878806445962
3453.50887081034034
3686.02181364969101
3925.79527222144907
3159.58587928276165
3157.46181519970651
3152.48471939282672
3145.01636219222155
3135.60269599269759
3124.64737110904616
3112.87077262863704
3101.987456889231
3094.68113637022498
3095.74119626821948
3113.32286739772508
3159.29956799340198
3248.67877866042863
3399.47451506479092
3612.73592239620848
3879.92982689253586
3155.95337843789912
3153.4975461751601
3148.31178363619165
3140.51057068902628
3130.42897748980204
3118.45602890118516
3105.17131861164034
3092.02847629713096
3081.31193862049895
3077.32725276922156
3087.43226708609654
3123.73227315115582
3198.39431431131652
3329.04908685211103
3521.81001482990132
3800.4686368926009
3151.45995457049594
3148.72423222009547
3143.25064073460862
3134.9993785292254
3124.11120030880829
3110.9063624982914
3095.78838864374438
3079.9027626876732
3065.0337356686814
3054.82321166198881
3055.66237342430213
3079.43548602065175
3133.68147829907321
3237.63490323323958
3387.41256998533072
3595.66735637255624
3146.18532972551475
3143.20007012562883
3137.38071431336766
3128.57318259804106
3116.74531551737573
3102.11806839002611
3084.87934296538788
3065.81880408780034
3046.11815217640014
3028.5475958817965
3018.32777131585544
3026.54822636364452
3052.31056694757672
3134.63677081004334
3196.06014183246634
3246.4964937054624
3140.21670246358235
3136.99809540224805
3130.78819914413225
3121.33279233118401
3108.44330626696228
3092.22883191767187
3072.6252571479763
3050.02004987390728
3024.89126220937442
2998.90541292026182
2975.84667522438576
2965.68870435491044
2956.91011094610667
3017.19260206519903
2973.2535678946092
2942.20946106831116
3133.64584893791789
3130.20400315755751
3123.56759719326828
3113.38467974269042
3099.32491575201175
3081.38574594029251
3059.21996738809366
3032.77263009076114
3001.72592665989623
2966.36031458881598
2928.77012281975203
2897.35730611274494
2848.29794716021252
2855.00416604986458
2833.60572849375922
2697.56497414089108
3126.55717288988717
3122.90297119045363
3115.81675685869141
3104.83487406265749
3089.50793528024769
3069.73250568856338
3044.85222355564338
3014.34570308670709
2976.99399543149048
2931.35633970923118
2877.78635515139149
2819.93523614067044
2734.81749657127511
2630.61769179670046
2663.60586275285368
2479.30573739871079
3119.02608086841246
3115.15905580537174
3107.61205976485644
3095.76437630816554
3079.07892416338063
3057.37240524691151
3029.66270634751527
2994.94826278848086
2950.99913427433921
2894.23825091507888
2823.48888957099552
2734.37547260176416
2580.09222635968672
2406.1346252127687
2258.97811864932328
2223.22202172094558
3111.15160551719464
3107.02025746529944
3098.97056381776565
3086.18308225330748
3068.05138679084666