/*--------------------------------*- C++ -*----------------------------------*\
| =========                 |                                                 |
| \\      /  F ield         | OpenFOAM: The Open Source CFD Toolbox           |
|  \\    /   O peration     | Version:  2206                                  |
|   \\  /    A nd           | Website:  www.openfoam.com                      |
|    \\/     M anipulation  |                                                 |
\*---------------------------------------------------------------------------*/
FoamFile
{
    version     2.0;
    format      ascii;
    arch        "LSB;label=32;scalar=64";
    class       volScalarField;
    location    "0.179999999999999993";
    object      rAU;
}
// * * * * * * * * * * * * * * * * * * * * * * * * * * * * * * * * * * * * * //

dimensions      [-1 3 1 0 0 0 0];

internalField   nonuniform List<scalar> 
29184
(
2.7759073468277797e-05
2.58868473687060756e-05
2.42386661522428653e-05
2.27376327209596094e-05
2.13545930021007278e-05
2.00427971861470394e-05
1.87800896623854974e-05
1.7557595727290582e-05
1.63949043837739034e-05
1.52451845270697672e-05
1.42000048980670335e-05
1.31864043151305212e-05
1.22923942794973535e-05
1.13888948248566834e-05
1.19083417892647713e-05
1.26587878200749778e-05
2.61594449829785464e-05
2.43044290898922422e-05
2.29179219724434532e-05
2.16099014067504938e-05
2.03533061016878031e-05
1.91224676298530067e-05
1.79291429539815149e-05
1.67750662864006047e-05
1.56819260834614504e-05
1.46131828162565981e-05
1.36400929641065444e-05
1.27419944521552009e-05
1.18890802573121715e-05
1.11109098836680152e-05
1.11654912726169989e-05
1.09075139088071472e-05
2.47071714896064127e-05
2.29430863026446474e-05
2.17327246932340733e-05
2.05312993659407796e-05
1.93452371951411583e-05
1.81807413981248678e-05
1.70502637930425493e-05
1.59530670351908422e-05
1.49217132975053204e-05
1.39113669108231838e-05
1.30098121486947296e-05
1.22089236418953577e-05
1.14366633423409718e-05
1.08404588934376616e-05
1.14133478758272257e-05
1.01291203676572739e-05
2.34003105994372996e-05
2.17677069518259642e-05
2.06801134193857762e-05
1.95701541861671711e-05
1.84514663726472541e-05
1.73468780059497844e-05
1.62715250729580683e-05
1.52253249476446053e-05
1.42447779852445347e-05
1.32800587517246393e-05
1.24414484704629703e-05
1.17029427537191401e-05
1.09835332663089825e-05
1.06188760956459375e-05
1.14767714004581385e-05
9.52187541561292375e-06
2.22287498611721228e-05
2.07369272652530449e-05
1.97415237064761918e-05
1.87092095861874859e-05
1.7652289320568513e-05
1.66017458339760974e-05
1.55747610431466779e-05
1.45732193562924457e-05
1.36333929490335259e-05
1.27047261717727285e-05
1.19211850714949773e-05
1.12173996739821249e-05
1.05423894300832617e-05
1.04149539348413504e-05
1.18788217067164368e-05
9.14542169838912553e-06
2.1178652200900687e-05
1.98223812436954716e-05
1.89025448550469845e-05
1.79367729634846234e-05
1.6935818298261057e-05
1.59341340394268055e-05
1.49498070193910113e-05
1.39868040253962693e-05
1.3079655278025832e-05
1.21801197209511672e-05
1.14405679468594392e-05
1.07478198973565817e-05
1.01294389619698148e-05
1.02185846185778482e-05
1.2440548821793944e-05
8.98794288295309955e-06
2.02361701945264822e-05
1.90053112144536338e-05
1.8150578546933096e-05
1.7242668420911711e-05
1.62921149688984719e-05
1.53347608149855657e-05
1.43882385307970347e-05
1.34584511657743844e-05
1.25773600505470856e-05
1.17003297204194277e-05
1.09915924470372417e-05
1.02905232740781781e-05
9.78114554909310946e-06
1.01025945409891208e-05
1.31455217347068448e-05
9.04879989150790065e-06
1.93886439266889424e-05
1.82721192945176073e-05
1.74751752079274828e-05
1.66183038581945762e-05
1.57129872248638842e-05
1.47961218732243796e-05
1.38834093781091883e-05
1.29823411842308433e-05
1.21222503129446342e-05
1.12623138332164502e-05
1.05704145801761096e-05
9.83992931827951268e-06
9.40068501568944417e-06
1.01089845569471789e-05
1.37023239642303915e-05
9.31469388015416315e-06
1.86252277652359408e-05
1.76126124405961993e-05
1.68679202016692033e-05
1.60563546437492633e-05
1.51915434381687268e-05
1.43121658344079288e-05
1.34300363643317815e-05
1.25542480348067273e-05
1.17121150876271951e-05
1.08643118332451249e-05
1.01753843995641204e-05
9.41582697917890464e-06
8.98980047254767362e-06
1.03038799449062463e-05
1.47723537503791721e-05
9.58637758568667154e-06
1.79372691103836536e-05
1.70190730008759681e-05
1.63221248445846356e-05
1.55504565294129961e-05
1.47219765026068588e-05
1.38780523232751664e-05
1.30239362392603692e-05
1.2171458591557975e-05
1.13465178964738186e-05
1.05062641801409088e-05
9.80904037274548972e-06
9.01613221285434064e-06
8.71617005042314046e-06
1.10482445978798515e-05
1.74659232591013726e-05
1.02287356067115684e-05
1.73183751113898792e-05
1.64855532913713395e-05
1.58323676445020408e-05
1.50949418419478262e-05
1.42995408135980821e-05
1.34900070821536159e-05
1.26619603084489237e-05
1.18330162379672087e-05
1.10271118032665735e-05
1.01901416383933059e-05
9.47813572024407246e-06
8.66740831551032465e-06
8.87845733527288153e-06
1.31309233527693523e-05
2.39225382881460167e-05
1.09710066493593185e-05
1.67638209251585653e-05
1.60073543909386101e-05
1.53941207521038374e-05
1.46849121750490758e-05
1.39207091802366409e-05
1.31453382822800891e-05
1.23422201410264879e-05
1.15402308416809921e-05
1.07575428135682627e-05
9.92090270134335213e-06
9.19477359405933568e-06
8.40433434834690385e-06
9.07206559605082374e-06
1.7731760967024169e-05
2.8972708818716473e-05
1.1228141599288208e-05
1.62700009089656569e-05
1.55806951534779259e-05
1.50038213273253905e-05
1.43166117785776295e-05
1.35834186193299779e-05
1.28425318139348342e-05
1.20645084381389182e-05
1.12968732646444123e-05
1.05433678628549784e-05
9.70792855418483855e-06
8.98511989940948033e-06
8.29541068955014487e-06
1.0239439065941192e-05
2.45891985034492004e-05
3.5802647444841101e-05
1.18928726859905144e-05
1.58342884645365401e-05
1.52021998476619121e-05
1.46599067494395811e-05
1.39875084265738896e-05
1.3287940786203901e-05
1.25812880863667266e-05
1.18313993138686521e-05
1.11091711811597282e-05
1.03926415542582637e-05
9.56548814769587529e-06
8.87152380942638958e-06
8.40793022944374263e-06
1.31087892460204405e-05
3.73233203107564427e-05
4.59126114150963782e-05
1.32825650804404657e-05
1.54542854979174398e-05
1.486856234495402e-05
1.43646840017433762e-05
1.36963467987602775e-05
1.30394266703841028e-05
1.23631642310510575e-05
1.16514541771723325e-05
1.0987395565573044e-05
1.03180236220536185e-05
9.51553168824511732e-06
8.88373492001557842e-06
8.8347025395730291e-06
1.74411715399696962e-05
5.38505489466172896e-05
6.31340277775869482e-05
1.52913718991747857e-05
1.51271267924385591e-05
1.4580607884112309e-05
1.41259177154550758e-05
1.34491423342678049e-05
1.28525512367389246e-05
1.21978976870176076e-05
1.1544998361961893e-05
1.09507135717579262e-05
1.03410167611308199e-05
9.58137711691368244e-06
9.03247433276604726e-06
9.57846899383440827e-06
2.48912678232736898e-05
9.29750835217595058e-05
9.71943526661372785e-05
1.7990570974596385e-05
2.77865194541236307e-05
2.5932636920243653e-05
2.43018478654077586e-05
2.28189718069394256e-05
2.14556203086097591e-05
2.01666519507030957e-05
1.89309121265853587e-05
1.77440113138615957e-05
1.6621592655302176e-05
1.55370417167556201e-05
1.4559939138477445e-05
1.36886962934642959e-05
1.29379849475269775e-05
1.23937878900501365e-05
1.31585001577953952e-05
1.63341888439258516e-05
2.6189336898096466e-05
2.43513280772443582e-05
2.29809905862872155e-05
2.16897957389492019e-05
2.0451877818619356e-05
1.92430979199116457e-05
1.80766080200252727e-05
1.69561942610793278e-05
1.59055992580448227e-05
1.48950856317488322e-05
1.39988178069553449e-05
1.3225915761175588e-05
1.25403264190667253e-05
1.21399914981265163e-05
1.19239374626157574e-05
1.31728624358346518e-05
2.47389130621217082e-05
2.29903561257965923e-05
2.17948804350686907e-05
2.06093150767393626e-05
1.94413446170955369e-05
1.82982556291856693e-05
1.71939365767521267e-05
1.61295155332457868e-05
1.5139725346117732e-05
1.41859664577455152e-05
1.33599562213940604e-05
1.26815472005207852e-05
1.21015030551972755e-05
1.19539204376097743e-05
1.20084878698931804e-05
1.19391915043332368e-05
2.34334830613554943e-05
2.18147088304208167e-05
2.07409457192006861e-05
1.96458880887070821e-05
1.8544572059998229e-05
1.74604893896738447e-05
1.64103480160101347e-05
1.53954828862891019e-05
1.44552438185118921e-05
1.35440649154116804e-05
1.2778929334151494e-05
1.21563327647486973e-05
1.16008812175835965e-05
1.16928415646663944e-05
1.20051078668654178e-05
1.11988023903486326e-05
2.22630398510411852e-05
2.07832518053965759e-05
1.98008124147765214e-05
1.87823861460645874e-05
1.77420503366759257e-05
1.67108955767680433e-05
1.57078680629702876e-05
1.47359329770067698e-05
1.38346915988555618e-05
1.2955128801653566e-05
1.22430714478351728e-05
1.16465135886490347e-05
1.1110643382780939e-05
1.13485666570527038e-05
1.20237830686528015e-05
1.06056421165004631e-05
2.12138878452380249e-05
1.98677581209407312e-05
1.89602417745121655e-05
1.80072231530495893e-05
1.70220808909631688e-05
1.60384186351845672e-05
1.50765317302116186e-05
1.41412944446677078e-05
1.32700758340870958e-05
1.24145224835375295e-05
1.17458027647255808e-05
1.11480984430786102e-05
1.06738857472271942e-05
1.12550428554387579e-05
1.25065811551812297e-05
1.03062226617322943e-05
2.02723423678178644e-05
1.90495445589046189e-05
1.82067950127404152e-05
1.73103277184228728e-05
1.63749387913454221e-05
1.54338782726543606e-05
1.45081410125111575e-05
1.36040391121678676e-05
1.27552243606865834e-05
1.1917532934158424e-05
1.12786770533625688e-05
1.06582230942085107e-05
1.03096406015904139e-05
1.11237942310219755e-05
1.35700604076280427e-05
1.02850207145333946e-05
1.94259201806032447e-05
1.8315041989358049e-05
1.75301812237571853e-05
1.66832239132954023e-05
1.57926470970686616e-05
1.48898028735074192e-05
1.39962134723419011e-05
1.31183163587319818e-05
1.22862575990836475e-05
1.14612784528947692e-05
1.08355167746157014e-05
1.01733179152021312e-05
9.83079895228694382e-06
1.10770867606510596e-05
1.52213306676608558e-05
1.05817603047171888e-05
1.86639257771929981e-05
1.76540734448334778e-05
1.6922118064853736e-05
1.61186955471542764e-05
1.52684610485889994e-05
1.44000748894959575e-05
1.35355476437182123e-05
1.26799906983432945e-05
1.18610819679381899e-05
1.10425029685234997e-05
1.04133932565871084e-05
9.72115266606336507e-06
9.40657019809278691e-06
1.1121938204753542e-05
1.55438447489379215e-05
1.10801567376485819e-05
1.79777866697028399e-05
1.70589979828378538e-05
1.63759061607946631e-05
1.56104254118077548e-05
1.47965490441211708e-05
1.39597148157371664e-05
1.3122066985050496e-05
1.22866218552011987e-05
1.14784257033960394e-05
1.06593887417455411e-05
1.00171034088364042e-05
9.2674413298010203e-06
9.05477971324131937e-06
1.12598412582430787e-05
1.625214174109793e-05
1.1758273875976307e-05
1.73610733990044599e-05
1.65241158029551663e-05
1.58857800347710937e-05
1.51526893510992915e-05
1.4371937484571425e-05
1.35648419616457798e-05
1.27528841557235098e-05
1.19372950112202674e-05
1.11384295858227968e-05
1.03149892543311752e-05
9.65890856023650568e-06
8.87274287314671941e-06
8.92507229415587776e-06
1.28809765367366015e-05
1.97518167442826499e-05
1.24575297162962646e-05
1.68089979386822879e-05
1.6045267061282373e-05
1.54464383082500133e-05
1.47404819984639122e-05
1.39908529804704288e-05
1.32127509539868114e-05
1.24265066057410078e-05
1.16329298233138506e-05
1.08436005485298705e-05
1.00173773724091877e-05
9.35234265222023994e-06
8.54944178923374352e-06
9.4263074020641452e-06
1.71142667944686e-05
2.72829488548011006e-05
1.31190063451902789e-05
1.63180735521667192e-05
1.56197812570716065e-05
1.50530183230377787e-05
1.43702605909085757e-05
1.3651160315163053e-05
1.29020133137331365e-05
1.21431537709035121e-05
1.13767264078420969e-05
1.06000717993907044e-05
9.77751853980793772e-06
9.1217414874635105e-06
8.39520526864222096e-06
1.06994598090121549e-05
2.61921335105645688e-05
3.24301660398358175e-05
1.42523538500726443e-05
1.58860279247161182e-05
1.52464683847835488e-05
1.47010384112134464e-05
1.40413560827746384e-05
1.33524135162651482e-05
1.26332663174884029e-05
1.1905427674782355e-05
1.11747557911671878e-05
1.04161935515101666e-05
9.61087380860608048e-06
8.98597463745260891e-06
8.45143911448194766e-06
1.27209646990004284e-05
3.80508046874880872e-05
4.09687166779319504e-05
1.68203521230420128e-05
1.55107633879178704e-05
1.49250210832347219e-05
1.43867675029721729e-05
1.37582092568168722e-05
1.30961326664280544e-05
1.24119291010374525e-05
1.17200441184499462e-05
1.10378256475661458e-05
1.0304210092980185e-05
9.53886699287868484e-06
8.98047283075804594e-06
8.79946956348509832e-06
1.59056338764699841e-05
5.68151018991959944e-05
5.37332959571367296e-05
1.866665284479095e-05
1.51903208422932937e-05
1.46560164114656414e-05
1.41136504998532393e-05
1.3533605933846422e-05
1.28913546030525716e-05
1.22535748109578661e-05
1.16032997785872286e-05
1.09864539568998717e-05
1.02847663461516713e-05
9.58609223083340967e-06
9.10985440929851211e-06
9.45415096751370405e-06
2.22199897738318151e-05
9.85592453549150716e-05
7.82024169419242855e-05
1.9197573617806096e-05
2.78285642425652195e-05
2.59907867827487576e-05
2.43767950591712685e-05
2.2912465605954901e-05
2.1569976425984866e-05
2.03056012670972712e-05
1.90997767547151929e-05
1.79507104800599562e-05
1.68755423735871843e-05
1.58555144745050441e-05
1.49631609336372227e-05
1.4226938322718018e-05
1.36204091784063879e-05
1.33497954449019855e-05
1.46047068902364835e-05
2.01084257925844333e-05
2.62319540550916494e-05
2.4408598128395087e-05
2.30539842382097233e-05
2.17801149985695945e-05
2.05620131271007017e-05
1.93769506864316355e-05
1.82396367570155635e-05
1.71552277786691029e-05
1.61533520520886695e-05
1.52000412484186129e-05
1.43961934188227764e-05
1.37548049573507149e-05
1.32407080539057582e-05
1.32011718055450064e-05
1.28779348765514666e-05
1.49029744157661865e-05
2.4781471687395047e-05
2.30465259175203715e-05
2.18653941899453827e-05
2.06961618153172217e-05
1.95473326600665339e-05
1.84270690553985369e-05
1.73511189888462186e-05
1.63208536218588026e-05
1.53791802580381811e-05
1.44789344841675911e-05
1.3747408991625383e-05
1.31953335192275806e-05
1.28036909203013006e-05
1.30487620512067252e-05
1.28750208824551207e-05
1.24311770679033441e-05
2.34757068556810682e-05
2.18693546853478714e-05
2.08085479913638185e-05
1.97289597456926564e-05
1.86460265370036032e-05
1.75837875650785629e-05
1.65607853357814766e-05
1.55781408837855326e-05
1.46840745707822633e-05
1.38242680887087034e-05
1.31496514506586295e-05
1.26472579249321033e-05
1.22688179758967706e-05
1.28283737091468239e-05
1.27016561800087013e-05
1.16636785339573249e-05
2.230467866900445e-05
2.08361680875767706e-05
1.98651418148654543e-05
1.88614954625731749e-05
1.78387467346918772e-05
1.68284044511068513e-05
1.58508013714936414e-05
1.49092493080716717e-05
1.40510872296810536e-05
1.32201868202499494e-05
1.25918648491873065e-05
1.21075126400863946e-05
1.17431736956784146e-05
1.24416471682692629e-05
1.23469027764757439e-05
1.15380754304346547e-05
2.12547478431517375e-05
1.9918905564546328e-05
1.90209472141383906e-05
1.80823042792849728e-05
1.71139653703354999e-05
1.6150012850582797e-05
1.52115290610198107e-05
1.43046388469452429e-05
1.34724562843261598e-05
1.26626173793643217e-05
1.20708913596423496e-05
1.15771676288734991e-05
1.12644983892959223e-05
1.23477834158131942e-05
1.26360660306883403e-05
1.14169178909109723e-05
2.03122799639345541e-05
1.90990406725672679e-05
1.8263469370278475e-05
1.73814656905496246e-05
1.64621552107122527e-05
1.553966193223572e-05
1.46350142929452738e-05
1.37565655674150053e-05
1.29428260708864902e-05
1.2147648657423692e-05
1.15792765552427571e-05
1.10551443680069205e-05
1.08399501497340064e-05
1.21169046657709815e-05
1.37617693945064806e-05
1.12631554831438334e-05
1.94648306960968658e-05
1.83631624584041615e-05
1.75822795487532581e-05
1.67507094239925028e-05
1.58756148640876398e-05
1.49901813051346532e-05
1.41148032323578314e-05
1.32592555792154955e-05
1.2458511638598579e-05
1.16717602526270051e-05
1.11115353756071968e-05
1.05346191030500667e-05
1.03072033748677157e-05
1.19186209229952883e-05
1.40997629612683162e-05
1.12143100710873716e-05
1.8701746188715312e-05
1.77012153277214047e-05
1.69688413852593578e-05
1.61831116545646841e-05
1.53480016217214909e-05
1.4495713866454806e-05
1.36455887559599554e-05
1.28085173713670125e-05
1.20175376767124559e-05
1.12330410893696767e-05
1.06656828164189871e-05
1.00251472263042034e-05
9.82957579919868075e-06
1.19368964043723956e-05
1.45178889334377864e-05
1.12410386401509083e-05
1.8014599817586998e-05
1.71054681213643782e-05
1.64160234207018573e-05
1.56727662313345646e-05
1.48740215212149556e-05
1.40514012987448648e-05
1.32231062558030609e-05
1.24020173057056161e-05
1.16193855806947244e-05
1.08308962526762443e-05
1.02435399929558594e-05
9.50499623000632366e-06
9.37642176486504541e-06
1.23738613129381505e-05
1.61441723795473428e-05
1.14788318238513147e-05
1.73973320685372858e-05
1.6569556824835857e-05
1.59174008445825905e-05
1.52144944055298815e-05
1.44493082549636317e-05
1.36533252314956497e-05
1.2844487795978929e-05
1.20394486339725073e-05
1.12651821344098013e-05
1.04683093131773751e-05
9.85515388830366863e-06
9.05286088824214191e-06
9.17650590589684766e-06
1.3776912753923355e-05
1.95713788440261634e-05
1.21643611522243024e-05
1.684576488810391e-05
1.60876295833819257e-05
1.54669014925006007e-05
1.48039320246829194e-05
1.40705939538801257e-05
1.32988852350776735e-05
1.25087770734748633e-05
1.17228465086989872e-05
1.09581226432532233e-05
1.01505331348366227e-05
9.51497803782918534e-06
8.68362009733880949e-06
9.64089641944986356e-06
1.77843953673834461e-05
2.6592627887528492e-05
1.31343376427216057e-05
1.63570631867318709e-05
1.56540647071581933e-05
1.50593232157179189e-05
1.4437954508307059e-05
1.3736181029902171e-05
1.29874312104038499e-05
1.22172668776750987e-05
1.14564655880926718e-05
1.07030299478394937e-05
9.8864394764328808e-06
9.24915949512132098e-06
8.49118703128488956e-06
1.07412193669526333e-05
2.71998935177055288e-05
3.07036199022261974e-05
1.42982909278276382e-05
1.59306525134070948e-05
1.52632896365376636e-05
1.46914371023667244e-05
1.4115003777772633e-05
1.34471024971578544e-05
1.27207708902941605e-05
1.19738729507856495e-05
1.12463505258593255e-05
1.05052184839231635e-05
9.68982947991808277e-06
9.08158867408945663e-06
8.5034853520227998e-06
1.26123919669700293e-05
3.90912955823413609e-05
3.79553420156462983e-05
1.61239041155007529e-05
1.5566627977841514e-05
1.49094629270101077e-05
1.43634447519265031e-05
1.38359241268169612e-05
1.32094011663070371e-05
1.25036726772180069e-05
1.17866589056264093e-05
1.11014914990356873e-05
1.03736917974951967e-05
9.58275111456086062e-06
9.04825808188681483e-06
8.81354812058139372e-06
1.53353099812875e-05
6.09791679990353579e-05
4.83189852935653988e-05
1.77134339597229551e-05
1.52626487534269498e-05
1.45910098164036694e-05
1.40836377141142041e-05
1.36087948663264463e-05
1.3037416552456498e-05
1.23483784794192946e-05
1.16719969200405873e-05
1.10389321186425288e-05
1.03276769147182595e-05
9.59182366543475828e-06
9.15809481345471795e-06
9.40195701171874129e-06
2.15724932618396372e-05
0.00010830229665419945
6.77244838879727723e-05
1.82428211514653051e-05
2.78835638909984708e-05
2.60587492876828507e-05
2.44605676562190271e-05
2.30141691988109206e-05
2.16924967099954323e-05
2.04529851572862844e-05
1.92777637519679857e-05
1.81662755265345832e-05
1.71386603655479101e-05
1.61794634507012425e-05
1.53663348156915308e-05
1.47455546585959287e-05
1.42783779233585177e-05
1.42485267127712002e-05
1.6248547050966217e-05
2.29756000976992881e-05
2.62856627914151893e-05
2.44737329016967843e-05
2.31341954068831581e-05
2.18771948263200048e-05
2.06788203016298359e-05
1.95177427451014761e-05
1.84099846976152489e-05
1.73618657258495239e-05
1.64077192593910473e-05
1.55105954369367415e-05
1.478941988359446e-05
1.42707165358288861e-05
1.38684884056108544e-05
1.40814737683963143e-05
1.38897934377238449e-05
1.67988002437127911e-05
2.48335779598225731e-05
2.31092547578220481e-05
2.19419800168834364e-05
2.078846475309385e-05
1.965855575075107e-05
1.85613694162099472e-05
1.75139488887660943e-05
1.65185206254969204e-05
1.56234316400089893e-05
1.47759811570280789e-05
1.41308331932921483e-05
1.36953750980936737e-05
1.33970353098121241e-05
1.39267108835076063e-05
1.35374146790482298e-05
1.34511801789595248e-05
2.35262720968997751e-05
2.19294693298101801e-05
2.08813901460607409e-05
1.98163676862325737e-05
1.87514904279213203e-05
1.77113272464272359e-05
1.67156774405205452e-05
1.57663078787377336e-05
1.49165038207431453e-05
1.41076265901387181e-05
1.35188998502994443e-05
1.31243707312485024e-05
1.28820928767198068e-05
1.36833697425764973e-05
1.32870438399791357e-05
1.10834926478202269e-05
2.23538217931273268e-05
2.08935343028167778e-05
1.99342207443486518e-05
1.89438972718613012e-05
1.79383387466867104e-05
1.69490166610514581e-05
1.59975401177257178e-05
1.50874135077437184e-05
1.42705647264825135e-05
1.34891312759718934e-05
1.29420261686632336e-05
1.2556163127726279e-05
1.23299247353726334e-05
1.33590542776530562e-05
1.2901697870251876e-05
1.10937457479593015e-05
2.13026564146268508e-05
1.99733793791791372e-05
1.90863244710700446e-05
1.8159562095664942e-05
1.72076063614517446e-05
1.62636373533860004e-05
1.53500982073784075e-05
1.44723361317237052e-05
1.3678712025597452e-05
1.29156294243560118e-05
1.23984909091915107e-05
1.19968820664435812e-05
1.18286894237303654e-05
1.32103294585871127e-05
1.30666944343624866e-05
1.141677901918029e-05
2.03592283283598536e-05
1.91503981733710052e-05
1.83252763349492855e-05
1.745336259054365e-05
1.6549792398917607e-05
1.56463737211172434e-05
1.4765510602571231e-05
1.3913759797851863e-05
1.31358401898348048e-05
1.23822399394419241e-05
1.18834533222645984e-05
1.1442568180292808e-05
1.13369002741330856e-05
1.29518669974909581e-05
1.36860883230466836e-05
1.12043864751631987e-05
1.95112074310805452e-05
1.84110415962617782e-05
1.76407182036066132e-05
1.68169059810025363e-05
1.59572503356314796e-05
1.5090169495970061e-05
1.42375692993268484e-05
1.34065547944338518e-05
1.26375306760454734e-05
1.18860044646084868e-05
1.13940457816353726e-05
1.08834290892671718e-05
1.07862502397981193e-05
1.26707307506035224e-05
1.3239449196634121e-05
1.0838643210681752e-05
1.87480575034917355e-05
1.77450765865608274e-05
1.70241987293753647e-05
1.62431586114016686e-05
1.54237105861051425e-05
1.45892612274978346e-05
1.37615438298245001e-05
1.29468025109734029e-05
1.21813234463401586e-05
1.14272676803666834e-05
1.09271554922292309e-05
1.03093496377021531e-05
1.02958773148232352e-05
1.28485394207395378e-05
1.31914478152504303e-05
1.05238200139620376e-05
1.80613688573557636e-05
1.71446723453346537e-05
1.64687372272153293e-05
1.57262176240319355e-05
1.49438683202444787e-05
1.41389727258052273e-05
1.33340381244875297e-05
1.25320067357615318e-05
1.17668699817327642e-05
1.10066511736613665e-05
1.04830387410175311e-05
9.75288693733366892e-06
9.86781777773024171e-06
1.35917455620032032e-05
1.57893740199270334e-05
1.11053010079296222e-05
1.74450176265028945e-05
1.66036785485502949e-05
1.59681588031416506e-05
1.52610773521515379e-05
1.45131078043578138e-05
1.3735805190786118e-05
1.29531579362275552e-05
1.21612501577713314e-05
1.1395279638406852e-05
1.06262886949580198e-05
1.0070783839253797e-05
9.27315041624252684e-06
9.8124629762711395e-06
1.54961574687084646e-05
1.99328226534229878e-05
1.18023716634240629e-05
1.6894609000003104e-05
1.6117023852380813e-05
1.55166880096853412e-05
1.48436622148929661e-05
1.4127651401672105e-05
1.33778524811656239e-05
1.26187016456356219e-05
1.18353399821515651e-05
1.10689071602285563e-05
1.02911464772527753e-05
9.70706237235872785e-06
8.89419384502090977e-06
9.73271019409098101e-06
1.96123327563974195e-05
2.48580145257984428e-05
1.21162341079258437e-05
1.64055309190269898e-05
1.56807579764695594e-05
1.51093794498728073e-05
1.44713068349140094e-05
1.37850782793512875e-05
1.30652951501798713e-05
1.2332168291634446e-05
1.15565738329578312e-05
1.07916967777622009e-05
1.00101398263424897e-05
9.41458159691865909e-06
8.64880954499018066e-06
1.03359960527587919e-05
2.59448739333180073e-05
2.85348677449304336e-05
1.22865349021965775e-05
1.59763310087180219e-05
1.52926378873588081e-05
1.47427198905780325e-05
1.41436213515780149e-05
1.34846952783532033e-05
1.28012191820134456e-05
1.20968054233012064e-05
1.13286087080650581e-05
1.05691280067239153e-05
9.79899243345456583e-06
9.2227709231987619e-06
8.60655857137459912e-06
1.23012116627671046e-05
3.77125870332841324e-05
3.38857709936146259e-05
1.33852865928733884e-05
1.56058412535362644e-05
1.49530654148521212e-05
1.44145997943173874e-05
1.38644936568106485e-05
1.32281332062830632e-05
1.25934575546084303e-05
1.19183649249907011e-05
1.11583690544872459e-05
1.04112132676473715e-05
9.68076098285558782e-06
9.16326169888860509e-06
8.86916395079751077e-06
1.53832947032857022e-05
6.35270969837735682e-05
4.2180514663128588e-05
1.47142900199379833e-05
1.52951957761876928e-05
1.46656655643795437e-05
1.41282852195705188e-05
1.364387277492766e-05
1.30253531907042847e-05
1.24576025099000272e-05
1.18090034317701082e-05
1.10628112218222015e-05
1.03389617238447889e-05
9.68501741305301916e-06
9.24626101940425753e-06
9.43415482807553105e-06
2.16482903016387731e-05
0.000122405602391956214
5.89221920449687093e-05
1.65573649607971224e-05
2.79488836030826231e-05
2.61337580580996251e-05
2.45496735719490967e-05
2.31197858418474564e-05
2.18178306556628021e-05
2.06021200677305758e-05
1.94559698058337932e-05
1.83800033973169874e-05
1.73946273862011266e-05
1.64895022335020205e-05
1.57370678527890124e-05
1.51912167206331817e-05
1.4857249894595375e-05
1.50249499201720635e-05
1.74890394475385667e-05
2.51751743896405713e-05
2.63476390628002543e-05
2.454410653090054e-05
2.32180147302322354e-05
2.19765214877966448e-05
2.07968558937085192e-05
1.96586169415011992e-05
1.85788423536422294e-05
1.75647123494361791e-05
1.66522374898640909e-05
1.58090013416204087e-05
1.51474645664233342e-05
1.47159704391257109e-05
1.444316709191521e-05
1.48075558756426477e-05
1.46332181002613943e-05
1.81665886033767341e-05
2.4892462852542038e-05
2.31761540700865428e-05
2.20210742375462604e-05
2.08819899087562695e-05
1.97698455703137392e-05
1.86945478719576817e-05
1.76737780678904259e-05
1.67111538014703453e-05
1.58566226104280358e-05
1.50613227541386164e-05
1.44765413814749588e-05
1.41376691923406201e-05
1.39709201908043003e-05
1.47570218804874472e-05
1.39900200601876638e-05
1.43131311383469586e-05
2.35826089806325288e-05
2.19932929819508011e-05
2.09557891382660975e-05
1.99040638172027374e-05
1.88559809274129916e-05
1.78366700844584102e-05
1.68661391038730507e-05
1.59482283081268532e-05
1.513719090483605e-05
1.4377327686312253e-05
1.38522989189523691e-05
1.35528912346960896e-05
1.33916068289862636e-05
1.44969373124949382e-05
1.36274208509764352e-05
1.14659949613799119e-05
2.24084797789134056e-05
2.09549126540314464e-05
2.00040274937094205e-05
1.90257907488118259e-05
1.80360350784650433e-05
1.70664221822125587e-05
1.61384785728795543e-05
1.52579596696683967e-05
1.44780636711833169e-05
1.37425402967940991e-05
1.32621688011459815e-05
1.29567001234036397e-05
1.28192019951867383e-05
1.41647104752760812e-05
1.34517739527874976e-05
1.08556118640715943e-05
2.13570154845372422e-05
2.00332221594032659e-05
1.91516473022014842e-05
1.82357012108005424e-05
1.72985238115265256e-05
1.63730770353963189e-05
1.54812717282304957e-05
1.46310484156787937e-05
1.38727656985317252e-05
1.31527908210022134e-05
1.27018346543730729e-05
1.23609517932363212e-05
1.22401939020289476e-05
1.38417121632625219e-05
1.31977424697768534e-05
1.13699516401489333e-05
2.04154577112451399e-05
1.92099525362281827e-05
1.83861720458370561e-05
1.75237757282074298e-05
1.66339220626039784e-05
1.57478475449933281e-05
1.48866101251636664e-05
1.40605694088789996e-05
1.33159026719441875e-05
1.26035475643968068e-05
1.21666532317542923e-05
1.1770699900402936e-05
1.17326481640555212e-05
1.36429615569007725e-05
1.33430268247244612e-05
1.16902038115569376e-05
1.95726335719966396e-05
1.84719360201048965e-05
1.76971162773746511e-05
1.68815127698012933e-05
1.60345271663452066e-05
1.51837265117679295e-05
1.43483422715000256e-05
1.35411983238286744e-05
1.28037142738053864e-05
1.2093246080626048e-05
1.16542743993750793e-05
1.11803930745916167e-05
1.12723433785818499e-05
1.34284277724051337e-05
1.34220735456626625e-05
1.13475157816002014e-05
1.88196218416570012e-05
1.78092727597547562e-05
1.70757850212807701e-05
1.63016285472309311e-05
1.54940900218942234e-05
1.46751559054239935e-05
1.3861593697156053e-05
1.30688077343461676e-05
1.23351885934020049e-05
1.16221619750455095e-05
1.11624353272210849e-05
1.05853528550091167e-05
1.06946141085556113e-05
1.33949719505903538e-05
1.38611750335912484e-05
1.11290909574358628e-05
1.81500840495947282e-05
1.72141869681331295e-05
1.65148478464869448e-05
1.57778650932636039e-05
1.50076706216453031e-05
1.42177306160382973e-05
1.34224374016181732e-05
1.26410437810526627e-05
1.19113167385972575e-05
1.11906274018793708e-05
1.06932113791849372e-05
1.00334364543582134e-05
1.01522365440621193e-05
1.38281115192278923e-05
1.51550632803909436e-05
1.11192558707886459e-05
1.75605729696823144e-05
1.66800465509185014e-05
1.60078512252764716e-05
1.5304960347750302e-05
1.4571580695409955e-05
1.38079280717437638e-05
1.30281284260576112e-05
1.22578345473713162e-05
1.15344677323918414e-05
1.08004417215006634e-05
1.02548087663491159e-05
9.51870427425949708e-06
9.92411639963255263e-06
1.52940632712818732e-05
1.8141747145380237e-05
1.16275469948519898e-05
1.70506433075675192e-05
1.62006233854642384e-05
1.55490280823171754e-05
1.48790114601471142e-05
1.41833936407035035e-05
1.3443181562178464e-05
1.26777626576881257e-05
1.19215681786235398e-05
1.12086965152558193e-05
1.04557910583728972e-05
9.86136949187597491e-06
9.11734475566602092e-06
1.01354358754651026e-05
1.96379661743406184e-05
2.43331955868616164e-05
1.19280813637655836e-05
1.66186857715587503e-05