/*--------------------------------*- C++ -*----------------------------------*\
| =========                 |                                                 |
| \\      /  F ield         | OpenFOAM: The Open Source CFD Toolbox           |
|  \\    /   O peration     | Version:  2206                                  |
|   \\  /    A nd           | Website:  www.openfoam.com                      |
|    \\/     M anipulation  |                                                 |
\*---------------------------------------------------------------------------*/
FoamFile
{
    version     2.0;
    format      ascii;
    arch        "LSB;label=32;scalar=64";
    class       volScalarField;
    location    "0.870000000000000551";
    object      alpha.water;
}
// * * * * * * * * * * * * * * * * * * * * * * * * * * * * * * * * * * * * * //

dimensions      [0 0 0 0 0 0 0];

internalField   nonuniform List<scalar> 
29184
(
0.999999980128802091
0.999999980262771593
0.999999976912559596
0.999999948134794869
0.999999946999228673
0.999999962056457026
0.999999980226329743
0.999999984502800476
0.99999999057360478
0.999999991924543474
0.999999991871889815
0.999999991701445712
0.999999990454822019
0.999999976718792816
0.999999855049791275
0.982655741851133802
0.999999980486319995
0.999999980238878927
0.999999975641913119
0.999999952672541048
0.99999994882782095
0.999999965776551925
0.999999977442272092
0.99999998273970625
0.999999988915758253
0.999999991876142191
0.999999991897244089
0.999999990766452851
0.99999997951207531
0.999999860748832514
0.999998136155341388
0.979807667202690413
0.999999980216713102
0.999999967586096328
0.999999955472874458
0.999999940456802294
0.99999993750232119
0.999999950458356324
0.999999961987389052
0.999999974829516969
0.999999984673778153
0.999999990567013164
0.999999987111926947
0.999999964398792796
0.999999799812180568
0.999998194839990084
0.999983736292681114
0.976809982288778578
0.999999943335182051
0.999999611085846118
0.99999951378740215
0.999999470935631574
0.999999488513231949
0.999999552359824073
0.999999642220752105
0.999999770620883188
0.999999907470593419
0.999999946504174897
0.999999889015216303
0.999999598151909863
0.999997945668449462
0.999984473548811481
0.999904317835075052
0.973850515454262711
0.999999204701870426
0.999995171424636564
0.999993327964298073
0.999992549962678279
0.999993506448861647
0.999994599064305323
0.999995960124310024
0.999997330127105788
0.999998682529355643
0.999999318514786073
0.99999880023191734
0.99999604176328627
0.999984880072817273
0.999910185324281997
0.999564355938084459
0.972094406570966907
0.999988223313389657
0.999960541044038198
0.999942919039047751
0.999937811992612779
0.999946115260455182
0.999956471927408108
0.999966053736917937
0.999977018271676066
0.999988172941837616
0.9999932060539658
0.999989774608004423
0.999971992732909598
0.999909587953180301
0.999576728734530517
0.998304345904201806
0.98421405843783738
0.999946423914693017
0.999865941973906547
0.999836287166365301
0.999772717531115962
0.999742776899062546
0.999781461615241618
0.999797688862369749
0.999845189219028541
0.999917644418665486
0.999947872865958765
0.999929027067795184
0.999837093150939271
0.999566225090196658
0.998308808089746869
0.994285831870030057
0.977532077128605126
0.99998610473781957
0.999961912524437224
0.999900852511149463
0.999830466961305175
0.999785124776354617
0.999391369465141954
0.999364871960575551
0.999580837974730851
0.999675025668650408
0.999688263743325534
0.999583784474115444
0.999193741451253725
0.998196330675238053
0.994119877796571849
0.98175115815693248
0.970432566318454426
0.833848445273546846
0.859061556869435083
0.899367538648566667
0.948767752396792563
0.985132251935755709
0.99774912400287219
0.999199362782453582
0.999022739038328722
0.998915096110589484
0.99862062413058017
0.997884476481320726
0.996464976081251286
0.993199961734095083
0.981309026853218747
0.912176038170377179
0.94697751143141673
0.206798037261782586
0.256947540292074561
0.328006185665202898
0.430356782478851341
0.552615762377115294
0.68821278851756551
0.820744028676416271
0.92289099843379363
0.978693917725097062
0.992822785172158273
0.990450681644978959
0.985915645958015396
0.961361118176323304
0.752675935383848249
0.444602138557376292
0.646800506849989021
0.0212349135501467695
0.0204070997924240827
0.0355529943729479686
0.0540414235184180636
0.141923709504853029
0.274865540305417877
0.427251837131742696
0.579880016274248011
0.705469192451927185
0.78259181413108192
0.805941926777395179
0.727068467533798835
0.482754771940038796
0.199057052543457874
0.0979414455811895984
0.200821009831358421
0.0188739210900596283
0.0156962887394150215
0.0169342015095293452
0.0251564683826053584
0.0313065952911811204
0.0558655602162018705
0.106048301174644088
0.152264660700249743
0.180772380047308168
0.188155333452434959
0.176114780904535001
0.11976744078948974
0.0683666962167501641
0.0386552852101128067
0.0341020407460600194
0.0522629381720478708
0.0154601770794481133
0.0135329751056116315
0.012436390582072944
0.0184781006631037151
0.0223117296179895439
0.0139760006289807934
0.0065721095011919816
0.003655842098219079
0.00237722118032185781
0.0021385434175843444
0.00235512663840736292
0.00290155580637008756
0.00691809066295676154
0.0118030014449857171
0.0115350713780757539
0.0176389360974183174
0.0329191725456475029
0.0120037180260941598
0.0121416358382261044
0.017478436177188604
0.0160162841047408744
0.0141479898950377138
0.0113994756770498702
0.00543399429550063713
0.00206548062569020469
0.00182988498919346883
0.00187805454753490293
0.0019294020930854072
0.00267550353994361898
0.0042742624851264694
0.0143711613795039807
0.0150613107586172676
0.0334824020001692618
0.0175993347565340311
0.0093650117441370119
0.0124551056315091811
0.00519029872886076892
0.00285428590035901805
0.00292952188521558143
0.00620266948930530207
0.00471323201676773686
0.00161299856318368527
0.00149588476481794797
0.00123740636832157976
0.00127003581478504464
0.00267807585336098065
0.0355900177700706616
0.0598862092164203497
0.0322972473751266115
0.0157318119915070276
0.00448510231059939118
0.00436390653761233559
0.00303947583026184694
0.00180655858857102481
0.00071518260790152206
0.00111349961183843191
0.00444890818828840798
0.00227980494894687406
0.00171576177982813447
0.000950484018425488595
0.000442403195008133189
0.000969126532008963526
0.0141401945489628995
0.053767280183163936
0.999999979871675992
0.999999980166760061
0.999999975759274129
0.999999955900716331
0.999999951253714991
0.999999969073395167
0.999999981292721496
0.999999987861890149
0.999999991977962521
0.99999999197796563
0.999999991924451992
0.999999991561409951
0.999999977321746392
0.999999948014008488
0.999999739049111991
0.980865815942305486
0.999999980319933313
0.999999980088724261
0.99999997438437882
0.99999995729125013
0.999999959295538199
0.999999971042386582
0.999999980395214094
0.999999986399391139
0.999999991968533619
0.999999991928211873
0.999999991751544082
0.999999991534706423
0.999999955708514854
0.999999746827835434
0.999997714666855497
0.978041334867262968
0.999999979808187223
0.999999965849401762
0.999999953504603356
0.999999943177760198
0.999999944212554004
0.99999995725460944
0.999999970680189421
0.999999980897769536
0.999999990309687448
0.999999989550072188
0.999999981727345499
0.999999951716038282
0.999999666548789579
0.999997005577664022
0.999976639733379802
0.974050683729151379
0.999999948277379813
0.999999639167483911
0.999999539172403029
0.999999486932326098
0.999999528875464394
0.999999623517431768
0.999999738563165153
0.999999864167803287
0.999999944329323487
0.999999944001267238
0.999999816100141992
0.999999316127044513
0.999996787727147396
0.999975760025305527
0.999855635544480759
0.971400710801336054
0.999999305044522835
0.999995644704560815
0.999994084659049265
0.999993409279978485
0.999994371032654872
0.999995605907248564
0.999996949612674602
0.999998356783147635
0.999999299182908308
0.999999367808256157
0.999998088424299159
0.999993927897905754
0.999975751223538545
0.999866498602493881
0.999154615384713507
0.97009511224277678
0.999988750991460007
0.999962900625107287
0.999950145016144987
0.999946940928161165
0.999954561343280091
0.999964039669494431
0.999973518802143246
0.999985443769828786
0.999993213669011394
0.999993610035643243
0.999984677158312296
0.99995869575335028
0.999865744372741672
0.99938412412019284
0.997605951110301481
0.983945132834277425
0.999942300070204904
0.999849510935443941
0.999837721239649424
0.999795509224061241
0.999772645811758176
0.999805411773737829
0.999833506123883997
0.999892183108293864
0.999944876503552904
0.999949321742982233
0.999899605610836462
0.999771266047040585
0.999377243158079187
0.997619875325178262
0.992262405828216121
0.979815668560360953
0.999972345685699926
0.999953810081355643
0.999897105392541397
0.99981907538529069
0.999779031679622787
0.999391582961720371
0.999588665951918531
0.999712495259341027
0.999722765791749124
0.999678296336078298
0.9994391564176206
0.998913726806410884
0.997518303341123902
0.992017241731089516
0.978061616418372859
0.975376076930015268
0.841738587289127871
0.862237386390032889
0.905435148588609962
0.953739070087588514
0.98644375520474803
0.995936341651953994
0.999215744259885685
0.998992925781808871
0.998770337665098928
0.998230164674934528
0.997264099885779798
0.995429504936920839
0.991032567137852927
0.975606648230764595
0.939581272062194106
0.957013086894779486
0.191288267326393646
0.242205852359103857
0.317810098327721446
0.43344608016737507
0.559862533565120168
0.69821643372234421
0.838283352061978793
0.938073438970810747
0.987982595578632106
0.991197211698378267
0.988106157861111889
0.98249021135506831
0.948437566374183305
0.729674635050802989
0.499045954505073053
0.762516901375627443
0.0190124423206170234
0.0289558127918420546
0.0329150006587113422
0.0630101511303400724
0.166767780405478849
0.305764613837130161
0.452205772066457845
0.596135387690598151
0.706685263851951184
0.767842954535557287
0.777998614886773465
0.691224602896433948
0.452623994935819174
0.190293381634272563
0.122618119485934041
0.262534520632258905
0.0159434903287234281
0.0142418573294221529
0.0224269743427207083
0.0198722114229225519
0.0192073764060353216
0.0441844608772248362
0.099352985271463426
0.132216027663254354
0.151301750899573428
0.151809472648481825
0.145881028859374623
0.118880550889739825
0.0680710682806432849
0.0432850837664218099
0.0395353551931240804
0.0717836832345015857
0.0136801622266895379
0.0119219964468653926
0.0149998992637886755
0.0160401653157760879
0.0212673227567616203
0.015752650387340493
0.00522111049125501686
0.00267472433108657511
0.00210938843098470215
0.00188993259463591211
0.00216726000501059595
0.00301620017215479142
0.00845482310957530736
0.0138756322023734988
0.017825776115172904
0.0287530812821974527
0.0263024534188353379
0.0104935742792899266
0.0094699219034663322
0.016208128328754793
0.0169732729181336708
0.0117139376676959651
0.0122252939967340477
0.0070310947744186723
0.00187312349125799867
0.00159568971595832774
0.00151274618207689927
0.0018832704387495851
0.0030288733053308696
0.00452212653289055591
0.00739552156652297042
0.0136858394790833927
0.0316109119241242825
0.00946704017648920294
0.00873682435159892773
0.0144198420943760612
0.00739650135587339649
0.00198946678744631308
0.00198398253445042101
0.00571402084878810945
0.00242314123301372308
0.001406873382666444
0.00111031898785527556
0.00109061522180471811
0.00166022231267802674
0.00305301654464474291
0.0273194560478661336
0.0460596358468828709
0.0297867556373936915
0.0126644485909464082
0.00750176509439426029
0.0106113344745830222
0.00310766088037912457
0.00104285555026218009
0.000602836237770492788
0.00134528735539999169
0.00442243079735018911
0.00139920443960191761
0.000792989922711136467
0.000769063851149931195
0.000577037337423829408
0.00121549151293924855
0.0183228142122960277
0.0557966074916857596
0.999999978577889914
0.999999979591290389
0.999999975969054322
0.999999962356540428
0.999999962385617946
0.999999973704595257
0.999999983868009812
0.999999991069240757
0.999999991979126257
0.999999991974547808
0.999999991875427874
0.99999999122299299
0.999999945534363999
0.999999908002866533
0.999999593508616114
0.982409133866301021
0.999999979947938211
0.999999979395064686
0.999999974819935744
0.999999962021476785
0.999999964209115078
0.9999999748601206
0.999999983590835417
0.999999989612451623
0.999999991974545588
0.999999991878160688
0.999999991341339656
0.999999989074183304
0.999999937272886052
0.999999603860705522
0.99999731065568731
0.981640305497480492
0.999999979228636815
0.999999966641055615
0.999999953403710506
0.999999944135582464
0.999999948622056989
0.999999963448783058
0.99999997706072663
0.999999986215422743
0.99999999112397342
0.999999987884681696
0.99999997366258131
0.999999915895193547
0.999999513967293918
0.999995741615851585
0.999975491566763575
0.975028675042296289
0.999999950285411332
0.999999697096939366
0.999999558802145083
0.999999518175294533
0.999999572904440526
0.999999681563285669
0.999999803793928166
0.999999915839894449
0.999999957360689695
0.999999917373151415
0.999999719045848723
0.999998968466120464
0.999995123963451804
0.999966441777137005
0.999848599610390965
0.971748359106877402
0.999999594896197719
0.999996547865741547
0.999994975791316021
0.999994206393187923
0.999995033084276397
0.999996239275050325
0.999997605389605582
0.999998874970909668
0.99999945109145405
0.99999909225851491
0.999997262528025677
0.999991272642881457
0.999966028699268872
0.999816202983370816
0.999235137328988055
0.968921166514086663
0.999990602028436149
0.999970544821139007
0.999958413240561006
0.999953299472693957
0.999958189112429063
0.999968018678297654
0.999976824384478213
0.999988854028274865
0.999994232988929532
0.999991721328148064
0.999979063789201206
0.999944380510707442
0.999814931631489268
0.999198735285169448
0.997422726716307384
0.967399490907590476
0.999969264102556377
0.999870750789031981
0.999873389699477588
0.999816642047164028
0.99978084067921047
0.999815891916143062
0.999851321101683843
0.999914030227899375
0.999952915603597781
0.999938310837489963
0.999868640710968259
0.999707674357756204
0.999178124163142334
0.996989565180898873
0.992278432873626715
0.981619211774404699
0.999973471462385355
0.999964946857438641
0.99992550087865173
0.999849716367000152
0.99975783821747688
0.999411774315085655
0.99971681051931971
0.999732092656567928
0.999725718023279031
0.999610306945643123
0.999296314082486536
0.998668086515050124
0.996818126706385921
0.990246946679644191
0.978625590250267852
0.975754064493840501
0.846222651401466797
0.86335535521624851
0.908000048873906507
0.957217049489058169
0.988020370769076006
0.995955224689389351
0.999243553230837356
0.998964204145663448
0.998634145189551958
0.997870447440004749
0.996701188542047367
0.994606289583667591
0.989126991453491033
0.971562348493963723
0.945584631394797537
0.964435634670024022
0.176011550198138966
0.228623787734387407
0.315422430631641659
0.439449439502430428
0.570960342435916202
0.717062470785466033
0.857744305225253245
0.954052856228023494
0.992281399401019892
0.989706895934528097
0.986190351883448613
0.980104368139475879
0.939169765009052027
0.714869414435700845
0.531212617469637993
0.842826806523511829
0.0197642522982745816
0.0332930390235120846
0.0305431332904947568
0.0709303855580093734
0.17757404781695485
0.316964964905818491
0.462703580995827868
0.604537747751778154
0.709356170932603725
0.754924680681509308
0.759295420894722572
0.678176285376151156
0.436582550982300588
0.183847366782645238
0.144437036064685387
0.325911882087350779
0.013929564573916451
0.0202338235358894628
0.0204411751649558084
0.0125021259121081731
0.0162909600285715932
0.0422418773433745343
0.091653641855638901
0.114762527216000249
0.123886740117393215
0.135239301881249191
0.139274331467764384
0.120831223206171415
0.0666723884013663143
0.0473007652830047323
0.044728225771034677
0.0812564219481372585
0.0127972870537640185
0.012431910094042483
0.0108015802132073874
0.0117488230352545374
0.0200593912781913235
0.0153212055270371163
0.00451906752190361048
0.00242971998401734449
0.00184971523511889011
0.00168684813659830722
0.00196057362668422075
0.0029727391329453989
0.0100540312316306155
0.0162383064467143678
0.022423930239928027
0.0311076808418613154
0.0124958255480551762
0.00898521410474425845
0.0083883882120919552
0.0114279909289415112
0.0172400556624195539
0.0124569271670521425
0.0116033620164916577
0.00546445291822518324
0.00191123079227587542
0.00129664759202071799
0.00131320484902565544
0.00179534593314603489
0.00297204686263633378
0.00480622605116987761
0.00844556150135344734
0.0148087306745778701
0.0280183367040707891
0.006934357955934254
0.00818259234231877818
0.0136485172970730612
0.00654104694283369481
0.00256061924913669834
0.00247010894912136174
0.0067558654132726121
0.00177276212246310562
0.00150802040351550432
0.00112713015708191394
0.000998981979641385721
0.00150114089976543597
0.00319247949708536876
0.021466772826167161
0.049581992661546892
0.0237601177061231815
0.00727348239659375735
0.00692278487788127155
0.0103427274394230877
0.001591434398114858
0.000619437370438039752
0.000856913133674137135
0.00126978054345918377
0.00348922543088195543
0.00212531398372212479
0.000725135841488456731
0.000622232315814920346
0.000452453173356312445
0.00145439510525536783
0.0183134144132990374
0.0608988488056229071
0.999999977969449061
0.999999978935890876
0.999999976093814302
0.999999963880250586
0.999999965489797971
0.999999977136110552
0.999999986349928038
0.99999999195465894
0.999999991974545588
0.99999999195466327
0.999999991752319017
0.999999987212545127
0.999999957609041701
0.999999911549908527
0.999999480673928964
0.980764477572301119
0.999999979267894856
0.999999978816255686
0.99999997486358172
0.99999996352959486
0.999999967005160473
0.999999977990005284
0.999999985925527413
0.999999991225509866
0.99999999195465894
0.999999991758795281
0.999999990596506239
0.999999981667007209
0.99999992349788025
0.999999515450393783
0.999996683900843619
0.980862802626282893
0.999999978800364842
0.999999966714611777
0.999999953533991626
0.999999947780721765
0.999999954175626149
0.999999968512417903
0.999999980335176453
0.999999989145921919
0.999999990628492208
0.999999985071359232
0.999999961034114815
0.999999854732939397
0.99999925875513429
0.999994543142180947
0.999974342105841907
0.986398408254954617
0.999999953726732782
0.999999704209112994
0.999999560674813326
0.999999545426504488
0.999999616055617713
0.999999723076384406
0.999999831901887459
0.999999931412620668
0.999999957494746683
0.999999878693186073
0.999999569272958855
0.999998447115236999
0.999993171173076956
0.999957573610579242
0.999846996192602311
0.981570742089204806
0.999999612296826323
0.999996684582280304
0.999995048156403277
0.999994469367002314
0.99999540673302989
0.999996534664239878
0.999997851041187991
0.999998963505647875
0.999999409633825054
0.999998731172087929
0.999996048337490562
0.999987795663243695
0.999953641086161693
0.999770258291919678
0.999313367399025321
0.968396042710441995
0.999991026900570734
0.999972716149271301
0.999959481372781234
0.999954013911803163
0.999959022397973074
0.999968337994193268
0.999977406230182275
0.999988712186788753
0.999993789326482863
0.999989176266063984
0.999971750183128005
0.999925721440762416
0.999758503351459549
0.999017078600270558
0.997483226764920961
0.959769095919643211
0.999974557513956919
0.999877049670097051
0.999879958863149065
0.99981023985826134
0.999774209382797707
0.999812664499887371
0.99985079879033778
0.999919717193950452
0.999953631309393298
0.999923769531546713
0.999833421385450283
0.999628742479085286
0.998952639058474423
0.99647613522643419
0.992303214911141485
0.9681493133994995
0.999981771406710851
0.999972721952353538
0.999929366428541577
0.999849223412515364
0.999670530844501748
0.999383110124006491
0.999716990353822665
0.999749086682578225
0.999728145298122817
0.999540387942906117
0.999155691064412488
0.998403108087608571
0.996074183250138079
0.988938354439672596
0.978815098443254428
0.969335404979673854
0.848769280872874621
0.865349799852355162
0.910112776520548117
0.959525659620081406
0.989438174771829049
0.997118945807353052
0.999248730028063692
0.998983465944115467
0.998527806832043341
0.997582041104775996
0.996224272153040324
0.993859685366808576
0.987590429287466542
0.96891528153212847
0.946731354468388187
0.956308480960991969
0.173215858769035697
0.223446220818656283
0.316714400209376801
0.446884254684635662
0.582153775955236208
0.735989696376053271
0.879897283303572197
0.96714353651448759
0.991785819696191284
0.988655477972866681
0.984784694138131189
0.978293517809457058
0.92780025008924405
0.707960785044175589
0.556912338759867342
0.888608531084566167
0.0196405569843615645
0.0284351015039701963
0.0316434159297621226
0.0749507292590105845
0.184623152546784852
0.322684544678929208
0.468467085449162268
0.610990444335904659
0.714444729466941375
0.745898578714801586
0.745306030311726264
0.659635884316192467
0.4157313527537147
0.179973071543273244
0.163506905410027159
0.383578500692499491
0.0127088521790146777
0.0216713691028875208
0.0150550844702659024
0.0102562179664199352
0.0127118872079139758
0.0373199226671561343
0.0770342476969196055
0.0986101407548244102
0.111703620883077642
0.130306357164167913
0.13408857347524869
0.118298362020251471
0.0645624959961169087
0.0473461454902915357
0.0494657153954248946
0.0934160372992187543
0.0111131523122798108
0.0149488254249797361
0.00896482459551177849
0.00942033444203172442
0.0170327932129421891
0.0127456144811541727
0.00304207745509596506
0.00205687012912057678
0.00136920339150808749
0.00129596704432024938
0.00155230379893101693
0.00251026314709489962
0.011152175562676921
0.0164380970970764012
0.0244052247649204496
0.0326693089682985327
0.00901179040833159466
0.00989928554602480248
0.00826819467562438931
0.0141703441238450294
0.0157772132860577452
0.0134531294921515655
0.00766363793086459032
0.00300340741844986074
0.00162311183085241356
0.000887326941635141085
0.000892299343710754129
0.00129225281603149002
0.00249100164484928341
0.0048323750607326809
0.00834258745203680582
0.0160712143917706198
0.0142857696309827299
0.00680848106446374154
0.0103075225139703797
0.0122900913218701724
0.0055490693600354123
0.00319944462993871932
0.00457404088281509504
0.00661257896820181476
0.00175684109734959484
0.000826878066661051645
0.000847124320239506993
0.000622831867443983411
0.000961074423833569716
0.00263319385686501452
0.0202771007959740568
0.0513621429015817116
0.0171836025716027435
0.00505696176758526662
0.00897587956175797258
0.0047867613356521628
0.00121311695786038192
0.000724352755186510487
0.00113751046094345723
0.00215365760853177858
0.0020145530575897139
0.0015255391188109613
0.00074206573756797011
0.000335971362248178515
0.000111495731770418162
0.00119779221751152142
0.0171396350777367791
0.0631319575915513242
0.999999977799877149
0.999999978452204452
0.99999997549022912
0.999999965537885283
0.999999967405819756
0.999999978656924693
0.9999999872670704
0.999999991921724618
0.99999999195465894
0.99999999190900013
0.999999991531584809
0.999999979411718032
0.999999953151907928
0.999999895058564459
0.999999369361776358
0.980091405001723759
0.99999997873647628
0.999999978430596181
0.999999974478141151
0.999999965189956042
0.999999968930072924
0.999999979347928281
0.999999986771838767
0.999999991711832958
0.999999991908992247
0.999999991540962752
0.999999989468993711
0.999999971447915748
0.999999907068252147
0.999999410096451546
0.999980304096003136
0.980248417266998073
0.999999978564053205
0.999999967112833232
0.999999953357316729
0.99999995022719923
0.999999956552288793
0.999999969620968376
0.999999980693848434
0.999999990230486357
0.999999989735104844
0.999999980518557874
0.999999942169165212
0.999999773239622192
0.999998974119651662
0.99999325562395236
0.999969545808460536
0.990888759437751676
0.99999995899312899
0.999999708367113715
0.99999955310732358
0.99999955427699283
0.999999617911674132
0.999999719045761681
0.99999982926537756
0.999999933031274324
0.999999950306678098
0.999999818102241145
0.999999362271589476
0.999997748498969274
0.999990705015907144
0.999948999547615403
0.999844002136767385
0.982997861583225885
0.999999684739022898
0.999996635672985357
0.999994889487207494
0.999994546507871673
0.999995349537801559
0.999996503926764535
0.999997837546409807
0.999998968089485407
0.999999302898328279
0.999998184661531786
0.999994491943240305
0.999983297787385261
0.999939230112896538
0.999728511938007713
0.999312174339850978
0.968754056365069061
0.999991128223265746
0.99997311306943526
0.999959141966871856
0.999953851132671989
0.999959382217755377
0.999968424399005906
0.999978505941853557
0.999989281785399031
0.999993278258543339
0.999985432566920629
0.999962856115579779
0.999903788306932606
0.999693261977981695
0.998860054038855472
0.997523943447699013
0.958737606876884474
0.99998574841692478
0.999886669278523765
0.999879097925358229
0.999805508548892941
0.999784753351420585
0.999815341121182088
0.99986206189511706
0.999931834583634327
0.999949764980971878
0.999903434721668427
0.999792714715967978
0.999543137237407842
0.998678090005641783
0.995998672614214486
0.992331355954966687
0.958692150951641509
0.999984980629835762
0.999981771406710851
0.999939187867562529
0.999853561629256316
0.999623929043285786
0.999402057454745196
0.999737246055669493
0.999760882145573682
0.999703397590896881
0.999451001465708422
0.99900311978843126
0.998125677315436999
0.995420983571857598
0.987808527112591261
0.978736310968843837
0.962965378949205975
0.856106660282381471
0.869204500816884273
0.91166683959214001
0.962539316529470224
0.991560507931092294
0.998374662854863981
0.999270331334086936
0.998963780359172215
0.998358978529630958
0.997262074634785778
0.995746104506035401
0.993092804922834027
0.986094075994524477
0.966730984992505871
0.947070762030011393
0.951776021835355257
0.173795748974398728
0.223317330774934486
0.320774001551979604
0.451648280605389807
0.591113601187813309
0.756865176428388242
0.897545888768897182
0.974178058088773557
0.991209184420475342
0.987721401137341637
0.983521780125386713
0.976435201576884237
0.91522318674763492
0.699626438443684107
0.574615258313082466
0.908986625546124305
0.0238465001290208076
0.0233685680221230249
0.0295633742924520625
0.0754526555007866973
0.188866127631705238
0.324166408290574082
0.470914546307925175
0.613585374187981869
0.715262476578108819
0.73854809653625586
0.735166419358418199
0.6389541601784271
0.394700897247823757
0.178077802775235439
0.175663847859498401
0.418117006786490164
0.0111632849898477462
0.0194750034859409449
0.013461966512523689
0.0096471559916735776
0.0103134730171351354
0.025903927517472506
0.0657419268569763571
0.0904531554672105276
0.105490482258461526
0.12745982755834101
0.129438415322164241
0.114069148355901151
0.0629295075880937776
0.0465031260739841162
0.0531196764452037326
0.104537857770626769
0.00898330947691925591
0.0148584387636805041
0.00826808113292277179
0.00896781889847197283
0.0122485174876764413
0.0106494801611131673
0.00223576241411587492
0.00145580636050713979
0.000872595859572281507
0.00088757669368203819
0.0011763114009091856
0.00223740978105312332
0.0116554253158508269
0.0164926476432381425
0.0252273273930559185
0.0360635905268855278
0.00728960722201924503
0.00978431445005252878
0.0072782827223417737
0.0135649118505717405
0.0147790823128612653
0.0132575201772803155
0.0041775976373764484
0.00194900188993240892
0.000954396960302859301
0.000553362607445806714
0.000504705508311750588
0.000928617009537583034
0.00219897067204931221
0.00469508675805907928
0.00840572962551418452
0.0183316373913253242
0.00527785982067030188
0.00534918304808235188
0.00946009137162429764
0.0122333609994611497
0.00669930393999763375
0.00395193947981292877
0.00662351940437554305
0.00645166420121486353
0.000592270177276370876
0.000444135599016331779
0.000270747596099842991
0.000280291746277652742
0.000685008809541042137
0.00229343811295232335
0.0223984594210608588
0.0535003717054770428
0.00523478122035452194
0.00418261227297174812
0.00815468432430294099
0.00492416613695070664
0.00156579041781251425
0.00115264884322168956
0.00076550052906493261
0.00099437680132413676
0.000948547275101536492
0.000486088735841034615
0.000356617504692127219
8.8358384713716528e-05
6.51604747036140566e-06
0.000895184810742901131
0.0178687486497907111
0.0644194341113537849
0.999999977864100442
0.999999978177663618
0.999999971821768252
0.999999963624219501
0.999999966683509989
0.99999997842487609
0.999999987007959446
0.999999991896365681
0.999999991908992247
0.999999991830354151
0.999999991247607856
0.999999982104591512
0.999999958396868616
0.999999884008589746
0.999999270300662157
0.979792927169478411
0.999999978541156409
0.999999977998411227
0.9999999709926779
0.999999963869464548
0.999999968414488682
0.999999979282556906
0.999999986776831662
0.999999991618952366
0.999999991830333723
0.999999991287557233
0.999999988225153791
0.999999966956713227
0.999999890477257014
0.999999305108989267
0.999991734629247508
0.980119534069977538
0.999999978192856687
0.999999962917685226
0.999999950280080596
0.999999948500215785
0.999999954633441934
0.999999968372597414
0.999999980481234174
0.999999990548262163
0.999999988417896502
0.999999975021310661
0.999999922483228665
0.999999695599848026
0.99999867540103593
0.999991977053805492
0.999967560083867113
0.983261567616573462
0.999999944590986511
0.999999593106795204
0.999999504596997602
0.999999481063213014
0.999999571016628952
0.999999696323708775
0.999999837052498286
0.999999934954031167
0.999999929722078962
0.999999747460763588
0.999999151193297187
0.999997019884167893
0.999987963145596015
0.999940326423257364
0.999840268111932939
0.976174864320355162
0.999999198426096747
0.999995280960021438
0.999993663984300118
0.99999354903670179
0.999994870426095694
0.999996410084162068
0.999997973638321103
0.999999126032652619
0.999999202285673627
0.99999755922218414
0.999992931104460192
0.999978638377893914
0.999922818188564877
0.99968679732353527
0.999301759415081703
0.965957447978072592