/*--------------------------------*- C++ -*----------------------------------*\
| =========                 |                                                 |
| \\      /  F ield         | OpenFOAM: The Open Source CFD Toolbox           |
|  \\    /   O peration     | Version:  2206                                  |
|   \\  /    A nd           | Website:  www.openfoam.com                      |
|    \\/     M anipulation  |                                                 |
\*---------------------------------------------------------------------------*/
FoamFile
{
    version     2.0;
    format      ascii;
    arch        "LSB;label=32;scalar=64";
    class       volScalarField;
    location    "0.870000000000000551";
    object      p;
}
// * * * * * * * * * * * * * * * * * * * * * * * * * * * * * * * * * * * * * //

dimensions      [1 -1 -2 0 0 0 0];

internalField   nonuniform List<scalar> 
29184
(
1112.41191217738447
1117.73108117677702
1128.01230606350555
1142.76587557534435
1161.07907266725874
1181.51589282675195
1202.40289103447321
1222.05243150027536
1238.83442952548421
1251.45580951429793
1258.92490783892799
1260.55069654559884
1255.20919517607808
1240.55238028340432
1220.24263249469504
1148.11564194008952
988.661975390074645
994.03485819330956
1004.4509156652806
1019.43720476433498
1037.98053809174621
1058.70945721664202
1079.90444239298836
1099.79568931457129
1116.69918385756887
1129.31842569243054
1136.67332207292839
1138.05916714684281
1132.3856962284915
1117.52333505900515
1095.66300657438228
1025.74413696707461
863.823936852990755
869.370961420699928
880.007398570462101
895.402148255994689
914.448733470375146
935.785745570294239
957.583032425492434
977.942563201563303
995.085508611797877
1007.69296695700154
1014.78591513156221
1015.71860388963819
1009.34220247183237
994.166879906715963
970.547133592972045
902.528820978158592
737.945583889538398
743.713659379642536
754.708037208284736
770.658702869480862
790.459057527012192
812.710889790286274
835.429775550294949
856.51022353561757
874.005102861681735
886.572496748006529
893.24369731109357
893.462152213856825
885.980902261269193
870.291111557928616
844.252225056784255
778.963331904259462
611.176446968261075
616.955656881264645
628.469750295203539
645.160679931970662
665.984610046719695
689.4888131958445
713.492152239193615
735.577623418201824
753.52713241265235
766.012449823878796
772.087483555855101
771.29100330942731
762.293838923805993
745.789717165230059
716.757674519777311
656.114023106393688
483.37478399625877
489.23560195552659
501.269966402319596
518.856284678929455
540.972278393188617
566.097185332345589
591.809054956695945
615.220970415546162
633.744017294850551
646.072361184917213
651.369671780485305
649.20658702189121
638.251244323851779
620.370831142535849
588.10998340890967
535.229503342688417
354.654731735865084
360.633418716444453
373.102619015637515
391.694377260698161
415.348458709390911
442.48636272126771
470.459427887192646
495.481241689336002
514.647589671976903
526.726465638428294
531.090247327721045
527.227864840740722
513.86281685014535
493.777128570866921
458.891580175277113
417.265721614733366
225.105540219737804
231.221360341923514
244.089316995203262
263.991948525380963
289.798308953618516
319.075090528518217
349.776218802312087
376.555836548641651
396.146130895357942
408.056174493173103
411.362288972529882
405.438937960261001
389.201357724529771
365.571900487515109
328.248593661407313
298.856817800427734
101.363836963438871
105.476226155966629
116.913282080797444
136.027748632099701
163.654358849348
196.499332291925612
230.208068906510562
259.193731280696056
279.594030909863477
290.841655229901789
292.860012996734213
284.211952763540012
264.303895990767842
233.457301026705295
193.047371125750487
177.550198193733536
32.1919411795812493
30.46242247149695
34.0862006650251601
43.4933299034070728
62.5195229520752491
90.0794581868229898
121.440123127473271
147.928527092188006
165.833361599901991
175.154901874586358
175.720753654186638
164.020481526886215
139.954884112951277
107.87446892564526
82.7031650925149506
74.7216111750033178
17.6974017002941224
13.3997072359477656
11.3522188895545426
12.345162364295831
17.9272644294810277
28.9507353933570357
43.8906827535826096
56.9147170056162395
65.5967947029627112
70.0462280803112662
69.4005060513859462
59.8868039350006711
44.9421999114171058
33.3649519145400291
33.4763693205117221
21.358234704831375
14.8170032497668132
10.1463820795876778
7.26109965414898184
6.85499361135174468
6.88494270564621758
7.78366105187036794
9.66353152711340613
11.1038358555353227
12.1048747323177963
12.2809689711231158
11.056398029300766
7.90601167614275369
7.68566363804202979
12.6695041030335531
18.6788990771206187
5.52631530953100025
11.8554544652550753
6.91291712808929049
4.68874417773600527
3.94365068740681934
3.34330210758941604
2.77866791052776918
2.03883820449307862
1.35577361902923688
0.816358674674512841
0.58115356233895632
0.222786848953300698
-0.0103207496584536429
1.28127131425903684
6.11917123358232118
11.769267416081906
0.0439376905353192626
8.54565396048813142
4.45267839133261134
2.73366220122771253
1.75075804809875635
0.869611530184023707
0.576490113102916979
0.405811602795782989
0.425059736595718718
0.313982432275422774
0.150317673450351741
-0.126344443798420691
-0.587337682956762031
-0.31595844909961901
2.5763770994414692
6.84797828755039717
-4.53032502728828845
5.26848709656182024
2.29181811438608207
1.00111078810703802
-0.0329640243823874357
-0.559995681530057965
-0.755534154020528703
-0.822105514392203141
-0.572905360059284163
-0.285218672571375009
-0.332047006560477698
-0.506759009734952137
-0.940048678524042725
-1.0353902366834129
0.204185482353684833
1.64280076665312436
-12.1918029020861383
2.20265476366747492
0.417634944864808233
-0.189402432530750175
-0.953618891040537875
-1.08223524156930839
-1.19009269379426019
-1.25696973870832585
-1.23071380943771702
-0.932946886838637468
-0.80536111198245397
-0.865791588120988109
-1.21307579475990579
-1.38429926365087441
-1.04988529958851373
-2.12386245102763382
-16.2100158589785792
1112.63425478803879
1117.9389615574396
1128.26278353879866
1143.03699575622863
1161.22364011328068
1181.42880835493725
1201.88657634134802
1220.96055480804398
1237.0062693029854
1248.90586182200036
1255.94595040173408
1257.84295953273454
1254.09816073021079
1244.80720917427402
1230.84300007296133
1199.53135191641604
988.88023630325074
994.246398349038827
1004.74081315059652
1019.7351216226391
1038.13268968508669
1058.66063755440655
1079.42904829559211
1098.76010071293695
1114.89257813550307
1126.73768951736088
1133.60059231608693
1135.23891982021314
1131.04686824905207
1121.45491056882202
1105.83156241420647
1076.37834073206022
864.02368627784108
869.574503068699869
880.353797058717191
895.765386976930813
914.697045425875103
935.862420254244512
957.198918500566833
976.924026287780634
993.294177003719369
1005.04398827201112
1011.56311622134672
1012.67757248102635
1007.67118402046685
997.53905650634249
979.662944985971762
951.480102209396364
738.114663493438002
743.91695998775981
755.093645203344977
771.139468952105517
790.861607352653209
813.021761029586287
835.217282753062136
855.495751773254142
872.140152626560962
883.821731755555675
889.799931083325419
890.102997772251911
883.870605869431529
872.950196053549234
852.201084182862132
825.673798373735849
611.227218496154705
617.16581924478362
628.906541621996098
645.788824758451142
666.616604955246544
690.082883444433719
713.522417010596541
734.671201593930618
751.510688160520544
763.103984683521276
768.35769974745574
767.527877096069233
759.659647311194476
747.509418344654136
723.291771863983399
699.746236851119079
483.26498306935207
489.364501418889517
501.737343465296817
519.649393284373446
541.903276065919158
567.062928084857049
592.166919875513372
614.444797483875391
631.672272227116878
642.827232605910808
647.286254290064335
644.970624411331642
635.034709994571699
621.045801425630088
593.362535682834618
574.470763126452539
354.235756384588854
360.571367150510014
373.536895584991612
392.647168555286612
416.687865333135733
443.947319648696066
471.237357790065062
494.862450691147956
512.466968329344013
523.140647449318294
526.531173729668353
522.47564552475319
510.059788942289401
493.538144179119854
463.340059729040718
452.037244477060767
224.412106449950898
230.845021759700785
244.486672586867712
265.308626035759744
291.637958073947289
320.955790692351457
350.986562459765423
376.130227681785414
394.051347294767425
404.098793053541726
406.297399456253629
400.203478018887267
384.82147475524846
364.374162018206789
332.862660623789338
332.038462369751869
98.9821071953915634
104.029663867650243
116.464878025276562
137.435446732437526
166.228757986605842
199.315271719735165
231.989216182943892
259.147301005217059
277.515350467262806
286.528658855361073
287.219388055090121
278.48592383767118
259.422757867289874
230.711161977291795
199.728004689870772
209.507610709152459
29.9340857498044954
29.5595235030439198
33.5452498381636133
44.5698877221166754
65.2391020555994601
93.3356021217110765
123.230575488069235
147.324283544008267
162.949386620183986
170.053582342955451
169.349791878746828
158.23796265969122
135.328499516545662
105.621791071596704
88.6346162212261106
95.259605505642412
17.1010802031239812
13.0488002240768637
11.4823745111621491
12.6801121819787568
18.5970261360146765
29.4852004266153926
43.6537518780219216
54.7994861611382476
61.9134701135798196
65.1979021260681293
64.3975881481542274
57.0141481069484826
43.0590277830988271
33.0124152311263401
35.5818601555220084
28.0367855642410859
14.0904447294707751
9.35131613258637628
7.46147584557493815
6.97745829836940956
6.76508404043203981
7.28443665606458524
8.85781938099151489
9.76422513990380025
10.2711023514279418
10.0377266000352847
9.32161603788384241
7.82696885993328806
7.94954312477428005
12.8751941277551438
19.6863532533777175
7.76185664550837373
11.0990851000033146
6.38068933754355783
4.73144871315342996
4.42031329256913708
3.82742750518379182
2.76493252598750061
1.87734472379846018
1.37174413313601473
0.785728536427089175
0.527477288076196871
0.170781456120784547
0.0809788731237954806
1.76590549228147609
6.59230868857234498
12.5207777330961108
0.424013913595977954
7.98351384810469256
4.1433329476614027
2.94790662921933233
2.35475501516558339
1.28689028756522106
0.535543276542131963
0.377256562994826794
0.477959048620668625
0.277399906232352222
0.112334300137383991
-0.220982595842790452
-0.476716767243541284
0.193438183720828327
3.39666140099627079
7.4684414878671852
-6.01694056436936364
4.54633876194905895
2.30792439245154668
1.35202470377553041
0.533449024303763508
-0.336177266154470189
-0.689931692153677112
-0.803144378340566512
-0.524506434210428196
-0.209093210405384866
-0.316200884337193067
-0.591013865396769589
-0.889094432865190409
-0.702922658628820862
1.13693081096525894
2.40470254010392637
-15.3610983079663157
1.19002155290509393
0.569005059464959828
-0.125485374604142663
-0.77454146623950848
-1.00661164644773393
-1.10633618939229361
-1.1922701289358697
-1.12413932933625338
-0.687973776939763582
-0.708647193322001989
-0.942083890236004695
-1.21102527294619566
-1.21530498228110861
-0.501243270100196092
-1.75936355410014045
-19.7784636449338933
1112.79080696382948
1118.0997198026414
1128.48030456765946
1143.31218102756839
1161.41092312929527
1181.3890742306728
1201.44671915775007
1219.98585286713842
1235.45006336518213
1246.95278404836608
1253.70823793887143
1255.98316568027212
1253.58791468810136
1247.76850903220748
1239.15003052945053
1222.64583045618224
989.015658965126704
994.38994860120647
1004.96500656949365
1020.04322475668539
1038.428532844242
1058.70399839881861
1079.05499816277188
1097.76285921745648
1113.26914342156715
1124.61577527702934
1131.31529143151033
1133.2809941603507
1130.42576400980192
1124.35799257807116
1114.28667221074534
1098.96740436339428
864.10252744204729
869.666550160457064
880.582349204460911
896.125612159755747
915.094023921188295
936.001431142721458
956.919706812732102
975.985235804459307
991.611821081965559
1002.77156979065296
1009.16431842499446
1010.54963679512002
1006.83320023929969
1000.17206362834168
987.829713939604858
973.313858563840995
738.113563150004893
743.928207462688533
755.313918243254193
771.553727760154175
791.389074412014452
813.255494176781326
835.043984715933675
854.663029277825558
870.464209661831546
881.443037823526538
887.173111236489831
887.751202133899142
882.754746277465529
875.18362566308997
859.666545281902472
846.53312157379014
611.046647355148821
617.085955010255134
629.098374938056736
646.281604612643036
667.303906450738054
690.492117245005943
713.498765085614082
733.894695597557188
749.897482562563141
760.572298919878222
765.489092396670458
764.894729788827021
758.17560426307034
749.262833916058526
729.828654424441993
719.709761103453729
482.837170387615174
489.09470578851699
501.878863354712166
520.225974779772969
542.809535827447235
567.726238839619668
592.349041141618954
613.752438656514414
629.996266395052317
640.217400958617873
644.152936209604036
642.004922870573864
633.12365250327116
622.388129279564168
599.039280130500742
594.695876694069739
353.465621134506137
360.034996371135776
373.580517124029825
393.327400498825341
417.879974241422929
444.980546501018011
471.690132335906696
494.275456565721242
510.738863594950885
520.355187385574595
523.141810892080002
519.101176955660662
507.855821833044502
494.340680421660863
468.559474363025629
472.095060659930937
222.896993688340785
229.922192118904263
244.448990911082319
266.167405127058601
292.99389729618963
322.424566416785865
351.761643658479784
375.684895618831433
392.290327046020252
401.112442552277003
402.634683190333021
396.482845523364631
382.249407004245086
363.868618018179063
339.263591723728723
351.363338895919696
96.241130334424156
102.22821532902924
115.796460932355899
138.272456119272078
168.010567921116035
201.238282932376023
233.148312699190001
258.95430956159521
275.673176595217683
283.235502978092882
283.137730888793612
274.593409032020872
256.205144096339154
229.59491130727497
207.315165580563757
228.926282124831346
27.8626179805712013
28.5183931474539349
32.6713048615354182
44.8532887179140971
66.7120091726810642
95.0046208214965873
123.844185854157104
146.562243637001757
160.639925995812291
166.319132637292796
164.9525324685128
154.482827308211654
132.294517621381146
104.90835962756023
95.3656918186542271
110.065535398810198
16.0795889849758105
12.5008790294396377
10.7660831929669882
12.1639776221844045
18.8234391819193547
29.6387154326622522
42.8694682432028458
52.7875764869035038
59.0903678557389185
62.2958620487005419
61.5639890713021032
55.0512541122606081
41.6096474651760673
33.2134035375146368
38.727676007051798
33.1478289542138782
12.6091790027146722
8.49010715694507567
7.12504206519219352
6.39479193875083496
6.54684628189017559
7.08332210718516819
8.15238351171740305
8.43472332340090247
8.48066371497142768
8.94108890220661578
8.72760162446581944
7.42642408436381629
7.49192097587022943
12.7885367314305967
20.8462982999847952
8.12237585585872068
9.37111495951858231
5.72945788080567198
4.71880556876727297
4.28243083941805125
3.86502821935339824
2.76187930686055694
1.73440424661152193
1.19240535907866185
0.670236444480397431
0.44250929623504387
0.0763266926209436036
-0.134328435948408931
1.373661334688137
6.14587464533305905
13.0087653165927435
0.0418637771105636602
6.92425767251193136
3.83358895260414556
3.09866189086862853
2.46707776600621287
1.37442268063798423
0.565271713673606513
0.382204971011706363
0.484253528317580617
0.201603478314598128
0.0618558994786786442
-0.284729209377832415
-0.526807939369374978
-0.0290823581863079994
2.93536607901559776
7.58685081030861674
-7.10875690365542567
4.21736186403798285
2.11179906492785641
1.53107326281495659
0.745627988445583867
-0.326356265980177085
-0.734172615590002131
-0.783084942950672769
-0.485878300480552028
-0.206899002776328444
-0.305051101931305801
-0.633118473035533924
-0.875846113284821204
-0.740123699871721108
0.800847823619101007
2.41335470433732269
-17.04503922071045
0.921216909508736137
0.478585604277567356
0.0397399548912016343
-0.656618551598299405
-1.00150770542384704
-1.13563857306598059
-1.1975417817723093
-1.13361138871273237
-0.624316350761590755
-0.696397547263029715
-0.955591476639722881
-1.16019996237808942
-1.16185042105359781
-0.692850862945016743
-1.97772107334403557
-21.3363012856361252
1112.86639020871667
1118.19918635939825
1128.64542310426623
1143.55410735088208
1161.65591513972072
1181.43842902893903
1201.17065507185225
1219.23258327544318
1234.21542035411039
1245.25612957456633
1251.92162450539604
1254.59923697946806
1253.18394054762302
1249.63052511667706
1243.28535281543964
1230.84841298405922
989.062739512616872
994.451461868301749
1005.12301707267602
1020.28852243205233
1038.67333311991001
1058.75878722385482
1078.77352140422454
1097.00110115898156
1112.02159540405546
1122.97042169730389
1129.46962758734708
1131.83610210610391
1129.96894262751016
1126.09874304135496
1118.34344954208632
1107.17484329164381
864.091673900527212
869.689152739628753
880.732882605293753
896.393847090726695
915.381537021824784
936.102586458047881
956.667883334766429
975.231672144309414
990.339191001143604
1001.11834885190456
1007.23287582244393
1008.9642800103037
1006.22214997287335
1001.69904321751881
991.569091316121103
981.267238496634718
738.010502201105737
743.871472316544896
755.449918377797303
771.859375028965815
791.750617214416366
813.436254657314521
834.852305687562534
853.932127544427885
869.169323278648562
879.684889392617947
885.187039264269629
885.98891410623969
881.909447592617198
876.485709742859626
862.941663429584764
853.778044275700154
610.780728451462096
616.92682169384193
629.211527792111269
646.641158761071551
667.772928963162599
690.792117112564711
713.395723441436303
733.197820909207508
748.581041715795436
758.699463030919901
763.36580497879379
762.879890556635814
757.005918633995407
750.465958825960683
732.546263462660022
726.94748712217563
482.349751899717489
488.769861248569669
501.940827568468421
520.681810171202983
543.424311285118165
568.18987744214121
592.368999910021671
613.109353620287948
628.631990441468361
638.20547608101856
641.817812166150134
639.677867582467456
631.841397593171223
623.288928414659381
601.264335267789193
602.948341458692198
352.669415904828384
359.493845788050407
373.593890549765547
393.913078893050624
418.680609194021372
445.656648562162445
471.872356698381623
493.706871834531626
509.303569295979969
518.175360661742388
520.561741765747797
516.504008568337099
506.239065067254728
494.237277018406871
471.851764779193786
482.038263116471967
221.644916485183671
229.046851171075787
244.352298383967764
266.728437379211641
293.816802052759044
323.345538502701629
352.122409170108199
375.173749921815102
390.75679933562958
398.74654909451499
399.788179980561381
393.661089717939831
380.217649673860933
363.273882495750172
343.845137727513588
362.992654826350304
94.3231093670918881
100.807470975714409
115.455786324727569
138.951662837219715
169.130352767750537
202.418414640726496
233.733198777514872
258.513913102908418
273.988009679746938
280.622911887137207
280.046690485591625
271.624623306529884
253.683371150248831
228.730892112894594
212.980330975322431
242.468147449249841
25.9122508487446908
27.2230821363974087
32.0557556392844845
45.0029445648751789
67.2593400511284472
95.575281546112933
123.602400787156967
145.594298962911807
158.882778792381032
163.529526984172207
161.753783480094171
151.473239511666179
129.693097087312481
104.428644601661063
100.361679957155275
121.844294082419083
14.3153776168308724
11.7304082320484611
10.0102783491157155
11.5902507385775806
18.2639472493368658
28.9339531656418103
41.0229665315638385
50.8408153472686308
57.4090147710190877
60.3913244254077881
59.5946865676583002
53.3966920674723724
40.5631139056655456
33.5141936640983715
41.0383190390300001
38.7196105867697611
10.9664834701606146
8.09073450697164276
6.68000241092608604
5.86250311705743599
5.88923457004869277
6.37441853058857788
6.76799919363160996
7.06688918784882958
7.45385786780650506
8.38505410594876821
8.1691261607907677
7.15762293931967974
7.78108040077333385
13.1871627717152222
21.5588571080597546
9.57577157398344525
7.94391907839154499
5.30401813926392762
4.57180291068393707
4.08624266161198513
3.61989682480854214
2.61762094105173304
1.42298615218073632
0.844784439578529778
0.434702356576273985
0.217599858379122324
-0.148894063145788902
-0.296020309465328424
1.45062694466172815
6.34017686037305239
13.1769013089589322
0.42664801847830347
5.62929437384110543
3.39448628944110808
3.03061349129086466
2.32453061095529279
1.27483084645198019
0.611128877933218462
0.390130520136969139
0.275051247328701898
0.0329325481717592794
-0.12468036261764226
-0.44518046715174231
-0.665141866554450178
-0.135494729085411159
2.96651810222764922
7.54898131813771833
-7.2501031678950838
3.33746477267212072
1.80129826048392339
1.46875513635817612
0.477968496388520236
-0.416349487395351048
-0.743706056576901808
-0.682245554941914634
-0.508946527915160374
-0.326842471583082883
-0.447897457007371713
-0.732965413073297434
-0.967368434018726298
-0.872169648023733757
0.822093452157716342
2.53163268747458403
-17.5189856323191293
0.918012225557546913
0.329682429250823361
-0.0590738996919561998
-0.725843381445168134
-1.04039060668800332
-1.17268283491091196
-1.22217626400035551
-1.16415328127249307
-0.708060836177037523
-0.774801365542074016
-0.999133328630065431
-1.19984601307477834
-1.26786397107588833
-0.684331357975788368
-1.31508907003968289
-21.7406150931193025
1112.9030815119811
1118.29465538235991
1128.78817877776851
1143.74040000328523
1161.80892552538035
1181.43223049937023
1200.89671999602592
1218.5915130724527
1233.22396815808088
1244.02177772705681
1250.67516582461235
1253.50699609642879
1252.78000881200819
1250.64837361190871
1245.41873705858643
1234.4995597829668
989.065401651084926
994.478715411309508
1005.25429880673926
1020.47995514546892
1038.8404047779029
1058.77312591387113
1078.51394489434074
1096.38110234417809
1111.06230279864803
1121.76145583905327
1128.207036103571
1130.74879331657849
1129.57599421985242
1127.1144790809135
1120.44599863281383
1111.01833148237688
864.031148163501143
869.692847591155441
880.851699379254455
896.597820708977224
915.578360562934563
936.147405877470419
956.428620669276597
974.635831064066224
989.390101131288247
999.885877570318598
1005.90269739185101
1007.81588539652148
1005.74991799948202
1002.64252802233284
993.51779348815478
985.063150358772646
737.85184061413338
743.816483492219959
755.551992141424535
772.086100779200137
791.994139801990286
813.532009507839803
834.656091914691388
853.374058025650129
868.217854260519516
878.397287987933169
883.773636142840132
884.712043407999204
881.334447065674112
877.330675561316411
864.679120414157182
857.436930793273859
610.496694641721206
616.780350390196759
629.292138540640281
646.90510417446194
668.082178093703533
690.964469278590855
713.26579794207953
732.667917409914821
747.595897522764858
757.335064408100152
761.843769568906168
761.433613430895093
756.439092773590232
750.989296497366922
734.065918041303235
730.887414568967301
481.907138736187107
488.486286119293709
501.999216667966607
521.002113018227988
543.817763628598414
568.46353187701061
592.31843166637691
612.579367117903189
627.568446669327955
636.731391779238152
640.132301564965246
638.004850183544818
631.018341460006923
623.295949739168464
602.986890792881127
607.787450924694781
352.031699933537311
359.075451114486441
373.617356482859236
394.326225897989389
419.165363734853031
446.03778893168635
471.885526277420126
493.12487624721075
508.108325391720655
516.54571863132162
518.68077845037908
514.603718997137094
505.066201516046249
493.95329411897319
474.190361139642846
487.629986729795405
220.792699604228119
228.477684120823938
244.290453590749735
267.141919730691257
294.377535565060384
323.818095168348236
352.168477133095735
374.508700240201733
389.401956866054547
396.903553136377809
397.683221698012517
391.53472103141678
378.566639963042803
362.696095438393741
347.088258387833093
369.33010264310883
93.001871178962574
99.8684864872537901
115.305844953209885
139.379540887907865
169.772327509501793
203.081453811684696
233.867613510412639
257.799654555623647
272.441691262372387
278.511425609618755
277.68225430455368
269.255915100097127
251.497792889004359
227.920915055576302
217.113152257218189
249.584180802620153
24.1607662444999676
25.9382720618068561
31.4328906704009796
44.9431834947166635
67.368278189862508
95.339521486875924
122.928853865079645
144.409423372786705
157.156112143467908
161.396919096208876
159.444847321627776
148.979578873956143
127.379565452153884
104.034350547477402
104.183809927785433
128.039378797484915
12.3849397911611732
10.6458225869697714
9.20661221068932889
11.0147278283963175
17.4506863786684789
27.3642727278015627
39.2347435601410552
49.3740427600374687
55.9777358367766738
59.0897019100924581
58.1725591674965017
51.893314198190069
39.5133259958827807
33.8152591646071414
43.1108665224910794
41.736543022867636
9.15335685148426137
7.49291603048441246
6.11226770592833546
5.37119654071063835
5.11823007859193346
5.32804115089514596
5.46879248703622522
6.12970248845343235
6.73170104048452345
7.8785483980384754
7.59875073833484294
6.88946388626271755
8.04480172007903604
13.689239020856391
22.46650990197098
10.2176041503959993
6.50145501476925425
4.80836512183952536
4.09752436390816221
3.74939209015189867
3.32843140476343891
2.43124921236208991
1.03166681714399378
0.450603150722482138
0.115828783915058242
-0.106713345916313429
-0.431130037708942204
-0.398252741211898353
1.65193413201428285
6.70752155473646283
13.5882214172342799
0.292273740151337336
4.2558374214766026
2.83247520544681564
2.6189800909443175
2.09151978168624098
1.29822456776708961
0.639849841443503209
0.296793110099056179
0.00346075303182313831
-0.240909472336334307
-0.394098091451254184
-0.673614865766080984
-0.790911578816959171
-0.120713537425919171
3.15672626796368405
7.72907684801825035
-7.86134749365197649
2.37307179905509535
1.38105057910278184
1.14212859809532929
0.282506789131044656
-0.444577696926360844
-0.713634446216380169
-0.62727389546347645
-0.673139160642749701
-0.572787054626263448
-0.674630106580515365
-0.894864774242653427
-1.08049736371813476
-0.931389095052524318
0.94914049016337021
2.60979899463581688
-18.4523092345005182
0.875725527356500777
0.147735964629109873
-0.273442996572637043
-0.922172154209812689
-1.14791717077912558
-1.21736420447371518
-1.2673558469377908
-1.22119092748282787
-0.854076606326680476
-0.918804509180382922
-1.09169141438752204
-1.27477927914524547
-1.33165347878659301
-0.583927278513834747
-1.14063934426803826
-22.5773527437240489
1112.90822158694868
1118.3111153932216
1128.87949157485241
1143.87054236113431
1161.90928547316867
1181.4177469638355
1200.68638684613916
1218.13688436932853
1232.54796248280604
1243.16277225757517
1249.80029921946061
1252.8067126856613
1252.54950325312188
1251.31828468470167
1246.27216101339741
1235.26368192606969
989.057412324677784
994.542461198558726
1005.35316893097956
1020.61905493407176
1038.95782264760714
1058.77993044201321
1078.3316570782838
1095.96349271580516
1110.40752099420342
1120.91164289934204
1127.33409238213676
1130.04002830048444
1129.27300162111692
1127.8161822684533
1121.26399654747547
1111.6499553115857
863.999961020717933
869.725389554622666
880.951946488644353
896.753725870854169
915.717904321622882
936.178268338503699
956.276756936784523
974.243678716128443
988.739019826228059
999.022235424946871
1005.00639590765786
1007.06652844169673
1005.50486857714168
1003.2007367097674
994.187739098174234
985.785784865613323
737.766517023448841
743.81590853950911
755.659986840406418
772.261971551517377
792.164491711219171
813.600820428280599
834.53959282956157
853.00149793319747
867.554782879159916
877.511788795731604
882.828567596503262
883.867615014734611
881.069212752347539
877.771933486265198
865.240733030417687
858.898785167681581
610.318926826625898
616.753047881837688
629.407941702658036
647.099446347553453
668.289636494754063
691.083024815579279
713.18243336832677
732.297694248290213
746.908028692705557
756.419476076712158
760.816957064015014
760.453326943882303
756.081302944630806
751.418785918370759
734.46995972258901
733.311425762145745
481.595865231006997
488.44677182276348
502.125996934051159
521.212859947558627
544.062728649492897
568.633356266247119
592.24513856278611
612.171286981043409
626.836113958457645
635.750770990639808
638.988563546761156
636.860745345526198
630.476218610532442
623.305297748050975
603.682148592672092
610.756357023129681
351.535283064048031
358.899583969197806
373.7462108423166
394.547472410914679
419.438727330639949
446.255301678196588
471.766645640242473
492.607386785689869
507.279077942900358
515.45611650504793
517.407969456036199
513.259619317816941
504.15596390711346
493.585835757268342
475.769484599733119
490.374386880818406
220.168466149541359
227.998773252906403
244.326617282344955
267.358147858062125
294.658031028334904
324.100716193790504
351.949184309621614
373.825903299785523
388.385950017777532
395.650060136216439
396.235262273084231
389.926949017397078
377.102944130127526
361.970451004239635
349.302313989065851
372.321355675945711
92.3480125669402696
99.3527919853864887
115.323074218512716
139.567028832294454
170.044775605144196
203.018824932527423
233.551984088015388
256.932761467753153
271.127309475600441
277.037710223955401
275.997732377871898
267.333748376345284
249.307089908233593
226.685335312531947
219.656195412512943
253.248101729080645
23.1935250273822078
24.9688318835777636
30.8890325502407563
44.5618475890888703
67.1106551826105715
94.7272869482989108
122.014863388611957
143.14015975936104
155.756632864970697
160.118043637467508
157.807782939322351
146.836368213324249
124.885909692430005
102.840489395608074
106.125808837831869
131.619267057178831
10.874471554632116
9.43370268091422304
8.52398148682809165
10.4620663133851792
16.9703326099275955