/*--------------------------------*- C++ -*----------------------------------*\
| =========                 |                                                 |
| \\      /  F ield         | OpenFOAM: The Open Source CFD Toolbox           |
|  \\    /   O peration     | Version:  2206                                  |
|   \\  /    A nd           | Website:  www.openfoam.com                      |
|    \\/     M anipulation  |                                                 |
\*---------------------------------------------------------------------------*/
FoamFile
{
    version     2.0;
    format      ascii;
    arch        "LSB;label=32;scalar=64";
    class       volScalarField;
    location    "0.870000000000000551";
    object      p_rgh;
}
// * * * * * * * * * * * * * * * * * * * * * * * * * * * * * * * * * * * * * //

dimensions      [1 -1 -2 0 0 0 0];

internalField   nonuniform List<scalar> 
29184
(
1173.72441096025
1179.04357996784847
1189.32480464937248
1204.07837239853893
1222.39156942089858
1242.82839050266489
1263.71538982331253
1283.36493055105348
1300.14692894810628
1312.7683090196665
1320.2374073410715
1321.86319603730249
1316.52169459142465
1301.8648788574028
1281.55512361632259
1208.36578553216486
1172.59947180436643
1177.97235456213321
1188.38841118939536
1203.37469606774584
1221.91802868867603
1242.6469509279616
1263.84193824792555
1283.73318614293089
1300.63668182080005
1313.25592419964278
1320.61082058401803
1321.99666545014566
1316.32319246376233
1301.46080947110704
1279.60016408628621
1205.97122388038338
1170.38643079424173
1175.93345149374954
1186.56988493376571
1201.96463002053702
1221.01121433009007
1242.3482303978717
1264.14552078390466
1284.50505549295349
1301.64800391805147
1314.25546406809326
1321.34841118451345
1322.28109298655704
1315.9046411631241
1300.72882706574478
1277.10465273603995
1201.98924036336689
1167.13305959402669
1172.90099262946615
1183.89532874059182
1199.84597602873509
1219.64633822280871
1241.8981978608399
1264.61712214946851
1285.69762518741459
1303.19256318892963
1315.75997381122693
1322.43114972544504
1322.64947991814779
1315.16752144954012
1299.47195446291789
1273.39870053321465
1196.93902303768436
1162.98850855166756
1168.76549507749019
1180.27857226421565
1196.96907301927467
1217.79353040725482
1241.29833587232042
1265.30242521454352
1287.38865162223465
1305.3389061428793
1317.82457414787132
1323.89932217087699
1323.10132128913506
1314.09800390235227
1297.55270586534607
1268.33002107470043
1192.54326648760934
1157.80434929982221
1163.6465159685149
1175.6690073592581
1193.25188469662157
1215.37347284605084
1240.50535772485114
1266.22368321852127
1289.64298617588906
1308.17354865992297
1320.50528367503057
1325.80028228905894
1323.62521675984408
1312.62782802629977
1294.52314659844501
1261.40501431238408
1199.03101901131959
1151.67457095085842
1157.58917294364687
1170.03476014453918
1188.57590008617626
1212.20614084438785
1239.37484815871744
1267.36083452067669
1292.42047121509609
1311.64451276897512
1323.74745860323537
1328.09623403480828
1324.16064774730148
1310.57991688181437
1289.49299090455293
1251.4040855893179
1196.43779117982604
1144.78027370010022
1150.87386679531733
1163.68572347375721
1183.52368702627314
1209.28838851442947
1238.203400383386
1268.88018360287265
1295.85822397160223
1315.53505493982516
1327.45726125455121
1330.66738354428458
1324.38567355711984
1307.23170440454487
1279.85693347343863
1231.16964516059352
1191.37871143559528
970.667676420008661
1001.03372705144545
1054.44020018080391
1124.99363656426181
1190.4855160347895
1236.46806222035707
1271.68688924087655
1300.48863857590027
1320.77685283351798
1331.71785225971803
1332.96968142577862
1322.84353774484771
1299.53571887062162
1256.30744791359916
1143.91139792442641
1164.65196158020831
274.022760423696468
330.655857365276631
416.975737372468984
545.495682938075106
706.803522311581787
892.167556125180681
1077.76444203679966
1223.12868674766742
1305.97542763400247
1331.73975618277609
1329.54501896203556
1312.56699673228854
1259.92551360087623
984.983008479390378
601.283872674412805
828.615231958113782
46.2989012998270653
40.9364107460043201
58.3707070045560386
83.1448535228600605
201.767737502604035
383.790953570612203
594.741575356975204
804.087411196273592
974.311698632240791
1077.96202738978036
1107.35097004560953
996.384314070258597
667.185126516417313
290.694612233810574
160.74355861411604
280.956829074348775
42.8163425793580856
33.6691450461247825
32.5278060460771812
43.7050430313897564
52.3991513834815095
87.8959823345581839
160.472159751119108
227.021022845557582
268.183089969593311
278.760121464785755
260.573093263517933
178.041852536562999
105.409301698779245
68.5363804152572698
68.1312678901205402
80.5633443909022589
37.0621220921670513
29.1684995187555529
25.2651489618806124
33.7716033963978148
39.0416129646089445
25.7126462861732854
13.6353884876941152
8.48670286473949176
5.98936168079614895
5.3886741585226936
5.36195693183665334
5.96558521878374481
13.4076155227281362
25.7256800978221065
30.9655004111919432
28.5868947456225087
64.6422285288224572
25.9596494461950442
24.4687192598931986
32.3117197784843455
29.0124923905083669
25.6296195219475464
20.9134974994059029
11.0671395302220006
5.38527474148315921
4.83198614501651758
4.63498597931135503
4.25891038993784132
5.7641788134143912
11.3005132277602964
32.2701846942668382
22.0332380430512238
66.5208191995813394
35.3313050527703396
19.4140979062223415
23.8689087762859735
10.437513676521359
6.09255197096286949
6.15962111963189596
12.2228624247498008
9.86488450913989467
4.3111597389325631
3.92842031830451521
3.03599949638897293
2.99861711618689331
6.73927244312332796
66.6388579619780899
95.9612010499104002
65.4289296596081158
32.1896795910677156
10.2275381875486495
9.2331967935602961
6.58976888184437382
4.14086443019301598
2.00169706570444239
2.78427206924496629
9.41526881110665848
5.42418996015010624
4.29276175280820116
2.49237822491841943
1.35641758883843577
2.69096687903396603
26.6260399847275018
87.783274196805678
1173.94675355515506
1179.25146034263003
1189.57528205402537
1204.34949305509508
1222.5361371275128
1242.741306460646
1263.19907519550497
1282.27305406457026
1298.31876881162611
1310.2183613306413
1317.2584499070972
1319.15545901586097
1315.4106593411409
1306.11970599007032
1292.15548408940958
1259.67186042103867
1172.81773268696838
1178.18389469027102
1188.67830844363493
1203.67261377475415
1222.07018220549685
1242.59813223334186
1263.36654469314294
1282.6975982137767
1298.83007665969262
1310.675188034141
1317.53809080040378
1319.17641826468548
1314.98436011033391
1305.39236404753501
1289.76864247609956
1256.28085778617515
1170.58618009397856
1176.13699260987642
1186.9162828192259
1202.32786957478265
1221.25952834063855
1242.42490716321481
1263.76140952120068
1283.48652043760922
1299.8566740360036
1311.60648507165865
1318.12561062523787
1319.24005769377641
1314.23358189905389
1304.10063944672265
1286.21829076561767
1250.09547002738373
1167.30214131693469
1173.10430527781909
1184.28094761968214
1200.32674897007541
1220.04890535409231
1242.20909960955578
1264.40467065984603
1284.68319353407082
1301.32762875729577
1313.0092077456336
1318.98735223473273
1319.29020455603768
1313.05672858074399
1302.1273029629042
1281.32668672252862
1242.59911539821724
1163.03933539452078
1168.97591834162563
1180.71578072707666
1197.59769155360095
1218.4260019268379
1241.89296115384263
1265.33323545198232
1286.48279575307902
1303.32280182760883
1314.91613618106589
1320.16914597092068
1319.33702978489418
1311.4587799140113
1299.24832427248248
1274.63824455975873
1235.07334786646175
1157.69490390290844
1163.77700523044518
1176.14125301869376
1194.05114404163783
1216.3101611774116
1241.47619934244722
1266.58657782254659
1288.87249003365696
1306.10519984796701
1317.26042728395669
1321.71343032532286
1319.38029513561446
1309.3817535119922
1295.06834700673153
1266.18701397113682
1238.09108665684448
1151.25231192474712
1157.51403790968243
1170.47017861688437
1189.54683961811884
1213.569331050968
1240.85487576957917
1268.16728447095875
1291.83909982670366
1309.48557539432909
1320.16279410482207
1323.51373314745865
1319.35601258362885
1306.62640919310138
1288.70543316361818
1254.241380920648
1233.0276589726318
1144.07419855609555
1150.4900839491886
1164.07963633345503
1184.82989832327621
1211.12243949360254
1240.08429670100372
1270.29614197620276
1295.55357758012678
1313.48413342770277
1323.49072208196731
1325.46961442491624
1318.89294517303597
1302.22887174468451
1276.7273606657634
1232.39387993071182
1229.10229443557387
976.501716307926813
1002.89406136350988
1060.30981746522889
1131.57781956861663
1194.42554442685787
1237.39640542972961
1273.48509406138737
1300.41116464521474
1318.54743973723885
1326.99828209458587
1326.68307683017497
1316.03930358637103
1292.39773736952839
1247.62359200678657
1179.12828452155964
1207.05911964003349
253.715060292426642
312.596986455494971
404.568859857392908
550.167480644083184
717.956694890421659
907.065667874374981
1099.9666777183279
1240.19335092825622
1313.90136108212982
1324.74663884403185
1320.44556473480247
1302.79805105954529
1240.2590540070928
955.962048395921897
670.575543000853372
983.820791269116057
42.8438707607979978
51.5814990131652067
55.1076774262585403
95.0160528890224896
234.393804954085681
424.070122479681686
626.602265579944174
822.88105720440069
972.192576206919625
1054.14261298110705
1066.40527038672531
947.406593496021287
626.545491080169882
279.069585299413916
194.590036633659366
367.015922182092481
37.9614596866395075
30.8251091261381482
40.4662759876194755
36.3831664001860418
35.2341876539023886
70.9406902049428112
150.234238460575853
197.437352760769016
224.831763860273554
225.313654989805741
216.245687319128592
176.713379350900453
105.256707256182935
75.2644256075522406
76.7930521910799797
110.29926849396081
33.5800521394377753
26.1694128310757108
29.2333022703392338
30.515105124759085
37.9264593501193659
28.4194585884110111
11.4051376652504164
7.00030767099091111
5.54860469384145905
4.95430518098634032
5.02227517932465961
6.23243743017843066
16.2454168813797324
29.3725949312877788
41.3498391121830409
45.9858357340613964
53.1374770119163742
23.1528553622624571
20.2645311064478086
30.8149044119583593
31.0124220814917209
21.5632807726208036
22.2506659835825289
13.7612949662917572
5.03057543692220577
4.40669482970498549
3.93620740519134493
4.29323960319702813
6.85797202566210551
12.5307106454459891
21.3544598974147739
18.2718927763930949
62.4743721679541864
20.9021430271365745
18.6491723326917374
27.9252526277513695
14.5801754842310949
4.62198970131032993
4.49903542187552485
11.4032823750424352
5.87315735166145458
3.96086891082619452
3.15929097339130793
2.82621091292714066
4.02416689817141737
8.33801908664774238
52.7098896588937933
68.2319785437688466
59.6494078443482607
26.5167805315382061
16.0194547571044978
21.2748079971253503
6.79486135093829091
2.77451167678796518
1.85307486943985689
3.33096206012025187
9.60996700026263539
3.84883124458557191
2.46432241745329517
2.1499505255877569
1.78105340433937087
3.70740348537452302
34.9324419400951314
88.0680863425177591
1174.10330565169988
1179.41221855258368
1189.79280309573551
1204.62467872186176
1222.72342082536966
1242.70157262004795
1262.7592181696466
1281.29835232011874
1296.76256287389401
1308.26528355679761
1315.02073744123163
1317.29566514267003
1314.90041135201659
1309.08100339727389
1300.4625056313705
1282.8808690163396
1172.953155280489
1178.32744481497616
1188.90250194256714
1203.98071777799646
1222.36602626753938
1242.64149377927629
1262.99249514752955
1281.70035730870745
1297.20664194686128
1308.55327378461243
1315.25278984045076
1317.21849215269299
1314.36325248347134
1308.29541978606449
1298.22367803414704
1279.53124509214467
1170.66502108069403
1176.22903994408239
1187.14483493407056
1202.68809505094623
1221.65650818638824
1242.56391994869432
1263.48219978744351
1282.5477315828507
1298.17431836362971
1309.33406608026485
1315.72681035900359
1317.11211103752385
1313.39555138889773
1306.7332594729121
1294.3847080864075
1272.22874202830235
1167.30104183446178
1173.11557759048355
1184.50122907600644
1200.74102117380653
1220.576391291243
1242.44285764439314
1264.23140059094953
1283.85049319348082
1299.65169137987277
1310.63050239657832
1316.36049077506209
1316.93825985517378
1311.9401556362634
1304.3567372960847
1288.78913110634176
1263.60749569909899
1162.85892403734829
1168.89655198435048
1180.90810528932343
1198.09091082496866
1219.11366838536151
1242.30254410518478
1265.30994503104193
1285.70657541324726
1301.70967997086063
1312.38429851768319
1317.30008333598767
1316.70241873994178
1309.96937722047414
1300.97401384631098
1281.2195157025767
1254.38972198931106
1157.2683383815131
1163.51235997700132
1176.28834373231302
1194.63200968947467
1217.21886519579152
1242.14219100636683
1266.77092626792978
1288.18242891247064
1304.42988079601196
1314.64932309531741
1318.57633016409932
1316.40494851313338
1307.43646027253135
1296.28576671142696
1271.74030858998049
1247.16835784890873
1150.50364720168136
1156.99457969161767
1170.54220171769248
1190.24389889829149
1214.76796524897236
1241.89644759707835
1268.6342444678919
1291.26950180752806
1307.76387191745039
1317.36856643759984
1320.09971403032932
1315.93090815024675
1304.26389051023853
1289.00607522336418
1259.47355733695849
1254.52157428188252
1142.56012012186807
1149.57748641979219
1164.06804351632786
1185.71682936231286
1212.45890684498954
1241.57162359100084
1271.18895827879237
1295.12625097495356
1311.72582559426019
1320.44190511717943
1321.67565921921232
1314.94662628435799
1299.01350423861913
1274.59532655383987
1239.31297203448844
1248.77445376890978
978.429861725976821
1002.2567204341816
1062.3121545732979
1136.03634521894037
1197.84903714565121
1239.33907898630105
1274.67314723003051
1300.18826621813832
1316.56345270064526
1323.33056338465553
1322.01527686344411
1311.28959917548582
1287.19590444842697
1242.29613259152507
1192.96656451014292
1234.20666876936866
233.864968284256776
295.749421947557948
400.916212727699417
557.437426516846244
732.344927475204599
930.667187420079699
1123.22841141593221
1258.02771838993272
1316.59473039782324
1319.27780054293908
1313.81874289269012
1296.2663368353326
1226.43945916848861
938.018707418270196
714.741298383627054
1092.08918527036917
42.7894138746731869
56.6124432185927162
51.3405125572523033
104.68751737266382
248.520048939294952
438.630368356583631
639.321050469637612
831.67689269271284
972.804994787313262
1034.62412100951656
1039.51422162669769
928.659975698451603
604.462403443525432
270.979226255401159
225.800978043840246
453.647677216628438
33.6430210474519029
38.4052461994346785
37.3322933784203812
25.4176907817472006
30.9073686689861908
68.0029080459389945
138.682142265941934
171.519755490465855
184.419680011938567
200.873336650849012
206.344307509857146
179.060897478841696
102.82865662590325
80.8349692260153034
85.2685954945962834
124.004767091321582
30.5001531800541414
26.2990017846391417
22.7918584421536607
23.8059774053354225
36.1143791272624313
27.7557426184252307
10.1871730493434836
6.44579871691724549
5.03548031167724019
4.55835808370525708
4.61132576301069985
5.95057911456724309
18.3020076371747109
32.5440759665870729
48.8788867069115298
49.2092360754856912
29.2450673200148152
20.3486123667521959
18.6266653493127485
23.0219216747023978
31.5411549916489946
22.8217519164133797
21.2270744385794359
11.1767052458541674
5.01780017987810645
3.86166592854635882
3.54246291432881666
4.09774046084986132
6.54147293215106451
12.5392540107605512
23.209406428987517
19.0370937543549772
55.7639598161139816
16.2072536861081851
17.8437471988824754
26.7673393581860211
13.070466123532265
5.59227800701445066
5.38259364230308002
13.2925227949600906
4.72009326674435492
4.15168457226575338
3.14704778402600027
2.67669253049511324
3.70439201887637193
8.24966197132967061
42.322511698805954
72.8047452242345372
47.937302573343203
16.1900655598806864
15.0853200867865826
20.8827034156601492
3.92097444267552087
1.94122843709144677
2.33024107590619156
3.17811866197664905
7.90166638323669446
5.239808117450381
2.32197439644964909
1.92197405320261638
1.59794919778914468
3.96942288307842528
34.6962362064755894
96.1983172229120242
1174.17888885931939
1179.51168506919657
1189.95792163998385
1204.86660513850461
1222.96841302592998
1242.75092762849863
1262.48315423576923
1280.54508278265644
1295.52791986254169
1306.56862908177982
1313.23412400021584
1315.91173619622123
1314.49643795112661
1310.9430196990038
1304.59782100610119
1290.98271439317978
1173.00023570301869
1178.38895797571331
1189.06051245376966
1204.22601573048541
1222.61082705699073
1242.69628317943989
1262.71101881799018
1280.93859954663776
1295.95909392569547
1306.90792018295315
1313.40712585942174
1315.77359873735122
1313.90642856997306
1310.03615400363856
1302.28034019705274
1287.59581509795771
1170.65416740801311
1176.25164254578112
1187.29536837480282
1202.95633109826281
1221.94402298783825
1242.66507681478902
1263.23037731229761
1281.79416882018359
1296.90168813106379
1307.68084427991971
1313.79536388891029
1315.52673552140391
1312.78442296223216
1308.25987202241163
1298.12373343369154
1283.66417026526369
1167.19798236105771
1173.05884549374332
1184.63723001347171
1201.04668012680099
1220.93795259507101
1242.62363592401243
1264.03973361409953
1283.11959813701878
1298.35680505416781
1308.87233738131317
1314.37435458647042
1315.1757482939895
1311.09401967630924
1305.65501907572616
1292.06356177531893
1275.06384675324034
1162.59301472594416
1168.73749403439047
1181.02129803540561
1198.45060994052301
1219.5828968756548
1242.6027068091912
1265.20703880492442
1285.00974953061836
1300.39321627013192
1310.51126357597286
1315.17612658260214
1314.685662785565
1308.79286278728114
1302.15181125401705
1283.98024990298677
1261.33796789901317
1156.78120615676585
1163.18897839774581
1176.35102761410508
1195.08832644358722
1217.83420209048268
1242.60604475214382
1266.79127706247596
1287.53924830869005
1303.06530591905926
1312.63568344889427
1316.23627848301953
1314.0653214329177
1306.11618607166724
1297.06417228218106
1274.00612642530427
1250.27974431836742
1149.71165693254829
1156.45844468981954
1170.56080594141281
1190.82447945076888
1215.5633199294316
1242.56997977820606
1268.81605293189432
1290.7054454108486
1306.32914751026783
1315.17716097442872
1317.49160097235495
1313.27088903602066
1302.46758774893055
1288.49384529279291
1262.78558083307053
1253.73916221584932
1141.31566864040269
1148.70928897891031
1163.97490253202977
1186.27740870375214
1213.2015963974759
1242.46625994078158
1271.54988901657339
1294.63071884204032
1310.19452798586826
1318.01177233022008
1318.69995610673732
1311.88141682879291
1296.29823560631462
1272.79829860163795
1244.06863206619482
1254.50651193832687
979.163570105830331
1002.91273182106386
1064.17140027842424
1139.11943884088305
1200.44513903207076
1241.73095880135133
1275.26342375297372
1299.76792649593744
1314.76755882371253
1320.41766337494005
1318.42763764243909
1307.54339673711775
1283.07415512761463
1238.67580148546949
1199.82577845474998
1239.28597122734209
228.661052174023411
288.428600619465897
401.804222251601402
566.239516280116277
745.918869163604427
953.264833971269468
1148.76765441414364
1272.29434825768931
1314.26084113138018
1315.26458351431756
1308.98412798800587
1291.14933110991728
1210.60650912181291
929.498919062032996
749.645917023594279
1157.1474588620656
40.8660963243557376
49.5933291418738804
51.9999736964569976
109.285057831790837
257.027643752505583
445.282558204747488
644.888000088492277
838.030073448531539
977.668927013313464
1021.10953464312797
1019.55071662524722
903.157360439040076
576.595496185740444
266.296607515105222
252.640716076131127
533.394585091358294
30.2806135878726757
40.0310551299330655
29.2994513504077645
21.7214178002047262
25.2076403676168717
60.3600663883326334
116.702287134557324
147.396805765677072
166.229572191987501
193.367881253350362
198.480253838210416
175.223858959361621
100.145447498474923
81.2975258727621224
92.6552222037163062
142.588353044776625
26.4940759782792767
29.7276633645189534
19.8322692157915306
20.0442219421518111
31.2346795931747785
23.6675340007489652
7.61407006697088118
5.5272403881263692
4.06414819804871819
3.73490036901613198
3.76092971298636014
5.08070715796091665
20.0605393552227866
33.0443135462788646
52.0809387603535825
51.985309746295421
22.1882692021494456
21.4211846570224438
18.3598430350964854
27.4146290424224794
29.0223406751709625
24.5151106165432111
14.7195549636954421
6.89747006234051252
4.37264327946701492
2.99820251703153851
2.68592568185762559
3.12740016081354044
5.63951660882432915
12.6136507969397087
23.0012403011537678
20.9836204158070139
30.4911175458968629
15.6731597183043014
21.5559094671046338
24.0867289468803065
11.2184385594436336
6.71748014822619144
9.22061458169130077
13.0149370850415274
4.57186952879942332
2.79893568451274222
2.54983083359590479
1.91702061930108458
2.61303439431111562
7.27745722102764603
40.327593768982176
75.4928519804115723
35.446697679757925
11.8324622448584176
18.8848953427623591
10.2638834172760447
3.1637473749174081
2.103396124235275
2.8384010983198773
4.82587088444793366
5.01783344265586351
4.02255969520904966
2.3105788078720817
1.33877947893972293
0.84453015405981946
3.49070820875021903
33.1301114866293389
100.034200929027605
1174.21558015219716
1179.60715406253189
1190.10067727651585
1205.05289789243989
1223.12142352894807
1242.74472919208142
1262.20921921611898
1279.9040125776487
1294.53646766529414
1305.33427723147338
1311.98766530591183
1314.8194948353721
1314.09250594250693
1311.96086718412107
1306.73119843124641
1294.59263469786583
1173.00289774383668
1178.41621144785472
1189.19179411700679
1204.41744874899928
1222.77789906869316
1242.71062211897947
1262.45144246361906
1280.31860082119783
1294.99980131189659
1305.69895428467498
1312.14453416846118
1314.68628807003142
1313.51347714331268
1311.05187068403507
1304.37987944028782
1291.32640779017424
1170.59364159861525
1176.25533751926537
1187.41418509465575
1203.16030546576144
1222.14084725681505
1242.7098965737116
1262.99111475665313
1281.19832807209468
1295.95259798760321
1306.4483716040113
1312.46517968081457
1314.37831594980935
1312.31210381753431
1309.20296251712352
1300.07096671117415
1288.83527883859324
1167.03932303209672
1173.0038584521958
1184.73930053247477
1201.27340967175587
1221.1814759784445
1242.71938904637477
1263.84351871080298
1282.56152931225233
1297.40533295409477
1307.58470999775705
1312.96086271148306
1313.8985780582168
1310.51796176397988
1306.49630869341536
1293.79973503356405
1279.33462261680643
1162.30902085073831
1168.59099576897393
1181.10182131584475
1198.71459787864205
1219.89211447671482
1242.7750420308555
1265.07710586642679
1284.47984855821505
1299.40801323801816
1309.14656368336819
1313.65323319375011
1313.23690615768624
1308.21809272384621
1302.65213580166505
1285.49924679500919
1265.47525419918907
1156.33866126072485
1162.90567069861527
1176.40918803443833
1195.40851961604631
1218.22789686724127
1242.87975740338447
1266.74144976393472
1287.00964558080932
1302.00141780821855
1311.15907678091367
1314.54477538764513
1312.37752629857528
1305.24917271090681
1296.96539625730338
1275.75611534727977
1254.42387456798542
1149.0828518905048
1156.04770977796807
1170.58358633949979
1191.2338590775837
1216.0564702680515
1242.95325144875596
1268.83819093198758
1290.13309848212589
1305.13082498231643
1313.53132703772371
1315.57822434300192
1311.30243496960429
1301.07611027605321
1287.82967541755011
1265.14658493409274
1251.80047423512042
1140.46640029035711
1148.14843627604273
1163.92208136085674
1186.69487686913703
1213.71951367481552
1242.95622480404381
1271.61456726643746
1293.97650645216095
1308.81694811946045
1316.086650953961
1316.45482024670491
1309.50015367860192
1294.04708705595704
1271.1824625624763
1247.23936533099777
1254.99138487350456
985.482526351196839
1005.98753252869506
1065.63965845284997
1142.6853479866711
1203.2970360205054
1243.70153869781848
1275.42033128184471
1299.03316993592762
1313.04544452822984
1317.97300555122138
1315.56529974594787
1304.37615878699762
1279.3304687924624
1235.59138156078257
1204.31201471197596
1241.68249001712456
227.584427880042711
286.9937918484124
405.905809939927281
571.723997863570276
756.455006072807009
977.323384825955941
1168.6330702989992
1279.29605586603202
1311.8631021700196
1312.04492263390352
1305.2054471527108
1286.49301302829053
1193.65613625286505
919.405341107832328
774.07021904640078
1187.05801078752575
44.3456577542111532
41.9917884590905643
48.5208021310021991
109.355150066879773
261.67201539400719
445.618961791359141
646.247884680208244
839.901094094597852
977.289495693378967
1010.35317112300925
1005.08626177984502
875.051599147061438
548.494760434521254
264.159836299460437
270.3504339489769
580.837532294847392
26.2901269781535589
36.3390466023364311
26.4873682104064585
20.3720785319288105
21.0578043782128361
43.231094042154858
99.494715023178955
134.968243254694926
156.754486630888891
188.851249217391569
191.358841110152269
168.997679646252948
98.1086517969821443
80.6119754942124018
98.7104924253146407
158.898353975006842
21.7902268433019621
29.093603088626093
18.29108155735479
19.0144435105606568
23.617149935630902
20.2713943655089146
5.98805688795559643
4.21266235950036805
2.98482959907469558
2.78522731621740149
2.90294421667796332
4.56065990912857266
21.0324626673499289
33.4951903839217806
53.7511279241331295
57.0485298722885616
17.9666965879224847
20.6690364368032355
16.3111110029568103
26.1803651795554728
27.3950432969880637
24.2203364038615128
8.86106664713460468
4.88212261838063988
2.99289260111705913
2.17648056280085012
1.81649555072483682
2.40025607448868739
5.17134221597280241
12.5768140303230673
23.2857592249184542
24.1106231003761344
13.5261145618182912
12.6607836807502778
19.7240041788395963
23.7904980507933388
13.2333541337738705
8.08419664971717111
12.9160430440080702
12.5649140559510784
2.25731574406512037
1.89234354609193534
1.36412246720003405
1.19544300315455776
2.06344389288562979
6.80100141856994878
44.1738963882414879
78.3576309264037008
12.716146574888322
9.99031249034851498
17.1112515585142582
10.3284570691912592
3.72587252570214211
2.87195771847900883
2.08685396261247647
2.5676061295273751
2.84769995066892667
1.90486187213936953
1.48613670062854686
0.793681956522961363
0.581406606219753375
3.016525334875094
34.688992447831744
101.642106715627165
1174.22072023109854
1179.62361405657748
1190.19198984890227
1205.18304013307466
1223.22178343249402
1242.73024564233356
1261.99888605036131
1279.44938387297134
1293.86046198722215
1304.4752717571746
1311.11279868336624
1314.11921158954624
1313.86200070488076
1312.63077758009013
1307.58461631844648
1295.3384747193013
1172.99490838153883
1178.47995715568845
1189.29066360078082
1204.55654829495711
1222.89531684365693
1242.7174266351094
1262.26915464847957
1279.90099117575778
1294.34501949299806
1304.84914129839967
1311.27159021846683
1313.97752222866279
1313.21048149592275
1311.75355457975456
1305.19997775615434
1291.93434887278431
1170.56245434215089
1176.28787819794366
1187.51443126162371
1203.31621009873948
1222.28039042784508
1242.74075865242389
1262.83925095904669
1280.80617582147761
1295.30151627914006
1305.58472777507495
1311.56887216768655
1313.62893521734281
1312.06696291084427
1309.76077963485909
1300.74030418124653
1287.22204056374676
1166.9539932663738
1173.00323408066538
1184.8472744322512
1201.44924905305629
1221.3518077810329
1242.7881902245465
1263.72702296446573
1282.18897004419773
1296.74225274691707
1306.6991805174348
1312.01570366357373
1313.05383726529953
1310.2515518509656
1306.93384794420012
1294.35974665563754
1277.87106019859357
1162.13098495044483
1168.56294646061474
1181.21694890628737
1198.90839018509064
1220.09930876231692
1242.89354583610657
1264.99381631479446
1284.10971246444933
1298.72008894415762
1308.2306305718555
1312.62556025979984
1312.25405112139401
1307.85125564619671
1303.05862959561591
1285.8975471377064
1266.35760513028345
1156.02660767875909
1162.85970128600525
1176.52883633084457
1195.61526617996628
1218.47243713013427
1243.05030039587473
1266.669953382725
1286.60328618857579
1301.26858337731278
1310.17563440738536
1313.39510066975026
1311.21814156394771
1304.65400544840713
1296.87267733166732
1276.43100064010491
1261.88611629087086
1148.54038281898579
1155.83922116845952
1170.68842777090208
1191.44262522414624
1216.33977472198899
1243.18249775248819
1268.73723357110953
1289.62338307368145
1304.2975532812286
1312.42400791186105
1314.27365243849499
1309.88693630379726
1299.95573052938289
1287.10364895051634
1266.61605660106738
1259.86178420912302
1139.83921830476015
1147.65142417642892
1163.91800458180546
1186.8937317373277
1213.99020345290432
1243.35101683742846
1271.43568983982414
1293.30449499968358
1307.763092378397
1314.74625752578413
1314.8689613272104
1307.61668009862137
1291.91622761557187
1269.44697684283847
1249.3262677005971
1259.37216012162594
977.625402601610858
1003.40837184694567
1067.33614626907001
1145.77536408164292
1204.87956608115519
1244.63482816877013
1275.08152172032146
1298.0419289339377
1311.47795076409989
1316.16218660501477
1313.38275969267011
1301.54927477286901
1275.3634632179635
1231.93031831397934
1206.97524009901008
1248.13222965018281
233.486084959818442
292.700605685064488
412.153574609550731
578.619731180949884
766.428881344079741
992.825879756190716
1178.38890863504366
1281.15818238366364
1309.60192351886985
1309.77177966736463
1302.05105804253049
1281.78380628135665
1173.76177997281616
906.482181262726499
790.335352495640109
1202.68938843949422
50.6231420444448403
35.7670062197917318
43.2116211602462101
103.325181827428366
255.601992820248455
438.5141951587363
642.469486355192657
838.348886445458334
975.419124283300448
1007.08478303889888
991.951073401767417
844.758827402366592
519.54249570201182
259.574077932141904
282.379099715559391
613.337602107671387
24.0089778777222165
30.1570585124077617
29.2943619635711379
20.3216133292722922
19.9797924255393298
35.4976425667191791