/*--------------------------------*- C++ -*----------------------------------*\
| =========                 |                                                 |
| \\      /  F ield         | OpenFOAM: The Open Source CFD Toolbox           |
|  \\    /   O peration     | Version:  2206                                  |
|   \\  /    A nd           | Website:  www.openfoam.com                      |
|    \\/     M anipulation  |                                                 |
\*---------------------------------------------------------------------------*/
FoamFile
{
    version     2.0;
    format      ascii;
    arch        "LSB;label=32;scalar=64";
    class       volVectorField;
    location    "0.870000000000000551";
    object      U;
}
// * * * * * * * * * * * * * * * * * * * * * * * * * * * * * * * * * * * * * //

dimensions      [0 1 -1 0 0 0 0];

internalField   nonuniform List<vector> 
29184
(
(-0.0144188747968189823 0.00515710539692445721 -0.0284032428002354113)
(-0.0248113841431186616 0.000562716182883301382 -0.0341373187061060623)
(-0.0226107201063106486 -0.00214714307120389804 -0.0384926448848998404)
(-0.013105845627202543 -0.00346650866321605421 -0.0446013901784197003)
(-0.00384165767509359914 -0.0032068023141945943 -0.0523357804045252659)
(0.000149210347844451474 -0.00228493864047992238 -0.0619679506857935131)
(0.00390245857317489744 -0.00193354300727113858 -0.0738484622840579058)
(0.00932649271196414956 -0.00229038467426431139 -0.0885002384451202551)
(0.0181789599840167237 -0.00308297426547877399 -0.105759817815893942)
(0.0315902690914556666 -0.00424072862466556236 -0.126694196431914624)
(0.0500866556131510168 -0.00555192209888623767 -0.151138851833737931)
(0.0763849872382979522 -0.00719672933370114204 -0.182946341705109816)
(0.103462316021876014 -0.00908420583990905174 -0.219082202774155105)
(0.142499617162637815 -0.0120281915818920681 -0.282496238007106104)
(0.193579387459261815 -0.0218631149508111619 -0.332914241216042739)
(0.144301583874745259 -0.00167485593180991205 -0.56940653158217458)
(-0.011395565961220145 0.0130720384708427999 -0.0287422588428250421)
(-0.0185443727318315987 0.000120422173298020702 -0.0332286968611300651)
(-0.0155433342970585555 -0.0050270368395829261 -0.0378043854073637428)
(-0.0135024374145657679 -0.00586916492481864838 -0.0438531168657967443)
(-0.0125814684804278487 -0.00449357547074947031 -0.051789757851702159)
(-0.0112290980000188112 -0.00317437625673936243 -0.0619115318827860098)
(-0.00796547854890122635 -0.00375046306289408696 -0.0743532975238920257)
(-0.001746020508197655 -0.00610275449464822012 -0.0893363401504863874)
(0.00850934262817905178 -0.00952496591922113826 -0.106875607105593101)
(0.0237368038028289083 -0.0137137415645877357 -0.127481137202029526)
(0.0440759726090248563 -0.0182829424622391289 -0.151774675401278397)
(0.070933845610295837 -0.0238359772046185248 -0.182151880917319209)
(0.102720628627211846 -0.0302483862143699996 -0.21850925201263649)
(0.137338412362704831 -0.038587986693850454 -0.276045558802153035)
(0.196395253571054501 -0.0671414585105553907 -0.33679938151649097)
(0.137220254399632341 -0.00383327907049201954 -0.5793307055522261)
(-0.00729136103646144118 0.0183778253237434318 -0.0277669437760040445)
(-0.0118061977434026789 -0.000124199978836634327 -0.0332145469301523832)
(-0.0112145194235207558 -0.00641087267738880019 -0.0380804799326796908)
(-0.0113054356752586051 -0.00667156508307614835 -0.0443029250412729225)
(-0.01199360019950085 -0.00529619394376989495 -0.0524127505021991652)
(-0.0121202695892005854 -0.00491465810013747874 -0.0627815638552518124)
(-0.00998242998660155492 -0.00689035341061328653 -0.0754702179114450367)
(-0.00436012128571304503 -0.0111341794447664 -0.090666963523143837)
(0.00567567786026833797 -0.0169834503598081075 -0.108408818527632775)
(0.0208872226821942356 -0.0239764556399492401 -0.129054389295880784)
(0.0410322167277083344 -0.0316547312526895552 -0.153337042350387448)
(0.0676363063550586702 -0.0409370452264997894 -0.183640867953273973)
(0.0974208000430416277 -0.051690592670892474 -0.220119021402190168)
(0.133010928496563485 -0.0665902411578189468 -0.27696461092520791)
(0.188043759558462864 -0.11082320844540379 -0.337310634521200303)
(0.123471825563894938 -0.0111836881108921746 -0.576569937072548333)
(-0.0038234526274179303 0.0210812238471144546 -0.026495170806271208)
(-0.0057323508834268861 -0.000483875165891725634 -0.0322525522490395219)
(-0.00685431080818071567 -0.00714433813778991064 -0.0374352749217120306)
(-0.00934573675442887039 -0.00695665421410017297 -0.044183312382910761)
(-0.0123224031882288813 -0.00546436189399968943 -0.0528733604010206346)
(-0.0143521988230003103 -0.0056711951337533005 -0.0638806144513411611)
(-0.0136162291754744081 -0.00900329477083636545 -0.0771210204336031518)
(-0.00880632178033538895 -0.0153910922891349004 -0.0927371936356715804)
(0.000900937078817458728 -0.0239145130331753636 -0.110786538619847136)
(0.0160768887245524746 -0.0339520946540866272 -0.131554345740433593)
(0.0359921953167246442 -0.0447632796286604115 -0.155747987097980101)
(0.0621526585049494984 -0.057460535869472959 -0.185904406882036605)
(0.0893620538496775751 -0.0721596525773228054 -0.222368036035271277)
(0.125789269328859615 -0.0946559382953338496 -0.278455307925491613)
(0.172785111428680027 -0.149060544411156626 -0.337420145490933299)
(0.110749070914139686 -0.0234399864962583603 -0.571722427800325006)
(-0.000455858836538521137 0.0213809370889705246 -0.0240082438013805091)
(0.000931612406734694601 -0.000844630338773463135 -0.0293519080055623521)
(-0.00169519758428013194 -0.0064309980968202396 -0.0351804335071272123)
(-0.00683277526361030646 -0.00547426712289554498 -0.0430751858018984524)
(-0.0123908507273657285 -0.00387716074480710243 -0.0529896492176554906)
(-0.016589229726585563 -0.00497973362136465598 -0.0651159486753243866)
(-0.0174813821191244778 -0.0102654215998949604 -0.079269372422328524)
(-0.0135806691525805715 -0.0194173454620114316 -0.0955082850686087004)
(-0.00421531566340993882 -0.0311151192157491895 -0.11379958461376416)
(0.0108519249214360132 -0.0443288489216714654 -0.134629319268430026)
(0.0303336362262878363 -0.0582074128886587161 -0.158639637431426617)
(0.05581888254276305 -0.0739129800963697486 -0.188479027670894694)
(0.0798403870098739199 -0.0922389612129946301 -0.224834514076054731)
(0.116819035575459737 -0.121909696097822803 -0.280375188267215802)
(0.145660019111618272 -0.183324623383641444 -0.339862943792674455)
(0.0930978839158350113 -0.04010822228488687 -0.565659797670518216)
(0.00370807970846098517 0.0193628391990669294 -0.0195294300834873806)
(0.0085975111493303575 0.000308946014340342329 -0.0248501191142913198)
(0.00430807469492651245 -0.00343224352154648284 -0.031932984237261236)
(-0.00407768352641261697 -0.0020991815065391356 -0.0414557020575488794)
(-0.0126224574641616832 -0.000883979599339453082 -0.0529666222154286589)
(-0.0192151013955040618 -0.00329405291409440998 -0.0665197935602241386)
(-0.0218700943005123646 -0.0109671856334298788 -0.0818230746179693935)
(-0.0188620480436158151 -0.0230993057818088959 -0.0987706431989179567)
(-0.00977492786543560262 -0.0381990234535644207 -0.117367043441303553)
(0.00516503217879371763 -0.05467862945109047 -0.138037516910415409)
(0.0243334574666310977 -0.0715472131338944356 -0.161741725591582008)
(0.0496524980991209092 -0.089963589327695534 -0.190911396398253164)
(0.0705119543894936751 -0.11124125647913799 -0.227442219214789354)
(0.104427406381779025 -0.145485827071296148 -0.283800765659722731)
(0.103024078473719333 -0.211412114785651084 -0.34862949789967268)
(0.0679344332128285211 -0.0661671967237785208 -0.556940720470268547)
(0.00930515194167827638 0.018753764477855768 -0.0126551406047088529)
(0.0169036979455418207 0.0056910177809766857 -0.020849394695814559)
(0.0100422001237845809 0.00373149595993471292 -0.0294818977481543718)
(-0.00207760767020666662 0.0047469074372790479 -0.0406329059127135198)
(-0.013700433785176833 0.00383660345913604565 -0.0535279818431490945)
(-0.0228455756121310367 -0.000877366478252439904 -0.0683389665305389193)
(-0.0272499002960821558 -0.0119918450427982347 -0.0847735168686382379)
(-0.02489059500084927 -0.0276935766340484259 -0.102285394116139516)
(-0.0157990785324307187 -0.0459848522709657842 -0.120927485283169933)
(-0.000466852784188302207 -0.0659381448030261219 -0.141229163596624518)
(0.0194557009897401469 -0.0855851760237241882 -0.164364687336658155)
(0.045392498496403845 -0.105887428438689077 -0.192993876136136222)
(0.0622432288653735621 -0.127740659913425092 -0.23131560075664917)
(0.0843574918485996833 -0.160727374655208644 -0.291343573705337644)
(0.0460860424711926342 -0.23108672029849131 -0.368343984650180256)
(0.0368797863257860833 -0.105841965954395587 -0.543185853294328558)
(0.0162720620846149716 0.0163254074967599111 -0.00716575663423243102)
(0.0244348146286049936 0.0121707852791120442 -0.018903926875344413)
(0.0134526232931128607 0.0145224182595016377 -0.0285577634178269188)
(-0.00204040406725418746 0.0161107496025509715 -0.0409691083268134554)
(-0.015698708280586969 0.0124094634629602595 -0.0548275066090224208)
(-0.0274180128080585943 0.00354971929145348527 -0.0706629797974744206)
(-0.0332670717178416078 -0.0123621466962600436 -0.0880030615125050319)
(-0.0309095872647159077 -0.033136546062089281 -0.105298174662110736)
(-0.0211786682815054 -0.0559206931200601914 -0.123498750807884569)
(-0.00462024290003298314 -0.0790418642610979522 -0.143405250309556698)
(0.0166982282293974341 -0.101067214477298148 -0.166879458786989288)
(0.0414260649758100216 -0.121079603354664944 -0.197126564077463345)
(0.0512455880382015477 -0.138448614859984942 -0.240161441162287853)
(0.0511939656399435089 -0.163272773744477656 -0.306133645416444555)
(-0.0146176053785781433 -0.243851069286127181 -0.396862585556229552)
(-0.00403042977173448391 -0.17026972660291706 -0.516204581909450511)
(0.0188982481335985761 -0.0114692705024169762 0.00281967878649451486)
(0.0252445849184900345 -0.00683818560486174065 -0.0138761437404743334)
(0.00843879731402490812 0.00190891858715766527 -0.0242257341167552778)
(-0.00662668177676314571 0.00867810652290978285 -0.0359301446720306644)
(-0.0203910635574268521 0.0126921961552307703 -0.0521480630630178285)
(-0.0342456187301240084 0.00925776085101773574 -0.0713043747337193529)
(-0.0414778544911247743 -0.00988271851913394284 -0.0886075367689100196)
(-0.0403291226170691547 -0.0358623940267382146 -0.10637837641246263)
(-0.0306942672631664686 -0.062594150432598028 -0.125511931658302101)
(-0.0139382512998470487 -0.0885789163646507477 -0.147672551192605528)
(0.00588989556404687954 -0.113374702184518769 -0.175208396209884959)
(0.0244199634133649771 -0.131867038195711994 -0.210954372537615592)
(0.0248066725755597753 -0.140399106057938844 -0.260078225080549952)
(-0.000294104308680057103 -0.15897846795688389 -0.330336469150260381)
(-0.0654597022064455358 -0.262504427010314678 -0.424593467350992071)
(-0.0430921335712032838 -0.257703192445977003 -0.473806599362095238)
(-0.0153329868126805668 -0.00337123937221086092 0.178414759965651148)
(-0.0125135403562885873 0.016247656344012984 0.0660282958142035942)
(-0.0605761965905715002 0.0146400346050365813 0.0405936380940867605)
(-0.0768172558109567333 0.0167422921417133622 0.0096635975365518198)
(-0.0841588287232326038 0.0117299451146231255 -0.030579784462698989)
(-0.0773063415866804965 9.90282068091506706e-05 -0.0618356361468294091)
(-0.0798179356552741054 -0.0158591961329879218 -0.0893013359807481866)
(-0.084881262064318147 -0.0362880142251302135 -0.113569095872371434)
(-0.0791421368763189498 -0.0623939529416085298 -0.138305039895212395)
(-0.0643908242940758324 -0.0911531962845493898 -0.167746666451140253)
(-0.0472771621163082315 -0.118958169986035589 -0.201979693217014977)
(-0.0356021340399294978 -0.136345561247242203 -0.243943555419923575)
(-0.0434993406069244803 -0.13913787773110356 -0.295757576774760889)
(-0.0792428329395084285 -0.167977562580118589 -0.364199714662298668)
(-0.0968509958095172679 -0.297806124697893471 -0.439680643912621627)
(-0.0700061216364178673 -0.340841664993160709 -0.430570305947630572)
(-0.228161038963845347 0.137804146310279485 0.990487207341574694)
(-0.310250958995108683 0.133827443502355065 0.317701567279719488)
(-0.560624539778583508 0.104767819694925116 0.0326231088570331229)
(-0.576933745292953049 0.0670417403396431355 -0.0416060768632678726)
(-0.520266419181180328 0.0335098922261150012 -0.0670794021125719064)
(-0.458180512248747507 0.0110930263036671667 -0.0990154318475524875)
(-0.400326431653220627 -0.0218134335805943436 -0.124173597112661696)
(-0.34278381299733196 -0.0604132823377218631 -0.149602904496494549)
(-0.281409307619101434 -0.0887133894546434515 -0.177832458187591885)
(-0.223149469145347557 -0.109592994960823739 -0.209608461456470552)
(-0.187838249870753093 -0.130563766328135267 -0.244792254131529857)
(-0.176236446891600257 -0.143940705450938039 -0.289317501478598527)
(-0.187514749005729092 -0.149792694277873839 -0.341081906270623458)
(-0.202858923200051916 -0.19048893075603418 -0.405365924971242686)
(-0.108987742078161448 -0.343506227471245262 -0.44231540822212434)
(-0.0903430928525228993 -0.404896082595755047 -0.364882087173278025)
(-0.201898856391751091 0.240659786191601388 1.11661437324282553)
(-0.263836837215637998 0.234267246591725486 0.416340601016000844)
(-0.631919883247387015 0.0897035656828673311 0.0736838976206460328)
(-0.721378396188050774 -0.018089012953752405 -0.0263123132337646365)
(-0.70933672016515692 -0.0448167152003335206 -0.0883290868240265842)
(-0.667608734669881354 -0.0512442986918628107 -0.109403101562880703)
(-0.602098542007595716 -0.0750378965388924235 -0.125995593846496168)
(-0.547687876217171188 -0.101564900982051037 -0.144661243793865635)
(-0.515262507854636231 -0.1265150177717414 -0.175299243974005203)
(-0.474672091062453894 -0.144598458568067134 -0.20778099508352843)
(-0.436252990335076474 -0.156963504058700853 -0.245909643543754081)
(-0.436025349463861511 -0.164439651555401717 -0.306055520203944109)
(-0.461705687794287667 -0.17524326356625114 -0.374738156037165537)
(-0.415142912512634077 -0.247684935756214059 -0.441197851167305477)
(-0.119735619648065644 -0.445354545057371876 -0.423989050448339788)
(-0.11070593952845198 -0.403690659855599765 -0.189570486098532581)
(-0.164108836679122294 0.276251050739716009 1.11268018099564792)
(-0.00596990007966481662 0.375935273751877685 0.505311808524160133)
(-0.338819990944020544 0.234181330106515595 0.20317354605351412)
(-0.527265946415755082 -0.0239724185890611806 0.090420169556874444)
(-0.524552379809296032 -0.0827612607030459441 0.00178440517711310476)
(-0.445903771835814533 -0.105302240160031813 -0.0812664550803823132)
(-0.315871713858041081 -0.119823331281704415 -0.0967666228540156742)
(-0.267942195689202689 -0.0989681661379792077 -0.0211197734722741517)
(-0.464715308602750621 -0.115765256509385392 0.106635641637667103)
(-0.654672066490580629 -0.148795287015402206 0.0675915908552531669)
(-0.74952136363826527 -0.171231216735302338 -0.088264090279803184)
(-0.83307700044383759 -0.181021295220050366 -0.215849433129244456)
(-0.860502432111212578 -0.245420486886115952 -0.33882304480182901)
(-0.649100802022522738 -0.44150899104833613 -0.426770139580418373)
(-0.219705432372488296 -0.665232431897898158 -0.415618422117898789)
(-0.157835176562589552 -0.351225874728383403 -0.0872403095016373031)
(-0.171715890157874862 0.259985315381489057 1.05636042490627236)
(0.218054524791039955 0.388751738635643829 0.506700122980137335)
(-0.144908935770383412 0.292719325140205822 0.195433792585422428)
(-0.422543366701807865 0.00468674154992359052 0.0992092965613331768)
(-0.501529227816024825 -0.0978257593159168604 0.00960715095506694747)
(-0.487099192640815915 -0.182383533497675221 -0.0707660277995522946)
(-0.400779051085002558 -0.220143276210346156 -0.126674955446111626)
(-0.273942895535956243 -0.162274361539595624 -0.0857709687270677423)
(-0.151946088992933992 -0.0127344068505782018 0.206824648001396438)
(-0.410186073279944052 -0.0256309821828955009 0.43039446071625842)
(-0.717129333510243439 -0.0914347602940720344 0.30007106569779507)
(-0.896803515633687542 -0.161282476008602044 0.0430450627635876396)
(-0.933204481018414578 -0.355282544508382148 -0.1589561320218634)
(-0.691044264135599384 -0.689196634070410208 -0.349147979229230576)
(-0.399689024129770143 -0.944078731320745712 -0.427785005000352492)
(-0.28800763680431235 -0.45570999473333762 -0.157175737402961646)
(-0.185814670428718381 0.208674783295691474 0.967106504066411521)
(0.216436842496354587 0.290444987083100958 0.407392882455618499)
(0.00223675931438457876 0.367387313377761815 0.147634676410732579)
(-0.292991701461415066 0.0411045348325337692 0.0612506300462845044)
(-0.40415753454430553 -0.0877570033859041143 0.043516569391173654)
(-0.432631209217214541 -0.188572181091368418 0.00129914939961507138)
(-0.443132328337123682 -0.257818964754351454 -0.105250391924778974)
(-0.397745284525161724 -0.260318465968944035 -0.130722776035243737)
(-0.295699682520990492 -0.101102726734432644 0.083757453378147384)
(-0.256680836138856838 0.0843995354841482331 0.529237526746224929)
(-0.444573254910643145 0.0621628146788799213 0.642855354166874893)
(-0.656792240396965377 0.00504438450196702248 0.451053161156212967)
(-0.70516954528767839 -0.261950876626590001 0.110995422473252794)
(-0.581554571441305512 -0.75578445106466996 -0.210089387603194261)
(-0.511567160727984804 -1.10082718063268503 -0.414999019016683846)
(-0.431580409450005031 -0.700822425820284978 -0.302220663521164445)
(-0.189380450603026274 0.177079543572210757 0.862434952407736377)
(0.205845362367169993 0.203760957049769098 0.396672779886404092)
(0.109739057083886704 0.412852587561595263 0.202352971675878679)
(0.0779126150696050207 0.165619321829672067 0.118353608432359023)
(-0.224111197151407565 -0.072553647907574334 0.09852903405704172)
(-0.334883960514567425 -0.174706121128434977 0.0729342009698761007)
(-0.377669029225938591 -0.242196854769879788 -0.0425048176963363777)
(-0.404651651685875025 -0.280342597220973933 -0.155152524072407871)
(-0.342863147459422479 -0.209764912112633789 -0.0709703269224396804)
(-0.334601801764734363 -0.0150994686585854757 0.401931626538879483)
(-0.386246988006299863 0.059220341795576753 0.612446871183943475)
(-0.534691029739137291 0.116265531352438653 0.571636062572983161)
(-0.565813962362923695 -0.170738645059080596 0.336540786225407784)
(-0.490232388935283037 -0.701996750493139587 -0.00277190695443859519)
(-0.591396832348371371 -1.14378170881893126 -0.39328044775642218)
(-0.518128297970898766 -0.787451968598245844 -0.416922914086210961)
(-0.0154218638336537685 0.00530793422984732893 -0.0275525667680420819)
(-0.0275814636617674747 0.000742772537831576851 -0.0323417257027773311)
(-0.0270225026439440581 -0.00190202597044886656 -0.0364615389772883006)
(-0.0189345651640595303 -0.00324639934572493183 -0.0423968118295268634)
(-0.0118484958691370823 -0.0029797488161034673 -0.050045768874691636)
(-0.0100787504377768573 -0.00218502051009690805 -0.0594428753847231414)
(-0.00861563724465065107 -0.00199508030579315489 -0.0708575095465942273)
(-0.00566259916801626489 -0.00252097235557692534 -0.0846331956006021041)
(0.000372864991071173574 -0.0034201326647716611 -0.100867553990953318)
(0.0105128668504753196 -0.00458975577299653575 -0.120325246717562326)
(0.0247289382548538175 -0.00589900801392141075 -0.143211093655638833)
(0.0433213638753484481 -0.00780412489636749841 -0.171104099269519833)
(0.0664399960825729635 -0.00940079798418303435 -0.20516948649864919)
(0.0883563046877694769 -0.0139950645711704284 -0.249505021835795787)
(0.128097981177614006 -0.0248928146379919953 -0.301135260979232655)
(0.155495134513425837 0.00195280877737756 -0.34015089894019529)
(-0.0124413515059197625 0.0135324732694882578 -0.0273932287007868334)
(-0.021400676610789586 0.000929758093354912055 -0.0308246583423798272)
(-0.020215054748087706 -0.00400425663144765142 -0.0350694578508621915)
(-0.0200307261165215515 -0.00494994981627415107 -0.0412593517535941659)
(-0.0209740437832248994 -0.00386702473360207594 -0.0494143506174866756)
(-0.0214874861438206395 -0.00313787352817374498 -0.0594454698723304101)
(-0.020154042470424776 -0.00432650808619409327 -0.0713886397469468553)
(-0.0159829166940234219 -0.00718564963191450131 -0.0853654125522760598)
(-0.00804817649917067245 -0.0110150637728476698 -0.101564284670507987)
(0.00425578703031235031 -0.015288584848147985 -0.120430834893444125)
(0.0205916283769471964 -0.0198537002014185955 -0.14257258259115535)
(0.042269546211264962 -0.0257098730070855347 -0.169150992557711821)
(0.0649878998731524687 -0.0315685008182634771 -0.200966110500936934)
(0.0960136580194390493 -0.0418304820622997023 -0.242926292572163416)
(0.120623507251786555 -0.0674566025037435513 -0.281928990812989611)
(0.144640882836822582 0.00710692122857201243 -0.357776976305695604)
(-0.00832474356452989582 0.0192981947850899178 -0.025722152764654508)
(-0.0149037212086309788 0.00162390094067202222 -0.030028285764982704)
(-0.0162988703794745456 -0.00442939873472437094 -0.0348785450392073218)
(-0.0182620390480624853 -0.00494541144101845204 -0.0414559950182963946)
(-0.0208617414992389935 -0.00427206783373503679 -0.0499603882137529612)
(-0.0228386001215271708 -0.0050034498063620857 -0.0603147258564138075)
(-0.0225365269277982873 -0.00803635521331445835 -0.0725098296445264995)
(-0.0188799343517273427 -0.0131026381713132117 -0.0866226075108270654)
(-0.0110329576032457549 -0.0196563980685351969 -0.102851071812049902)
(0.00139267748620768711 -0.027003058303364566 -0.121631193945140076)
(0.0175445305465199083 -0.0346761010241180279 -0.143772116447851123)
(0.0389588942203961189 -0.044100536593778987 -0.170446274320398578)
(0.05966682859521108 -0.0546076443295928152 -0.202425261353556846)
(0.0921875619725976009 -0.0708140772539426616 -0.244399690074738024)
(0.113864419720025728 -0.107500729355428301 -0.283950178361554062)
(0.131526602929836256 0.00695811541119295898 -0.354021707319196022)
(-0.0049221106644095616 0.0227883879765971784 -0.0238225220503057097)
(-0.00919277833852848343 0.00218103855178961026 -0.0295115336726160075)
(-0.0124348480529000594 -0.00423283882668951637 -0.0351362357629131997)
(-0.0168530133034651072 -0.0044899162490035999 -0.0422102970174998773)
(-0.0218013485577537927 -0.00405121406636590586 -0.0511000462463024607)
(-0.0256663413763084242 -0.00589879889567800596 -0.06180146402607814)
(-0.0266057973536035289 -0.0109048086412499769 -0.0742748961784677891)
(-0.0236036443910170868 -0.0186321802448050494 -0.0885266025129734652)
(-0.0159515058664459163 -0.0279831336685905201 -0.104707969665586806)
(-0.00340960587394104151 -0.0385328971934811651 -0.123388479387064473)
(0.0125365743779383282 -0.0491639717971985094 -0.14544349969199119)
(0.0334156645994740237 -0.0618282035267016181 -0.172210087434191111)
(0.0515492714973863619 -0.0765920161737877747 -0.204214846324833832)
(0.0859510402284868746 -0.10036625626744064 -0.245943217961808513)
(0.100420318338928824 -0.144669478852953476 -0.284182616398115095)
(0.118749988485716801 0.000404764850278254221 -0.352415168470054385)
(-0.00180876611012510354 0.0241096022564473399 -0.0219528305928942506)
(-0.0030995703397370504 0.00261969006370484613 -0.0291251840933189864)
(-0.00783616758592383528 -0.00289763130441674302 -0.0354889799469792697)
(-0.0148639298392182744 -0.00253385491914980519 -0.0431476224456758609)
(-0.0223941471802920518 -0.00242292445328096302 -0.0525202291956326714)
(-0.0284115791215231797 -0.00571517714820861302 -0.0636180645902894443)
(-0.0308549035861743481 -0.0134268636992120795 -0.0763577167143194985)
(-0.028537592160064941 -0.0244735104433744174 -0.0906512257383621928)
(-0.0211604724924637777 -0.0370808284246484376 -0.106753195695147463)
(-0.00879898614101305016 -0.0503764855080345159 -0.125348926412844841)
(0.00664014050789547144 -0.0637940188201178426 -0.147407876211247707)
(0.0267527719531439681 -0.0792535733580978369 -0.174140375013257576)
(0.0419052737690417121 -0.0981861760356665808 -0.206170647862483208)
(0.0771259025967975659 -0.1291472722869067 -0.248045493676357559)
(0.0764408315932619542 -0.178817024365928057 -0.287706555835270106)
(0.10163311938460956 -0.0131290500506535054 -0.352977743715983727)
(0.00184236351177735147 0.0231563129043054691 -0.0204162754243996797)
(0.00373457364028918944 0.00411301828213223204 -0.0281769972476988741)
(-0.00262412554173200967 0.000157273297348142077 -0.034987878236663876)
(-0.0126587247075624354 0.000786943151168669613 -0.0432824099441904558)
(-0.0230058741554875733 5.19168921944528072e-06 -0.0533289376594382747)
(-0.0313306435534653413 -0.00524154532979110264 -0.0650499051371524473)
(-0.0354092060937120229 -0.0160804182199861916 -0.0782838551167007041)
(-0.0339371718859480392 -0.0305771770922001543 -0.092820203490854597)
(-0.0268920839032220811 -0.0463852384780335941 -0.109117345845900479)
(-0.014853341169927179 -0.0622623938689448667 -0.127773024061399537)
(0.000278514381123205583 -0.0781320135494647933 -0.149683967910670207)
(0.0202648373317991654 -0.0961609713910962088 -0.175973815559065244)
(0.0323461052243941283 -0.118663066441486817 -0.208414081452743788)
(0.0627158260473298368 -0.154573614975138218 -0.251780236536761626)
(0.0388278514836686087 -0.207671348190176241 -0.298140003590715907)
(0.0793985138398917711 -0.0356759261319400736 -0.355989310728195896)
(0.00644174020596252877 0.0228884340642614356 -0.0191248610662261079)
(0.0105467710502952419 0.00946564989904431602 -0.0262711105352512291)
(0.00162861072849211988 0.00711136236406112714 -0.0332229493022421427)
(-0.011654022762287072 0.00668772281414527561 -0.0422319728137103972)
(-0.0246065864141490342 0.00353399847990864234 -0.0530980467740792411)
(-0.0352801693215704718 -0.00434285467554026625 -0.0658041042165570383)
(-0.0409685225943173942 -0.0192794197847948254 -0.0800177617517758705)
(-0.0401396932125707567 -0.0376387096859378337 -0.095352060660559318)
(-0.0331846635273543647 -0.0566213746167208015 -0.112096733435697454)
(-0.0206790635802066303 -0.0752096497121548385 -0.130740815918674314)
(-0.00442919896224550167 -0.0932825933702621096 -0.152181222095123747)
(0.0157587729703740666 -0.11296624384499733 -0.177938649965179829)
(0.0233631958485127841 -0.136160167672205873 -0.212109709241886796)
(0.0377243001847025264 -0.172167617716204979 -0.259325301875912351)
(-0.0115423233326976751 -0.230761992240282487 -0.317475622471159735)
(0.0462921939581769498 -0.0674858067649025811 -0.357745112986213865)
(0.0116505496176818775 0.0215884199111932018 -0.0177256980835590501)
(0.0157107062829721714 0.0166808249656961866 -0.0236999717412091256)
(0.00222786138245152643 0.0183659875998503815 -0.030456571916974387)
(-0.0135532513305742612 0.0170361433338739321 -0.0404705086022333418)
(-0.027472195814926003 0.0106060514844509412 -0.0520640334551444664)
(-0.0405873036797016612 -0.00159311270881936371 -0.0660385639765595639)
(-0.0475472161811565791 -0.0209739655032047216 -0.0815029511794073958)
(-0.0466923227855028378 -0.0447077874730203648 -0.097796416191202537)
(-0.0387961611354475655 -0.068042245595115361 -0.115245053118024646)
(-0.0248016182937565444 -0.0896928619886969425 -0.134090745920179888)
(-0.00710957088753267404 -0.10984087279301924 -0.155717777133174806)
(0.0107046603388354158 -0.128863673749570973 -0.182630702585979937)
(0.0107508823268412761 -0.147438441270732218 -0.220181095106654928)
(-0.00198439754287587852 -0.179181830829104299 -0.273137495506680261)
(-0.066087357822416648 -0.250189768787374534 -0.342831943880986867)
(0.00180735225654895886 -0.121731005837830197 -0.350229120962637974)
(0.0123216087026154324 -0.00664166657992719747 -0.0115587802099113169)
(0.0134298256426392641 -0.00348916792493057099 -0.0182273035714482744)
(-0.00398349594471888481 0.00466573959160940591 -0.0236387893129207591)
(-0.0200137332493144811 0.00931528511785147985 -0.0334527277425281516)
(-0.0348233356745097367 0.0111609988463857272 -0.0483619670447481484)
(-0.0493431069052863297 0.00382900887879585473 -0.0648276906189677593)
(-0.0578993563071452111 -0.0206399632125961151 -0.0811995501904205774)
(-0.0583269125626279111 -0.047875484586011291 -0.0993461296340800992)
(-0.0504033621434263474 -0.074455508707788734 -0.119177693374478602)
(-0.0368759320585129308 -0.100215503181841151 -0.141178728100894268)
(-0.0205811818487289765 -0.12348724605955988 -0.165695490859990358)
(-0.00926240157724649536 -0.141083979628880252 -0.19616658763441161)
(-0.0179948475895624141 -0.151334082238976181 -0.23698404186086125)
(-0.0565403006674143685 -0.181535073228162702 -0.293725933893454028)
(-0.114339590260638696 -0.275971934500057137 -0.361426390329806613)
(-0.0399733181285251982 -0.20615965647261339 -0.343606026073213056)
(-0.0112060246708743597 0.00395802517067592868 0.10554675816313247)
(-0.0421134020302673939 0.018709749329944167 0.0567779566164841321)
(-0.0888305462997844159 0.019572665512320328 0.0314497244336509954)
(-0.103588135602828257 0.0173124220704029552 -0.000350131901209112164)
(-0.108450702311145564 0.00873010244024429935 -0.0339905437027360133)
(-0.100714085119859534 -0.00394766458648758856 -0.0594375159405327522)
(-0.105639376350250322 -0.023531233208209431 -0.0835031465104447979)
(-0.110953598030655284 -0.0463697546450856299 -0.10814058709843842)
(-0.108440871414485829 -0.0754876812840539063 -0.134375289383104696)
(-0.095738392024351221 -0.10564752292066093 -0.162685937525643559)
(-0.0794946586165111296 -0.132688340515759284 -0.19130854392988178)
(-0.0719099995699575556 -0.149746627503731189 -0.224364166259133829)
(-0.086627410101534047 -0.1552084213189516 -0.264695565954114476)
(-0.130118632872487261 -0.194414494815972727 -0.316987782435360244)
(-0.145464746249194532 -0.316477031291407362 -0.368904501597888068)
(-0.074409427229715136 -0.304333456897086407 -0.333640835912911216)
(-0.195594754962144651 0.128539171075070957 0.923051064124385978)
(-0.415699659769342866 0.125011636537129545 0.231033700697597599)
(-0.612724728525188 0.0839338235406626443 0.0273123328412530619)
(-0.619089856610617995 0.0561923166445949251 -0.0293239834015778696)