/*--------------------------------*- C++ -*----------------------------------*\
| =========                 |                                                 |
| \\      /  F ield         | OpenFOAM: The Open Source CFD Toolbox           |
|  \\    /   O peration     | Version:  2206                                  |
|   \\  /    A nd           | Website:  www.openfoam.com                      |
|    \\/     M anipulation  |                                                 |
\*---------------------------------------------------------------------------*/
FoamFile
{
    version     2.0;
    format      ascii;
    arch        "LSB;label=32;scalar=64";
    class       volVectorField;
    location    "0.420000000000000151";
    object      U;
}
// * * * * * * * * * * * * * * * * * * * * * * * * * * * * * * * * * * * * * //

dimensions      [0 1 -1 0 0 0 0];

internalField   nonuniform List<vector> 
29184
(
(0.0228728203983763825 -0.00918900958896073927 -0.0244663046939035574)
(0.0781405000160298041 -0.0146757961687779982 -0.0275679888541810643)
(0.141371333123224557 -0.0158878214855882154 -0.030036934626064913)
(0.216302137558652768 -0.015963282883492913 -0.0342646977006296483)
(0.278925860834938311 -0.0145450811976546562 -0.0405260221127314163)
(0.33566443356104736 -0.0130394207784701455 -0.049588407919184542)
(0.389091882927291688 -0.0119208266379012065 -0.0619474718388914394)
(0.438816642261057821 -0.0110950486574952663 -0.0796756962393742746)
(0.484413025359599902 -0.00997901731579733421 -0.101979675522703386)
(0.523861577819940805 -0.00881549888519463261 -0.135018939799337906)
(0.555380487625706798 -0.00678757000687854432 -0.173662031116303184)
(0.575955850972679206 -0.00551946520229363094 -0.236888014838897265)
(0.586306988743689139 -0.00298515397868102245 -0.304545396953166514)
(0.573916875758994638 -0.0036476469569402285 -0.437162695174507954)
(0.55632181233366973 -0.00329206811119317488 -0.574494343567009014)
(0.274038978265574995 0.00585628487932682643 -1.07332568801477213)
(0.0247361899641213995 -0.0304835153992030379 -0.0246121943566472365)
(0.0811835122143240995 -0.0447756513785992349 -0.0269856367960643641)
(0.145014251450486659 -0.045651202382229368 -0.0294409330508835221)
(0.207000220860771383 -0.04379082790452897 -0.0334273618131059255)
(0.26558185281755331 -0.0403102749971491758 -0.0395843077014189706)
(0.321755899556626646 -0.0372603390554568994 -0.0484887465768191125)
(0.375483486667356703 -0.0349550897245419004 -0.0609047811816424006)
(0.42601829294202731 -0.0328633059236118352 -0.077831283765424128)
(0.472581988074871617 -0.0299914657358465661 -0.100603098367336108)
(0.513784976415222361 -0.0265497651836633687 -0.131296075770241716)
(0.548096878879453686 -0.0215954273376057805 -0.172392338686076868)
(0.572723447954620379 -0.0174774979056038469 -0.229417937327172111)
(0.58592383187527064 -0.0120557971187697701 -0.305402903544008175)
(0.575200469522299196 -0.0111718594103167763 -0.426960362261828041)
(0.556808733989304305 -0.0172676677944421618 -0.576964057712079481)
(0.297876839363350354 0.0179240187923173436 -1.09970132541162746)
(0.0267474934437466616 -0.0543623480848026142 -0.0246293373710573631)
(0.0843846820816447352 -0.0727932909645919862 -0.0271569240912156763)
(0.146379673046688197 -0.0732398544168260807 -0.0295614738064934254)
(0.207641290178405519 -0.0699505481737572182 -0.0334039137363908792)
(0.266301817704447996 -0.0658206761511978405 -0.0394161407076207768)
(0.322736479075115212 -0.0620791177150631368 -0.048195217441812821)
(0.376866360155844293 -0.0587321452898334137 -0.0604596725149890782)
(0.428008945217559611 -0.0552170607881749889 -0.0772044973920596039)
(0.475222398011486358 -0.0507011458165907702 -0.0997194728752632681)
(0.517063692426004362 -0.0449295315008059332 -0.130107154498103589)
(0.551660667625808898 -0.0376258376626732935 -0.170799542521543807)
(0.57642400185984799 -0.0299780555939496082 -0.227356168330946101)
(0.588240280407182126 -0.0223573074170624261 -0.302908820087217423)
(0.57634338174864308 -0.0167612655707122457 -0.422692222012776564)
(0.55227269455019401 -0.0330515927338599913 -0.573047618264879488)
(0.278430143467046087 0.0332148067927598434 -1.0794847248084416)
(0.0281550937888906741 -0.079286149458019553 -0.0248950344459983632)
(0.0866860494244856283 -0.100145865547230511 -0.0274022393865233603)
(0.147619404159236495 -0.100836861790497306 -0.0296368220210278012)
(0.20805137783915767 -0.0967055636879819436 -0.0332305494020995462)
(0.26661825874579026 -0.0917724259046506924 -0.0390193969081941844)
(0.323321188698618867 -0.0870794583638346692 -0.0476209095647730993)
(0.377904612756547797 -0.0825725578634975699 -0.0597113862576819018)
(0.429707045744320171 -0.0777042089713449874 -0.0762343007419782615)
(0.477704806375854052 -0.0715227833260967671 -0.0984598503095880651)
(0.520350042329793094 -0.0634571592701567988 -0.128449171337882806)
(0.555576806960431879 -0.0533730092437820353 -0.168636290552299811)
(0.58048146849738036 -0.0419171908576752919 -0.224491309822401924)
(0.591222894392966603 -0.0307379528938939543 -0.299471955611444351)
(0.576349823948379192 -0.0206880832899997633 -0.417503394118056592)
(0.548281316556627152 -0.0388743676724692469 -0.566464036263141124)
(0.266392118184461846 0.0453320869152890604 -1.05817685423617691)
(0.0290646294166040167 -0.105287694579071764 -0.0253461923552168282)
(0.0882903976898615911 -0.127542757771819032 -0.0277547677651585334)
(0.148690542669530801 -0.128192904356990572 -0.0296900020212481561)
(0.208690550627490312 -0.123297779709874086 -0.032911607364720874)
(0.267364910100320652 -0.11758213832894554 -0.0384022391824303394)
(0.324477654662519988 -0.112057648955502812 -0.046793260794068807)
(0.379640477445941926 -0.106547114370714555 -0.0586918756767590769)
(0.43223374197874409 -0.100435653505881461 -0.074980011410490266)
(0.481199948146364576 -0.0926082165618575121 -0.0968900005160616279)
(0.524897072295351097 -0.0822741561149623046 -0.126407910989588923)
(0.561109974494195307 -0.0692316533997009015 -0.165908096010616568)
(0.586339288046354046 -0.0537133771131178411 -0.22081200220171443)
(0.5960800449716398 -0.0380235713031258776 -0.294825889132629304)
(0.577560955120530184 -0.023074730056287119 -0.41080580756098739)
(0.544072866919703801 -0.0402494175427372466 -0.557619115784351971)
(0.256032031045017039 0.0579113294750520577 -1.03554687866701567)
(0.0295931200427374912 -0.132086560077781856 -0.0258182118628638678)
(0.0893033543456658169 -0.154890349816073414 -0.0280470752311742025)
(0.149560246010295356 -0.155404144540291556 -0.0295547571946006074)
(0.209495335671375738 -0.149953459801226013 -0.0323138292707108032)
(0.268491312342615529 -0.143516664420302337 -0.0374965738748891803)
(0.32614614330127667 -0.137153601726569541 -0.0457092551297938257)
(0.381990757989840946 -0.130647827760674379 -0.0574552708613940907)
(0.435472682653833598 -0.123340748640454592 -0.073553653072993011)
(0.485576432099785127 -0.113947981915707278 -0.0951636946361818642)
(0.530676322500139852 -0.101471542877836024 -0.124100144724893113)
(0.568402302517481584 -0.0854036754168573942 -0.162633634529402993)
(0.594433599672961943 -0.0653966388251441127 -0.216193609594147129)
(0.603279518912850699 -0.0440746193932456953 -0.288798582881236998)
(0.580953246971252502 -0.0230605810924104926 -0.402467569872617226)
(0.5396449995856889 -0.0364211148979256688 -0.546638253707895649)
(0.248848940686701464 0.0729209785964383128 -1.01003282894924595)
(0.0298610090270546337 -0.15934690621827316 -0.0260337302081628912)
(0.0899198206956560164 -0.182261308740005151 -0.027952241840211018)
(0.150381190131267328 -0.182594118202923206 -0.0289747437679086887)
(0.2106221970880649 -0.176683507015476138 -0.0313091731731074546)
(0.270151881924411419 -0.169469031415082572 -0.0362973836265296917)
(0.328432838700278507 -0.162180660376549518 -0.0444459048180700575)
(0.38499553432777367 -0.154687178815730936 -0.0561328226854333756)
(0.439431920213117833 -0.146325991630185892 -0.0721106245041218952)
(0.490944012002383523 -0.135650086941778214 -0.0933604077131614113)
(0.538059542127860335 -0.121366235719753648 -0.121384715325816545)
(0.578094686482406583 -0.102317218956815545 -0.158416607447796398)
(0.605593546716292286 -0.0772182895436329259 -0.21011411423496576)
(0.613804280226072141 -0.0489432784951335798 -0.28092910856713732)
(0.587587702248491994 -0.0200370291786098192 -0.392062922413078885)
(0.53686458194530573 -0.0267862712352626778 -0.533618917893272871)
(0.242169048331827785 0.0913081939122999814 -0.979047565313189483)
(0.0301792473365088965 -0.186748697839638628 -0.0256541302221085787)
(0.0905772258684368475 -0.209594488828471176 -0.0270924896111445664)
(0.151538790877002866 -0.209747790454724442 -0.0277350982645170156)
(0.212360187248051252 -0.203382201055049006 -0.0298753680095853076)
(0.272525075944322903 -0.195230600427313605 -0.0349132822166208154)
(0.331402644912851929 -0.186911040352698316 -0.0431750076660129822)
(0.388638669050791141 -0.178517141150718484 -0.0549074575186853653)
(0.444146445919620603 -0.169463331374811066 -0.0707314834174103263)
(0.497597544679875159 -0.1581016511933378 -0.0912489241338892837)
(0.547603679599049986 -0.142545612094010676 -0.117605655389700983)
(0.590811479051890687 -0.120504891683888588 -0.152355179673704183)
(0.62050618288731374 -0.0894340618416759048 -0.201725321649160932)
(0.628893080883232924 -0.0524831253603669154 -0.270561628184882108)
(0.598716073285430639 -0.0133132732060945533 -0.37937118906064915)
(0.538137073372427222 -0.0111050255515225665 -0.518188204922346074)
(0.238295320460620991 0.11537280374977596 -0.944885378124561193)
(0.0310831587358087712 -0.21418558722104003 -0.0243527910092962013)
(0.091881471706493828 -0.236861348612659339 -0.0251877878805591496)
(0.153497062678615237 -0.236766730655660784 -0.0258054654736463683)
(0.214938400000603713 -0.229809701022142182 -0.0281502610383942212)
(0.27563272588212745 -0.220500023938635381 -0.0335631504400900546)
(0.334938150645042731 -0.211159384954485135 -0.0421319321197099819)
(0.392777090790933425 -0.202203097670723642 -0.0539267684736992187)
(0.449655982929242359 -0.193213529213822621 -0.0692520333794307552)
(0.505823833997066985 -0.182062785497312085 -0.0881549595763341937)
(0.559476702092186584 -0.165706054109620332 -0.111760372444053055)
(0.606477108754164163 -0.14042927249481249 -0.143599880873587049)
(0.639576354540176917 -0.102376250385943821 -0.190548165989191387)
(0.649779529649173293 -0.0545644194276639904 -0.25763156785224256)
(0.615527476102505577 -0.002162535280731466 -0.364656979661098224)
(0.544649435509315882 0.0117820612925421155 -0.50080180026924348)
(0.240042204318402175 0.147277989877197341 -0.909154394606948246)
(0.033106451689729019 -0.241812097023107603 -0.0217555650388936567)
(0.0943251434724663579 -0.264034876370068561 -0.02213784227182106)
(0.156460649275671548 -0.263490867700758413 -0.0234169057713775955)
(0.218216112127371575 -0.255744823837563529 -0.0263935943229314102)
(0.279110795826332914 -0.245164938588092879 -0.0325038084064449007)
(0.33858898975375884 -0.235146809244079658 -0.0415237894239006006)
(0.39703416786093243 -0.226411622687339525 -0.0531730045388604106)
(0.455773012108687203 -0.218717264834005221 -0.0671783315401682374)
(0.515320613357192703 -0.208701097392160084 -0.0832322130161731455)
(0.572799407643731717 -0.191660522387546634 -0.103331741025827401)
(0.624480617685085559 -0.16280684890789715 -0.132490182983903582)
(0.663873673577592527 -0.11671476392003495 -0.177517750355101145)
(0.678655636300453335 -0.0553029709142965412 -0.243384549734905142)
(0.64047546537711797 0.0139176273608277619 -0.349087287418670678)
(0.557232035601081366 0.0431044621055717142 -0.4835460822107851)
(0.244060623881650757 0.187127464627483309 -0.87758291720998971)
(0.0364164486778294633 -0.269715467419923582 -0.0176117087006683951)
(0.0978619130068203308 -0.290847086467429572 -0.0181829313414597175)
(0.159987830439106027 -0.289592069794283535 -0.0210582980837525947)
(0.221409219589477818 -0.281010097162625483 -0.024870540283606659)
(0.282045826967072366 -0.269382411875895234 -0.0319234226028179344)
(0.341446015358943533 -0.25956968407396902 -0.0414223347304395681)
(0.400587743193281831 -0.252382713869145403 -0.052380577698541049)
(0.461593650153565793 -0.24752415944232653 -0.0638296525264814424)
(0.524609777402382349 -0.23911027775137414 -0.0761298885675496528)
(0.585975095480599228 -0.221137371703212793 -0.0931723659667332699)
(0.645249771973645969 -0.188493354166807875 -0.120976967997327142)
(0.69635341049610322 -0.132350742796333909 -0.164863347263827953)
(0.719179775583125735 -0.0526924250722324988 -0.22994449040939885)
(0.676178924309962848 0.036616533801289125 -0.334854738920178752)
(0.575648359781687824 0.0837205798657003619 -0.467895455921632786)
(0.24870379799680703 0.23738897431284034 -0.846995215012591007)
(0.0405230376351321808 -0.297723360489711264 -0.0113234451730796631)
(0.101625083256839596 -0.316648852958012539 -0.0143236574466348108)
(0.162740762823510493 -0.31439994196584331 -0.0193112691347759151)
(0.222942235663891236 -0.305303032859941093 -0.0236767584857688826)
(0.282902279832815962 -0.29336678776658498 -0.0318295768462450723)
(0.342014728616562791 -0.285160743870946365 -0.0416488700248800262)
(0.401805381805279471 -0.281048098489401765 -0.0509787992805031745)
(0.464936838978226796 -0.280181409650757718 -0.0585960743729411621)
(0.531004972083240934 -0.272910959324986213 -0.0674942352379574728)
(0.597449718800441398 -0.254077003470062235 -0.0832333078437113849)
(0.669327910961762362 -0.218570865132981379 -0.110928354323539979)
(0.737409830782545961 -0.151297884361534546 -0.153116721742041578)
(0.769414184797729717 -0.0456341899088456501 -0.218974809212624605)
(0.721326107942620198 0.0698125318848326071 -0.324016162976765609)
(0.601265226977168776 0.136293492062183941 -0.4545006836684643)
(0.256094414996951791 0.300708034399813251 -0.815425256287497735)
(0.0442635321840353993 -0.325974652731808423 -0.00605568065867624367)
(0.104036526931563011 -0.340973766637501785 -0.0121112673035052038)
(0.162500116778056924 -0.337355603980602825 -0.0183911523246352189)
(0.220470213977804197 -0.328655911338217477 -0.0225801894627436946)
(0.279545407426664005 -0.317709308549485703 -0.0319259034880923498)
(0.338099946899655057 -0.312683484271387424 -0.0415849113680036922)
(0.397885678956656164 -0.312836151177830868 -0.0479413542088510947)
(0.462027583787696039 -0.316242217542256787 -0.0510370875600645452)
(0.530238681793453903 -0.308889930295614734 -0.0583795376609866842)
(0.602921020970196953 -0.290909549323905225 -0.074480612273766289)
(0.687978729748814799 -0.258496170924623125 -0.101155510016371131)
(0.771883651663122672 -0.187768765367940266 -0.136477925641227349)
(0.810710162689856739 -0.0549599339192511777 -0.203366479379535781)
(0.756152250361432854 0.107603414130012925 -0.317418118027006868)
(0.622401657557139831 0.205226302839786851 -0.446174674075315914)
(0.265400539652097922 0.375785118376730232 -0.785860985591415484)
(0.0459476908673523074 -0.355239865832060409 -0.00391204492482934239)
(0.103135647279536988 -0.364485332666404316 -0.0130974552049029618)
(0.156355229865416917 -0.359163575904821342 -0.0177833983297818882)
(0.211035037321359781 -0.352620990276850621 -0.021093762602838087)
(0.269234499636002933 -0.344270538650301827 -0.0314290877718557057)
(0.326464299175439121 -0.3436283086802841 -0.039877750218681049)
(0.384274523823071867 -0.348764508790549987 -0.0416815016107772024)
(0.447138217550077988 -0.356162559777472909 -0.0407480903274226522)
(0.515051531541737773 -0.347528048757012209 -0.0488702643333086759)
(0.589460255248722587 -0.332404020743903683 -0.0643814363696278702)
(0.675022526458817551 -0.307009802531753195 -0.0865084532235937537)
(0.764600247052705462 -0.231557771821241071 -0.108058994344336232)
(0.806268184545695599 -0.0832887024740676524 -0.163719259189252592)
(0.742596237133636095 0.114675742335927394 -0.300518274644304695)
(0.611669512999221565 0.263370021795426013 -0.446284909210280356)
(0.266059815810065714 0.460414962887319701 -0.763341135153364325)
(0.0433128780586598677 -0.385134525441698239 -0.00744793648817031889)
(0.0965494602070051111 -0.388271815872913317 -0.017644526390586078)
(0.140826616415288708 -0.381543108544527498 -0.0163484663371312386)
(0.191147234270882066 -0.379492824489609082 -0.0184415579754550023)
(0.248250253449190689 -0.374960708728894254 -0.0288972227189692454)
(0.302348482151575393 -0.378460081987737562 -0.0344912965952157979)
(0.354598421789626028 -0.388181001523368208 -0.0303708292321034877)
(0.413392535802548255 -0.396694091627887768 -0.026702376765631114)
(0.477094468793000714 -0.383132209809474933 -0.035414905104959829)
(0.546846988152213109 -0.364739857568343984 -0.0502665079450268573)
(0.611066976974201426 -0.334007112068504697 -0.0649147299677698131)
(0.680720933396717243 -0.237088055597077574 -0.0659040991135990684)
(0.654430585467349668 0.0145658552514977835 -0.113312147851162337)
(0.552199157463848733 0.219101733013368882 -0.288194348346499485)
(0.538566429198230612 0.319985102143973632 -0.456042641650795555)
(0.257009066135315545 0.533150448796957388 -0.747393292806129539)
(0.0332961080569556117 -0.410967352180658385 -0.0204246661393358148)
(0.081044719296309492 -0.41022964585290711 -0.0246032356396156428)
(0.111937134763164289 -0.40349005940940047 -0.0126977592767585201)
(0.156586915096101703 -0.408024241794896381 -0.0138926474232529858)
(0.211316742717661488 -0.40741502103004873 -0.0215186028909596025)
(0.260120270883539728 -0.412356018583028838 -0.0232137426332264633)
(0.303503381275604889 -0.423795333496180482 -0.0116810250392422755)
(0.354860476928798629 -0.422262997939590157 -0.00436276343598783652)
(0.401768871869648825 -0.3986673882519155 -0.00929687825652888641)
(0.446661221364996974 -0.35585275209923678 -0.0243021049540739879)
(0.430492696106136996 -0.323748278224215646 -0.0423644850739580622)
(0.423502634275978451 -0.179755483532273275 -0.117841066288408819)
(0.409506320312770178 0.129026328479261487 -0.111934418728898505)
(0.202851857520357504 0.313269764115284843 -0.261515302468558364)
(0.42373203362504952 0.353874796369735956 -0.437661936907510762)
(0.229885142218714034 0.588632371525541154 -0.725156858174799135)
(0.0223663788738244704 -0.00922814868129140722 -0.0237024096520252955)
(0.0765350730467213858 -0.014691383808627374 -0.0265978939222804092)
(0.138586371537347153 -0.0158238793648297592 -0.0289950688881585004)
(0.211665236377680532 -0.0157805456346574551 -0.0331079327624939287)
(0.271749231556294046 -0.0142895474565677416 -0.0391819122173248796)
(0.325552088733109979 -0.0127550697425116641 -0.0478632050592087549)
(0.375236007018594941 -0.0116184442688740848 -0.0598233303057961394)
(0.420232302228799426 -0.010689201168257936 -0.0763303752074307729)
(0.459464699301601998 -0.00948260999209906037 -0.0979348666881959679)
(0.490214497215419598 -0.00803433414556184618 -0.127426219113401934)
(0.510298766509769908 -0.00601621413908749129 -0.165156954753529706)
(0.51613330463832241 -0.00430946217013190164 -0.217429425789882669)
(0.504243506606638747 -0.00196292778913171543 -0.285148794859903576)
(0.468967214457606751 -0.00207943344518050823 -0.373641483101310956)
(0.401653186168959786 -0.00427713502078160262 -0.507917868943040696)
(0.28921927686601212 0.0121358907118769045 -0.595346178217706523)
(0.0242208619583599016 -0.0306128902439485352 -0.0237048040404344469)
(0.07959765183368607 -0.044763200026158842 -0.0259130457257639064)
(0.142091709648917347 -0.0454066642501001413 -0.0283239797951243856)
(0.202377016055825143 -0.0433071965600398401 -0.0322634721565917965)
(0.258818038244673587 -0.0396939160017935749 -0.0382781095078786188)
(0.312290562874052824 -0.0365816855173094133 -0.0468866401075888894)
(0.362558337961265187 -0.0341903447448674153 -0.0587643046798723909)
(0.408650195853363096 -0.0318635104531487801 -0.0748120270079456334)
(0.449344498485515054 -0.028710750810013775 -0.0961724935932014025)
(0.482820394835291156 -0.0246909070008976515 -0.124620940065859609)
(0.506303700381254496 -0.0194591243005104685 -0.162226580453499608)
(0.516707865985585935 -0.0144356221339268388 -0.212749592240875307)
(0.507020964743917224 -0.00860479969191149489 -0.279096018495966491)
(0.47682631587944474 -0.00670049289833148098 -0.371426639769346034)
(0.387898501019131481 -0.0123307894759031225 -0.475267086942207262)
(0.298158419487030035 0.0326301214098358994 -0.650466091945692826)
(0.0262268617940798338 -0.0545572827706452684 -0.0234085541968746882)
(0.0827979833257247999 -0.0727452864978023195 -0.0257810946699837257)
(0.14349695926309794 -0.0728185862114097276 -0.0282280579706443158)
(0.203073927787419867 -0.069207713019849737 -0.0321369237228662577)
(0.259585324368415082 -0.064900071231133033 -0.0381057169727605435)
(0.313328373332434185 -0.0610565114066721065 -0.0466558517091960057)
(0.364035833265485609 -0.0575516451828753522 -0.0584288169108694161)
(0.410778045500061473 -0.0537386922962830582 -0.0742992283162751677)
(0.452178798513542979 -0.0487570660130046685 -0.0954184327774086904)
(0.486304195795731087 -0.0422558039257413809 -0.123546264178317516)
(0.51014548329610232 -0.0341301236182578252 -0.160817021913160996)
(0.520740466608683339 -0.025323573789350403 -0.210910337115300023)
(0.509875514815759434 -0.0160958101100823064 -0.276848857222461442)
(0.478772364524011562 -0.00973203175428526135 -0.368519938842506944)
(0.38418673629568989 -0.0192891769562681635 -0.474170360655619794)
(0.278796462361328601 0.0558620695999174632 -0.63482397738348284)
(0.0276437578760137907 -0.0795573961494617649 -0.0230902442838651703)
(0.0851498243729326421 -0.100073804966794466 -0.025537790337421918)
(0.144822661881969544 -0.100224976928719497 -0.0279902501700615182)
(0.203569695290130998 -0.095659886232174321 -0.0318412919349045434)
(0.259976400965503895 -0.0905149110334362433 -0.037742549145372388)
(0.314006139616456126 -0.0857109686494467726 -0.0462249970219046971)
(0.36521841941804728 -0.0810118310639224015 -0.0578873312035499618)
(0.41269444635821656 -0.075781582270491657 -0.0735512050108685506)
(0.454975289224974266 -0.0689738401181818339 -0.0943549582385053154)
(0.49001579694731856 -0.0599353666194886586 -0.122039481992660875)
(0.514608610946226452 -0.0485689870004746491 -0.158784394519444677)
(0.525518763499611685 -0.0354877966656560323 -0.208255071352891508)
(0.513748266532163322 -0.0218934827467860763 -0.273654478167144166)
(0.480108432524682049 -0.0106859327457527759 -0.364259276758895634)
(0.383541509551846294 -0.0199276980560518235 -0.46995313848731618)
(0.266082238789546788 0.0763719210781368535 -0.623184943198587193)
(0.0285839557383282539 -0.105672756872124463 -0.0226634849370329454)
(0.0868608095883740688 -0.127486409891550856 -0.0253254763811861239)
(0.146036279286678256 -0.127383224840782128 -0.0277465446931600308)
(0.204318804718474301 -0.12190991111825461 -0.0314747770646517239)
(0.260794243401172465 -0.115974223082559003 -0.037276924937155384)
(0.31524782590406053 -0.110370680305450428 -0.0456944191379081988)
(0.367097514415878567 -0.104671815538638913 -0.0572490959505894126)
(0.41546445434569157 -0.0981777087530735781 -0.0726748217149733172)
(0.458861448698925312 -0.0896078088922767912 -0.0930553669553223356)
(0.495149295766384834 -0.0780474247429930046 -0.120111077918852199)
(0.520922112139510007 -0.063247816266492965 -0.156067321753419863)
(0.532365407129880674 -0.0454789675210361469 -0.204670526460814683)
(0.519809754038783267 -0.0266550236279753244 -0.269206925121070417)
(0.483173229501627388 -0.00991802881674073121 -0.358585015278452102)
(0.383172663164565996 -0.016973605004939659 -0.463290872883379501)
(0.256119566411053379 0.0973881188789196273 -0.615899355091523049)
(0.0291532028858874637 -0.13263422627305968 -0.0220563402141254368)
(0.0880366147485608652 -0.154947676326379097 -0.0252299066909243558)
(0.147119937088761532 -0.15439079515995402 -0.0275446572942404065)
(0.20526666531254989 -0.148143008793143238 -0.0310716793872910513)
(0.26199369790493765 -0.141518783984306173 -0.0367774459477735668)
(0.317002664045369031 -0.135188391409214737 -0.0451814531603185188)
(0.369610968435327425 -0.128588753376703196 -0.0566594649153426416)
(0.419014565571280251 -0.120979350502558633 -0.0717946106345247193)
(0.463777263988887134 -0.110794225659017351 -0.0915725955532073338)
(0.501745034242450316 -0.0967979752264662985 -0.117717306249662299)
(0.529262341294267746 -0.0783636780129772365 -0.152569527616814526)
(0.541668061603029605 -0.0552797933498355709 -0.200017423928312038)
(0.528562996515771322 -0.0300625648913947913 -0.263432436787837121)
(0.488346811032997541 -0.00646692310579059619 -0.351486928908191054)
(0.383736175562255311 -0.00944684312191618886 -0.45478953002214384)
(0.246163223374926632 0.119095452479080807 -0.607108279082853031)
(0.0294311834001933365 -0.160135076865822901 -0.0213991599270742378)
(0.0888772951048945881 -0.18253735833743201 -0.0251604683887401877)
(0.148277626105034588 -0.181311023803640198 -0.0273589486512796493)
(0.206621150562616401 -0.174320436538187018 -0.0306869226650531707)
(0.263780537853146979 -0.167081337029064025 -0.0363780114827663217)
(0.319443595996611984 -0.160098293234274547 -0.0448573379620987936)
(0.372890790764768831 -0.152754244561315283 -0.0562602255388000155)
(0.423457625231175583 -0.144300881025515498 -0.0709445811180746816)
(0.469918448038952774 -0.132807640264686166 -0.089794233200426829)
(0.510191977017153131 -0.116561553670599533 -0.1146500778280444)
(0.540198356874580399 -0.0942752394256715504 -0.148086360246162285)
(0.554150957936773492 -0.0650290206336023857 -0.194149406681108666)
(0.540679486696316269 -0.0319868640947616745 -0.256257555046538354)
(0.49660341175631656 9.564727013541309e-05 -0.342858163707415176)
(0.386202695188991252 0.00367841689532133389 -0.444581100724892875)
(0.236934749837867387 0.142690079377601253 -0.595303965506780108)
(0.0296517675112177199 -0.187890447269780242 -0.0208389633500591365)
(0.0898493742268065415 -0.210121533040065311 -0.0249899481357938359)
(0.149968846322844518 -0.208034865424185533 -0.027149367430700979)
(0.208746911582038785 -0.2003444086682383 -0.0304053381324347199)
(0.266426751079683999 -0.19260807619522699 -0.0362343403607872858)
(0.322767124039336772 -0.185087023907266252 -0.0448497169152272182)
(0.377067939604194047 -0.177224794696707016 -0.0560514787446224211)
(0.428937560377776472 -0.168345798744186231 -0.0699189770641079067)
(0.477620873056454287 -0.156021822467504401 -0.0873496273673077112)
(0.521039172255158944 -0.13775475501506379 -0.110542853276183378)
(0.554361474013173039 -0.111273935145028938 -0.142390738436896314)
(0.570496421347844063 -0.0747492755960720845 -0.186993219163719276)
(0.557167423332856737 -0.0322143349730268369 -0.247644173625343467)
(0.509274510589650231 0.0104613714104501588 -0.332670920048000085)
(0.393008535888607902 0.0227871153827596748 -0.432493830279708114)
(0.230273762941008847 0.169173789785233147 -0.58046615970547133)
(0.0302445116836221467 -0.215805376724822723 -0.0203732454346265586)
(0.0915902632640142739 -0.237555401466025662 -0.0246107062499260933)
(0.15268804773174105 -0.234424763311862516 -0.02689209530447274)
(0.21191276717048918 -0.226102020695128608 -0.0303007353721627473)
(0.270050060467752762 -0.218051247895533318 -0.0364270198008779938)
(0.326999200515190658 -0.210160719283537883 -0.0451103348981987048)
(0.382106650706020734 -0.202101598389182374 -0.0557411294042181801)
(0.435527138096605315 -0.193396538306684823 -0.0681522770594243793)
(0.487207098135048144 -0.18080270819009428 -0.0835967706711080311)
(0.534616367141574012 -0.160565171287618935 -0.104931069756901224)
(0.571973952216690118 -0.129343301171314429 -0.135261924013284907)
(0.591300269644302268 -0.0843798717925858394 -0.178482634308604754)
(0.579404853213708493 -0.0304595996018278241 -0.237738359654062953)
(0.527388950528861478 0.0255089220211127607 -0.321284888732153939)
(0.405171951571151434 0.0484860486448390679 -0.418937043416634514)
(0.226838585033404566 0.201177672917772749 -0.563450568324415091)
(0.0316893379792863653 -0.244047880077975371 -0.0198631537757012651)
(0.0945351278958529023 -0.264720689790907793 -0.0239482376465635222)
(0.156536864356569105 -0.260435930410821803 -0.0265524554118328517)
(0.215926784497162128 -0.251633326742194241 -0.0303550132654124213)
(0.274327471260919387 -0.243564451618441341 -0.0368418092794342705)
(0.331735582919212735 -0.235547723296940292 -0.0452736431487291494)
(0.387594623613163325 -0.227753023152646561 -0.0546282971911756718)
(0.443015250603494726 -0.219975440772772785 -0.0647384256911781586)
(0.498514658118996035 -0.207480698325968133 -0.0778303837105273483)
(0.550327086380289598 -0.18492741183078415 -0.0975028553915007201)
(0.592571685375283375 -0.148490234465925575 -0.126670400108210707)
(0.617397496339893048 -0.094234209426272364 -0.168768437337064592)
(0.609001211188102687 -0.0266728922505818124 -0.227137906767409914)
(0.552744748868193359 0.0455294396955980771 -0.309535420450690935)
(0.422969132562708572 0.0813741925207670802 -0.405071720617014519)
(0.226801960574755629 0.240817343093848502 -0.546668950594642267)
(0.0341806261482227661 -0.272693020797129981 -0.0193037807684735344)
(0.0984398272660931412 -0.291309153831824041 -0.0229336429770749528)
(0.160795111498893001 -0.286019566238493617 -0.026064513514048003)
(0.219855522503580286 -0.277071776334664621 -0.0303969052437647637)
(0.278249708715892774 -0.269423812084897241 -0.0370718349025906044)
(0.335893422708107847 -0.261620810359360023 -0.0445766059114618071)
(0.392539900737717218 -0.254741949110418531 -0.0516892929510672713)
(0.450523326015917436 -0.24859451523781656 -0.0588437405731106478)
(0.510168885393600946 -0.236042283182017615 -0.0699036957103558315)
(0.566294403708209937 -0.210707639324013762 -0.0886721180373639117)
(0.61568202501826963 -0.169088482209990232 -0.117386149371563067)
(0.650636954260313094 -0.104312539976370119 -0.159021257335838634)
(0.648827387841524938 -0.0206527560019033746 -0.217207312716247186)