/*--------------------------------*- C++ -*----------------------------------*\
| =========                 |                                                 |
| \\      /  F ield         | OpenFOAM: The Open Source CFD Toolbox           |
|  \\    /   O peration     | Version:  2206                                  |
|   \\  /    A nd           | Website:  www.openfoam.com                      |
|    \\/     M anipulation  |                                                 |
\*---------------------------------------------------------------------------*/
FoamFile
{
    version     2.0;
    format      ascii;
    arch        "LSB;label=32;scalar=64";
    class       volVectorField;
    location    "0.360000000000000098";
    object      U;
}
// * * * * * * * * * * * * * * * * * * * * * * * * * * * * * * * * * * * * * //

dimensions      [0 1 -1 0 0 0 0];

internalField   nonuniform List<vector> 
7248
(
(0.483653640720825562 0.4654671954122096 -0.29740371112330688)
(0.357720210221496748 0.929089101076890356 -0.700561017207386283)
(0.316154674237604072 0.332325443979799795 -0.100975471364230768)
(0.404089047866133699 0.825343468110495193 -0.547934565467238288)
(-0.446320456384678543 -0.363077355068395446 -0.0696685848807646058)
(0.844719957834092483 -0.149363583184463078 -0.835855350073336556)
(-0.699953967593626825 0.273774298242708214 -0.286861440858379113)
(-0.77841925341669449 0.31016029119133165 -0.202077899250379833)
(0.398929048472463132 0.574152530208987488 -0.404451938226984165)
(-0.261052070710228845 -0.187979244355462344 0.09667110078936339)
(-0.476285180798357133 0.233729364864051992 -0.240219616281653753)
(1.04573305955089024 0.171980365168260874 -0.777150281348851557)
(-0.119909943365590271 -0.456319587240268276 -0.866824591025449287)
(0.26573896683655851 -1.31885457709507681 -0.348434399242326442)
(-0.162250264911163011 -0.311765071261061955 0.288216892247200818)
(-0.0947732135340982745 -0.338099976653194412 0.251282700184384977)
(0.0506918823058320478 -0.663427548699577763 0.0511237118773428256)
(-0.0205410463671687193 -0.746229714745039296 -0.304860323945391531)
(-0.550199121633733523 -1.13176875321084935 -0.399878451092747056)
(-0.024194687765764708 -0.364307663755179423 0.325139917632276121)
(0.105644771311287355 -0.300644554037224732 0.213618216600248517)
(0.158029419066278987 -0.359781939203169254 0.109518386099191165)
(0.161210790852496483 -0.482808433757535793 0.0207907697596276531)
(0.199603896637836814 -0.708196735286367174 -0.242920410214995969)
(0.0265188016476447172 -0.382761344202467713 0.296027912574490737)
(0.133640846063193153 -0.380056452621331642 0.267274172194074178)
(0.211151830181193156 -0.385189704307390968 0.223325593384699733)
(0.366262580869718135 -0.296625180817857159 0.153181687616617268)
(0.361169921690575269 -0.228381070928089458 0.00451624937009924288)
(0.0589584368219757751 -0.366141142990775104 0.211420738809550923)
(0.131341418440995283 -0.380828826094282313 0.225885436396395162)
(0.206191243002289221 -0.395955364495576612 0.216890955547927949)
(0.333562631668182785 -0.347545128421232252 0.16487449138451632)
(0.395212070482433675 -0.370983275682764346 0.00920715504886616271)
(0.073698315259413269 -0.375545585535303705 0.149035482651035001)
(0.12385519799879921 -0.392905420301273234 0.169179160884152163)
(0.189628933192389326 -0.425770063583616132 0.175753782997992214)
(0.252229799017539502 -0.446551425695883131 0.161843283237645685)
(0.403723475659912567 -0.468866441500394693 0.0836104245832193782)
(0.064633499736275718 -0.384913350397442566 0.113126800745068784)
(0.0974546386712554225 -0.404974941200867744 0.133730718102802265)
(0.137031462668367215 -0.443026925019909812 0.14820341854521743)
(0.169322200231862785 -0.497824188630935582 0.146680145050445576)
(0.234007962423678217 -0.520902798892973196 0.0868213025362032376)
(0.0508493178128827453 -0.389021700413595406 0.0888042634185915031)
(0.0710687318865033391 -0.406768731754539592 0.105301766691375351)
(0.0891388994400040546 -0.43983478497297851 0.120561631806093236)
(0.101895982136942675 -0.487418741030185398 0.124887084333591747)
(0.103308334158460469 -0.530795953179945545 0.100487523145453908)
(0.037105080201078576 -0.393051293208302843 0.069643754461229529)
(0.048166979174908392 -0.404819164428284473 0.0825687456842214562)
(0.0568381375789512311 -0.426245796179436531 0.0964948169916744342)
(0.0575154766916864055 -0.459616737044144352 0.109004733130676407)
(0.0480491370849819924 -0.503687302852426244 0.108323971661125548)
(0.0132706901805530533 -0.385160115447461981 0.0352353171010295618)
(0.0188491313187648321 -0.388087737515926456 0.0436987195166525719)
(0.0249638054958063078 -0.393039604783642527 0.0530236845912925095)
(0.030819401021095795 -0.400707493151113647 0.0629841194484266759)
(0.0348212468557568613 -0.412221361624174387 0.0734872557177534275)
(0.0330294308449739019 -0.429837530112664401 0.0832359154069465812)
(0.0219230215023808912 -0.450602255125466367 0.0835429177729380967)
(0.0084378632300757643 -0.386311208583082599 0.025671264696059265)
(0.0119275532022943952 -0.388699799233731103 0.031616422494645656)
(0.015639455375291135 -0.392127660356430763 0.0382318000130670022)
(0.0192213355645325761 -0.396745663830109785 0.0456687961897091002)
(0.0218593015988663986 -0.402217439492144779 0.0537004709125995794)
(0.0224803055752991164 -0.408370757797053285 0.0618653459462868219)
(0.018634026202359974 -0.417523484871981987 0.0695864139968054574)
(0.00460198235015953083 -0.38760448877616871 0.0155089157352294484)
(0.00623248019534581796 -0.389848024583491104 0.0191015940254491631)
(0.00819277430485837108 -0.392717750575587832 0.0232126808769393123)
(0.0105367306806714023 -0.396360433419228997 0.0280876579843423492)
(0.013226391783421592 -0.400605625702763424 0.0338963712506489129)
(0.0170695520304788295 -0.404799525243040859 0.04083387456311241)
(0.0234729337307610329 -0.407639543452234299 0.0492155970076683241)
(0.00133444933968736843 -0.386507214230007057 0.00519659416604231761)
(0.00178801806921986676 -0.38850110279532829 0.00638373737265861014)
(0.00236538095919032508 -0.391300562280970043 0.00779823712604011451)
(0.00317687445169582711 -0.394963642233537637 0.00949112654501576419)
(0.00436182027553177684 -0.399735840852133428 0.0115857279221129178)
(0.0065271992995107617 -0.406088664247979902 0.0143321135357620325)
(0.0108370809891872779 -0.415445162492611986 0.0183847654011605049)
(0.475544234152318168 0.531979529128103201 -0.335695706514998804)
(0.34342818900684291 1.01449154632129446 -0.526922636286642709)
(0.33770682824196796 0.19917741290530136 -0.137499821890217533)
(0.388778971014789809 0.907575280270158768 -0.465699693487734934)
(0.206013811543963588 -0.50291460453302983 -0.0843125937451683766)
(-0.555201100663316516 -0.1482177876174188 -0.281380948530623676)
(-0.434684755427282243 0.263327089527820135 -0.0534920903854668658)
(0.0129081991013680897 0.31636824949392639 -0.21728635243323674)
(0.416095134474182671 0.711711637533850028 -0.364872333032777163)
(-0.208825236427188587 -0.397291144438471022 0.113073870000478999)
(-0.133197711528772272 -0.316483326978767021 -0.239056924472663024)
(-0.0801900354424163048 0.00394412589451850759 -0.440235486066807513)
(-0.334167117345997577 -1.00261845032792851 -0.701303418370958109)
(0.231540252790340323 -0.328262233646226975 -0.250046868094007502)
(-0.147090197075743584 -0.323650412665660081 0.275977858241342966)
(-0.139974727917767272 -0.258971626574647618 0.211390496198359923)
(0.29865219002728105 -0.337007831198434582 -0.183873307927275492)
(0.761594321893399928 -0.624132272126066256 -0.117767203082520727)
(0.317177919499989525 -1.07104554269725494 -0.407537005815445663)
(-0.0679708358574506455 -0.388952603639724559 0.288942136293801166)
(0.0559348672662104349 -0.311119619819710536 0.190179383082975939)
(0.0477281438883166778 -0.334609520523288684 0.063874617273658299)
(0.273882301415745821 -0.635698156919849433 -0.303391035264380771)
(0.260172359751644988 -0.111526709637242233 -0.610856188142799295)
(0.0169911283019022821 -0.398853262692210275 0.215509957662912116)
(0.131280221240378664 -0.396717770966108108 0.18989494867340076)
(0.229635402356883539 -0.378266883201844761 0.136522537452582748)
(0.3986426081272606 -0.28649091575540836 0.0663208042213661031)
(0.507705744517725099 -0.13658402888170762 -0.0551242384856406309)
(0.0615482563745215275 -0.38705663344612723 0.151265627284538351)
(0.139462903664488908 -0.402460798880063975 0.159615303594748376)
(0.218039233667177867 -0.419520998908289866 0.146638156395507396)
(0.32288357536616169 -0.410522096261612679 0.113933834797379813)
(0.456229226666756305 -0.388206801207441332 0.000422561868738818847)
(0.0887502499714556276 -0.394792856125670166 0.11417597366658247)
(0.137320823417046045 -0.413459005638697419 0.12915308093815403)
(0.200829417021711865 -0.443563637316915671 0.132968227527549526)
(0.243672262732537198 -0.477483221789817724 0.118733925317911895)
(0.40210083596216506 -0.483678328639874811 0.0386897089768460933)
(0.0850069152058869487 -0.400275512596250882 0.0921710194578622272)
(0.112790705349010784 -0.420191509736954405 0.107655762375861441)
(0.149996516093711146 -0.457968182607534413 0.117927476580542173)
(0.174277807617004177 -0.509866261988746738 0.110804372366509543)
(0.247482372192632777 -0.515895962871750879 0.0496936564951896281)
(0.0649722646076764665 -0.401269230194992221 0.0756056222500359615)
(0.0836065031667224123 -0.419735595788279958 0.0883563852539740874)
(0.100915366488890185 -0.453983526820809336 0.099730518193374057)
(0.113116372270857607 -0.500966410853999067 0.10282263801320228)
(0.115452935927062239 -0.531146741637121722 0.0787729328764417425)
(0.0467143108656472017 -0.403194909666008128 0.0607780374555163191)
(0.0584854007727016872 -0.417086027067924969 0.0712762561216170043)
(0.0672911502455075528 -0.439967990329546865 0.0823521212125499086)
(0.0698317276721392433 -0.475360262911305231 0.092160992124151811)
(0.0578748809490918226 -0.516372745461133542 0.0908441365251869415)
(0.0329616332130840545 -0.40282756915219825 0.0469725263922146502)
(0.0389166497356663865 -0.411830725008082155 0.0552560062089505755)
(0.0427354546784634026 -0.424618700484010958 0.0638769480947960905)
(0.0390521824221518113 -0.443902088039164089 0.0717313386917926427)
(0.0233585352404211133 -0.468002935968380718 0.0719417346390069934)
(0.0213708541764807691 -0.401268189028537114 0.0342831901661119209)
(0.0255410333182565646 -0.407305954989958918 0.0407614319320957832)
(0.0285400991718621003 -0.413957374798814115 0.0477315238069227141)
(0.0284660285045989572 -0.420761536834612204 0.0548815158407760934)
(0.0208374485486561567 -0.429708816698300855 0.0615447963679254181)
(0.0119049275817535924 -0.40198642970818721 0.0209697461269806283)
(0.0148790936798839941 -0.407278961766066316 0.0253422514190258241)
(0.0184752288056954234 -0.413255117616295575 0.0305116993317195127)
(0.0236049507802173694 -0.418932404295546956 0.0368695326327233147)
(0.0316278503027741381 -0.422496144625654935 0.0448374645412177725)
(0.00364844879400191748 -0.400462301132819831 0.0070470843522492492)
(0.00473189020622081895 -0.406016379033106889 0.00857137204101138424)
(0.00638521731479682782 -0.412994753590614161 0.010461183694874112)
(0.0092993818283500021 -0.422094042902587008 0.0130911687472017955)
(0.0152809828087556131 -0.434905801319031338 0.0170082350899670581)
(0.456516600726757038 0.587626744142076163 -0.292294698977289769)
(0.307989640808040699 1.08040858989519117 -0.443272394368507627)
(0.369490527299720317 0.24864446506913343 -0.12892520009932687)
(0.371761920599200268 0.975122692050224726 -0.385721828613851958)
(-0.175901411976930711 -0.479914938144793302 0.0127263023476984413)
(-0.27739551572651816 -0.335821557832056083 -0.15397116105609554)
(-0.233077212331305988 0.152747745690944181 -0.067791309171147271)
(-0.0979617973788578372 0.0102440684228042728 0.198115095183314133)
(0.413381898417848836 0.807519574016910879 -0.286341110320223025)
(-0.189012008516219326 -0.40575023668672322 0.0450836837658807471)
(-0.215573508817483495 -0.315459142909420343 -0.241185428098652621)
(-0.0659877821568529144 -0.18804338181286584 -0.483548090197668534)
(-0.638390752159229691 0.0404929916904087708 -0.490103124426975678)
(0.335900743268843671 0.19943488638041984 -0.281390855576695631)
(-0.143784891464508596 -0.367921507614201171 0.140146348904316098)
(0.177846413042457629 -0.263401083700324334 -0.138397826348632125)
(0.695208200229013085 -0.151205083174838634 -0.268410097729356201)
(0.292216280407943119 -0.40886585979977752 -0.270111735022320443)
(0.18640353825150191 -0.380668244483659712 -0.211858942178442311)
(-0.0469313867531539405 -0.416770179196435775 0.186857963813385125)
(0.269336664595794029 -0.313177052968520053 0.13746470145748238)
(0.299536735725522918 -0.37051444078648843 -0.0212635486636038457)
(0.405882511045642769 -0.105639172050980681 -0.32730187764717561)
(-0.750888740376657982 -0.503002340647752066 -0.488744768722464196)
(0.0236379823509614631 -0.419296397736902915 0.115202388214660667)
(0.112034068937458764 -0.413275232925986835 0.115052845708828774)
(0.222259678014470052 -0.363263968357149969 0.0567984079403590358)
(0.409682255502114956 -0.290708416826606864 -0.00525088518049274255)
(0.672886766167187123 -0.237407278417942874 -0.0652595438256935167)
(0.0890755011822705056 -0.40446652970220498 0.076543088512011262)
(0.147673196460154976 -0.412235911236863539 0.0973330361724490389)
(0.22368136976150621 -0.42845897207909367 0.0899075664675829389)
(0.319967222222505565 -0.437163485440223154 0.0592498459402889949)
(0.440216363752683915 -0.406973004386549264 -0.0529603187619324886)
(0.107255198647863065 -0.405291907133043583 0.0773838243768644601)
(0.146684704453317244 -0.421282402227630082 0.0909861492960639673)
(0.205345939524484267 -0.449932529696954298 0.0944996966275757494)
(0.238410541355626143 -0.485520042257366002 0.0740208488819649735)
(0.362296842129848973 -0.493976317460751269 0.00554513083096711684)
(0.0942348428594709242 -0.40937125897962573 0.0736568598069695935)
(0.12162679442562227 -0.428242947355390535 0.0835886207127893022)
(0.156415607320812944 -0.463649993200973887 0.0901395380712874117)
(0.172129211464653098 -0.511177409089621393 0.0843438963548212295)
(0.242042831882154141 -0.519365633280713723 0.0305255101414871402)
(0.0741569247899596384 -0.41066908741603031 0.0621132472641858849)
(0.0926668867519098161 -0.42874623902361092 0.0714358756851057042)
(0.109923967062003414 -0.460744512622567159 0.0802408420657508142)
(0.11923705185315836 -0.512258101556268941 0.0835223689369504751)
(0.127350822914890832 -0.53378878076159253 0.0564983518450732497)
(0.0549435999534013952 -0.411977606254202711 0.0509854801676545566)
(0.0666623378861629645 -0.42647397558701905 0.0595280188561354701)
(0.0760549413650389305 -0.449284003178725078 0.0684581840450185636)
(0.0800508804704743032 -0.482723493791792468 0.0764988896874509716)
(0.0667134640474320306 -0.523882851025079921 0.0750450520139279431)
(0.0394433524703994703 -0.410702395152087452 0.0403356417385208194)
(0.0455897787275767324 -0.420780366918425131 0.047246834221935749)
(0.0493701208064769859 -0.434541189417679385 0.0544767384725591344)
(0.0452418947332494659 -0.454307179597398525 0.0614203056892453914)
(0.0249947258871168788 -0.478291447310605022 0.0634816231762794919)
(0.0264663685081077092 -0.409086899893884748 0.0296924970317760141)
(0.0311174115232882367 -0.416134231249583264 0.0353784031549482306)
(0.0345464405798860327 -0.423602452625598758 0.0416098995765205801)
(0.0343795865275112605 -0.431057924113665447 0.0485563434578275416)
(0.0261817450834285828 -0.440894440261868081 0.0562293233226238143)
(0.0152459740449849661 -0.409953978933253804 0.0183195442378049772)
(0.0188154276380277929 -0.416680159507863412 0.0222087109129757501)
(0.0233023288520822144 -0.424103227664845261 0.0268904629978086104)
(0.0299127062526242243 -0.431116528660986931 0.0328471353012337389)
(0.0402512548145008628 -0.435431726367597693 0.0408515410375767454)
(0.00480602326911702335 -0.408511901304226765 0.00615904306325360147)
(0.00617153729283953165 -0.415654489274660199 0.0075258228029212804)
(0.00828794505073339634 -0.424554889555004256 0.00927284844691473632)
(0.0120504223983134394 -0.436073125749938728 0.0117577417578063441)
(0.0197328210980336899 -0.45208559925677394 0.01580206106372712)
(0.462829055938123457 0.622021477661359179 -0.23869703809427445)
(0.304315777329491111 1.10520438839979795 -0.318582698625014316)
(0.39834987710202463 0.285026824770582499 -0.128267977751119117)
(0.371721152648070541 1.00455923157809424 -0.292312016831680566)
(-0.137259944777786969 -0.503540959308547031 -0.00427010276083589907)
(-0.189720140249611868 -0.451182792385273645 -0.130956254450709797)
(-0.124669873912080467 0.106950193383699668 -0.00219604050322261268)
(0.0845265304559905672 0.00395754486664939842 -0.0562448197425930857)
(0.415916219719526581 0.861595534242098449 -0.259059397352224718)
(-0.158119271937046835 -0.404526166979633117 -0.0444556113594726382)
(-0.236493779197856718 -0.336057475362608993 -0.257838882924939783)
(-0.142119452724484868 -0.106825925203793748 -0.269948697408646243)
(-1.14378373880857898 0.143947877573182281 -0.232425416454040912)
(0.363716350016179246 0.426457959383588769 -0.225211058927895835)
(-0.0920035229212479017 -0.381792794509763944 -0.058487031266429429)
(-0.00204045194130968166 -0.403754080674843696 -0.208051206414370971)
(0.203515319938958134 -0.228138823253443285 -0.325062485257276101)
(0.220630167363711882 0.0893725406456563065 -0.277800832921922036)
(0.268986982741038994 -1.788983951389296 0.0717089954477468927)
(-0.000172970414066954924 -0.393318346838504473 0.0114196186653141712)
(0.119189279790012426 -0.353322115986615226 -0.00586393093395382037)
(0.162267173214570126 -0.140401463743390242 -0.0702427244097688502)
(0.0119602590553203186 -0.164765433525469435 -0.19352862074480523)
(-1.04280394674935795 -0.363705395472246562 -0.181336313623070733)
(0.0734433689496346298 -0.379006938753206735 0.0355494300929648649)
(0.134621823374657307 -0.38740493413524979 0.0499417056702670115)
(0.217692533145281641 -0.352510753875834304 0.0148341706985235904)
(0.491854936823461542 -0.301183844354827701 -0.0452675091867536378)
(0.853362176380573323 -0.00434966731913204868 -0.279347753287480516)
(0.12160964040923973 -0.39015630451769362 0.0383334199264994055)
(0.16716082791288428 -0.397159207553188121 0.0514923417281932874)
(0.23484844113537473 -0.409643486561124148 0.0477593246504164903)
(0.329360195865387229 -0.40201454462612829 0.00885774957334426599)
(0.458212462152509381 -0.365089481022274009 -0.105988100426044243)
(0.119176270768909909 -0.405222345297519104 0.0516729028171977675)
(0.154712026000995206 -0.416503900173539221 0.0599339438485203546)
(0.203939958112813124 -0.444514986525308242 0.0610097489551047478)
(0.229500391398235248 -0.482620855928120818 0.0404637746072207677)
(0.343136348214452769 -0.442452643585965366 -0.0161680163011609992)
(0.0999319511969932461 -0.412530546475166515 0.0537018759755034242)
(0.125647850974271086 -0.430726717899911737 0.0612746133565848158)
(0.159865001466137385 -0.463419221546768789 0.066682097528359463)
(0.166069942422027855 -0.506924195798733157 0.067396980242329832)
(0.249569464246703898 -0.499480755341629334 0.0210753058258389241)
(0.0804219458105638607 -0.41475102688442933 0.0483220094776776743)
(0.0995138871854240187 -0.434432404877607703 0.0557131101755425073)
(0.115494653727332697 -0.465426144065771541 0.0632718771486243392)
(0.120540444280317433 -0.510882754521555071 0.0677396141898529286)
(0.1428953109685627 -0.512954901856748968 0.0375293064600599052)
(0.0620411175141445947 -0.4184932953737171 0.0410082618144843661)
(0.0734230954060660079 -0.432947747629030266 0.0479758263616126626)
(0.0826478175300760232 -0.456274756387240354 0.055287899507850298)
(0.0876057105944172826 -0.489306157523776764 0.0616993276941098234)
(0.0796156761671336644 -0.521791089089141846 0.0610813977477444245)
(0.044701288791118704 -0.416658117211420487 0.0332092212516404764)
(0.05128782819129174 -0.427625824362259932 0.0390100455546167346)
(0.0552982683535445385 -0.442112849634574645 0.0450266827987289703)
(0.0514553900661476257 -0.462593678161090593 0.0513572623682593959)
(0.0304982584248331204 -0.485797202668039219 0.0548835091674462899)
(0.0308190701919264648 -0.415459810909225624 0.0247708375648687563)
(0.0359569457372881998 -0.423285178039591536 0.0295894598303667079)
(0.0401403252523160614 -0.431426562312763329 0.0349725870333195271)
(0.0410966881427517819 -0.439607111644596926 0.0413741672910627745)
(0.0337122499609570914 -0.44840091526018111 0.0490727968571437884)
(0.0181368636381736975 -0.41661239165389119 0.0154094582494573463)
(0.0223101131266254804 -0.424514884947950422 0.0187621446396697422)
(0.0277867929410431334 -0.433134120190272587 0.0229330542384672854)
(0.0360453473583507572 -0.441398212309910387 0.0284622793308745223)
(0.0491434797523782468 -0.447516961157106818 0.0359193127786364905)
(0.00583207471057997119 -0.415311304644994383 0.00518183752691562041)
(0.00746058074381757141 -0.423797434475972179 0.00637374906369703436)
(0.010031098321218318 -0.434373639217071283 0.00793544146001783426)
(0.0147837131801866074 -0.448021266594670564 0.0102924512384148393)
(0.0245338453822646733 -0.466867783638514444 0.0144661594025036512)
(0.463846928995242269 0.650354885261046345 -0.179900343022881021)
(0.290524563624171339 1.14099180615974549 -0.250630571404750702)
(0.417383245895130206 0.378069194507548723 -0.111318311305674933)
(0.362637922659495238 1.03661316021519823 -0.232339824610140633)
(-0.0107902125780305336 -0.471371959903567062 -0.0813953845916540325)
(-0.13972145098786426 -0.267297140406897948 -0.172266792456701567)
(0.0960632098665865214 0.463216691689904758 -0.0523781294698995176)
(0.187886057499699777 0.156806493767679911 -0.0697077847875416656)
(0.40680838138281511 0.907982089134596659 -0.209986246268548282)
(-0.0909655491401588356 -0.339877207037107942 -0.11897852144857228)
(-0.201614765586055844 -0.125110380264138954 -0.184532779987301887)
(-0.232038801817430751 0.354188616281270685 -0.110385018501614099)
(-0.609610408887490962 0.255332034739828906 -0.03643708945561977)
(0.360276941993038669 0.53467267275137087 -0.169799702704079181)
(-0.0181884862253949529 -0.315404167352226705 -0.101477523890445759)
(-0.0656920606747638663 -0.342877785575216476 -0.155876628571604003)
(0.29781205174691866 -0.120913181590480895 -0.216307986458248558)
(0.216676029349028187 0.266588578487341854 -0.082109861264853895)
(0.079444956256505439 -0.930941729808688945 -0.182283611808141732)
(0.0474612467186020445 -0.342904505796357006 -0.0298080119949681033)
(0.080232909855635734 -0.345324711992036959 -0.0458796000693323588)
(0.0392732749848266754 -0.270333163742250804 -0.0754166220827719447)
(-0.041367982535606404 -0.0837328356173102362 -0.184149371598459927)
(-0.788397323487013191 -0.170387369279713402 -0.125045977866487218)
(0.0987183847444273177 -0.367315384768873099 0.0123377795137620712)
(0.149965540363375893 -0.358179307617206955 0.0273874889786296094)
(0.200498947979126402 -0.315068022691126437 0.0140201547171027209)
(0.530082318252315998 -0.0889238595027654899 -0.143529640927655466)
(0.206653365162384639 -0.0197607816724783142 -0.0772971851543852867)
(0.119390830456540947 -0.390058846725402197 0.0285714444298449458)
(0.158163647535389973 -0.382082341006492465 0.0301779381087827897)
(0.214190760309499517 -0.378121070237008583 0.0251064388106911306)
(0.370008523804019995 -0.326987635456470638 -0.0264424636383077533)
(0.524983067509616541 -0.220882857296518936 -0.170993626470403337)
(0.119077386884430397 -0.403508767885912334 0.0368027257346003195)
(0.149529484601521073 -0.414243367968086307 0.039187713908507095)
(0.197917482279460599 -0.437211763597899372 0.0387221819075283386)
(0.230313798256334135 -0.456240729950762869 0.020542103658350748)
(0.348175017333842041 -0.382139123930405666 -0.0282141414002894733)
(0.104441484162208748 -0.411736562749950741 0.0389516558948387812)
(0.129567215203086838 -0.430749239839868348 0.0447249366043663138)
(0.16354288806701317 -0.460421666513120498 0.0498081789452863577)
(0.163224704016205119 -0.499488740256985697 0.0528680211489611432)
(0.28156007153984558 -0.462143307452718421 0.0248978825472662493)
(0.0864404885853145843 -0.418599468650665552 0.0357443039455125067)
(0.104922826678860284 -0.437870362508968769 0.0422765651546574278)
(0.120619637792741249 -0.46816015054338056 0.049982965352996428)
(0.119764735709439185 -0.510017258369533044 0.0575800783749112685)
(0.168450978866194229 -0.480586095532850532 0.0378401851397504388)
(0.0675046039552210375 -0.422124622322724241 0.0316548710756445612)
(0.0789274417878348955 -0.437538922338486957 0.0374902453459949533)
(0.0871003920274478205 -0.462068042886814967 0.044267513975479067)
(0.0904036972900635061 -0.494018967364352246 0.0515766642197652073)
(0.0907108597172728848 -0.519323706463352464 0.0542770652933529871)
(0.0491461677028013355 -0.421186185509690114 0.025869116263434324)
(0.0559587890538403993 -0.432536901639065774 0.030744827624973714)
(0.05971505427579335 -0.447481599446088063 0.036056142525185457)
(0.0553022167334126097 -0.469596402004558267 0.0425706557617103742)
(0.0344153437846340809 -0.49606633293608754 0.0452738793784818599)
(0.0344107026487609283 -0.420320393489897082 0.0196133303249022006)
(0.0399950557926818662 -0.428870855488980462 0.0235293187530556461)
(0.0448934073197345129 -0.43771969824014384 0.027910409401174039)
(0.0465568681286203379 -0.446160529263890882 0.0329060146214350049)
(0.0365160612551800531 -0.452494181772301385 0.0380138921419632611)
(0.0205673492773238674 -0.421925014504451024 0.0122700330215041523)
(0.0253260460086904941 -0.43074576669220771 0.0150275345855158098)
(0.031773144140591493 -0.440217297136245689 0.0185380628853062945)
(0.0414966475387159445 -0.449450897704917196 0.0233009934246609859)
(0.0576177845295030369 -0.457782604979363128 0.0293707995468584435)
(0.00669643280564784921 -0.420782698193388538 0.00413162570462019541)
(0.00857887113050391156 -0.430402756692646937 0.00512317863790945262)
(0.0116810290716237893 -0.442396412183500676 0.0064350009708158129)
(0.0173709026922166491 -0.45787144209295022 0.00859091591581946645)
(0.0296361202161182606 -0.478746547188252769 0.0124037245266329071)
(0.462927851462964335 0.670050077604334993 -0.132809293523686867)
(0.28772108773385352 1.16162327254125364 -0.163652349850603729)
(0.429567936451827725 0.42208500404004845 -0.0950803560946233556)
(0.361596449233673123 1.04556392180983915 -0.156326599582389536)
(0.1516917831487678 -0.538256089524661308 -0.0108120435594159722)
(0.0333001553824076313 -0.339941056685086118 -0.127547084333940713)
(0.193170854821919702 0.502923725016945378 -0.0687265013186929424)
(0.237058227355097711 0.257167366605352388 -0.0728455395695402491)
(0.407251529990371619 0.91029268337056779 -0.14578679777642517)
(0.000334953133482349119 -0.417481771523398437 -0.0348857205552978999)
(-0.195898197349561015 -0.0762588665863778853 -0.0533068957876993155)
(-0.0183574265818480659 0.408648937561691405 -0.0689308526505677532)
(-0.254082156614803434 0.317273907056791871 -0.113948062419498744)
(0.363696876059232233 0.553733294923358321 -0.122865142333326571)
(-0.0308925445318102392 -0.315429861594419936 -0.0566656248934899048)
(-0.0957163778878987875 -0.30142943532595623 -0.0510419974009164792)
(0.264233753689904927 0.0369772187847601103 -0.0722970454307972493)
(-0.0190028592842446664 0.281903578418652878 0.214787105135207657)
(0.209370052195557793 -0.254195436561203969 -0.0848893633138590176)
(0.0333999400352233689 -0.331997108706489685 -0.0333091542917731756)
(0.0423425740154178901 -0.375799524612607072 -0.02982217110758641)
(0.133291534528676481 -0.324486893113120178 -0.0486545272184285074)
(0.151167845970112846 -0.0599907202396227357 -0.043257208164616201)
(-0.433130357658834286 -0.440540089071825958 -0.0107413853004558607)
(0.0828676125263599767 -0.360989149341430671 -0.00948371870909203198)
(0.137307582026639008 -0.342270167267533398 -0.0150694136168417342)
(0.137354735691903596 -0.346720433705141606 -0.0460943832304774592)
(0.442661079739843588 0.0138659102520251737 -0.182880551964713728)
(0.494035111319190423 -0.0006752790588109292 -0.119124644971436489)
(0.105518815232797131 -0.383363460875240869 0.0126274131063771004)
(0.149473525368408022 -0.370081030044221604 0.00720899959977601597)
(0.206778399491465925 -0.379947048575990987 -0.00794343937676634561)
(0.349959949030176798 -0.298205954762629288 -0.0479130789442175353)
(0.506463370602790675 -0.106803143538347634 -0.130981524038743052)
(0.116380939961495872 -0.398463010661481654 0.0235851996119730394)
(0.145499817149117472 -0.410212874670904892 0.0255054987062186302)
(0.192843818993758076 -0.431609540211288223 0.0267009692291405448)
(0.249334214741368715 -0.430663509242511566 0.0124824868101308835)
(0.347251015182462708 -0.350051226218792255 -0.0192187030121355636)
(0.108984934035745884 -0.411649616902584226 0.0262531333561138239)
(0.133882798620283544 -0.429012456370839068 0.0311371494509768212)
(0.167922000945773975 -0.458908071247104865 0.0368959254644690496)
(0.17206994197611028 -0.485126660511935315 0.039310846420365031)
(0.298642087587337401 -0.438972285183736988 0.0325799637111903254)
(0.0917131128040047094 -0.420553235187952845 0.024969478484420337)
(0.110910219376785996 -0.43969120590561156 0.030685594029501051)
(0.129038645134402302 -0.46880859070023273 0.0382695393302118769)
(0.131976894646106097 -0.505469690362237101 0.0467269042919420605)
(0.201856072007297743 -0.474345933291486055 0.0487928313489925033)
(0.0719742483369560093 -0.42470808053696163 0.0227011224512746641)
(0.0841170888351929491 -0.44109058934474471 0.0276300674145428179)
(0.0936243109585692818 -0.467248143005088268 0.0340820505441439617)
(0.100983317426448227 -0.500176681660212896 0.0429548346137208839)
(0.10809571267923479 -0.526876026726541546 0.0543278584832308925)