/*--------------------------------*- C++ -*----------------------------------*\
| =========                 |                                                 |
| \\      /  F ield         | OpenFOAM: The Open Source CFD Toolbox           |
|  \\    /   O peration     | Version:  2206                                  |
|   \\  /    A nd           | Website:  www.openfoam.com                      |
|    \\/     M anipulation  |                                                 |
\*---------------------------------------------------------------------------*/
FoamFile
{
    version     2.0;
    format      ascii;
    arch        "LSB;label=32;scalar=64";
    class       volScalarField;
    location    "0.0299999999999999989";
    object      rAU;
}
// * * * * * * * * * * * * * * * * * * * * * * * * * * * * * * * * * * * * * //

dimensions      [-1 3 1 0 0 0 0];

internalField   nonuniform List<scalar> 
7340
(
0.0266658562616786457
0.0268508631636441772
0.0270251142091835032
0.0271906051948511314
0.027347840796753408
0.0274974534848763871
0.0276400613660105314
0.0277762529064720688
0.0279065712466911586
0.0280315174066031285
0.0281515527116590579
0.0282671017764892472
0.0283785554720547839
0.0284862731063195915
0.0285905848782256264
0.0286733560674611379
0.0265621813070528213
0.0267490784450520672
0.0269249408892819203
0.0270921254421103326
0.0272508241023503607
0.0274016382639093725
0.0275452088753451799
0.0276821262924561474
0.0278129314702985145
0.0279381219632671082
0.0280581550516790165
0.028173450476839744
0.0282843926462927088
0.0283913326295921406
0.028494590540071963
0.0285762703456766964
0.0264624637644356071
0.0266508021074708008
0.0268283139750938107
0.0269969812233014569
0.0271568696116957012
0.0273086637242600759
0.0274530052941383343
0.0275904782906914309
0.0277216178101202977
0.0278469159583244127
0.0279668246434392094
0.0280817576909633965
0.0281920923656523714
0.0282981709734664924
0.0284003031833526681
0.0284808246067244052
0.026366962830793688
0.0265564035695252838
0.0267355065208475066
0.0269052186597599947
0.0270660122825403908
0.0272185634501540749
0.0273634837498893425
0.0275013418538574764
0.0276326634172845559
0.0277579332188609418
0.0278775964765390558
0.027992060024061266
0.0281016932694802823
0.0282068293624320246
0.0283077669311275378
0.0283870642579304722
0.0256307693372327221
0.0258597298926230602
0.026073025515467755
0.0262755717141813123
0.0264659324391190026
0.0266462556821342282
0.026816757032054387
0.0269782431987725078
0.0271313480747975705
0.0272766624779648553
0.0274147395586721888
0.0275460939504593022
0.0276712018360298385
0.0277905008398730453
0.0279043900973179708
0.0280132305385833516
0.0281173456746083641
0.0282170231414342124
0.0282950304282404176
0.0255426211044525592
0.0257712885527915624
0.0259855670798999454
0.02618805816957296
0.0263792812417227851
0.026560434358165786
0.026731587421125174
0.0268935671149038262
0.0270470297769422503
0.0271925577271107145
0.0273306903321859779
0.0274619305448081767
0.0275867450960573524
0.0277055632635600721
0.0278187758693736464
0.0279267348369581989
0.028029753559009267
0.0281281114345237268
0.0282047806724063134
0.0249816191683400884
0.0252419512674600562
0.0254904352916552682
0.0257187518181616163
0.0259341384576053588
0.026136838694838873
0.0263291451489926116
0.0265111667067832908
0.0266831401745581884
0.0268458129451894026
0.0269998388334942961
0.0271457890605629644
0.0272841889698575667
0.02741552954090214
0.0275402677418235507
0.0276588242421654355
0.0277715813996702553
0.0278788820213623396
0.027981028537706152
0.0280782779218752415
0.0281537844560474822
0.0268640407147028339
0.0270359207013221477
0.0271992157646008294
0.0273547872590078102
0.0275030291940738005
0.027644535004376556
0.0277798406313824464
0.0279094455058651186
0.0280338156648775559
0.0281533844609201354
0.0282685539544267304
0.0283796967100617588
0.0284871571653483383
0.0285912535562475763
0.0286738399021176926
0.0265785899495132767
0.0267623647847363109
0.0269356770470211559
0.0271007686945341185
0.0272577476078442946
0.0274071886322313808
0.0275496606851649319
0.0276856965908286803
0.0278157927418397864
0.0279404113158370389
0.0280599815966548899
0.0281749009820782097
0.0282855356997125142
0.0283922220640794622
0.0284952684164978161
0.0285767678036854128
0.0264787957287266097
0.0266641400523192629
0.0268389495069514851
0.0270055513296091482
0.027163738537180307
0.0273141705282798353
0.0274574219651045406
0.0275940206148590945
0.0277244574779056153
0.0278491893933847622
0.0279686403052529335
0.0280832018478834947
0.0281932333132801291
0.0282990624355858589
0.0284009873056840258
0.0284813330298328143
0.0263831835707164265
0.0265695614401213025
0.0267460052080397623
0.026913671157983262
0.0270727952803708864
0.0272240051754940905
0.0273678499172583072
0.0275048448600232857
0.0276354728408716062
0.0277601840632712149
0.0278793961039161646
0.0279934938213701572
0.0281028289454480773
0.0282077203543473071
0.0283084553450498738
0.0283875819383003769
0.0256609061192019441
0.0258839567850384714
0.0260925363994462568
0.0262915757055939697
0.0264788564957418836
0.026656585244112227
0.0268250600741436647
0.0269849130651878162
0.0271367040195442388
0.0272809627494451645
0.0274181917914762679
0.0275488645111254711
0.0276734234931193222
0.0277922793194978271
0.0279058095387339639
0.0280143577710926552
0.0281182336171575814
0.0282177136929325327
0.0282955555284567575
0.0255715719889544439
0.0257948717281962121
0.0260046310351372163
0.0262037121669177683
0.026391873212174316
0.0265705289617514835
0.0267397055919111511
0.0269000962315890692
0.0270522786103252894
0.0271967760397115524
0.0273340797965554543
0.0274646532771557449
0.0275889307943634754
0.0277073154030044386
0.0278201769242521248
0.0279278504519425014
0.0280306358851301896
0.028128801954265939
0.028205311223242234
0.0250240697991589052
0.0252762025215352744
0.0255183451096914794
0.0257417168967813415
0.0259527367346436104
0.0261520032970924306
0.0263413652307439433
0.0265209959448902063
0.0266910567697762405
0.0268521885431842258
0.0270049706358376287
0.0271499181001022029
0.0272875105095779884
0.0274182009228677512
0.027542415105359843
0.027660548434167747
0.0277729629708746983
0.0278799852426156354
0.0279819046381269247
0.0280789678484729653
0.0281543198206585556
0.026878464888329838
0.0270474105736739773
0.0272084485861838546
0.0273622013394714918
0.0275089767450126463
0.0276493069943601691
0.0277836700812152462
0.027912518391290414
0.0280362802160312521
0.0281553588482156662
0.0282701322784965521
0.0283809536914755405
0.0284881519978571231
0.0285920330629168308
0.0286744392092682689
0.0265962538919221822
0.0267765731632558339
0.0269470175676558947
0.0271099157726644203
0.0272650916328044633
0.0274130828324645436
0.0275543919869719288
0.027689495087036789
0.027818842481813745
0.0279428590449974784
0.0280619444157046739
0.0281764723282815488
0.0282867898690877251
0.028393218024971547
0.0284960530055547827
0.0285773765120578421
0.0264961831656342836
0.0266780250526826856
0.0268501434805430601
0.0270145720867965879
0.027170987261756159
0.027319992250662728
0.0274620976530180298
0.0275977763920926267
0.0277274747231506732
0.0278516129201690464
0.0279705857355171221
0.0280847615783135322
0.0281944809651660661
0.0283000565476966524
0.0284017744894083483
0.0284819490182250563
0.0264002052215475021
0.0265832490462736687
0.0267570160094625885
0.0269225417155021102
0.0270799289057241412
0.0272297382831793028
0.0273724569464434096
0.0275085473982858222
0.0276384490434251721
0.0277625764607913328
0.0278813185850223695
0.0279950374537283574
0.0281040664236770626
0.0282087096192950304
0.02830924265504332
0.028388202933714541
0.0256923536323523626
0.0259094004234893885
0.026113135526181195
0.0263082411254136478
0.0264922641416352397
0.0266673804128895534
0.0268337575823666269
0.0269919121653927167
0.027142332557604832
0.0272854882025188525
0.0274218307173192365
0.0275517913605156997
0.0276757781080374798
0.0277941735579047972
0.0279073328589312143
0.0280155816549905907
0.028119215184766122
0.0282184987178338252
0.0282961793898831478
0.0256019245371803192
0.0258194499940200863
0.026024581535382528
0.0262199028539736832
0.0264049536597119432
0.0265810780585243843
0.0267482093561063131
0.0269069437239350361
0.0270577882656710782
0.0272012080397903699
0.0273376453744885901
0.0274675229040887772
0.0275912413101989558
0.0277091763349553225
0.0278216758695130732
0.0279290574538279615
0.028031607034293856
0.0281295823564729069
0.0282059358401358998
0.0250681572761129075
0.0253121887773321841
0.025547512398923531
0.0257654440390764142
0.0259720554077226377
0.0261677351647369438
0.0263541137532656254
0.0265312964939991222
0.0266993674556874824
0.0268588847235078851
0.0270103609968301468
0.0271542558175255876
0.0272910017660052788
0.0274210123952221795
0.0275446807068168605
0.0276623753703388701
0.0277744369595322102
0.0278811748431362014
0.0279828648488852048
0.0280797430690390391
0.0281549445435352805
0.0267185265820641879
0.0268932770163150398
0.0270590420382125565
0.0272178336219587695
0.0273697070906053497
0.0275150061186965472
0.027654153512918847
0.0277875681933110741
0.0279156557833647838
0.0280388068527096523
0.0281573946756040368
0.0282717733417276844
0.0283822768822889829
0.0284892189403330928
0.0285928933298606469
0.0286751310418292445
0.0266144012362298371
0.0267910267432439203
0.026958496810402164
0.0271191092578311373
0.0272724928292920749
0.0274190376912683935
0.0275591822722626237
0.0276933500806372766
0.0278219469574340732
0.0279453608927532245
0.0280639620526475543
0.0281781007252453058
0.0282881051565752155
0.0283942813300727542
0.0284969136515529492
0.028578072792290285
0.0265138782120891252
0.0266919999976222844
0.0268614313889849639
0.0270236173821024536
0.0271782704171576982
0.0273258558229281454
0.0274668175496059451
0.0276015770014907021
0.0277305373271775103
0.027854082897235722
0.0279725795992509865
0.028086372883402367
0.0281957848220278536
0.0283011133601651504
0.0284026331068175132
0.0284826476446225427
0.0264172173157083238
0.0265968904719398706
0.0267680548567304222
0.0269314169327135138
0.027087076348921494
0.0272354947558503188
0.0273770932201698007
0.0275122829814101293
0.0276414612885911848
0.0277650078260403103
0.0278832833479359769
0.0279966274324169213
0.0281053554417073533
0.0282097571597228862
0.0283100969354341953
0.0283889018449255057
0.0257237264177967995
0.0259347806044619746
0.0261337309406555127
0.0263246806167602952
0.0265055631387861867
0.0266781462824827176
0.0268424339167653639
0.026998903468933029
0.0271479658217061159
0.027290027808614746
0.0274254908279801361
0.0275547449676256904
0.0276781643195640435
0.0277961040577741555
0.0279088974101399587
0.0280168525117450787
0.0281202507032650775
0.0282193463552750483
0.0282968765245150827
0.0256320710734936272
0.0258439346113115455
0.0260444694337601257
0.0262358695036195994
0.0264178874282956326
0.0265915493523516087
0.0267566611618685717
0.0269137594243391287
0.0270632832406554717
0.027205638935043925
0.027341220359237136
0.027470410193854277
0.0275935762779682819
0.0277110677313119266
0.0278232111280055823
0.0279303070264401536
0.0280326279508441231
0.0281304211537704227
0.0282066292060122112
0.0251118134874105947
0.0253477820902628069
0.025576424947466956
0.0257889911881543851
0.0259912153856540311
0.0261832198037959436
0.026366674237702923
0.0265414732256431529
0.0267075923283476013
0.0268655235553979972
0.027015717179644308
0.0271585777315425624
0.027294491401868147
0.0274238331737573331
0.027546964267519021
0.0276642275256082371
0.0277759428038512092
0.0278824030017988944
0.0279838709944919273
0.0280805728150761817
0.0281556338219206212
0.0267360812208785117
0.0269072364050624152
0.0270703618595516358
0.0272269479159517255
0.0273770296641380508
0.0275208945917424855
0.0276588935551410446
0.0277913883066822111
0.0279187389552223927
0.028041299496470478
0.0281594142264254624
0.0282734143010733852
0.0283836154760206162
0.0284903169347544144
0.0285938012496808613
0.028675888705667632
0.0266315364534167008
0.0268048324024007661
0.0269696933753488591
0.0271280801841437685
0.0272797009575211288
0.027424838200128112
0.027563854547683387
0.0276971177999073143
0.0278249896975487389
0.027947822503004989
0.0280659580715048144
0.028179724276606026
0.0282894314479243889
0.0283953713969207697
0.0284978175314730131
0.0285788301049651437
0.0265307149743498477
0.0267056741890045676
0.0268724227776750979
0.0270324201656132052
0.0271853456089756439
0.027331552841870152
0.0274714094941843623
0.0276052822883036258
0.0277335315912482679
0.0278565070757089278
0.0279745470020093326
0.0280879749428414004
0.0281970954950767523
0.0283021927645904503
0.0284035306135374845
0.0284834025045243924
0.0264337004447291121
0.0266102164743594535
0.026778776307316874
0.0269400230002403186
0.0270940001381786318
0.0272410737458974941
0.0273815930810456451
0.0275159164174024577
0.0276443995436815235
0.0277673885773541615
0.0278852173917031702
0.0279982042276383306
0.0281066474480994866
0.02821082338694577
0.0283109859408612573
0.0283896523567829899
0.0257537847253926054
0.025959113161218364
0.0261534759399273259
0.0263406409790807039
0.0265184752934839001
0.0266885607672054902
0.0268508167185863809
0.0270056568936034407
0.0271534121344908994
0.0272944238932515057
0.0274290430961704815
0.0275576198239120551
0.0276804957781341295
0.0277980000885111114
0.027910445234599051
0.0280181228549573509
0.0281213012778133362
0.028220224772714575
0.0282976208016884404
0.0256608552329124495
0.0258673262551106162
0.0260634891671233312
0.0262512677250234909
0.0264303609564725296
0.0266016327585203299
0.0267647973315929544
0.0269203239860187418
0.0270685824274564529
0.0272099197906331691
0.0273446823591195799
0.0274732144652357659
0.0275958527784062047
0.0277129212665726543
0.0278247264144734774
0.0279315528338035732
0.028033660510310237
0.0281312869868537638
0.0282073654276969142
0.0251533147867383094
0.025381619839712561
0.0256039291423347942
0.0258114198336411235
0.0260094873546396765
0.0261980519414199142
0.0263787117599317486
0.026551225376593407
0.0267154782623954257
0.0268718959855759852
0.0270208669432085435
0.027162741789782209
0.0272978620769767123
0.0274265661961605595
0.0275491854315241536
0.0276660383707085962
0.0277774254593357826
0.0278836242194911467
0.0279848854805187057
0.028081425991891739
0.0281563618588049451
0.026752549284598609
0.0269204369261603037
0.02708095202478146
0.0272354610168397855
0.0273838766936960951
0.0275264083706940749
0.0276633400799519771
0.027794980477671271
0.027921647442616368
0.0280436611484565605
0.0281613392010425616
0.0282749917362890638
0.028384917870962461
0.0284914037467345893
0.028594721961284382
0.0286766831310519346
0.0266475940335012991
0.0268177036525792702
0.0269800769801482182
0.0271364307109823732
0.0272864207823188126
0.0274302532812314599
0.027568224462617353
0.0277006504244317921
0.0278278518710004946
0.0279501481393696904
0.0280678551475184411
0.0281812802949630188
0.0282907176608577088
0.0283964463294528457
0.0284987299709056688
0.0285796194584314739
0.0265463078278778269
0.0267182547105807786
0.0268825725986996354
0.0270405870614414158
0.0271919222759078559
0.0273368564825266919
0.0274756926142815903
0.0276087471716835245
0.0277363408286581646
0.0278587913789001135
0.0279764118836822763
0.0280895060190836134
0.0281983625946621158
0.0283032533341908907
0.0284044326034144333
0.0284841847375679295
0.0264488451900742917
0.0266224582194122122
0.0267886574491302404
0.0269479841251512101
0.0271004180538479446
0.0272462539545674579
0.0273857798904627719
0.0275193059388867539
0.0276471497173853623
0.0277696266481395997
0.0278870461832397172
0.0279997072457485729
0.028107892904103534
0.0282118674962574187
0.0283118757013215254
0.0283904258763392585
0.0257812955036106524
0.0259814146842986468
0.0261715792631509389
0.0263552867358925434
0.0265303360182224945
0.0266981459538054126
0.0268585528694651327
0.0270119017975555473
0.02715845777729008
0.0272985054444574021
0.0274323500321630893
0.0275603050901216569
0.0276826828758186989
0.027799788958665389
0.0279119171060543576
0.0280193441518516995
0.0281223268300037285
0.0282211005079722049
0.0282983839553433009
0.025687114938678271
0.0258887018017264041
0.0260808819401370379
0.0262653891465939524
0.0264418089279964096
0.0266109007335563509
0.0267722915015409305
0.0269263824934450648
0.0270734828900163899
0.0272138875273698691
0.0273478997882217606
0.0274758292533124476
0.0275979844214213933
0.0277146665967282491
0.0278261642007605579
0.0279327475588004408
0.0280346654878554195
0.0281321469710785026
0.0282081166298818742
0.0251909721520543958
0.0254123580027336669
0.0256289617006502206
0.0258318772787159735
0.0260261708659152401
0.0262116296725797525
0.0263897445196399801
0.0265601768546778264
0.026722730898617951
0.026877768514220364
0.0270256227363675806
0.0271665962322566457
0.0273009904871959058
0.027429110966140386
0.0275512620405769376
0.0276677405219670491
0.0277788294515468187
0.027884792593248893
0.0279858700381450179
0.0280822703365138336
0.0281571011829020237
0.0267670928162698808
0.0269321308476769133
0.0270903558057782531
0.0272430277788492416
0.0273899732346652505
0.0275313279031967374
0.0276673172951607468
0.0277982035778986912
0.0279242675244142299
0.0280457998024222464
0.0281630948320129894
0.0282764445297934049
0.0283861337004537098
0.0284924374046217205
0.0285956199279421355
0.0286774836246440727
0.0266617100444066675
0.0268290729584840827
0.0269892350174250617
0.0271438103789708104
0.0272923740543419314
0.0274350627307880963
0.0275721167254518694
0.0277038076862938486
0.027830420700311425
0.0279522467453311024
0.0280695794015134031
0.028182708425890806
0.0282919140426333912
0.0283974646299173031
0.0284996157452201034
0.0285804102519271915
0.0265599812759032827
0.0267292832075619602
0.0268914677777127714
0.0270477658621220418
0.0271977210701226692
0.0273415465892334897
0.0274794923468053565
0.0276118323917634821
0.0277388533548670081
0.0278608458291799144
0.0279781013788923706
0.0280909066790579545
0.0281995371741910646
0.028304254249653469
0.0284053044223630605
0.0284849642374837356
0.0264620627804161186
0.0266331296310221427
0.0267972796222283108
0.0269549547755734455
0.0271060561057699725
0.0272508190977502479
0.0273894820865221815
0.0275223147247853281
0.0276496021414003555
0.0277716337037191424
0.0278886981787677783
0.0280010781254739841
0.0281090437389622909
0.0282128493736412446
0.0283127321244624475
0.0283911927315780369
0.0258051105704757283
0.0260007778218971849
0.0261873003607515989
0.0263680118704797233
0.0265406395311089741
0.0267064893789319829
0.0268653097235617977
0.0270173740082542101
0.0271628933861023693
0.0273021059439474516
0.0274352786171473892
0.0275626940277923782
0.0276846395469961051
0.0278014008747178021
0.0279132560096388808
0.0280204693658873336
0.028123288036564574
0.0282219400743314065
0.0282991367769244093
0.0257097882386308832
0.0259071839914753084
0.0260959218903035611
0.0262776197128331175
0.0264517399389561023
0.0266189628047297511
0.0267788312555974455
0.0269316860316132466
0.0270777863669350652
0.0272173837698145016
0.0273507456484195881
0.0274781522884991261
0.027599888461708591
0.0277162363967960595
0.0278274693110613786
0.0279338455394695581
0.0280356045920150364
0.0281329684027718623
0.0282088542326256637
0.0252232109514578251
0.0254387505057519572
0.0256505218826963283
0.0258495237464804982
0.0260405827982587365
0.0262233944080997664
0.0263993333231929694
0.0265679803052897914
0.0267290724798748859
0.0268829186823775976
0.0270298060124222854
0.0271699971877485819
0.0273037601656920918
0.0274313727580401887
0.0275531166949114018
0.0276692704224205388
0.0277801022627862521
0.0278858643440291522
0.0279867877200791898
0.0280830741287751394
0.0281578240051242115
0.0267511602195685087
0.0269135584555196192
0.0270695989990704898
0.0272204614459382148
0.0273658889994723639
0.0275059658880159597
0.0276408735282287835
0.0277708387380872675
0.0278961135210582072
0.0280169652606591831
0.0281336697439099649
0.0282465040527723268
0.0283557412552304204
0.0284616472338594176
0.0285644793619245184
0.028646074091628889
0.0266456034695631699
0.0268104428307639926
0.0269684804083453675
0.027121297921052178
0.0272683820368768634
0.0274098212583634079
0.0275458149703582435
0.0276766015856278226
0.0278024387225854694
0.0279235950803950611
0.0280403463750258444
0.0281529680113373412
0.0282617287969649349
0.0283668882075141376
0.0284686950240874599
0.0285492257158425078
0.0265436627827757426
0.0267105569437631092
0.0268706854017736162
0.0270252824450829231
0.0271738001992200551
0.0273164081041748913
0.0274533179579701664
0.0275847725738897348
0.0277110326530677561
0.0278323676310811632
0.0279490519981400072
0.0280613586272808468
0.0281695519480871029
0.0282738847747957128
0.0283745971557102551
0.0284539987524503914
0.0264455051954869923
0.0266142641537719521
0.0267764435100582496
0.0269324811220895757
0.0270821896952038073
0.0272257692898195888
0.0273634227672883354
0.027495390490326
0.027621933276593031
0.0277433205160096258
0.0278598247146280356
0.027971715246584393
0.0280792517742722743
0.0281826804511328341
0.028282232185771701
0.0283604402204397053
0.0257979049488562193
0.025989789166426476
0.0261730912295887151
0.0263512152734603142
0.0265216194898023859
0.0266855894142910034
0.0268428246346027917
0.026993543850690721
0.0271379170036542966
0.0272761487841644001
0.0274084788846263999
0.0275351673240673105
0.0276564827750515711
0.0277726955729486538
0.027884071197723511
0.0279908640458091905
0.0280933134118716531
0.0281916414732272594
0.0282685914977375378
0.0257017390787486304
0.0258956418018877477
0.0260813292837350011
0.0262605580388929234
0.0264325427921493356
0.0265979743178766902
0.0267563212659656588
0.0269078805399351369
0.0270528728440197035
0.0271915190352650833
0.0273240614530946349
0.0274507594744096625
0.0275718804283922002
0.0276876920896829519
0.0277984558351539977
0.0279044204955388592
0.0280058181799601215
0.0281028652671966028
0.0281785105081838252
0.0252231261899242033
0.0254337559245583593
0.0256417094318363674
0.0258374332128730906
0.0260256056938089966
0.0262060206721836247
0.0263799266937113606
0.0265468592916887243
0.026706487868093657
0.0268590814184421212
0.0270048929547121348
0.0271441575136647066
0.027277120109627042
0.0274040391946298
0.0275251801538682617
0.0276408077511437443
0.0277511790229765208
0.02785653699819194
0.0279571056389430958
0.0280530814220909634
0.028127595918622697
0.026800630826461995
0.0269821812145869949
0.0271531625855740422
0.027314872876958881
0.027467952841372649
0.0276132718542156826
0.0277515879055959119
0.0278835771971158684
0.0280098471970847973
0.0281309464150155571
0.0282473717942734459
0.0283595752682133939
0.0284679697225852374
0.0285729334957194742
0.0286564819940803538
0.0265018638152214846
0.0266983091344934233
0.0268814040042835087
0.0270543899864321077
0.0272176134889304151
0.0273719765055472179
0.0275183274560291229
0.0276574238309010949
0.0277899415718405526
0.0279164871198112861
0.028037606686226825
0.0281537932853761115
0.0282654930441957157
0.0283731108586780488
0.0284770147864242332
0.0285594528629626934
0.0264016098069501173
0.0265995501533471436
0.0267844113073415283
0.0269590254756477202
0.0271235241393579414
0.0272789288167196824
0.02742609887997733
0.0275657880442780438
0.0276986683400095267
0.0278253424969148143
0.0279463524015788681
0.0280621856290616499
0.0281732813232275017
0.028280035477992526
0.0283828054981373305
0.0284640645831406962
0.0263058968260064703
0.026504943759456584
0.0266915008069329371
0.0268671841288878506
0.0270326388502489731
0.027188838713103871
0.0273366156752697341
0.0274767110822856965
0.0276097891552772728
0.0277364462665892104
0.0278572180406560926
0.0279725851595072662
0.0280829787388633643
0.0281887852313164634
0.0282903506161304406
0.0283703633951130525
0.0255244851455709749
0.0257722607724065536
0.0259999878384596893
0.0262147274825585835
0.0264145409223188812
0.0266023358909113598
0.02677878445108519
0.0269449462936677195
0.0271017127239815553
0.0272498923344394982
0.0273902123223454183
0.0275233268355350794
0.027649823987606393
0.0277702316355331984
0.0278850223728547876
0.0279946184047392896
0.0280993961657877364
0.028199690582320313
0.0282783905227240034
0.025437331828504238
0.0256845483719754068
0.0259131448309568198
0.0261276381512067224
0.0263281703431292348
0.0265167598497494834
0.0266938185897267408
0.0268604538865365033
0.0270175641458566089
0.0271659452204828858
0.0273063102451631227
0.0274393016671175931
0.0275654977578523031
0.027685417272869009
0.0277995235947375505
0.0279082291189154987
0.0280118998427592511
0.0281108637303747605
0.0281882010398411265
0.0248288490090144004
0.0251153748589839042
0.0253870175806741975
0.0256332935109603484
0.0258627631169043512
0.0260770209349442915
0.0262785179692204551
0.0264678986393036032
0.0266457081966117934
0.0268129819179606516
0.0269706126237100365
0.027119380878556202
0.0272599843933195828
0.0273930526507665043
0.0275191529762139273
0.0276387940990364192
0.0277524294516446682
0.0278604610524422792
0.0279632436793711102
0.0280610904086167623
0.0281372578259827637
0.0268105131008678985
0.0269932069075798954
0.0271652027158020178
0.0273277414229189143
0.0274815566263962134
0.0276275299196086788
0.0277664280623179417
0.0278989366841428631
0.0280256711998024544
0.0281471861813197312
0.0282639824705115984
0.028376512615411284
0.0284851890867076143
0.0285904020320222885
0.0286740446540887442
0.0265106644280388749
0.0267082909989906775
0.0268924444932484331
0.0270663639136820011
0.0272303812386051232
0.0273854555412938981
0.0275324413972369599
0.0276721042346181959
0.0278051287273631959
0.0279321284032210508
0.0280536548436844703
0.0281702045048436607
0.0282822239456562222
0.0283901176849623536
0.0284942649861577753
0.0285767976666064828
0.0264106202175503867
0.0266096397253837644
0.0267954837073353519
0.0269709451506323535
0.027136204304482929
0.0272922949651551519
0.0274400795380330687
0.0275803186934586789
0.0277136923465084485
0.0278408095964281024
0.0279622170780272176
0.0280784053327571941
0.028189813656782161
0.0282968375428904149
0.0283998449037383659
0.0284811990086528272
0.0263150526436226606
0.0265151370981428075
0.0267025715958331029
0.0268790634930621518
0.0270452459761422459
0.0272021050747722898
0.0273504752308535194
0.0274911034549091861
0.0276246607927954635
0.0277517493723866381
0.0278729090589263095
0.0279886230369435426
0.0280993221368236006
0.0282053919179754385
0.02830718815963865
0.0283872958540079233
0.0255300876585577464
0.0257791384555922029
0.0260081194045542093
0.0262239816210646307
0.0264247834607191506
0.0266134155338915435
0.0267906353932429904
0.0269574931735459579
0.0271148926130230054
0.0272636442632486105
0.0274044799430496339
0.0275380596065263397
0.0276649764955877731
0.0277857622537171951
0.0279008915760488134
0.0280107859149893758
0.0281158201789710911
0.0282163379074321929
0.0282951319208864863
0.0254432888867365432
0.0256916857951274002
0.0259214003337987116
0.0261369625843486178
0.0263384162609640732
0.0265278134302169254
0.0267056154449400382
0.0268729218613192947
0.0270306434049546532
0.0271795784189241656
0.0273204441934494016
0.0274538882986812074
0.0275804936453735196
0.027700782431080536
0.0278152198151175381
0.0279242169717956179
0.028028137423501711
0.0281273151263729919
0.0282047489464035787
0.0248324026606944678
0.0251203502986158816
0.0253931310127011971
0.0256405945416361587
0.0258710728806456139
0.0260863442939018031
0.0262887109594743054
0.026478875321121826
0.0266574154885084839
0.0268253523580694389
0.0269835864911430606
0.0271329018872624832
0.0272740004806915348
0.0274075166827267985
0.0275340223323883894
0.0276540295600227366
0.0277679935019310258
0.027876314635718772
0.0279793439257295419
0.0280773904920399615
0.0281536244671715778
0.0266132846191864426
0.0268091046327035808
0.026991741813935495
0.0271640204292210412
0.0273266997285092801
0.0274806603044460383
0.0276267555296157846
0.0277657537747219053
0.0278983423493070065
0.0280251380041439714
0.0281466964101663303
0.0282635193826367183
0.0283760612879941053
0.0284847360700554303
0.0285899241464609398
0.0286735232852440847
0.02650926008907354
0.0267069042630901712
0.0268911783418051414
0.0270652618600613348
0.0272294450971617939
0.0273846492952326999
0.0275317406826020225
0.0276714898091115873
0.0278045833097397901
0.0279316357553121598
0.028053199356996017
0.0281697711698545815
0.0282817992966096776
0.0283896894578475195
0.0284938111257014882
0.0285763005206686668
0.026409335590900529
0.026608290720723609
0.0267943992414545959
0.0269699773374803137
0.027135370547305214
0.0272915713765226053
0.0274394464198947502
0.0275797598071056659
0.027713192933827499
0.0278403555745906882
0.0279617946149600602
0.0280780008711297713
0.0281894149575087766
0.0282964333997380649
0.0283994143212191845
0.0284807254871674922
0.0263138160558057284
0.0265139841989919765
0.0267016251177664352
0.0268782211575526279
0.027044507956291302
0.0272014575312513503
0.0273499040622667416
0.0274905956884808796
0.0276242040073158522
0.027751331330131291
0.0278725174753973563
0.0279882456599596825
0.0280989478061665215
0.0282050103216241917
0.0283067792562201673
0.0283868443714361991
0.0255289067641176273
0.0257779956028532375
0.0260071361589071792
0.0262228857117450843
0.0264238200196353322
0.0266125955109134879
0.0267899022752919776
0.02695684072808225
0.0271143130898058408
0.0272631282937854588
0.0274040175728697648
0.0275376405149993231
0.0276645900639429058
0.0277853975711024812
0.0279005375971285961
0.0280104324910559407
0.0281154577709268952
0.0282159472118489602
0.0282946984895221451
0.0254425636134061918
0.0256908988630589474
0.0259206587986469915
0.0261361025210340228
0.0263376421733991506
0.0265271330942791241
0.0267050003247579146
0.0268723668211817181
0.027030145087036439
0.0271791313643463053
0.0273200411948731001
0.0274535210130890973
0.0275801530076006836
0.0277004588613768768
0.0278149034571752128
0.0279238987003387167
0.0280278084768843909
0.0281269567824528541
0.0282043442831774079
0.0248324758283404272