/*--------------------------------*- C++ -*----------------------------------*\
| =========                 |                                                 |
| \\      /  F ield         | OpenFOAM: The Open Source CFD Toolbox           |
|  \\    /   O peration     | Version:  2206                                  |
|   \\  /    A nd           | Website:  www.openfoam.com                      |
|    \\/     M anipulation  |                                                 |
\*---------------------------------------------------------------------------*/
FoamFile
{
    version     2.0;
    format      ascii;
    arch        "LSB;label=32;scalar=64";
    class       volVectorField;
    location    "0.930000000000000604";
    object      faceTraction;
}
// * * * * * * * * * * * * * * * * * * * * * * * * * * * * * * * * * * * * * //

dimensions      [1 -1 -2 0 0 0 0];

internalField   uniform (0 0 0);

boundaryField
{
    inlet
    {
        type            calculated;
        value           uniform (0 0 0);
    }
    outlet
    {
        type            calculated;
        value           nonuniform List<vector> 0();
    }
    top
    {
        type            calculated;
        value           uniform (0 0 0);
    }
    bottom
    {
        type            calculated;
        value           uniform (0 0 0);
    }
    left
    {
        type            calculated;
        value           uniform (0 0 0);
    }
    symmetry
    {
        type            symmetryPlane;
    }
    interface
    {
        type            calculated;
        value           nonuniform List<vector> 
181
(
(1094.16104210137269 -0.0113882081759788742 -0.0328949009082803862)
(971.41265573604403 0.000859896596609719711 -0.0336632947843238037)
(847.487420175530133 0.00088233849809811471 -0.0333566628013973188)
(723.143675359157214 0.000518884780529890017 -0.0331640086262198625)
(598.959614965940887 -1.95938615914485673e-05 -0.0331356579707074578)
(476.717670771105304 -0.00105542676586961441 -0.0336366558824336484)
(357.652965176236194 -0.0033819710410230748 -0.033121080831800126)
(236.957851968414445 -0.00902805339658738215 -0.0311373259655866874)
(118.849395350871021 -0.0151992161771581022 -0.0259430327677073608)
(40.1772947042296025 -0.00783226566216019271 -0.00883813677788206596)
(14.3026874409432896 -0.00167031054953784073 -0.00102358683723790546)
(7.40693424392629751 -0.000435332632979698142 -0.000171564373580295224)
(3.90714362561512329 -0.000136136597966695554 -0.000104826000601667779)
(-1.24113795383126657 -0.0010356231955868469 -0.00052267399314236422)
(-10.1149758361428024 -0.00287077195799982253 -0.00125418859854343188)
(-14.323760778655398 -0.00288088706908663479 -0.00144608298419081783)
(1140.63612435666982 0.000244120364871078813 -0.022619973878899885)
(1016.93828118091665 0.000968280732415531835 -0.0238618186236184485)
(891.115997977150187 0.00129166789340482498 -0.0233501745300429692)
(764.056513217271345 0.00119528300372674342 -0.0231022297372895369)
(636.878839507745283 0.00089210436512754301 -0.0230611128827849197)
(511.117554783035189 0.00105657803546036042 -0.0236399179049993982)
(388.581781499900501 -0.000427976101745022452 -0.0237864806608360409)
(267.181814531755663 -0.00509451446563209155 -0.0229002002951577688)
(142.957858522855844 -0.0122736142149838089 -0.0214855456755577608)
(50.3831191377034386 -0.00882066793697756403 -0.00974890471535422298)
(16.8709454519638982 -0.00200186544193168029 -0.00168931888627134427)
(8.89653385779864436 -0.000899057838485830879 -0.000674680960044832896)
(4.29479420288111502 -0.000382188611016091992 -0.000281322765689061174)
(-2.70338093518661937 -0.00120458034858806121 -0.000627455576421621659)
(-13.5712610518136056 -0.00260815010811843656 -0.0010943950241921348)
(-17.6041165319772865 -0.00303012710011657744 -0.00123388781780360969)
(1160.27458070902185 -0.00641282146086432671 -0.0185677091347292017)
(1035.98762907290529 0.00188758642702483055 -0.0199591932548116718)
(909.308463231776841 0.00280154628757059258 -0.0195741729001499241)
(781.040598044790499 0.00312327198694776218 -0.0193247450118916794)
(653.010183156181711 0.00307959899311909544 -0.0194069337679886739)
(527.673302757820693 0.00257681315713095306 -0.0199464997555855207)
(405.40195899550713 0.000674463701023078925 -0.0203195923523812223)
(283.509516470753965 -0.00392158913022025608 -0.0193326974464005583)
(158.768611611207859 -0.0113093589441067236 -0.0178273994777660323)
(60.3070128261849092 -0.00967473752386760304 -0.00908396913233965736)
(19.5435063853037327 -0.00265021013670309422 -0.00182116842313252312)
(9.82610181186812248 -0.00113643374456749669 -0.000630947013718738685)
(4.63895774145698692 -0.000586414950554904916 -0.000260038918208755048)
(-3.55686464013520709 -0.00180138013732848257 -0.000578255262455072824)
(-15.5480142585404018 -0.00302847123942127363 -0.000820343827531423556)
(-19.0440801360272722 -0.00332062821812127663 -0.000902101521932128798)
(1165.85349541699566 0.000340920690581426444 -0.0119681138010006884)
(1041.62237702810103 0.00175198957881420449 -0.0135398436081439495)
(914.737848532579505 0.00247394657679558989 -0.0133315790264323785)
(785.848556967486957 0.00276650944449345799 -0.0131491328328981211)
(657.953785519150188 0.00320333842664485878 -0.0130717455469013238)
(534.39356360324075 0.00349471135011683674 -0.0132758587837243577)
(413.709755990608755 0.00146672034534094738 -0.013228652079031334)
(293.24300853273968 -0.00323141729224007144 -0.0127479366730643834)
(169.97495956819489 -0.0107859325016978237 -0.0123272363509213424)
(68.7064285793142346 -0.010394049383704862 -0.00739273550520210595)
(22.5529150911766187 -0.00318493187945925391 -0.00179354738716437623)
(10.6957673082854274 -0.001244270599688175 -0.000614418891095760479)
(4.95677588971276961 -0.000615098544424731871 -0.000254373289662333682)
(-3.74639439789621909 -0.00196040387241566173 -0.000597075135394707569)
(-16.0839694492526739 -0.00311168336287961141 -0.000776303413021980329)
(-19.4391306470670067 -0.00344980784476497286 -0.000810871599218513685)
(1167.47478494777806 -0.000586563064080602276 -0.0099456012275748254)
(1043.39124936541452 0.00187445966692987328 -0.0108884806907204468)
(916.574081493846393 0.00278601900513863803 -0.0110129717968506027)
(787.858500935376355 0.00313013815934201503 -0.0110763730091771907)
(660.507426584413679 0.00394531821204150215 -0.0111939583419492384)
(537.60438080135998 0.00388858337140557571 -0.0114368738622765507)
(417.486961415911708 0.00177722128991532054 -0.0115014173472820502)
(298.035291167898151 -0.00306723294588424119 -0.0110607039425605971)
(175.857718522523669 -0.0104488002008173118 -0.010240267329425767)
(72.9493934779478508 -0.0110533083139397383 -0.00626040784186386069)
(23.7288111902814229 -0.00354637232765158197 -0.00150565981986162077)
(10.7879686335769271 -0.00134951844954558334 -0.000451912690939467972)
(4.69320962579151324 -0.000678573835625230818 -0.000185615186250445789)
(-4.23891044055851118 -0.00200987464391283758 -0.000432653090308666543)
(-16.5722199891004109 -0.00310688715751636585 -0.000567796165037889357)
(-19.6766242691084834 -0.00351570067761870081 -0.000625415407450572239)
(1166.8302513978017 0.000459486124553729687 -0.00546334167311984722)
(1042.58607190076737 0.00213730984696455144 -0.00677139437324850244)
(915.825605142855693 0.00312785066394343338 -0.00660144164173767905)
(787.912941837282915 0.003570431452590487 -0.0065910132569494996)
(661.685089015659059 0.00433598261120440431 -0.00673260724708498858)
(539.178010172739278 0.00396152481362107341 -0.00688427853026541726)
(419.109768365492698 0.0015924631428373354 -0.00646464851216459017)
(299.957120627880101 -0.00339095932758865046 -0.00567719528852153078)
(178.374611991329942 -0.0105868193783012904 -0.00498559125098143978)
(74.7175563966979013 -0.0114255431778183224 -0.00321521581418929801)
(23.7074771988282258 -0.00383618035161377305 -0.000918827387861489552)
(10.1526536071485758 -0.00139310335007331184 -0.000337938961552180139)
(4.14921765332092729 -0.0006318042840254681 -0.000158342982139957154)
(-4.46087597625783694 -0.00191609837380384679 -0.000398854018790950322)
(-16.2824741621336102 -0.00308054914422298222 -0.000511948114364454455)
(-19.045632999337176 -0.00341552956334666841 -0.000501393698081124524)
(1166.87604918989018 0.00018300044961838769 -0.00342975247065610382)
(1042.20844709477933 0.00227824715242713098 -0.00425865653883076949)
(915.271041435776965 0.00343342208735919778 -0.00411957499330844329)
(788.078143996062067 0.004028913929772256 -0.00413689163378042329)
(662.754623862097901 0.00475539183768755071 -0.00431028071863024265)
(540.687647571399566 0.00419911039413021527 -0.00444614774271892641)
(421.060875410825361 0.00161896054550913398 -0.00428116950104769512)
(302.292433789822383 -0.0033439252439566294 -0.00400597308151569298)
(181.147532480046436 -0.0102781006203150217 -0.00371828075600989794)
(76.5193886940370476 -0.0114883668544950978 -0.00235263299453989045)
(23.435752363547266 -0.00409335203439505253 -0.000612549381571467775)
(9.01989953590267213 -0.00148241863843250423 -0.000194295067593310786)
(3.16108417768515171 -0.000538481214586542379 -7.5945335210318303e-05)
(-4.40483255785984262 -0.00139549031360038946 -0.000173385685849046604)
(-15.1373398467486115 -0.00301544767577102647 -0.000278748948278455483)
(-18.2090991255626484 -0.00333304971256503891 -0.000272790501174544487)
(1166.73790873963935 0.000824799168553198066 -0.00109977510129309554)
(1041.93303734940696 0.00233243690116310531 -0.00136820443376144216)
(914.926881749074255 0.00346891331245640375 -0.0013256555504720575)
(787.854682039691966 0.00408278953560389703 -0.00131677280657103079)
(662.782006456426984 0.00479409837948457495 -0.0013590165540734759)
(540.815206961061563 0.00425381319294952133 -0.00139313911181888298)
(421.142116768453832 0.00171168632487957574 -0.00132146799029181426)
(302.270833049707278 -0.00324859312599852729 -0.00114888343590472059)
(181.132834909638461 -0.0100417410680148176 -0.00101162735874315776)
(76.787847751039422 -0.011211834167772208 -0.00066244040625192081)
(23.8556986856054358 -0.00409436569237140325 -0.000196611435379682927)
(9.21981484180898114 -0.00157174722637360136 -7.00298583711113484e-05)
(3.16096538196909371 -0.000594060167050340995 -2.63348856713294029e-05)
(-4.19217237673178644 -0.00138109389898079813 -5.21641888058389685e-05)
(-14.4921251222490195 -0.00303330768788789363 -8.65657333530185657e-05)
(-17.5441268167668376 -0.00338181955547193309 -8.03419990573638239e-05)
(0.0472729693698229272 0.0254929772094837706 654.465769114614432)
(0.0469452373248481283 -0.00270900917168886762 536.892737584924589)
(0.0451309640943964099 -0.00716131144760096157 429.137079831538074)
(0.0419966530662710183 -0.0120011449325268908 330.340842979280012)
(0.0361476752787864494 -0.021703140083608987 235.066307478211655)
(0.0267843079571670716 -0.0328576948420442813 138.637465496898471)
(0.00917812778028321424 -0.0211988787145447957 74.3211676983074767)
(0.00169075330653673146 -0.00871636759329955102 51.0697391038000248)
(0.00095875936950778895 -0.00797503019678315328 35.7338090529611847)
(0.000706013080448726041 -0.00302116708817997759 21.566518204587755)
(0.000751267433900961942 -0.000855041570059798914 12.9879016138714256)
(0.000763114423331825065 -0.000436441690184231847 6.74246574297655066)
(0.000827320684403161952 -0.000199242670226160975 0.487913878538612067)
(0.00139607431021236553 -0.00243173871452126737 -10.032173831343334)
(0.000198203662295019242 -0.00369145250462287562 -23.3575469165140426)
(0.0413573604514988757 0.0126418865043030782 687.127338817217492)
(0.0408641758831755422 -0.0057423259858813986 572.723494123931573)
(0.0391615535293183895 -0.0128306139084349499 459.800814848037589)
(0.0361727172641433045 -0.023820922039826959 338.999135142209411)
(0.0264298352310055502 -0.0339049389433952048 210.654920875394197)
(0.00518674846070995513 -0.0184768832845559408 116.037533601496904)
(-0.00133269687398149717 -0.00485864286455577055 77.5128058199713195)
(-0.00152480840873016441 -0.00261387278310537974 61.304790736692496)
(-0.00220597181611232023 -0.00221597304910712027 47.3651850230793059)
(-0.000385919202011002574 -0.00363579185416931577 32.9882351475629676)
(0.00170242255582628743 -0.00472559400888924227 19.2352306557628303)
(0.00259914033990324899 -0.00615879597791272118 8.10691677471849914)
(0.00157426683302244654 -0.00736439698112309991 1.5996687104547842)
(0.00067575910876098693 -0.00730721418462879514 -6.1461724612423323)
(0.0413434943172784897 0.00281895249867152118 702.406769930337532)
(0.0407870341183545274 -0.00929734170983471768 578.980690285927722)
(0.0397370793555182067 -0.0204330904898274227 447.263752234792719)
(0.0373375775675458058 -0.0307421908948192386 306.662112429091792)
(0.0244787369307614966 -0.02744974396551602 176.006975775921234)
(0.0058422660810952794 -0.00514058764684157364 101.296909638563321)
(0.00139186068657239917 -0.00104167465897048606 78.0182474012190283)
(0.00310405800902584933 -9.01205182791614475e-05 62.3516391903160212)
(0.00282461055836367948 -0.00278367591400638121 44.699996780906325)
(0.00235729639306516163 -0.00618734465074195425 26.8086716975753347)
(0.00198959930376042208 -0.009386990973851728 11.0990366971142507)
(0.00177634579169607255 -0.0105439403502303637 2.54092462197876268)
(0.0566202475731697047 -0.00339023021815494348 606.085985457959282)
(0.0567846954817552221 -0.0168139280223057186 478.748373927921648)
(0.0556804118962397204 -0.0291748770726784866 348.445778992978376)
(0.0518457908657610697 -0.0335324984641781759 227.498354111863478)
(0.0319607696651247539 -0.0187642166852209531 131.044978919657837)
(0.00228369858880517413 -0.000680679743578231872 81.6299251145197644)
(0.0013741599810465732 -0.0011369984440266997 62.4861657965252704)
(0.0020883617487393257 -0.007561402799472405 40.9999098103362059)
(0.0010627500365687412 -0.0104178110846376709 17.7469024362193473)
(0.00168696042771755554 -0.0120579482890740101 4.48959762300602439)
(0.00190333803951290843 -0.0123365949543549243 1.65444973426124831)
(0.00166013809518953141 -0.0108570045749542161 2.11654609210774769)
)
;
    }
    procBoundary0to1
    {
        type            processor;
        value           uniform (0 0 0);
    }
    procBoundary0to3
    {
        type            processor;
        value           uniform (0 0 0);
    }
}


// ************************************************************************* //
