/*--------------------------------*- C++ -*----------------------------------*\
| =========                 |                                                 |
| \\      /  F ield         | OpenFOAM: The Open Source CFD Toolbox           |
|  \\    /   O peration     | Version:  2206                                  |
|   \\  /    A nd           | Website:  www.openfoam.com                      |
|    \\/     M anipulation  |                                                 |
\*---------------------------------------------------------------------------*/
FoamFile
{
    version     2.0;
    format      ascii;
    arch        "LSB;label=32;scalar=64";
    class       volVectorField;
    location    "0.930000000000000604";
    object      faceForces;
}
// * * * * * * * * * * * * * * * * * * * * * * * * * * * * * * * * * * * * * //

dimensions      [1 1 -2 0 0 0 0];

internalField   uniform (0 0 0);

boundaryField
{
    inlet
    {
        type            calculated;
        value           uniform (0 0 0);
    }
    outlet
    {
        type            calculated;
        value           nonuniform List<vector> 0();
    }
    top
    {
        type            calculated;
        value           uniform (0 0 0);
    }
    bottom
    {
        type            calculated;
        value           uniform (0 0 0);
    }
    left
    {
        type            calculated;
        value           uniform (0 0 0);
    }
    symmetry
    {
        type            symmetryPlane;
    }
    interface
    {
        type            calculated;
        value           nonuniform List<vector> 
181
(
(0.341925325656678769 -3.55881505499339632e-06 -1.02796565338376146e-05)
(0.303566454917513773 2.68717686440537399e-07 -1.05197796201011889e-05)
(0.264839818804853133 2.757307806556608e-07 -1.04239571254366597e-05)
(0.225982398549736674 1.62151493915590678e-07 -1.03637526956937088e-05)
(0.187174879676856559 -6.12308174732767811e-09 -1.03548931158460829e-05)
(0.148974272115970668 -3.29820864334255065e-07 -1.05114549632605332e-05)
(0.111766551617573887 -1.05686595031971167e-06 -1.03503377599375461e-05)
(0.0740493287401295525 -2.82126668643355853e-06 -9.73041436424584544e-06)
(0.0371404360471471184 -4.74975505536189731e-06 -8.10719773990853391e-06)
(0.0125554045950717532 -2.44758301942506061e-06 -2.76191774308814634e-06)
(0.00446958982529478601 -5.21972046730576153e-07 -3.19870886636846012e-07)
(0.00231466695122697214 -1.36041447806155905e-07 -5.36138667438423476e-08)
(0.00122098238300472409 -4.2542686864592296e-08 -3.27581251880211292e-08)
(-0.000387855610572271066 -3.23632248620889863e-07 -1.63335622856988926e-07)
(-0.00316092994879462429 -8.9711623687494404e-07 -3.91933937044822261e-07)
(-0.00447617524332982308 -9.00277209089575533e-07 -4.5190093255963166e-07)
(0.356448788861459309 7.62876140222121327e-08 -7.06874183715621385e-06)
(0.31779321286903639 3.0258772887985365e-07 -7.45681831988076389e-06)
(0.278473749367859402 4.03646216689007757e-07 -7.29692954063842692e-06)
(0.238767660380397345 3.73525938664607375e-07 -7.21944679290298221e-06)
(0.199024637346170208 2.78782614102356909e-07 -7.20659777587028044e-06)
(0.159724235869698611 3.30180636081362848e-07 -7.38747434531231672e-06)
(0.121431806718718852 -1.33742531795319443e-07 -7.43327520651125861e-06)
(0.0834943170411737018 -1.59203577051002979e-06 -7.15631259223680789e-06)
(0.0446743307883924051 -3.83550444218243626e-06 -6.71423302361179333e-06)
(0.0157447247305323272 -2.75645873030548942e-06 -3.04653272354819526e-06)
(0.00527217045373872244 -6.25582950603650499e-07 -5.27912151959795467e-07)
(0.00278016683056207846 -2.8095557452682234e-07 -2.10837800014010415e-07)
(0.00134212318840034651 -1.19433940942528557e-07 -8.79133642778314767e-08)
(-0.00084480654224581913 -3.76431358933769378e-07 -1.96079867631756917e-07)
(-0.00424101907869174535 -8.15046908787010224e-07 -3.41998445060041602e-07)
(-0.00550128641624291793 -9.46914718786433049e-07 -3.8558994306362912e-07)
(0.362585806471569683 -2.00400670652010425e-06 -5.80240910460288133e-06)
(0.323746134085283244 5.89870758445260204e-07 -6.23724789212865399e-06)
(0.284158894759930503 8.7548321486581094e-07 -6.11692903129685688e-06)
(0.24407518688899732 9.76022495921176943e-07 -6.03898281621615734e-06)
(0.204065682236306833 9.62374685349717519e-07 -6.06466680249646146e-06)
(0.164897907111819259 8.05254111603424284e-07 -6.23328117362048583e-06)
(0.126688112186096075 2.10769906569712326e-07 -6.34987261011913638e-06)
(0.0885967238971107768 -1.22549660319383208e-06 -6.04146795200018496e-06)
(0.0496151911285024061 -3.53417467003334747e-06 -5.57106233680187897e-06)
(0.0188459415081828063 -3.02335547620862971e-06 -2.83874035385614636e-06)
(0.00610734574540742689 -8.2819066771971838e-07 -5.69115132228914492e-07)
(0.00307065681620879343 -3.55135545177343369e-07 -1.9717094178710617e-07)
(0.00144967429420530614 -1.8325467204840752e-07 -8.12621619402358256e-08)
(-0.0011115202000422555 -5.62931292915152449e-07 -1.80704769517210796e-07)
(-0.00485875445579387298 -9.46397262319147587e-07 -2.56357446103569736e-07)
(-0.00595127504250854682 -1.03769631816290309e-06 -2.81906725603791389e-07)
(0.364329217317811149 1.06537715806695765e-07 -3.74003556281271521e-06)
(0.325506992821281593 5.47496743379438881e-07 -4.23120112754498417e-06)
(0.285855577666431049 7.73108305248621757e-07 -4.16611844576011774e-06)
(0.245577674052339712 8.64534201404205729e-07 -4.10910401028066364e-06)
(0.205610557974734126 1.00104325832651684e-06 -4.08492048340665748e-06)
(0.166997988626012756 1.09209729691151167e-06 -4.14870586991386278e-06)
(0.129284298747065096 4.58350107919045613e-07 -4.13395377469728765e-06)
(0.0916384401664812193 -1.0098179038250231e-06 -3.98373021033262282e-06)
(0.0531171748650607969 -3.37060390678056283e-06 -3.85226135966291134e-06)
(0.0214707589310356856 -3.24814043240776759e-06 -2.31022984537565708e-06)
(0.00704778596599269468 -9.95291212331016998e-07 -5.60483558488867649e-07)
(0.00334242728383919675 -3.88834562402554738e-07 -1.92005903467425177e-07)
(0.00154899246553523657 -1.92218295132728229e-07 -7.94916530194790777e-08)
(-0.00117074824934257056 -6.12626210129895325e-07 -1.86585979810846433e-07)
(-0.00502624045289145043 -9.72401050899876576e-07 -2.42594816569368351e-07)
(-0.00607472832720845363 -1.07806495148905641e-06 -2.53397374755786094e-07)
(0.364835870296180698 -1.83300957525188258e-07 -3.10800038361713375e-06)
(0.326059765426692016 5.8576864591558538e-07 -3.40265021585013984e-06)
(0.286429400466826911 8.7063093910582414e-07 -3.44155368651581229e-06)
(0.246205781542305241 9.78168174794380291e-07 -3.46136656536787378e-06)
(0.206408570807629171 1.23291194126296868e-06 -3.4981119818591351e-06)
(0.168001369000425088 1.21518230356424305e-06 -3.57402308196142409e-06)
(0.130464675442472505 5.55381653098538044e-07 -3.59419292102564337e-06)
(0.0931360284899682561 -9.58510295588826159e-07 -3.45646998205018969e-06)
(0.0549555370382885655 -3.26525006275540495e-06 -3.20008354044554746e-06)
(0.0227966854618587046 -3.4541588481061685e-06 -1.95637745058245645e-06)
(0.00741525349696295355 -1.10824135239112076e-06 -4.70518693706757069e-07)
(0.00337124019799279031 -4.21724515482994876e-07 -1.41222715918583771e-07)
(0.00146662800805984726 -2.12054323632884524e-07 -5.80047457032642819e-08)
(-0.0013246595126745358 -6.28085826222762155e-07 -1.35204090721458387e-07)
(-0.00517881874659387349 -9.70902236723863296e-07 -1.77436301574340227e-07)
(-0.00614894508409642281 -1.09865646175584783e-06 -1.95442314828304504e-07)
(0.364634453561813343 1.43589413923040647e-07 -1.70729427284995364e-06)
(0.325808147468990061 6.67909327176422931e-07 -2.11606074164015886e-06)
(0.286195501607142466 9.77453332482323084e-07 -2.06295051304302497e-06)
(0.246222794324151145 1.11575982893452821e-06 -2.05969164279672037e-06)
(0.206776590317393344 1.35499456600137572e-06 -2.1039397647140578e-06)
(0.168493128178981183 1.23797650425658655e-06 -2.15133704070794479e-06)
(0.130971802614216593 4.97644732136667774e-07 -2.02020266005143614e-06)
(0.0937366001962126744 -1.05967478987145494e-06 -1.77412352766298115e-06)
(0.0557420662472905698 -3.30838105571915082e-06 -1.55799726593169885e-06)
(0.0233492363739681089 -3.57048224306822767e-06 -1.00475494193415624e-06)
(0.0074085866246338325 -1.19880635987930591e-06 -2.87133558706715951e-07)
(0.00317270425223393094 -4.353447968979101e-07 -1.05605925485056334e-07)
(0.00129663051666279025 -1.9743883875795885e-07 -4.94821819187366296e-08)
(-0.00139402374258057612 -5.98780741813703055e-07 -1.24641880872172171e-07)
(-0.0050882731756667493 -9.62671607569681256e-07 -1.59983785738891906e-07)
(-0.00595176031229288898 -1.06735298854583785e-06 -1.56685530650351996e-07)
(0.364648765371840766 5.71876405057461675e-08 -1.07179764708003264e-06)
(0.325690139717118521 7.1195223513347839e-07 -1.33083016838461563e-06)
(0.286022200448680319 1.07294440229974935e-06 -1.28736718540888845e-06)
(0.246274419998769534 1.25903560305383065e-06 -1.29277863555638295e-06)
(0.207110819956905445 1.48605994927735854e-06 -1.34696272457194997e-06)
(0.168964889866062506 1.31222199816569349e-06 -1.38942116959966567e-06)
(0.131581523565882902 5.05925170471604261e-07 -1.33786546907740455e-06)
(0.0944663855593195767 -1.04497663873644762e-06 -1.25186658797365511e-06)
(0.0566086039000144314 -3.21190644384843974e-06 -1.16196273625309152e-06)
(0.0239123089668865675 -3.59011464202971699e-06 -7.35197810793715468e-07)
(0.00732367261360852752 -1.27917251074845503e-06 -1.91421681741083855e-07)
(0.00281871860496958745 -4.63255824510158017e-07 -6.0717208622909671e-08)
(0.000987838805526608521 -1.68275379558294253e-07 -2.37329172532244385e-08)
(-0.00137651017433120209 -4.3609072300012209e-07 -5.41830268278271083e-08)
(-0.00473041870210893448 -9.42327398678444518e-07 -8.71090463370172151e-08)
(-0.0056903434767383446 -1.04157803517657773e-06 -8.5247031617045399e-08)
(0.364605596481137273 2.57749740172874394e-07 -3.43679719154092397e-07)
(0.325604074171689739 7.28886531613470574e-07 -4.27563885550450776e-07)
(0.285914650546585714 1.0840354101426262e-06 -4.14267359522517967e-07)
(0.24620458813740384 1.27587172987621829e-06 -4.11491502053447286e-07)
(0.207119377017633305 1.49815574358892865e-06 -4.24692673147960967e-07)
(0.169004752175331896 1.32931662279672647e-06 -4.35355972443401315e-07)
(0.131606911490141781 5.34901976524867274e-07 -4.12958746966191812e-07)
(0.0944596353280336004 -1.01518535187454071e-06 -3.59026073720225499e-07)
(0.0566040109092619398 -3.13804408375462609e-06 -3.16133549607236354e-07)
(0.023996202422199811 -3.50369817742881389e-06 -2.07012626953725186e-07)
(0.00745490583925170498 -1.27948927886606478e-06 -6.14410735561509682e-08)
(0.00288119213806530905 -4.91171008241750854e-07 -2.18843307409723142e-08)
(0.000987801681865340623 -1.85643802203231329e-07 -8.22965177229042862e-09)
(-0.00131005386772868452 -4.3159184343149979e-07 -1.63013090018246917e-08)
(-0.00452878910070281249 -9.47908652464965504e-07 -2.70517916728182638e-08)
(-0.00548253963023964761 -1.05681861108498117e-06 -2.51068747054262445e-08)
(1.4772802928069698e-05 7.96655537796369681e-06 0.204520552848317466)
(1.46703866640150883e-05 -8.46565366152773948e-07 0.167778980495289498)
(1.4103426279498886e-05 -2.23790982737530163e-06 0.134105337447355727)
(1.31239540832097004e-05 -3.75035779141465525e-06 0.10323151343102506)
(1.12961485246207671e-05 -6.78223127612781007e-06 0.0734582210869411528)
(8.3700962366147291e-06 -1.02680296381388608e-05 0.0433242079677808728)
(2.86816493133851404e-06 -6.62464959829527038e-06 0.0232253649057211631)
(5.28360408292730721e-07 -2.72386487290612062e-06 0.0159592934699375709)
(2.99612302971184585e-07 -2.4921969364947396e-06 0.0111668153290503894)
(2.20629087640227267e-07 -9.44114715056244687e-07 0.00673953693893368511)
(2.34771073094051314e-07 -2.67200490643687959e-07 0.0040587192543348324)
(2.38473257291195792e-07 -1.36388028182572723e-07 0.00210702054468017621)
(2.5853771387598861e-07 -6.2263334445675425e-08 0.000152473087043316567)
(4.3627322194136596e-07 -7.59918348287899068e-07 -0.00313505432229480453)
(6.19386444671935574e-08 -1.15357890769464949e-06 -0.00729923341141064299)
(1.29241751410933822e-05 3.9505895325947074e-06 0.214727293380380213)
(1.27700549634923414e-05 -1.79447687058793498e-06 0.178976091913728402)
(1.22379854779119683e-05 -4.00956684638591236e-06 0.143687754640011406)
(1.13039741450447575e-05 -7.44403813744590775e-06 0.105937229731940197)
(8.25932350968922171e-06 -1.05952934198109849e-05 0.0658296627735605877)
(1.62085889397185943e-06 -5.77402602642372598e-06 0.0362617292504677433)
(-4.16467773119217443e-07 -1.51832589517367664e-06 0.0242227518187410132)
(-4.76502627728175179e-07 -8.16835244720429057e-07 0.0191577471052163557)
(-6.89366192535098336e-07 -6.92491577845973288e-07 0.0148016203197122442)
(-1.20599750628438123e-07 -1.13618495442790948e-06 0.0103088234836134114)
(5.32007048695714001e-07 -1.47674812777788602e-06 0.006011009579925875)
(8.12231356219764879e-07 -1.92462374309772432e-06 0.0025334114920995297)
(4.91958385319513253e-07 -2.30137405660096269e-06 0.00049989647201711875)
(2.11174721487807866e-07 -2.28350443269649255e-06 -0.00192067889413822385)
(1.29198419741495398e-05 8.80922655834851156e-07 0.219502115603230658)
(1.27459481619858006e-05 -2.9054192843233521e-06 0.180931465714352563)
(1.24178372985994557e-05 -6.38534077807107707e-06 0.139769922573372896)
(1.16679929898580747e-05 -9.60693465463102007e-06 0.0958319101340912721)
(7.64960529086297317e-06 -8.57804498922376187e-06 0.0550021799299754213)
(1.82570815034227804e-06 -1.60643363963799468e-06 0.0316552842620510949)
(4.3495646455387496e-07 -3.25523330928277094e-07 0.0243807023128809579)
(9.70018127820578661e-07 -2.81626619622379711e-08 0.0194848872469737706)
(8.82690799488651413e-07 -8.69898723126995598e-07 0.0139687489940332511)
(7.36655122832862636e-07 -1.9335452033568596e-06 0.0083777099054922876)
(6.2174978242513237e-07 -2.93343467932866727e-06 0.00346844896784820594)
(5.5510805990502421e-07 -3.29498135944699796e-06 0.000794038944368365574)
(1.76938273666155518e-05 -1.059446943173421e-06 0.189401870455612464)
(1.77452173380485663e-05 -5.25435250697055441e-06 0.149608866852476013)
(1.74001287175749316e-05 -9.11714908521203648e-06 0.108889305935305852)
(1.62018096455503171e-05 -1.04789057700556697e-05 0.0710932356599572601)
(9.98774052035148619e-06 -5.86381771413154778e-06 0.0409515559123930784)
(7.13655809001618194e-07 -2.12712419868197829e-07 0.0255093515982874712)
(4.29424994077054376e-07 -3.55312013758343853e-07 0.0195269268114141581)
(6.52613046481039014e-07 -2.36293837483512529e-06 0.012812471815730057)
(3.32109386427731121e-07 -3.25556596394926696e-06 0.00554590701131853735)
(5.27175133661735821e-07 -3.76810884033562607e-06 0.00140299925718938203)
(5.94793137347784944e-07 -3.85518592323592051e-06 0.000517015541956641032)
(5.18793154746729484e-07 -3.39281392967319846e-06 0.000661420653783672294)
)
;
    }
    procBoundary0to1
    {
        type            processor;
        value           uniform (0 0 0);
    }
    procBoundary0to3
    {
        type            processor;
        value           uniform (0 0 0);
    }
}


// ************************************************************************* //
