/*--------------------------------*- C++ -*----------------------------------*\
| =========                 |                                                 |
| \\      /  F ield         | OpenFOAM: The Open Source CFD Toolbox           |
|  \\    /   O peration     | Version:  2206                                  |
|   \\  /    A nd           | Website:  www.openfoam.com                      |
|    \\/     M anipulation  |                                                 |
\*---------------------------------------------------------------------------*/
FoamFile
{
    version     2.0;
    format      ascii;
    arch        "LSB;label=32;scalar=64";
    class       surfaceScalarField;
    location    "0.330000000000000071";
    object      alphaPhi0.water;
}
// * * * * * * * * * * * * * * * * * * * * * * * * * * * * * * * * * * * * * //

dimensions      [0 3 -1 0 0 0 0];

oriented        oriented;

internalField   nonuniform List<scalar> 
20856
(
-1.41677276921046949e-10
2.63633069542397636e-11
-6.44013945589832904e-12
-1.22799169823760903e-10
2.21664012616646179e-11
-6.45623046097855486e-12
6.45155213105464172e-12
-1.07504486735852773e-10
1.61892812437471557e-11
-1.01848854830815797e-11
1.69662390543575059e-11
-9.3400400032022934e-11
1.13373806971216052e-11
-1.32001947317851239e-11
2.44457935693327104e-11
-8.11757866494413755e-11
7.44226574560752547e-12
-1.58215851536105746e-11
3.01335951644317874e-11
-7.04030809451741317e-11
4.95134835064897586e-12
-1.83459927125317833e-11
3.50252977507929194e-11
-6.27608508253520631e-11
2.89499857423454781e-12
-2.14354960151588313e-11
3.99436477785839762e-11
-5.69566720216977628e-11
4.10382269073199752e-12
-2.59368979019157752e-11
4.68257312692436309e-11
-5.53368478474162892e-11
1.11110691110617839e-12
-3.58173352199972191e-11
5.96435543685134317e-11
-5.17045750320932225e-11
7.96176564166182619e-12
-5.74224808371531964e-11
9.16615623239310431e-11
-3.08773284244736603e-11
3.24060001716705043e-11
-9.28946664746421232e-11
1.38251157735364085e-10
-7.69662037187585332e-12
8.53251036795265223e-11
-1.50022215479955377e-10
2.04916817827481622e-10
2.68597679906794413e-10
4.37390114760875911e-10
-3.05062633614208326e-10
2.8100018586550545e-10
8.99947640558302547e-09
6.30863464959921672e-09
8.18014506075945938e-10
-1.70852813918188392e-09
-4.22393791600073563e-09
5.57005296803594417e-07
1.90918707821227334e-07
-2.1656052757767968e-07
8.75034592993575452e-06
3.49008509716915109e-06
-3.6244111458877232e-06
-5.08735476771033407e-11
7.37597348617524492e-12
-1.30195176532205321e-12
1.153740989934704e-12
-4.56079924384491344e-11
6.34081667487911019e-12
-2.80100067693037971e-12
5.29013290335357868e-12
-4.12800825306110248e-11
4.65763371823565294e-12
-4.10887027568401273e-12
8.55580375931619607e-12
-3.7158916288487703e-11
3.22291237313565426e-12
-5.27138845078289266e-12
1.11684120215532212e-11
-3.30144021918777512e-11
2.43217114932712046e-12
-6.38188698437764427e-12
1.33472882020053261e-11
-2.99001134847007638e-11
2.15939261480854966e-12
-7.60278837365209428e-12
1.54392406573789227e-11
-2.77284751256720699e-11
2.51440168149874289e-12
-9.2388970486631534e-12
1.81656167214044422e-11
-2.68719780241407601e-11
2.71104864423415438e-12
-1.21508246998818869e-11
2.22193069869834237e-11
-2.78463258709989845e-11
5.01126974448269418e-12
-1.90392436852588976e-11
3.19667877020579325e-11
-2.70727355329477467e-11
1.68603266787831291e-11
-3.24036305054996246e-11
5.21100558710828432e-11
-1.3225026391947504e-11
3.01053507964943613e-11
-5.61010351081428033e-11
8.48869005022407107e-11
-4.82079995161224669e-12
1.06009371233238434e-10
-9.78644579724819112e-11
1.39254087418375389e-10
1.71695692434984952e-10
4.22626254119132298e-10
-2.41565887684045366e-10
2.57051472526613193e-10
7.34757939826677268e-09
5.34661909198615099e-09
4.86833519617741463e-10
-1.04169015032281054e-09
-3.52933024479862438e-08
5.07912223115460243e-07
1.59075644382227926e-07
-1.69385872799849683e-07
7.67219310568736202e-06
3.16811107284650793e-06
-3.00976025091365164e-06
-1.82392730656067125e-11
1.94760737868103907e-12
-5.36211091995222784e-13
9.48784175882221959e-13
-1.69461941366351415e-11
1.7119329159785017e-12
-1.06424409250734799e-12
2.35458684811636815e-12
-1.58887839266845512e-11
1.15568357839514528e-12
-1.56789471970111674e-12
3.60736551130211892e-12
-1.47526075178470197e-11
9.30029886761212362e-13
-2.04200367593765737e-12
4.66714393886122636e-12
-1.33807980906180805e-11
8.97433464961175871e-13
-2.52706588493194842e-12
5.60640488541842908e-12
-1.27289740929269918e-11
1.35621201156808601e-12
-3.10362149517031224e-12
6.62697926946238616e-12
-1.23174432901690521e-11
1.89091380302026688e-12
-4.03125537382399846e-12
8.16838194261645246e-12
-1.32015388912236316e-11
3.15309924834990386e-12
-5.99098036147844506e-12
1.09505837232816083e-11
-1.51797129779717944e-11
8.09389384221204138e-12
-1.02458069963812381e-11
1.75238894695814678e-11
-1.43875060036518405e-11
1.5035803648166386e-11
-1.84279328581238622e-11
2.92063840526112219e-11
-2.55113409433231899e-12
3.32859915429627578e-11
-3.57414411751092976e-11
4.90022234744892454e-11
5.49742212090197057e-12
1.40179546411204831e-10
-8.00828514156418636e-11
9.9350996908522366e-11
6.19259830008022238e-11
5.22886322005319055e-10
-1.86204182742035795e-10
2.2462463107762882e-10
6.6260106198608606e-09
5.02868929927818743e-09
3.32306119308939916e-10
-6.8458727712207062e-10
-5.32921610320247805e-08
5.32280106836525093e-07
1.51924324376215231e-07
-1.5201103738003941e-07
6.25836220790430921e-06
2.65541026988436116e-06
-2.5868049121038513e-06
-6.6892565993905898e-12
2.94284757797673054e-13
-1.97605591112991358e-13
4.07412911291469882e-13
-6.44831584610509221e-12
2.68506745773759137e-13
-3.943085377297554e-13
9.5127074348592993e-13
-6.220753629905821e-12
1.49312704632081214e-13
-5.93779799563575799e-13
1.46325200131696624e-12
-5.89024886453255606e-12
2.1580275748973505e-13
-7.88720620242491965e-13
1.90021915145209302e-12
-5.59246781208323128e-12
3.58224043519499917e-13
-9.9643540298307533e-13
2.32468520976770402e-12
-5.40933227164255673e-12
7.85076097475729006e-13
-1.28214562176150434e-12
2.8425005071086734e-12
-5.7418196237705031e-12
1.40484495530780345e-12
-1.81684331910307148e-12
3.68178546433948571e-12
-6.90829063908817729e-12
3.2378706790815016e-12
-3.145602489718139e-12
5.53079374975951687e-12
-8.55041843603839462e-12
7.05511083132305129e-12
-5.81206677683192924e-12
9.47944423978033527e-12
-6.97802437026188349e-12
1.3977886298566825e-11
-1.20128429666236844e-11
1.6202044826817642e-11
5.47921437432945191e-12
4.97876044561207506e-11
-2.60181968590226039e-11
3.03361926464344442e-11
-8.09591231860946887e-13
1.61578060541800526e-10
-8.02471749261452938e-11
8.23452032573725643e-11
3.09930677164941539e-11
6.17317687078486525e-10
-2.57938566331179649e-10
2.08209734875374804e-10
4.79333870070276263e-09
6.39965505819094455e-09
3.62902169429968237e-10
-5.13474635160090835e-10
-6.65344035819892423e-08
5.70914694623352142e-07
1.51121165828862115e-07
-1.41867251492681074e-07
4.98199998351786446e-06
2.17840870682602081e-06
-2.31939474145595324e-06
-3.22167686458028762e-12
-2.11231497804875667e-14
7.57049617722838122e-14
-2.77816614298734166e-13
-2.93401366190403134e-12
-1.30767224388206304e-14
4.04331959859119444e-14
-1.56717737329788726e-13
-2.66820987099422796e-12
5.70893212793769722e-14
2.98909912423291615e-15
-3.71144263186439266e-14
-2.529858789060412e-12
5.70868323973598927e-14
-7.00068703503246383e-14
1.53303829763074518e-13
-2.49540178233306383e-12
8.47745474596909304e-14
-1.45399513479562021e-13
3.73524558363754449e-13
-2.44933526706471849e-12
8.45657495073797982e-14
-2.2476197845415846e-13
5.80061185987613273e-13
-2.37430853224958917e-12
9.5431809702934868e-14
-3.05308227235927229e-13
7.63289263036112244e-13
-2.32433730053183293e-12
1.44626292841089704e-13
-3.98837385331475192e-13
9.56492619145203101e-13
-2.38040842459945945e-12
4.6470175380412319e-13
-5.46169126534008853e-13
1.21044325579948535e-12
-2.82912387695366064e-12
1.2137561752934315e-12
-8.84539131917963277e-13
1.6746624987893736e-12
-3.6500578090247451e-12
3.01290382608577836e-12
-1.64840177979021619e-12
2.86477396759297929e-12
-4.58179844563023387e-12
5.93149521273126401e-12
-3.54928506009156519e-12
5.16047293779765759e-12
-3.50953532237861631e-12
1.96986427608715642e-11
-8.88436156470626156e-12
1.00901288447722598e-11
1.79609092482606541e-11
6.87859418433187692e-11
-2.42351219632930398e-11
2.22908718920886707e-11
6.39196723392007021e-11
2.22656069331685605e-10
-1.05747127323992518e-10
7.81942752330761508e-11
2.67149977192891626e-10
8.05270552043663359e-10
-4.48490776616013037e-10
2.82598161778681517e-10
1.43387182787962281e-09
1.76819003737803338e-08
9.95170592563473177e-10
-8.96927635955643658e-10
-7.81242983464871396e-08
6.00163137665312927e-07
1.57960473261389777e-07
-1.31972036316025832e-07
3.68037178852432535e-06
1.72407895472764009e-06
-1.87211844723730003e-06
-1.21689575722870811e-12
1.34067709787883077e-13
2.56722400995898681e-14
-8.49554870031052942e-14
-1.12516627742317856e-12
1.49753358143261843e-13
1.4158784589251121e-14
-4.94445109707864019e-14
-1.04925307052773367e-12
1.71167059681393283e-13
1.90608723796988527e-15
-1.35400169814453399e-14
-1.02603812347749054e-12
1.96468031839434313e-13
-2.56443865173046997e-14
5.58714163722257127e-14
-1.01978227597874876e-12
2.03906326300290447e-13
-5.62661540078188369e-14
1.46607063702849821e-13
-1.00663121005370201e-12
1.84107094564168571e-13
-8.79398559797917086e-14
2.23328459745712208e-13
-9.92849309946986569e-13
1.84987739802310276e-13
-1.21206757411322772e-13
2.96475319578735099e-13
-9.74110895645510513e-13
2.02122508923806056e-13
-1.61771125054846275e-13
3.79054823856948216e-13
-1.05052531699032844e-12
4.67784363150867899e-13
-2.30083904301252039e-13
4.66813015376089046e-13
-1.42741432109636621e-12
1.15786608051089045e-12
-4.32534222729236537e-13
7.15243353671216284e-13
-2.02583708766607278e-12
2.31865631825555666e-12
-9.47583718074284128e-13
1.39525546891412251e-12
-2.66759298754767361e-12
7.12285624012789308e-12
-2.52824038601947308e-12
2.92280089050089104e-12
-5.0375860534742041e-13
2.70443543348135933e-11
-8.32646951698874475e-12
7.18948312507394175e-12
1.90358918116003096e-11
9.76980176517753045e-11
-3.48814186125935516e-11
2.17131221272765532e-11
1.39954351936797505e-10
3.13590169973579833e-10
-1.63440168672108805e-10
9.4000849069626045e-11
7.97056463060389063e-10
1.21569635193334456e-09
-7.5512028073808166e-10
3.81681703428734046e-10
5.19986634144672895e-09
2.74497138230304676e-08
1.78958432166148361e-09
-1.5023903886105232e-09
-8.45115389604489393e-08
6.97650462244842694e-07
1.66630314389012247e-07
-1.41777222123018616e-07
2.65587399532808472e-06
1.34803133620771642e-06
-1.48912543073157345e-06
-4.42377778919161858e-13
1.60152609384742662e-14
9.76454264906899762e-15
1.6521892723735676e-13
-4.49350627808387086e-13
1.84771551452811571e-14
-2.84961731557948219e-14
1.69589431848779013e-13
-4.33674463355062577e-13
1.45025170267019092e-14
-3.39101274264984941e-14
1.78048871022132374e-13
-4.07465752395492284e-13
7.91048605216906812e-15
-2.15983439911384153e-14
1.84987335980627876e-13
-3.93512640595682916e-13
1.6222304824096591e-15
-7.50704467193449653e-15
1.94218563772105668e-13
-3.8518352580289692e-13
-8.11783614261729464e-15
1.36289072013369289e-14
2.03536340994377358e-13
-3.66942661800651378e-13
-1.88105189132297421e-14
3.98780369834356024e-14
1.98577581122599408e-13
-3.57689439758617563e-13
-2.91094033139364004e-14
6.01772230107923275e-14
1.85609838061508452e-13
-3.52435201227772982e-13
-4.01722088787408019e-14
8.04106191512410979e-14
1.8389003882531546e-13
-3.44967568881150439e-13
-5.39776980216762618e-14
1.04500391180056702e-13
1.89649589729876548e-13
-4.59366637097269032e-13
-8.73559568921812385e-14
1.37902837085597251e-13
4.55420437369082353e-13
-7.25062144660238016e-13
-2.09987760621357888e-13
2.78357684443904048e-13
8.3209638678229934e-13
-1.1730658545235333e-12
-6.05546658215409982e-13
6.83505730031503123e-13
2.28428521767549604e-12
-1.31556121033844013e-12
-2.17509715311131251e-12
1.89764874290810743e-12
8.68448645541474797e-12
-1.55979635325995695e-12
-1.01545775701387762e-11
6.50965518753056327e-12
3.60703800531644207e-11
1.2244318102358902e-11
-5.28857027100717142e-11
2.81378124153436121e-11
1.3605645966634873e-10
1.33855091802119347e-10
-2.73131968339514282e-10
1.36694463692311056e-10
4.45125163689173978e-10
6.86562259557780861e-10
-1.27364301180744891e-09
6.28754971056540154e-10
2.14599851734918791e-09
6.47705590995256465e-09
2.77105179290974654e-09
-2.18918700241004845e-09
3.82625824681478794e-08
-9.08395783653944518e-08
1.71135514360186482e-07
-1.55564840605368921e-07
7.08025878433532742e-07
1.01267162791063723e-06
-1.20606708651917213e-06
1.83528762850353191e-06
-6.12744715758942073e-11
1.35427352060398933e-11
-3.75884059083024944e-12
-5.37893922523994237e-11
1.16939524732172982e-11
-5.05741177297649748e-12
-4.7214254036868071e-11
9.65996416413210525e-12
-6.22706274420682109e-12
-4.16429734886405017e-11
7.72918922189589496e-12
-7.36862279951274474e-12
-3.78495952399748176e-11
6.07756917834075616e-12
-8.5663416118362798e-12
-3.5082155096651602e-11
6.43616315519070952e-12
-1.00350743518183272e-11
-3.38640952324116622e-11
7.68653404384831663e-12
-1.25097620764983955e-11
-3.51022809571827068e-11
1.15928947707374448e-11
-2.09434456558157044e-11
-3.71713886802044852e-11
2.78800468463065234e-11
-3.86104995598202774e-11
-3.37540695411920628e-11
4.36331046209605865e-11
-6.78043866758328232e-11
-1.5366375104927501e-12
1.26179327429134377e-10
-8.65384586894466468e-11
2.48244432005209622e-10
5.32366103418171877e-10
-7.70617552259951414e-11
6.71815465733456731e-09
4.357775673864923e-09
1.35633316119678303e-10
-5.64148457267974868e-08
5.05873528101490431e-07
1.77864391695897467e-07
7.50439283532672861e-06
3.28540376184799127e-06
-2.30202004351567183e-11
4.42950097755232537e-12
-8.43955013514121532e-13
-2.10083713080556151e-11
4.20040531788858974e-12
-1.35610076920062773e-12
-1.90450900011902071e-11
3.77118078703377037e-12
-1.83810012363317177e-12
-1.72865734088073913e-11
3.31333712967181841e-12
-2.30825601081617069e-12
-1.59246871204993156e-11
2.84727062394490589e-12
-2.80685793377817196e-12
-1.52118050886032477e-11
2.95460598408570476e-12
-3.35148292020829644e-12
-1.47688300658732626e-11
3.81803901763047586e-12
-4.09210410037549501e-12
-1.56078603392309993e-11
5.7244034708991565e-12
-6.26448390150793552e-12
-1.876529176618537e-11
1.22991160237915698e-11
-1.18870704056555914e-11
-2.27026411268381522e-11
2.00275154554457465e-11
-2.33977354288970436e-11
-1.73045460881460058e-11
4.91790886544432853e-11
-4.61285065861892089e-11
5.39221587302370463e-12
1.73371168898424794e-10
-5.50447283286776705e-11
7.79299580468036087e-11
6.26341715464023735e-10
-8.23690607823277996e-11
6.26164985599185331e-09
3.94225982341222799e-09
9.53055362779940522e-11
-7.15448659475270236e-08
5.26963948433210001e-07
1.68790855088290687e-07
6.15257127340621969e-06
2.82831170918059092e-06
-7.80256437369071802e-12
1.36972977419613204e-12
-2.91320082061882579e-13
-7.33917610885667452e-12
1.3784618570481338e-12
-4.72973818265255032e-13
-6.87089839809650678e-12
1.30710184911161753e-12
-6.5733450198079107e-13
-6.4588481953446407e-12
1.22456174852095218e-12
-8.50196306159786867e-13
-6.26240627714767353e-12
1.28947957874777969e-12
-1.06029180566324274e-12
-6.16089298077679162e-12
1.68273303544561029e-12
-1.31418717875042e-12
-6.50130398858420806e-12
2.58255875951515788e-12
-1.81306850644236737e-12
-8.15363960356484931e-12
4.8408208307780723e-12
-3.45611668441020306e-12
-1.06942329263073305e-11
8.74071624966734273e-12
-7.25381766447564551e-12
-1.16801436897742035e-11
1.98803887600310383e-11
-1.58573997479570421e-11
-3.21184996361808875e-12
6.89942485596192809e-11
-3.2811930357115678e-11
-1.581447840877854e-11
2.15919816229839177e-10
-7.90579279564411623e-11
3.03504198902709122e-11
7.60078379012946206e-10
-2.10151371013691922e-10
4.20967917162495838e-09
5.14680005123744862e-09
1.10518561075922656e-10
-7.99875412846596798e-08
5.62239253131142803e-07
1.7307094161924395e-07
4.76553021725251341e-06
2.30259664196455176e-06
-2.72706187751635266e-12
4.43563524377145616e-13
-9.87760124530366536e-14
-2.64303229478159541e-12
4.72987883018586644e-13
-1.64992199607004385e-13
-2.55639931940782639e-12
4.70602922939426559e-13
-2.36492933745097634e-13
-2.50658568176234252e-12
5.28232900990699659e-13
-3.14683047905278212e-13
-2.48226437354658072e-12
6.49232923532691679e-13
-4.05274878704708144e-13
-2.60966739741872377e-12
1.02604313080203356e-12
-5.32207689482069837e-13
-3.24706598360144761e-12
1.96534203942761411e-12
-9.63747673051034521e-13
-4.32986631580162871e-12
3.61564596059829434e-12
-1.96957999036280522e-12
-5.9092215005777382e-12
7.71167356421873716e-12
-4.56503337018113163e-12
-6.45440689047039991e-12
2.71573129305636576e-11
-1.18429811282516493e-11
8.61384981492249575e-12
9.13349276687059293e-11
-3.39738836205523681e-11
1.64007825549818154e-11
2.81509909779953109e-10
-1.34284855190707051e-10
1.90874862322756322e-10
9.09838756374351871e-10
-5.73243431614105607e-10
9.65895743734944002e-10
1.24613987924351682e-08
3.74380686413048761e-10
-8.87128635916953163e-08
6.19623312001523848e-07
1.71301879953647971e-07
3.65807720714311445e-06
1.7687974843561514e-06
-1.13654219277424007e-12
1.10375672881343905e-13
1.70096524890760571e-14
-1.0704322411973384e-12
1.31925285952636036e-13
6.53321703809263277e-15
-1.01705667337327421e-12
1.58097116980281189e-13
-1.06786443754399733e-14
-9.95291064871100806e-13
1.95117359989359896e-13
-3.41670864982138535e-14
-9.90935909370591444e-13
2.17934023279237727e-13
-5.91624213014717746e-14
-9.92404435982945333e-13
2.32707574057609182e-13
-8.7312359235504686e-14
-9.99212206769191747e-13
2.68947580946728746e-13
-1.19373082323890246e-13
-1.03507205505432731e-12
3.38576516533347574e-13
-1.6072606222681955e-13
-1.23737779926881724e-12
6.70973558002582613e-13
-2.47924007264894832e-13
-1.70201049086351551e-12
1.42319923770472538e-12
-5.01963885525147724e-13
-2.41118610939527867e-12
2.82197717220039312e-12
-1.21613895333715467e-12
-3.75130113340519771e-12
9.55956584663827847e-12
-3.45111091659367439e-12
-4.31663159857298911e-12
3.56623603417240161e-11
-1.18850216672236588e-11
8.01836938333813076e-12
1.26137629979078927e-10
-5.04032207362779216e-11
1.25995263818859993e-10
3.8805987277231789e-10
-2.2785700801259546e-10
8.282502758533739e-10
1.33261065528597095e-09
-1.04738396741821841e-09
2.79148748671388277e-09
2.5504002654806948e-08
1.07734650554860526e-09
-8.98849242781356191e-08
7.1407401719556355e-07
1.92988662742567421e-07
2.82383815983183125e-06
1.32591438501182846e-06
-4.44731821544767029e-13
1.60528875039870651e-13
7.63130711414405621e-15
-4.22607560938691202e-13
1.6815537103309666e-13
3.13086588994433667e-15
-4.07184203033340109e-13
1.74490915917354447e-13
-3.22188943863564976e-15
-4.0148132353950921e-13
1.80943068903845662e-13
-1.28182773086229488e-14
-4.08360457341726997e-13
1.88238023698382974e-13
-2.3221417959801647e-14
-4.16573070157059431e-13
1.973971622446328e-13
-3.50302262508453232e-14
-4.24343831669981647e-13
2.06149677526462328e-13
-4.83629364963982883e-14
-4.53621703528553788e-13
2.25053805390068065e-13
-6.73047640195631083e-14
-6.22911576918514688e-13
5.08739081476208236e-13
-1.26779555780960433e-13
-9.29264792786462784e-13
1.06617214400039694e-12
-2.96948464235679514e-13
-1.51385563644478661e-12
3.07137124989826646e-12
-8.65327085356104205e-13
-2.38927255552346727e-12
1.16118663661108794e-11
-3.10526601004850069e-12
-5.5620068823489608e-12
4.67403288543999344e-11
-1.47287614054620541e-11
-1.2447621656652802e-12
1.73775544847819344e-10
-7.54308498262070958e-11
9.91586930232263898e-11
5.59971188126414827e-10
-3.79763863517480006e-10
6.97333804637187006e-10
2.22030081338136211e-09
-1.7188668272301328e-09
5.15031705173789731e-09
3.69377285943241306e-08
2.09764563735577459e-09
-9.50364841959965288e-08
7.22621962096979891e-07
1.91538220300531401e-07
2.00325222610112607e-06
1.09921393056862838e-06
-1.97153435928847559e-13
9.45805400507804122e-15
1.14897365518388252e-13
-2.03255900519814595e-13
8.25944412043961641e-15
1.36224123805934678e-13
-1.96654527325158316e-13
5.38827127512910345e-15
1.4601336217348219e-13
-1.87222629284835821e-13
2.41762994255834594e-15
1.51016138775617456e-13
-1.8088331511126816e-13
-8.03813853439252934e-16
1.54873628193947629e-13
-1.77006236322256891e-13
-5.13735378107068842e-15
1.58724670030236e-13
-1.77405932097841041e-13
-9.63323990778263933e-15
1.61866558234170896e-13
-1.78944323741937266e-13
-1.44816055973075703e-14
1.64892059799040171e-13
-1.79260414255004247e-13
-2.01074574007507424e-14
1.69934089742518322e-13
-1.94055659289401853e-13
-2.71758048970833716e-14
1.84436920058332055e-13
-3.03724298843106226e-13
-6.44737625953036647e-14
3.73943702913685178e-13
-5.45585609746891084e-13
-1.88983640520161774e-13
9.26335408638835048e-13
-1.08067169551879735e-12
-7.19929414860651297e-13
3.50702561475267225e-12
-3.13611644434524363e-12
-3.40904886328201894e-12
1.53557151396639089e-11
-9.57370945192744684e-12
-1.82700880284455694e-11
6.55537927778041991e-11
-2.47537030151753428e-11
-1.00035952719359197e-10
2.48260368246564378e-10
-2.61349188653836389e-11
-5.13576836003123545e-10
8.09324257416754865e-10
-1.37770020026142751e-10
-2.29174510037384031e-09
3.62700431119693981e-09
5.36274524404794792e-09
3.03910690837661705e-09
4.44228239598092762e-08
-1.01708925001935782e-07
1.80858136106240227e-07
6.831202901801334e-07
8.03436777320106359e-07
1.24929309681710494e-06
-2.66937719627906986e-11
6.68206711627154169e-12
-1.61317007699994836e-12
-2.32342600056535408e-11
5.94439441088458331e-12
-1.96128550582495361e-12
-2.10682002553865949e-11
5.10387928047040373e-12
-2.33726127087968776e-12
-1.94322018374275112e-11
4.49757478688653423e-12
-2.75238702714896196e-12
-1.82620493218251287e-11
4.72534587431054445e-12
-3.41600101644105777e-12
-1.75742363348379877e-11
6.15690965221572289e-12
-4.95516206170273768e-12
-1.97474679203059868e-11
1.0219303334447051e-11
-8.85858554146424407e-12
-2.60898148563427905e-11
1.77159230399465648e-11
-1.69598895057833008e-11
-3.71437995106313451e-11
3.96310313540366016e-11
-3.73354136630763337e-11
-4.92206383940216289e-11
1.18185399652872611e-10
-8.31511599074502405e-11
-8.60459407162219832e-11
3.15098553706576091e-10
-1.1311316359000227e-10
8.80487459825313435e-12
9.50464653625521745e-10
-7.70254312558491835e-11
5.26702386085300365e-09
5.21378081431128919e-09
-8.33860066637684885e-10
-9.38087539473750845e-08
5.59660433564374088e-07
1.99353198998547874e-07
5.96319364489210628e-06
2.54721295094977435e-06
-9.49432585554844525e-12
2.25639347084057866e-12
-3.90303907830613304e-13
-8.64897081679105003e-12
2.19413177437422926e-12
-5.33779241311042152e-13
-7.99130731465325076e-12
2.03737654366573882e-12
-6.86002730720979291e-13
-7.55943873937397165e-12
1.84646432356657139e-12
-8.51959780652006186e-13
-7.28406252032962659e-12
1.91047105717542935e-12
-1.07067015668539893e-12
-7.13458369852827625e-12
2.47644968136456657e-12
-1.47394813767625746e-12
-7.76364279816395977e-12
3.95190262301437359e-12
-2.54461581226882091e-12
-1.03187435561136173e-11
7.0442040614874717e-12
-4.81752259034970197e-12
-1.56745559310965553e-11
1.47103854341348807e-11
-1.06103289893196914e-11
-2.38033857832263774e-11
4.38064588663871116e-11
-2.76408609719038157e-11
-3.13955331596933009e-11
1.3419951054012167e-10
-7.00821037621539778e-11
-1.06171729487564981e-10
3.6731791784448506e-10
-1.4231991317609799e-10
7.03830584121964177e-11
1.15208570732737015e-09
-4.14951800626149672e-10
2.32680487739405815e-09
6.92488271796985672e-09
-6.4105838192029677e-10
-1.08035551009641632e-07
5.90099491618411373e-07
2.00692798039362406e-07
4.63308056931442189e-06
2.1676799399665478e-06
-3.08754869243582767e-12
7.98519079829195209e-13
-1.26242601333665171e-13
-2.95389163108473673e-12
8.10699249197259323e-13
-1.80861891886743542e-13
-2.84026047914523321e-12
7.99410795798122701e-13
-2.4231055443177454e-13
-2.80451663657444541e-12
8.04642358870912723e-13
-3.16561809138252922e-13
-2.79903935547933908e-12
9.60679557777001915e-13
-4.30105799661283343e-13
-2.96470675755898196e-12
1.50429067160501795e-12
-6.83775618832179501e-13
-3.92510183745249988e-12
2.81555353778910374e-12
-1.34842756066111201e-12
-6.06630905424998218e-12
5.33106009078189821e-12
-2.87955924607165452e-12
-1.03736186849027038e-11
1.52677851668596231e-11
-7.76553584505268534e-12
-1.60925002021058096e-11
5.11485876193965692e-11
-2.25849053622925799e-11
-1.66405527465595468e-11
1.59231507113304977e-10
-7.56966919938878956e-11
-1.74858617628221264e-11
4.43696850457041284e-10
-2.51048381508824273e-10
3.30806575032090846e-10
1.3674190667343503e-09
-1.12522620553416346e-09
-2.78672620076926058e-10
1.38243198480428878e-08
-7.44308312816923257e-10
-1.07074297453683249e-07
6.75448333980488723e-07
2.16005413292343757e-07
3.30664486120880826e-06
1.74623285406610972e-06
-1.06616700295072164e-12
3.40752466791369644e-13
-4.16712386773365959e-14
-1.05517792737050614e-12
3.66330218655147759e-13
-6.23151100842619344e-14
-1.05601743908648608e-12
3.82442026616408248e-13
-8.7368377727170133e-14
-1.07624316832341924e-12
4.20539511852486878e-13
-1.21263632872496981e-13
-1.13251245192958981e-12
5.61168906945385554e-13
-1.83260172272199687e-13
-1.46911960380550648e-12
1.03727190891300678e-12
-3.50077842590911931e-13
-2.25120809155289598e-12
1.85526928736015763e-12
-7.28102770790505211e-13
-3.82791946004259847e-12
4.85750227668389573e-12
-1.95005733769825309e-12
-7.11919070646288822e-12
1.7143107591745218e-11
-6.22089516481971081e-12
-1.26949636174745066e-11
5.97875018844279535e-11
-2.31742551687632172e-11
-1.46718189654572052e-11
1.9949202473759794e-10
-1.00150464224550605e-10
9.19775455471663008e-11
5.83981232279969175e-10
-4.36386026305266247e-10
9.06530923970438129e-10
1.92255621928982547e-09
-1.90823330802851282e-09
1.75105724641517904e-09
2.82184857907573429e-08
-4.92812288899271424e-11
-1.01087860520178848e-07
7.23677449323322948e-07
2.24685739592002481e-07
2.33967430722084467e-06
1.31487503418392004e-06
-4.05840951580517795e-13
1.33306911129176664e-13
2.34236615179113328e-15
-4.03905358673362513e-13
1.39737287236687992e-13
-1.97923485939808841e-15
-4.01463076594056755e-13
1.48295268495700834e-13
-7.74124814619423015e-15
-4.02605718919513602e-13
1.69010066582770708e-13
-1.44466147017052662e-14
-4.08846797109361854e-13
1.91323959154396828e-13
-2.25872831851181153e-14
-4.20693177924428659e-13
2.06920716776659575e-13
-3.3130960694051232e-14
-4.45462576465385063e-13
2.41156511511703457e-13
-4.92621627903716167e-14
-5.31364659886056187e-13
3.54848799102443868e-13
-8.5994498945515295e-14
-7.75901027935746734e-13
7.16821127758121785e-13
-1.83517746440336401e-13
-1.25914018242328091e-12
1.51126713549315507e-12
-4.48830457570668496e-13
-2.59136019596688593e-12
5.15267724968379955e-12
-1.48171392089279946e-12
-5.29601808558735445e-12
1.94594476572699992e-11
-5.73031726288079247e-12
-1.37368176151857765e-11
7.44221425452541652e-11
-2.64846813307245056e-11
-2.581780570983239e-11
2.56103330994338275e-10
-1.30322939489207273e-10
4.01179126120516885e-11
7.81209819783928284e-10
-6.18009482818120676e-10
6.1149934488892214e-10
3.0160104055437735e-09
-2.60567378255314925e-09
4.59695543433818173e-09
3.84540757779263238e-08
1.00150079407697586e-09
-9.76370772888160707e-08
7.19159383716402442e-07
2.07989611340723334e-07
1.90295274480445697e-06
9.61131996366267441e-07
-1.81529170036437771e-13
1.20201484125097076e-13
1.69318155927013302e-15
-1.75685744716853344e-13
1.2422195533366222e-13
-3.61209447732488656e-16
-1.72193766182435974e-13
1.27450150021130176e-13
-2.92964977904847226e-15
-1.74565508001713843e-13
1.33511894035719272e-13
-5.71663618358516735e-15
-1.79774556028937223e-13
1.41964718587845317e-13
-9.21703022193143024e-15
-1.87311666293092247e-13
1.51161917263207605e-13
-1.38406071588816023e-14
-2.04584062425575677e-13
1.66017272637339501e-13
-2.21533355146903457e-14
-2.74123896515771752e-13
2.29984588970338296e-13
-4.46284991871701053e-14
-4.55157475765116629e-13
5.03587264488092668e-13
-1.02592476641618494e-13
-8.69640097459793745e-13
1.40438466621939984e-12
-3.22660709776752007e-13
-2.04204482181994413e-12
5.58365154119012059e-12
-1.28631497347395097e-12
-6.14297273362084119e-12
2.33682917479159865e-11
-6.08978782375828194e-12
-1.97541006598991773e-11
9.44801528677407711e-11
-3.10802666696768122e-11
-5.51763276241923414e-11
3.41261509156358001e-10
-1.5689213364745608e-10
-1.29214496020111833e-10
1.07152947718299722e-09
-7.56819207440652287e-10
-5.32225036617971317e-10
4.42815916738538296e-09
-3.21585989150600827e-09
5.00806775875702382e-09
4.5209707601139205e-08
2.0777977388729762e-09
-1.06037798031475117e-07
6.88612407658814252e-07
1.93248088893800163e-07
1.37111016733854448e-06
7.67273349831727313e-07
-1.00740963722852425e-13
3.67724082434660823e-15
7.57291500875082624e-14
-9.92382716047351949e-14
2.57755358696074493e-15
8.41761495561743337e-14
-9.56432783174348514e-14
1.4004151054846277e-15
8.9587580966101877e-14
-9.29608725653167676e-14
1.31997214569601246e-16
9.33629488436711804e-14
-9.17901719838624302e-14
-1.20998313893405113e-15
9.78122644276342625e-14
-9.22612451567104747e-14
-2.7118511001563529e-15
1.03234227876516007e-13
-9.40829116113213857e-14
-4.49124774767636304e-15
1.0805520137722028e-13
-9.70735445632427382e-14
-6.84255024856942666e-15
1.14500246522830765e-13
-1.02408920622727664e-13
-1.0557917206080916e-14
1.25704408593391446e-13
-1.30158040595460002e-13
-2.35839914891382403e-14
1.68392039790365668e-13
-2.58216725032651634e-13
-6.42800383915518782e-14
3.89583441714431207e-13
-6.14587297268147741e-13
-2.49661686122547919e-13
1.37526515715828378e-12
-1.89049240223811257e-12
-1.22408191320257589e-12
6.09970572390890598e-12
-7.37448556606429407e-12
-6.55262116658139625e-12
2.73646385985280697e-11
-2.94934645026968216e-11
-3.55393633365565153e-11
1.15147746842744574e-10
-1.11654293239131078e-10
-1.866278508210551e-10
4.31472438610183617e-10
-4.15115254768688316e-10
-8.90822228324706182e-10