/*--------------------------------*- C++ -*----------------------------------*\
| =========                 |                                                 |
| \\      /  F ield         | OpenFOAM: The Open Source CFD Toolbox           |
|  \\    /   O peration     | Version:  2206                                  |
|   \\  /    A nd           | Website:  www.openfoam.com                      |
|    \\/     M anipulation  |                                                 |
\*---------------------------------------------------------------------------*/
FoamFile
{
    version     2.0;
    format      ascii;
    arch        "LSB;label=32;scalar=64";
    class       surfaceScalarField;
    location    "0.330000000000000071";
    object      phi;
}
// * * * * * * * * * * * * * * * * * * * * * * * * * * * * * * * * * * * * * //

dimensions      [0 3 -1 0 0 0 0];

oriented        oriented;

internalField   nonuniform List<scalar> 
20856
(
-5.80954461948044102e-05
0.000107455693706935178
-2.06638265960194493e-06
-5.66339295397360002e-05
0.000109265792748370819
-3.79281461391202567e-06
1.820567138021388e-06
-5.53029506449302817e-05
0.000110007091792834488
-6.56408826777740628e-06
5.25234012970100857e-06
-5.39598884992555157e-05
0.000109818205532550436
-9.40113376326771519e-06
8.39602830649219278e-06
-5.26431266659605477e-05
0.000108891680554058052
-1.2415520217904499e-05
1.15401248693890441e-05
-5.11636091387813921e-05
0.000107552517547926678
-1.56152673411141769e-05
1.48205658085975153e-05
-4.91109672403797386e-05
0.00010510966290462781
-1.91165130661640792e-05
1.82191994626258963e-05
-4.64178366176504822e-05
0.000100451338639761704
-2.33197820383854027e-05
2.18813689304301741e-05
-4.28177786557380931e-05
9.37218752816771673e-05
-2.83241048131580021e-05
2.59242501422668559e-05
-3.71723927472129552e-05
8.56157986950138391e-05
-3.38744192503558282e-05
3.00745232783670826e-05
-2.78838694857776213e-05
7.69229409700960648e-05
-3.93916943578774049e-05
3.34769373364661446e-05
-1.29438024453204791e-05
7.18835569046182352e-05
-4.30168294596586009e-05
3.38375522347434836e-05
8.66096147531013674e-06
8.10530435985843761e-05
-3.72070492180037415e-05
2.48997174801514661e-05
1.54281798676834055e-05
0.000234021263344031099
2.24874850305763614e-05
-3.3100355530399322e-05
-1.16971896353845913e-06
0.000614885306812530696
0.000191584290220185436
-0.000189771875497287388
0.00159749179821961577
0.000412941765930590818
-0.000397127111571739526
-5.95861879386248017e-05
0.000106754355149614458
-2.00209771662552117e-06
8.10218917621479297e-07
-5.79950006826152222e-05
0.00010837317840592957
-4.59889854819737175e-06
3.90136879550292922e-06
-5.66090366289384955e-05
0.000109057201871080978
-7.17168984646768511e-06
6.73619177590766812e-06
-5.53550573841072869e-05
0.000108924433982221215
-9.83730752946158671e-06
9.47727207592791645e-06
-5.41758410375340656e-05
0.000108101083036928815
-1.26793895495699001e-05
1.22905239581280673e-05
-5.28186770902742779e-05
0.00010669003721719681
-1.57556967378810203e-05
1.52613024348721407e-05
-5.09852851804122581e-05
0.000104061846496468805
-1.92184891098266602e-05
1.84346017428568876e-05
-4.8604046379330468e-05
9.94548855296954699e-05
-2.33573141576221308e-05
2.19745715023111768e-05
-4.53041065913227216e-05
9.27682660737963813e-05
-2.8321801338539455e-05
2.59761835780878474e-05
-3.98886263058168417e-05
8.39834646818898623e-05
-3.4102194541290256e-05
3.03183714170655977e-05
-3.06226027718420622e-05
7.35981132246679048e-05
-4.02879231702559133e-05
3.43459288650809112e-05
-1.53074555258848461e-05
6.56496377599033812e-05
-4.49416965740706976e-05
3.58601699158475721e-05
6.61697175281788437e-06
7.13009392771366446e-05
-4.02375227896676027e-05
2.80645740147074645e-05
1.81029096944245564e-05
0.000233007933506978695
1.92023481544943936e-05
-2.9676073870688746e-05
-9.06637190872257954e-06
0.000637995853864085265
0.000188622696417572018
-0.000184564484804519599
0.00156962889043767845
0.00039873541232098215
-0.000379939010794826441
-5.95260345984276442e-05
0.000105558575761830053
-2.30270302853016636e-06
1.69587549145502765e-06
-5.8033842948626155e-05
0.000107213213193745283
-4.76255795275049817e-06
4.43117769153596486e-06
-5.67982349412806981e-05
0.00010803668961211388
-7.22001558017100376e-06
7.00447129683169792e-06
-5.57491338236796135e-05
0.000108093557846940269
-9.77008719769830571e-06
9.55030955658509585e-06
-5.47817937432956351e-05
0.000107444472880057604
-1.25032737193246519e-05
1.21915946071264678e-05
-5.36673416591098169e-05
0.000106058292447836042
-1.54994844872982638e-05
1.50183871957737996e-05
-5.22030864886460736e-05
0.000103412472177782081
-1.89158248251845981e-05
1.81040090049888676e-05
-5.02733379841309962e-05
9.89247149617991591e-05
-2.29982958724132114e-05
2.16002124318164815e-05
-4.74256854427506212e-05
9.22394973289556146e-05
-2.79540055110876193e-05
2.56343147040949188e-05
-4.24937728837822032e-05
8.27642333910360667e-05
-3.39384337488855359e-05
3.02247947169012216e-05
-3.36722062854321756e-05
7.05610451204730495e-05
-4.06464453474906324e-05
3.48626010828942932e-05
-1.91345792294190302e-05
5.97656051018049267e-05
-4.60517122388029394e-05
3.73996984776437237e-05
2.78286282104965031e-06
6.12937714195924003e-05
-4.26448423362147023e-05
3.07350843119286101e-05
1.92083405430228375e-05
0.00022690540869580941
1.58680516093481406e-05
-2.61919635047111221e-05
-1.44191232461784525e-05
0.000665319373845533026
0.00018571867288940709
-0.000179415394913186614
0.00153538164920094143
0.000383125976611929458
-0.00036329805674985467
-5.90692054538529321e-05
0.000104370589226549068
-2.29463350442173898e-06
1.84074627767209064e-06
-5.77499985106218612e-05
0.000106156214471736057
-4.65359159229405659e-06
4.39204182857749875e-06
-5.67059322894030462e-05
0.000107187853460243967
-7.01383751325170823e-06
6.81782796828314786e-06
-5.58696241356399702e-05
0.000107483427727052237
-9.46299730118993456e-06
9.2347867090053372e-06
-5.5126832343124661e-05
0.000107049409365063601
-1.20952529839474439e-05
1.17463999025499198e-05
-5.43069387012474748e-05
0.000105761923718289486
-1.50087908440892625e-05
1.44869291671692666e-05
-5.32595495315679008e-05
0.000103215556305611975
-1.83562747824258832e-05
1.75083441436198336e-05
-5.18290967073938371e-05
9.88907019109099255e-05
-2.2364354475572628e-05
2.0968401296545537e-05
-4.95534620573757301e-05
9.22095868656556787e-05
-2.72875171418035262e-05
2.50405930781505119e-05
-4.53542705771102573e-05
8.20978242237383702e-05
-3.33829233276697335e-05
2.98498854334745107e-05
-3.7539402036033907e-05
6.81663872553598977e-05
-4.03956200450337582e-05
3.49772007899129496e-05
-2.46186925184952877e-05
5.48143739941005752e-05
-4.62423751923894541e-05
3.82753326770882108e-05
-4.28447218084047999e-06
5.19003230055056647e-05
-4.42527918848623124e-05
3.33131719301630431e-05
1.1185082292343745e-05
0.00021974403186941931
1.39030552139369489e-05
-2.22117234114465954e-05
-2.0278647918158942e-05
0.000688702368567400578
0.000182273686906437351
-0.00017419345390585743
0.00149540544432086569
0.000364919213905106851
-0.000345221845454022811
-6.4298497934336138e-05
9.33806972012556622e-05
5.05068646498861515e-06
-6.72812516212560611e-06
-6.1883894330137565e-05
9.7419153209584068e-05
2.60364032306454454e-06
-3.72807603071896624e-06
-5.99998618193344426e-05
0.000100712099626735227
1.99125836848289567e-07
-9.1518661412555493e-07
-5.85305108102144296e-05
0.000103340211728439573
-2.1289472936743225e-06
1.69161178573319162e-06
-5.73950132743651837e-05
0.000105301490490341119
-4.39751037875696369e-06
4.11763259441912423e-06
-5.6540485188489941e-05
0.000106564630022465816
-6.66453165512141502e-06
6.43316907801715786e-06
-5.59057661945181175e-05
0.000107115867691175739
-9.01464008161475118e-06
8.74566896633562097e-06
-5.5398543664223897e-05
0.000106916653400904161
-1.15442073250817206e-05
1.11679470434087585e-05
-5.48932215859000374e-05
0.0001058125424645751
-1.43588264259222182e-05
1.38030666015654253e-05
-5.42741669066825082e-05
0.000103456908220554597
-1.76098442541572357e-05
1.67504172177545808e-05
-5.33775382059376491e-05
9.93481914407518668e-05
-2.15124426515517453e-05
2.01583198136421005e-05
-5.17920501891146727e-05
9.27332011431177949e-05
-2.63492619792318614e-05
2.42397752864098351e-05
-4.86158747335023485e-05
8.21594655744461262e-05
-3.24301263239875113e-05
2.91931353070642554e-05
-4.22847695957832297e-05
6.67438023380441696e-05
-3.95507529183903396e-05
3.46444218639267964e-05
-3.13507215727529406e-05
5.10916631230175591e-05
-4.570427253642137e-05
3.84953030058668945e-05
-1.53984238749102053e-05
4.53732046337438903e-05
-4.46439815076762878e-05
3.52203020482926392e-05
-5.15532232234737486e-06
0.000215127591465500833
1.43599825233124001e-05
-1.99864061103515832e-05
-2.78921625433968296e-05
0.000703839339165988963
0.000177050835918473947
-0.000169451132092052507
0.00144892506645078714
0.000345404684078861538
-0.000326816616708982123
-6.32024503276700607e-05
9.21267780939963711e-05
5.10398933591305718e-06
-6.68363491874624585e-06
-6.0983996313565451e-05
9.62804064506222703e-05
2.71142716475176954e-06
-3.79006537151436604e-06
-5.92737425750449449e-05
9.97134020576396487e-05
3.82068292684281367e-07
-1.09188619789343202e-06
-5.79740614751094718e-05
0.000102501178557246937
-1.86294640999061952e-06
1.40344758434797914e-06
-5.70133322532526455e-05
0.00010466030692091104
-4.045227211936613e-06
3.72717891624684302e-06
-5.63393120593709489e-05
0.000106164641396370987
-6.22043581984113612e-06
5.94723320608657774e-06
-5.59009738275898735e-05
0.00010698110091750463
-8.47042940794359204e-06
8.16519114235599401e-06
-5.56343483323446609e-05
0.00010704893581279677
-1.0891691714344482e-05
1.0489912673851722e-05
-5.54491708434888485e-05
0.000106194595233511494
-1.35913870497435051e-05
1.30223402911570318e-05
-5.52601745195302387e-05
0.000104107383894148429
-1.67175879875252794e-05
1.58775957561382837e-05
-5.49259828049928858e-05
0.000100286456367986107
-2.04769118615238485e-05
1.92046686117133253e-05
-5.41287159460321964e-05
9.38546028609384294e-05
-2.51591765541038504e-05
2.32414780037936378e-05
-5.22593993843628707e-05
8.31439831538889889e-05
-3.1079247775424166e-05
2.82271125854551419e-05
-4.80451999525603735e-05
6.67588042320392273e-05
-3.80829635463581382e-05
3.38556781313653724e-05
-3.98352564491272069e-05
4.91046719606176311e-05
-4.44264450052453245e-05
3.82052764582665417e-05
-3.06248424065770684e-05
4.38879299045247831e-05
-4.38222265053020852e-05
3.60987556075954941e-05
-2.88332583944016429e-05
0.000217017284390790254
1.55694769525704487e-05
-1.92498305931956267e-05
-3.69272827333307465e-05
0.00070510315772426876
0.000170392140514946905
-0.000163561840863170815
0.00139575324324964635
0.000323840861730469089
-0.000307596436030556375
-6.80131526803677393e-05
9.95034312641117626e-06
-1.29090636186528902e-05
8.01130553245457769e-05
-6.47015103707947691e-05
7.60872060487765603e-06
-9.78041201910298657e-06
8.60224714945947885e-05
-6.20829311414379948e-05
5.22421594829432419e-06
-6.77142868545943052e-06
9.10568917382180746e-05
-6.00482382609210077e-05
2.88115105418327141e-06
-3.95222341167897689e-06
9.53181662511840547e-05
-5.85041887566637087e-05
6.21190125402703758e-07
-1.34264412491267974e-06
9.88918616770357667e-05
-5.73668172807613498e-05
-1.54557371154742522e-06
1.0604878440384517e-06
0.000101849873175559791
-5.65720430698874458e-05
-3.64398006191269722e-06
3.29387569664634867e-06
0.000104217311627912259
-5.60727079324690493e-05
-5.72813607844495324e-06
5.42606452148259106e-06
0.000105968048444800484
-5.58285849529406198e-05
-7.87649205318271662e-06
7.55234735262046383e-06
0.000107059228997015909
-5.5804648752382703e-05
-1.01674105739300409e-05
9.7753648625596434e-06
0.000107413760268566441
-5.59387300171315893e-05
-1.27520515987166435e-05
1.21979249113331084e-05
0.000106880132095911947
-5.61797376700861668e-05
-1.57263317464655863e-05
1.49370159818193288e-05
0.000105136678453952013
-5.64369075943906468e-05
-1.93021584570295572e-05
1.81478854341818603e-05
0.000101698666501388261
-5.65185368937212232e-05
-2.37558576863720167e-05
2.20693589052517961e-05
9.56246594784319106e-05
-5.61015320852479223e-05
-2.93789226046294254e-05
2.69434250233334253e-05
8.5164362221842879e-05
-5.42519916088201676e-05
-3.60771416618741397e-05
3.25744674448078336e-05
6.84131053250121638e-05
-4.95936222328266152e-05
-4.22730728462724915e-05
3.73833084145430475e-05
4.93370839152668916e-05
-4.86746438441379995e-05
-4.18745197619513056e-05
3.60286244521024074e-05
4.88163625473803428e-05
-5.4839615721577329e-05
1.65468846069895481e-05
-1.89484340374084133e-05
0.000225584868660898963
-4.67015266390706626e-05
0.000162001524482500368
-0.000156351734410370891
0.000691315398590780679
0.000300430791875358006
-0.000286162762418087934
0.00133478359164174165
-6.13396917598403178e-05
0.000109650856811481027
-5.14535264749946205e-06
-5.98271797710932905e-05
0.000110445425852912887
-7.59017144293272996e-06
-5.85746732888768932e-05
0.000110570345432068834
-1.02284536966609586e-05
-5.7390277359027663e-05
0.000110225045959151587
-1.30635546358716084e-05
-5.60047778648932739e-05
0.000109055185550729748
-1.62024143877990027e-05
-5.43384714335587901e-05
0.000106219607070116081
-2.00243312680772225e-05
-5.22441728369969083e-05
0.000101568353396024969
-2.48610921690294189e-05
-4.90018994233506041e-05
9.52189050122435675e-05
-3.08612221220352576e-05
-4.31120698155615452e-05
8.64666034781340505e-05
-3.82286516361077044e-05
-3.26684776136836893e-05
7.4644713327307933e-05
-4.69655050330905854e-05
-1.57644585433518487e-05
6.33891259857110662e-05
-5.51962822837886272e-05
8.60513982177759607e-06
6.485307142939362e-05
-5.42158985919688415e-05
2.43896450959036021e-05
0.000201272582131326006
6.53352432685616284e-06
-1.31295997936458643e-05
0.000597406837221191658
0.00019413144580563045
0.00148202432438194229
0.000416787496234318345
-6.27224400677110587e-05
0.000106949986185378296
-3.18331645618150525e-06
-6.10252630293096088e-05
0.0001087932062182626
-5.43765439387543618e-06
-5.9701653664835892e-05
0.000109762916063254872
-7.8128678017809006e-06
-5.86583044197272325e-05
0.000110051535137369036
-1.0362975464815224e-05
-5.77110296187663123e-05
0.000109737369739869672
-1.31398882906673619e-05
-5.6654889178906757e-05
0.000108524828816130019
-1.62801177844886376e-05
-5.5403721447538745e-05
0.000105838380324465496
-2.0085161013897004e-05
-5.376523807969019e-05
0.000101426082867152743
-2.48510793555878118e-05
-5.10470825764946612e-05
9.50265560912221235e-05
-3.08474472379925149e-05
-4.58657358254091509e-05
8.56269660690828948e-05
-3.84447542856436087e-05
-3.63371798162649202e-05
7.24614835468846854e-05
-4.76334105059798856e-05
-2.07009208583140522e-05
5.9179974788259772e-05
-5.63684633499377568e-05
3.0703483461357564e-06
5.70455097637973633e-05
-5.62019655470391859e-05
2.19295202354765506e-05
0.000197132368606414362
4.48163562305778686e-06
-1.81278166316556875e-05
0.000631069880316235325
0.000195016322095703602
0.001458735043830677
0.000403896769429754011
-6.20456812690690782e-05
0.00010602090764031133
-3.23725145463103339e-06
-6.05543477145663108e-05
0.000107977018376309399
-5.43715034417113759e-06
-5.94292106001550685e-05
0.000109157868138058713
-7.74111221266271786e-06
-5.85874806373245569e-05
0.000109646658212143617
-1.02093038403328884e-05
-5.78850411748440914e-05
0.000109452093670429711
-1.2921548655953288e-05
-5.7171749799930503e-05
0.000108338001607351979
-1.60236521899670055e-05
-5.63494367488011385e-05
0.000105870878042706239
-1.97670023066989287e-05
-5.52010749576069436e-05
0.000101719305283813386
-2.44385339447247639e-05
-5.31084043115889358e-05
9.53609949042877743e-05
-3.03823279236972379e-05
-4.88474332372306922e-05
8.54799259745310465e-05
-3.80534687820024704e-05
-4.06529912135213941e-05
7.10571562213969916e-05
-4.74358738471772177e-05
-2.66680295669470787e-05
5.55326039221663815e-05
-5.63877449869438666e-05
-4.88216848171633231e-06
4.94843292664377533e-05
-5.68688852465531772e-05
1.12762546515914042e-05
0.000192813061360732832
4.02841857893684946e-06
-2.30419228834506076e-05
0.000658491910941668432
0.000192614643741334513
0.0014287576532246095
0.000390061412428638257
-6.14077821300144033e-05
0.000105173596812306217
-3.12393777784577933e-06
-6.01090930996539389e-05
0.000107284678660040232
-5.25906530969615988e-06
-5.9167311681803208e-05
0.000108685516028104491
-7.48394851959911823e-06
-5.85194928973208249e-05
0.000109399883463645801
-9.86648000140295229e-06
-5.80615013343477592e-05
0.000109395990699369836
-1.2498666984637017e-05
-5.7681580166331574e-05
0.000108475178932732001
-1.55245347910512894e-05
-5.72801217012781382e-05
0.0001062819881906065
-1.91667554593648843e-05
-5.66493386849380043e-05
0.000102431563082033795
-2.37073275814996851e-05
-5.52722667881180683e-05
9.62192014473715418e-05
-2.95241044027489622e-05
-5.21364359421530804e-05
8.60563922466821198e-05
-3.70955083675556421e-05
-4.56353026524225456e-05
7.05571767160861771e-05
-4.63952661283521965e-05
-3.38966867953147946e-05
5.29087925377800616e-05
-5.53549992689441738e-05
-1.59580937970892078e-05
4.35071439105446701e-05
-5.62125431135246633e-05
-5.30608864079753508e-06
0.000190270742713468559
5.79414860742740178e-06
-3.029581672444302e-05
0.000678083039962577307
0.000187672616275585713
0.00138999342820871888
0.000373387676128887017
-6.66733429473313711e-05
9.36611022538506876e-05
3.13133626289886334e-06
-6.42402797066460367e-05
9.7908045490234367e-05
1.1594654985993771e-06
-6.23004110276168324e-05
0.00010148792680726544
-8.5793294064599172e-07
-6.07920972730280554e-05
0.000104430263970448921
-2.89226071197125681e-06
-5.96693596170253885e-05
0.00010672252318652031
-4.95649027951932765e-06
-5.89027952953144601e-05
0.000108352684342419628
-7.09804685727374801e-06
-5.84467657402078372e-05
0.000109315485563030111
-9.38848239471775906e-06
-5.82289674952169426e-05
0.000109555006849054666
-1.19236028119365887e-05
-5.81696749967742255e-05
0.000108899642906203618
-1.48434913525235115e-05
-5.81824641394864403e-05
0.000107035787357135119
-1.83509086722817046e-05
-5.80918615761827361e-05
0.000103545787816609894
-2.27176307375468605e-05
-5.750656763023445e-05
9.76094434899234758e-05
-2.83248492880269953e-05
-5.57253450304380846e-05
8.74733850475008901e-05
-3.56272485337037656e-05
-5.14632049977093646e-05
7.13373100611039738e-05
-4.45911287442110661e-05
-4.28168691344493654e-05
5.18527051896943087e-05
-5.32924706899569177e-05
-3.22805321975342069e-05
4.23137836671973509e-05
-5.39848827084554259e-05
-3.02333173552137736e-05
0.000193969885462331792
8.61532597084846644e-06
-3.92340846695880428e-05
0.000683517177563964639
0.000180618129441714574
0.00134273222866400886
0.000353431930771537614
-6.55635572764137585e-05
9.26436722753305926e-05
3.30610780371802223e-06
-6.32978951090047806e-05
9.69934400363516876e-05
1.36180600405119637e-06
-6.15185511302672266e-05
0.000100697815209425208
-6.0569112051635759e-07
-6.01693114165902142e-05
0.000103796072053098277
-2.57641079399873156e-06
-5.92100239734827692e-05
0.000106285966251853611
-4.56599914657611715e-06
-5.86123139896191974e-05
0.000108156303171280763
-6.62110956943741745e-06
-5.83448405840946422e-05
0.000109386374877857692
-8.81104439150277651e-06
-5.83591804007011538e-05
0.000109910403578345557
-1.12364868624343084e-05
-5.86071553987132759e-05
0.000109579877075493941
-1.40266304663107813e-05
-5.90264590359378284e-05
0.000108104547593208022
-1.73684733604752445e-05
-5.94904519110644385e-05
0.000105049554198177655
-2.15164568821729318e-05
-5.97458240609469331e-05
9.95409528414314607e-05
-2.68336166191584488e-05
-5.93780115359608527e-05
8.97605660894312796e-05
-3.37320344236219339e-05
-5.74333272272316772e-05
7.34963670400252202e-05
-4.21850178437271504e-05
-5.30822768135268914e-05
5.33893368248097833e-05
-5.03127545192732752e-05
-5.11116905607017806e-05
4.71373457322653462e-05
-5.061441015650178e-05
-5.54933487808699407e-05
0.000202371701562855462
1.15513765008193637e-05
-4.90949782976510198e-05
0.000674841959928813113
0.000172669773592439913
0.00128696329465720718
0.000330514999551967739
-7.02941043504263591e-05
7.12542794775452535e-06
8.07228299380442099e-05
-6.70586641709852932e-05
5.38163840751939758e-06
8.6587004664684237e-05
-6.44181029462855486e-05
3.51705631474201049e-06
9.17110479356192767e-05
-6.2312736349467697e-05
1.60489096522300623e-06
9.6165425467668216e-05
-6.0686436869588629e-05
-3.10043964937125299e-07
0.000100003882048100423
-5.94892540790909296e-05
-2.21495271850739961e-06
0.000103269315843846496
-5.86858318280630189e-05
-4.12795033521875987e-06
0.000105967549486204906
-5.8251585664508381e-05
-6.09372960548274898e-06
0.000108087472341966887
-5.81672837406796545e-05
-8.18099038515358344e-06
0.000109604285925257391
-5.8404105261243859e-05
-1.04815242150050091e-05
0.00011045783586203916
-5.89467261639963329e-05
-1.31228654505019848e-05
0.000110490252541469488
-5.9763728943435395e-05
-1.62708784896908652e-05
0.000109464900894581246
-6.07946444470313984e-05
-2.0157990130193516e-05
0.000106937522382243876
-6.19333112554017472e-05
-2.51098633174171609e-05
0.000102036290264590003
-6.30252932196351235e-05
-3.14892424487545977e-05
9.29650537954470078e-05
-6.3515795662777693e-05
-3.92937889004916905e-05
7.72043307991274582e-05
-6.30228090941903216e-05
-4.66931463799900333e-05
5.73168595312271292e-05
-6.82967654355362818e-05
-4.64205087366892019e-05
5.69586081551358078e-05
-7.69938673573170181e-05
1.40198596830559802e-05
0.000213597446382878951
-5.90343246967311086e-05
0.000163056571407432078
0.000655827944623291691
0.000304919324128703057
0.00122344061585931809
-6.40176783054926054e-05
0.000108891269831322648
-6.90989615445614157e-06
-6.26592452905299507e-05
0.000109986050304485811
-9.08044242292741326e-06
-6.16155799704958218e-05
0.000110461182047644779
-1.14883726438271293e-05
-6.07738748320072332e-05
0.000110209021582683775
-1.41704746777839447e-05
-6.00704934468308737e-05
0.000108873866851324878
-1.73741691827706236e-05
-5.93521201767579598e-05
0.000106207223874986185
-2.1456530456233188e-05
-5.82778267036866248e-05
0.000102030320582208807
-2.67664539981598068e-05
-5.6098061374758639e-05
9.57522644175399476e-05
-3.38578872285980897e-05
-5.13957880354800356e-05
8.5895030587175469e-05
-4.37089505163862444e-05
-4.19861567705746586e-05
7.14484259301314672e-05
-5.68247178198713905e-05
-2.58367900848558613e-05
5.63413789661846269e-05
-7.08901045019918926e-05
-1.20019988630314607e-06
5.31405805508458504e-05
-7.56141855053341007e-05
1.60105297982883945e-05
0.000173856796785631517
-1.10421326338938618e-05
-2.19008910537363201e-05
0.000602504174425812461
0.000197588133334443969
0.00132914853769809378
0.000407262610108468227
-6.49140051728299469e-05
0.00010674268139120804
-4.85002294627196466e-06
-6.33509482878067944e-05
0.000108762109019022054
-6.87100275866893834e-06
-6.22116762466280086e-05
0.000110053614479320317
-9.01971709295326779e-06
-6.14158843239745022e-05
0.000110690854956474281
-1.13893625895260315e-05
-6.08685663373098807e-05
0.000110587746858915658
-1.40665219820203096e-05
-6.04972626012311793e-05
0.000109490034661753513
-1.72660906329487104e-05
-6.01883277300356014e-05
0.000107121558134491159
-2.13053704853030131e-05
-5.96548298724208992e-05
0.000103214976994080111
-2.65672156190624928e-05
-5.82096094706558261e-05
9.71256406713696914e-05
-3.3666275641667788e-05
-5.45384391588633733e-05
8.72945966877402413e-05
-4.35165445675119082e-05
-4.66389028675660733e-05
7.23252777010665926e-05
-5.64100133831328015e-05
-3.2175816739889854e-05
5.54511836806534456e-05
-6.99409472625122291e-05
-9.68224831143880694e-06
4.86893990431732819e-05
-7.42447078945845875e-05
5.08996066673092317e-06
0.000172879465905206582
-9.31438745318613489e-06
-2.74462480531380152e-05
0.000632027603277964542
0.000198028793804098024
0.00130910704829041496
0.000396491976346920259
-6.41818623302473843e-05
0.000106393521230147594
-4.67496172660313955e-06
-6.28107747118010885e-05
0.000108590571431826189
-6.6359604448967857e-06
-6.18600335459829477e-05
0.000110101014117448321
-8.73973415737895372e-06
-6.12775394019004409e-05
0.000110948677371238333
-1.1051287488602209e-05
-6.09933201596740986e-05
0.000111061852677057921
-1.36806514651306825e-05
-6.09420449993721758e-05
0.000110240324677277307
-1.68234140294135551e-05
-6.10318855186563525e-05
0.000108219995475527682
-2.07730208133358799e-05
-6.10195134197226229e-05
0.000104685771510467496
-2.59213236219113646e-05
-6.03141504487582884e-05
9.89185928638860399e-05
-3.28823856366704524e-05
-5.78299430205801945e-05
8.92322557097899739e-05
-4.24766536387697556e-05
-5.18440769347954962e-05
7.37656343155757553e-05
-5.48615537808599837e-05
-3.98505688210386581e-05
5.46860106287926166e-05
-6.76145280496527167e-05
-2.24187085335083008e-05
4.52853794046386649e-05
-7.08956214929352859e-05
-1.39197625696310219e-05
0.000173966750913527493
-5.55740852319322435e-06
-3.28808033127968671e-05
0.000649553158911686632
0.000194050407475545818
0.0012830759991935988
0.00038321174351234322
-6.35225374088790548e-05
0.000106012180406263618
-4.36162703781409651e-06
-6.23236678048893827e-05
0.000108396739699254238
-6.2628622455985922e-06
-6.15452093723609957e-05
0.000110136788930824861
-8.29835354322928649e-06
-6.11576049297550892e-05
0.000111228662861079421
-1.05358332948301751e-05
-6.11152095823864122e-05
0.000111607337043055253
-1.30878803199218124e-05
-6.13686516205566389e-05
0.000111106856149997281
-1.61370506447691416e-05
-6.18441954518788158e-05
0.000109483959153090104
-1.99544025052510555e-05
-6.23436609952002615e-05
0.000106397991161042406
-2.49210099849702082e-05
-6.24025161665554509e-05
0.000101068461046749283
-3.16167458993403503e-05
-6.11766470260143621e-05
9.16722554232860909e-05
-4.0761641854345381e-05
-5.72214738797529969e-05
7.58591587663145958e-05
-5.24425475541902318e-05
-4.91253458333168464e-05
5.54407879596587955e-05
-6.42039262332962872e-05
-4.06046395985470171e-05
4.67356817370617129e-05
-6.618178128470434e-05
-3.92847390791494422e-05
0.000178705568764780747
-2.63078384894628164e-07
-4.09417484361864121e-05
0.000651816689474453599
0.000187066830474378367
0.00124925168311355904
0.000366270476672784227
-6.8625723610202778e-05
9.43367056334286136e-05
1.09130421028643548e-06
-6.62450018285107723e-05
9.86740307990918307e-05
-5.080841883969409e-07
-6.43318970121125965e-05
0.000102430470590473375
-2.19656684739809954e-06
-6.28646001993560493e-05
0.000105607205356504635
-3.9526893095376613e-06
-6.18253894465549593e-05
0.000108191621156840653
-5.78895134533601625e-06
-6.12112974011459402e-05
0.000110172270580870442
-7.74730170762314761e-06
-6.1008074929924342e-05
0.000111533178513407348
-9.89803553324214297e-06
-6.11912084046743407e-05
0.000112215589547821445
-1.23511367176222807e-05
-6.17317689049736768e-05
0.000112079334629409464
-1.52768193405528739e-05
-6.25782458769857464e-05
0.000110902484457085847
-1.89238624038819818e-05
-6.35862657027999964e-05
0.000108335799412732326
-2.36482995128662514e-05
-6.4433754405075896e-05
0.00010356493850183812
-2.99738547868169637e-05
-6.45473286845001126e-05
9.46828537533510144e-05
-3.85230047036713618e-05
-6.29048176149074655e-05
7.89757182990837687e-05
-4.93484808224846404e-05
-5.91545780958361173e-05
5.83542125128104199e-05
-5.99546481236362509e-05
-5.81644175918075764e-05
5.26400249231043831e-05
-6.08777485121076559e-05
-6.190804155505389e-05
0.000186670146057455301
4.39638188889642461e-06
-5.20988346605987218e-05
0.000644541632283632997
0.000178085028987134904
0.0012046962099835697
0.000345888967691254472
-6.75062135438923134e-05
9.34754465995668392e-05
1.4348945488363177e-06
-6.52702254888282287e-05
9.79423688533390992e-05
-1.40894150208010069e-07
-6.350226104633936e-05
0.000101845228360512722
-1.78682653157946454e-06
-6.21802370422775753e-05
0.000105196451150964366
-3.48614213799270041e-06
-6.12911251111330894e-05
0.000107991347836393535
-5.25326147427274712e-06
-6.08335660026731073e-05
0.000110223120030190219
-7.1292116170999579e-06
-6.08040382009901508e-05
0.000111873884261382017
-9.18356908369346187e-06
-6.11962969505886725e-05
0.00011288946204487199
-1.15216590063617592e-05
-6.20035786334137217e-05
0.000113157070141214046
-1.42998939585371785e-05
-6.32046012982067284e-05
0.000112476435877519461
-1.77427034649238625e-05
-6.47103419937041576e-05
0.000110496736241446491
-2.21712191681024983e-05
-6.63532772005098672e-05
0.000106420209146059684
-2.80439863567050893e-05
-6.78466173123442006e-05
9.8345118448564753e-05
-3.58987124033284413e-05
-6.86445373340702528e-05
8.33732771168822193e-05
-4.57834356211336125e-05
-6.90615650328392917e-05
6.36872691146334388e-05
-5.52283140060460596e-05
-7.40858684874193843e-05
6.21470558188758071e-05
-5.50959530525475528e-05
-8.16370058924427205e-05
0.000197467106751060735
8.30771361495042998e-06
-6.29868379268459609e-05
0.000629688467578370654
0.000168873962374977988
0.00114969676755344069
0.000322528129467830973
-7.20262912901733831e-05
4.5540392334902587e-06
8.16867118472059268e-05
-6.89203282611936696e-05
3.24513216939810355e-06
8.74559043367170654e-05
-6.63336250632845281e-05
1.78829518225993957e-06
9.26188039021248136e-05
-6.42388997542661731e-05
2.41467425476593709e-07
9.72122854730837744e-05
-6.26102369139959068e-05
-1.35748858020919448e-06
0.000101264901566335041
-6.14275746372011785e-05
-2.9967885518424627e-06
0.000104796437826377926
-6.06810564232863284e-05
-4.69189420890523351e-06
0.000107809575121468093
-6.03717164264724429e-05
-6.48172327540043902e-06
0.000110301068491391093
-6.05055582599021028e-05
-8.43266696979591419e-06
0.00011225658500888868
-6.10908533738933868e-05
-1.06431463496173236e-05
0.000113632979707694405
-6.21439074768582843e-05
-1.3254674262450959e-05
0.00011433976066531061
-6.3675169436674275e-05
-1.64648119058542647e-05
0.000114201577305098298
-6.56710083911389683e-05
-2.05527074886010417e-05
0.000112889273811444109
-6.80994825172192138e-05
-2.59098807313638146e-05
0.000109651493904098309
-7.09369270385934865e-05
-3.29992271606137654e-05
0.000102694347341437394
-7.41163573830770368e-05
-4.18747793138556955e-05
8.91338069539740892e-05
-7.82274496232343233e-05
-5.01211186167805655e-05