/*--------------------------------*- C++ -*----------------------------------*\
| =========                 |                                                 |
| \\      /  F ield         | OpenFOAM: The Open Source CFD Toolbox           |
|  \\    /   O peration     | Version:  2206                                  |
|   \\  /    A nd           | Website:  www.openfoam.com                      |
|    \\/     M anipulation  |                                                 |
\*---------------------------------------------------------------------------*/
FoamFile
{
    version     2.0;
    format      ascii;
    arch        "LSB;label=32;scalar=64";
    class       surfaceVectorField;
    location    "0.330000000000000071";
    object      Uf;
}
// * * * * * * * * * * * * * * * * * * * * * * * * * * * * * * * * * * * * * //

dimensions      [0 1 -1 0 0 0 0];

internalField   nonuniform List<vector> 
20856
(
(-0.185905427823374297 0.173687030912832968 -0.00516868700912799257)
(-0.191003488032651492 0.171929109931096918 -0.00255039164602585298)
(-0.171103155449447958 0.168953844839559358 0.00661242451072589082)
(-0.181228574527155073 0.175860090099662358 -0.015088698743101165)
(-0.185689175656600369 0.17482526839739404 -0.0121580254099633387)
(-0.191192452539825308 0.175672788358070403 -0.0121370067645182132)
(-0.167652952848891729 0.171924474724849174 -0.0058258148416678885)
(-0.176969442063776766 0.176442698724652069 -0.0245182298306335089)
(-0.180993655372121282 0.176011346868534396 -0.0211568396011288171)
(-0.186183225479996467 0.176894622324614947 -0.0210050824568872897)
(-0.164838045574278669 0.173379775420448828 -0.0168074884150423605)
(-0.172671643197617519 0.175684643656738748 -0.0341091981748241069)
(-0.176669928793040387 0.175709128852081148 -0.0301396426241402927)
(-0.181851578677410419 0.176897004923002255 -0.0300836280424562098)
(-0.161870036248875082 0.173510106027633337 -0.026867290580774552)
(-0.168458005331076716 0.173969771085262681 -0.0441414254026299552)
(-0.172739049437017955 0.174226688886493342 -0.03960015351321515)
(-0.177941007214348551 0.175971289170884698 -0.0397296646972943659)
(-0.158524074917264862 0.172140023628553102 -0.0369283995820449198)
(-0.163723549244100708 0.17112852628873082 -0.054605224609630236)
(-0.168695337535453238 0.172084028076681606 -0.0495222166891053847)
(-0.173760125917307773 0.174077273480552269 -0.0499688554915650382)
(-0.154746955834735606 0.169935361476738267 -0.0474258105875128427)
(-0.157155095169214054 0.165582282903115996 -0.0661422443692396278)
(-0.163275176602803246 0.168175460647403435 -0.0600980782791915233)
(-0.16841835168608138 0.16994431151266895 -0.0611728418117244502)
(-0.149600044974032897 0.166455110319539662 -0.0583014382804034614)
(-0.148537077176481763 0.15643796594072884 -0.0795883600612057873)
(-0.155908705805479553 0.160722141823620768 -0.0723885905387335882)
(-0.161565395584303828 0.162398028226835689 -0.0746233025228336955)
(-0.14227680651991903 0.159456823910243378 -0.0700203805773771254)
(-0.13701689169836212 0.144772354803680003 -0.0945338222514588017)
(-0.146851367891365825 0.149955000450682857 -0.0868081864470248293)
(-0.152890082639226793 0.151939182337190837 -0.0906371354021051345)
(-0.132966357816586528 0.148851466166022933 -0.0829576004552535218)
(-0.118951656791081523 0.132139200918927002 -0.109087788973344521)
(-0.133142586428910192 0.136985277912022807 -0.102507052682343711)
(-0.138740713847727126 0.138967104084746995 -0.108398141601139517)
(-0.119879116724599 0.136831102165740487 -0.0962384744907750361)
(-0.0892283823544883642 0.122620447572726221 -0.118914614627070786)
(-0.108779100647141053 0.123076705552153082 -0.117360473989974345)
(-0.113200813225873664 0.123641957235970421 -0.126053421945206995)
(-0.0977027018445987411 0.126207256205141644 -0.1071261994766909)
(-0.0414201678250255487 0.128186390769887221 -0.10976511128316585)
(-0.0720399907671524647 0.115013691047388456 -0.125097466101034088)
(-0.0743060861915595394 0.112304299296425714 -0.137653854270906734)
(-0.0646629667122099461 0.125280323597929177 -0.108280167151178941)
(0.0277150767209924653 0.254338388750129873 -0.00345063946472330685)
(-0.0671885978133796302 0.12968486975773541 -0.102860741826031415)
(-0.0616951339892532619 0.122968072407559442 -0.119062557497612354)
(-0.0783321972099506464 0.150208024910843008 -0.0796790959364852419)
(0.0493701755765825201 0.668270394474808516 0.347912974701062527)
(0.363566165721503909 0.374434021350451396 0.0850972850508197459)
(0.368544894673970669 0.34731981665909939 0.0719599520978443513)
(0.360304610897460909 0.39782582473264988 0.105921137697279039)
(-0.00374310068331162871 1.76738239758038307 0.956601820791067481)
(-0.570068619825216172 0.983816490900053853 0.600063190616526576)
(-0.579195017670778856 0.946866779839951711 0.613069728704599748)
(-0.565506287131425589 1.01868583544539915 0.607270001591324826)
(0.693819259120762588 2.55598687715137229 1.28289622007789061)
(0.70308525901813268 2.47946878140615334 1.32141365097788044)
(0.714723893085014939 2.62727560636377611 1.27080675702956514)
(-0.19067580140359966 0.173081878244793652 -0.00953973004686116399)
(-0.193307837608415911 0.170806968239384072 -0.00580034676250216)
(-0.198623483214756091 0.171833908177745937 -0.0064067126932016924)
(-0.184446412922492087 0.17028282816610199 -0.00259270053638856711)
(-0.185584002184368796 0.174928050070226909 -0.0182261662679910341)
(-0.187920348624656314 0.173397085449487842 -0.0143533830620539479)
(-0.192821394414049996 0.174610520703296607 -0.0147164753542316611)
(-0.179748894066008247 0.172570308936501104 -0.0124843801456095901)
(-0.181148917212599986 0.175298661248117438 -0.0267782523946357154)
(-0.183263017158219077 0.174491522993727027 -0.0225990637498112781)
(-0.187939821017555492 0.175843890586571877 -0.0229494075086969958)
(-0.175668894873676373 0.173458001991382227 -0.0215558136829050763)
(-0.177136183629140076 0.174414229778688229 -0.0356305979625312491)
(-0.179286228283683347 0.174279094371554449 -0.0309972732104912066)
(-0.183952702993855854 0.175850699709399427 -0.031479384094277349)
(-0.17186490333539356 0.173017430303996689 -0.0303272706429694415)
(-0.173362691320106038 0.172563022714568748 -0.0449809447996903575)
(-0.175885008613163724 0.172961732859087031 -0.0398634600480507334)
(-0.180578963386594654 0.174843393996681057 -0.0405740465586237817)
(-0.16818524489109124 0.171362441714661973 -0.0393296766660091932)
(-0.169019766688877388 0.169383584271729754 -0.0550150703586665402)
(-0.17236696754105818 0.170704059547515469 -0.0493140636406204855)
(-0.177057370246000212 0.172737082483921139 -0.0504182295612192258)
(-0.164204272888556935 0.168877891775487843 -0.0488361677915902029)
(-0.163152912577318926 0.163602251803402488 -0.0663444244486854351)
(-0.167680761272493817 0.166498954394349113 -0.0597052821064574316)
(-0.172579252501472713 0.168458861048978725 -0.0614991651514454341)
(-0.15890878546119 0.164822846280028662 -0.0589907255771420225)
(-0.155532948413855149 0.154523701974431077 -0.0796084169245524359)
(-0.1614955434706489 0.159127816847513759 -0.0718454123069283551)
(-0.16689700107110339 0.161113252099489429 -0.0747434053043915109)
(-0.151730953392323009 0.157588899876476951 -0.0703186288073963384)
(-0.144973141092235136 0.142399841430818658 -0.0947814168779095301)
(-0.153601522086275893 0.14842922571807593 -0.0861767626004719123)
(-0.159403942188114517 0.150646943207196765 -0.090629764283326586)
(-0.142808736727671165 0.147034749394928832 -0.0831237874498815948)
(-0.12764360417861409 0.127974096477666111 -0.110779737698973493)
(-0.140858986580820716 0.134373543491023095 -0.102573421504019727)
(-0.146509727011065238 0.136577244846360191 -0.109127022532128748)
(-0.129751370517984022 0.134104232209051322 -0.0970187885346104339)
(-0.0979923288698945488 0.115093313527438207 -0.123543325463937689)
(-0.117418263429023562 0.117756981159467908 -0.11950150747220635)
(-0.122372319508559479 0.118899771725007139 -0.128921354144818284)
(-0.106742471169690933 0.12102738627647508 -0.109906972368258346)
(-0.0489838576828324768 0.11543015378607524 -0.118193096643899292)
(-0.0814861905925825802 0.105039420415845922 -0.130447713639786023)
(-0.085250093332265145 0.103845478829757559 -0.143813429037026846)
(-0.0723629988478812491 0.115568859443505811 -0.114752543730711268)
(0.0211743096090171584 0.247614550763118807 -0.0143128173104858786)
(-0.0697580712014681248 0.114081502843417865 -0.112310351655916241)
(-0.0665716460904707819 0.109104577608912581 -0.128760072926935532)
(-0.0740118445879184711 0.133158020778147951 -0.0898066368470642196)
(0.0579293110221586194 0.687779657657674015 0.337247500966294522)
(0.332492941198447967 0.372812693611166257 0.0732470257925320473)
(0.332395593017536073 0.346284833150952376 0.061447514094382788)
(0.347700524661544608 0.401548679778364337 0.0949634363862036368)
(-0.0290123901079123309 1.76907405678788177 0.926357589903346379)
(-0.551925360199824966 1.02079336618254013 0.589734182048095579)
(-0.559889684675988097 0.993514946561315671 0.603592628536233411)
(-0.549750620808006518 1.03452085200120081 0.590606351374461935)
(0.656446870287447637 2.51140622470027353 1.23061588450399872)
(0.662507668517205328 2.44658476061254504 1.27595331942713641)
(0.681872116528724814 2.59348790398742146 1.21580483454343669)
(-0.190483310714968546 0.171250138475180141 -0.0106139997776948693)
(-0.192269876567597031 0.16889372121892901 -0.00652344205901290823)
(-0.197202222527977616 0.170173351425063624 -0.00736864969129655094)
(-0.187538912952008224 0.168937464848360697 -0.00542680157265610242)
(-0.1857082974356003 0.173136421818146397 -0.018726280543874263)
(-0.18727435191065378 0.171541141109991468 -0.0145465766019269339)
(-0.191865292858890535 0.172984496542060801 -0.0152401854488015652)
(-0.182721734738441749 0.171126076395678978 -0.0141797686129146571)
(-0.181754351812100784 0.173683372091840899 -0.0268180845656669567)
(-0.183139624423395764 0.172858703379382722 -0.0223776897373756667)
(-0.187536674408539522 0.174440889417904449 -0.0231040498565470154)
(-0.178599944297370472 0.172036930503931595 -0.0224143081498611035)
(-0.17839722823577514 0.173046116149092988 -0.0352301352960106839)
(-0.179804629367038726 0.172949692555103895 -0.0303790891835855337)
(-0.184159413836356478 0.174706247653574315 -0.0312642790326346162)
(-0.17498984177452348 0.171698683849906414 -0.0305609905810722525)
(-0.175301739978545951 0.171320219548459329 -0.0441965788889806879)
(-0.177055615170709779 0.171911156608092724 -0.0388466906256598812)
(-0.181437984040060063 0.173895140244422403 -0.0400104759018393222)
(-0.171699010913201805 0.170235403490681281 -0.0390131027428053667)
(-0.171735493309151332 0.168056461262063417 -0.0540042753884111826)
(-0.17424829311394846 0.169693267916538493 -0.0479982166146564193)
(-0.178715577128689268 0.171819365633810034 -0.0495983503593545177)
(-0.168176937529228465 0.167718263788171756 -0.0480588390264757234)
(-0.167049876763669419 0.162286204544795365 -0.0652062699647001365)
(-0.170621797484519166 0.165459955484451388 -0.0582375671296983533)
(-0.175358178274545695 0.167628053298333052 -0.0605306394405904086)
(-0.163553396949939867 0.163417610783786416 -0.0579328288159640867)
(-0.160874681549219273 0.153304308379657195 -0.0784137579828476372)
(-0.165922934167432479 0.158279543938878942 -0.0702348293766249798)
(-0.171125903398204049 0.160566195505779635 -0.0735945467917225454)
(-0.157463569354476862 0.156193668508109451 -0.069120679781812619)
(-0.15176219341679939 0.140638020652465057 -0.0939687672265817342)
(-0.159527891393542093 0.147583195726329497 -0.084579564622501005)
(-0.165138867213638879 0.15010307617384766 -0.0894528176354811161)
(-0.149615736900784863 0.145610585176836421 -0.0820298070531039897)
(-0.135980073228102377 0.12424172029458376 -0.111295191277252653)
(-0.148360026479960522 0.132422773425657891 -0.10162840832252773)
(-0.154026168112671086 0.135030877658062015 -0.108602987996433378)
(-0.137294017626079318 0.131585159730844503 -0.0967193430940836152)
(-0.107751060113382938 0.10764460140557465 -0.126405895648054795)
(-0.126944229710158396 0.112897672192756107 -0.120137117503333946)
(-0.132367773802696098 0.114880053470821614 -0.130068625111968705)
(-0.114851559064968245 0.115650359873315997 -0.111560323465261318)
(-0.0612306535341415742 0.1027982775788671 -0.124564968651802416)
(-0.0942168203241696978 0.0956249681628891512 -0.133463633158468931)
(-0.0990445919116581669 0.0958467555471246291 -0.147365479164171115)
(-0.0809634475301491408 0.105371285682583679 -0.119679035128460357)
(0.0089051610273588877 0.236535448869420933 -0.0247505085528941515)
(-0.0792270871921565423 0.0980700342713462792 -0.12029654389138271)
(-0.0767494467631398974 0.0951884270761989559 -0.136463495475885072)
(-0.0747213065605206589 0.116805166269548399 -0.098352269798171077)
(0.0614666897376730526 0.705612766649891587 0.325733706874340001)
(0.281150346099495962 0.36304865391329616 0.0614991757415358845)
(0.277523760989257517 0.339126873551173047 0.0507777651499142363)
(0.317215731149293134 0.397547657379589914 0.08381428321507714)
(-0.0461411943877081676 1.76609675001028199 0.893992476648753698)
(-0.534408918237333053 1.06451099815283778 0.577856193496761872)
(-0.54299630678237254 1.03848808405099202 0.594299753246098295)
(-0.535232504080153548 1.05916193891295918 0.574129263722194083)
(0.610541060951076076 2.45661063872153651 1.17336164745826643)
(0.618444162270344489 2.4012615854695043 1.22600312515817622)
(0.644416779158663799 2.5508597691224697 1.16255378159953393)
(-0.189021457452329483 0.169321797964295223 -0.0104560188832449712)
(-0.190394345623255606 0.166992942762480612 -0.00626173610185085626)
(-0.195157349145805847 0.168459279178396343 -0.0073428272141496248)
(-0.187042174318699184 0.166956439138934459 -0.00589038808855090693)
(-0.184799995233993292 0.171427137445528288 -0.0181979857954283411)
(-0.185950042641957469 0.169849943154778305 -0.0139284923990315238)
(-0.190399429916429358 0.171447570639400276 -0.0148914930953409699)
(-0.182583769977915172 0.169313258323212784 -0.0140545338514479999)
(-0.18145898332609034 0.172310749613487163 -0.0259386943552943477)
(-0.182436828473103274 0.171500565536389538 -0.0214320348403278585)
(-0.186689557470573558 0.173222969785409686 -0.0224442800424055899)
(-0.178892057021062034 0.170503560079027311 -0.0218170494985060852)
(-0.178782797234050744 0.172024197971086007 -0.0339956445132347657)
(-0.179750485851020686 0.171973484363284135 -0.0290908250042598363)
(-0.183934749670760095 0.173849362107652144 -0.0302815913638076264)
(-0.175808028736865796 0.170510451016931575 -0.0295513174688170517)
(-0.17640586349799936 0.170512577985460378 -0.0426483283513356612)
(-0.177656062210850951 0.171279054984100815 -0.0372152162739805073)
(-0.181868438236850088 0.173332616369961889 -0.0387048095486311611)
(-0.173115941406326246 0.169352687460886026 -0.0375884796881597177)
(-0.173782203843992372 0.16734102710859311 -0.0522315083559434096)
(-0.175653020004589766 0.169219077949263719 -0.0460821600386493169)
(-0.179991511015891476 0.171429444342695775 -0.0480281307010859276)
(-0.170304829309309597 0.166927597324106697 -0.0463581733349424305)
(-0.170430558501017904 0.161725651698852863 -0.0632661265416230301)
(-0.173209135291058469 0.165144890088978924 -0.0561082121159092659)
(-0.177829464648835367 0.167473582513777003 -0.0587400793037625227)
(-0.166706817304206417 0.162610908375349944 -0.0560267012595839012)
(-0.165853109463660164 0.152850922786221033 -0.0764006360162782922)
(-0.170054262004777496 0.158225123057455647 -0.0679055221615629118)
(-0.175101546880350317 0.160745946161722192 -0.0715659343218326)
(-0.162007102856450508 0.155482265003951819 -0.0670988841489460752)
(-0.158571078583605557 0.139640080683364892 -0.0922392057184470149)
(-0.165417163647580939 0.147535338985050807 -0.0821994473440045004)
(-0.170861437516923953 0.150351035293672414 -0.087320054853771506)
(-0.155596362056838411 0.144793206063594776 -0.0801298978500828013)
(-0.145133665846748583 0.121277777942156051 -0.110470334548609189)
(-0.156397871708765124 0.13135651875797838 -0.0996424851087872043)
(-0.162011972324185544 0.134439816915700255 -0.106825354648543078)
(-0.144686808087366114 0.129609343700741397 -0.0955196333871170811)
(-0.120126086515308567 0.10102013477574405 -0.127194855013748248)
(-0.138154096034012908 0.109066219608577125 -0.119183932305129525)
(-0.143839304347503083 0.11193374686925886 -0.12926598414410842)
(-0.123942370339894747 0.110619621145095326 -0.111927042527721593)
(-0.0787798160591815649 0.090687338520209923 -0.129195208398049072)
(-0.111767168750925114 0.0877029983905604077 -0.134375496628156205)
(-0.117102098456883436 0.0887479079755177647 -0.147975600615646768)
(-0.0929687684588518665 0.0954766150641210426 -0.122481064566682743)
(-0.0137103109786895494 0.222662574489799786 -0.0340468595969502102)
(-0.092983621647320075 0.0830405168088092782 -0.125848132364294929)
(-0.091796543216712212 0.081985344603542662 -0.141608934031558692)
(-0.0830601348035557158 0.100655581131385854 -0.106602150176521193)
(0.0357922633355078068 0.719531567726923171 0.313621662363954667)
(0.206186362306946369 0.351590450991070114 0.0546455225403221084)
(0.204344104120065539 0.329925155585864882 0.0444897766845982617)
(0.269707683630948658 0.386548744186743509 0.0710775149166288783)
(-0.0648916733381710853 1.75542248866147577 0.85722536430629015)
(-0.522861468078578362 1.1019237897078471 0.563977707237828363)
(-0.531933615785986524 1.07822143144616667 0.583275798100601595)
(-0.518489192618291184 1.08963886295586221 0.557419052498737244)
(0.558838653452311096 2.39264871091337028 1.11313614335532129)
(0.566521712662642729 2.34282061603791059 1.16774148449635229)
(0.597281587378306722 2.49472063311077452 1.1047099054528795)
(-0.205755193389875746 0.153728968651756115 0.0145539040124880448)
(-0.208283611937178204 0.149409115522008279 0.0189217665225753819)
(-0.213987299001931613 0.150638423239109365 0.0161621966879635683)
(-0.2056705478991665 0.150732354435162808 0.0215300005188014398)
(-0.198028461856440074 0.159497502163434279 0.00606136365045414471)
(-0.199921104296671981 0.155870645135333746 0.0103795820230545618)
(-0.205310158839772883 0.157187674176917619 0.0083316490338066311)
(-0.197072624295374227 0.156665058583194045 0.0119298432983010547)
(-0.19199955782187364 0.164121919104757985 -0.00203975529247321912)
(-0.193398599792343334 0.161139359402776766 0.00220380981486576876)
(-0.198425949504453469 0.162585335215903459 0.000637202677915109589)
(-0.190475360611594646 0.161381673846171803 0.00292859716520134719)
(-0.187297634592686085 0.167659329766855131 -0.00973420961763744527)
(-0.188357477042783966 0.16534433876550389 -0.00552811721240734685)
(-0.19302398214536215 0.166927582430184573 -0.00681263133975789584)
(-0.185431459784253211 0.165064150568235368 -0.005413157714345679)
(-0.183664042477968553 0.170070979084230689 -0.0171625414439310064)
(-0.184480585475334413 0.168482384784546579 -0.0128915253555507252)
(-0.188840871587728776 0.170182277515651514 -0.0140720332120224043)
(-0.181494015030949474 0.167719491232213774 -0.0131764243021410456)
(-0.180929552603165844 0.171332293584584405 -0.0245841654892935135)
(-0.181569589185011759 0.170503408035943882 -0.0200929083752850665)
(-0.185726675341052111 0.172314536520232708 -0.0213265012963884566)
(-0.178368712831148218 0.169274808490885303 -0.0205861410496542656)
(-0.178898451822456561 0.171421503724125235 -0.0323103967650055016)
(-0.179496221927387983 0.171385388305882097 -0.0274301211754056466)
(-0.18357036565843432 0.173329022732635285 -0.0288468482611680017)
(-0.175888241267528417 0.169677351714793312 -0.0279861406922745776)
(-0.177275339725515957 0.170201280924045906 -0.0406490479612942046)
(-0.178063184777038641 0.171066645441446619 -0.035220748583411024)
(-0.182162375307770297 0.173165136916764467 -0.0369414634402618763)
(-0.173853454950049946 0.1688632722553704 -0.0357374305389074123)
(-0.175658309074880309 0.167265305175204632 -0.0499588637986151315)
(-0.17691661269334466 0.169300067943320892 -0.0437708715715659641)
(-0.181150997518882806 0.171561808384890879 -0.0459482445629512612)
(-0.171859935888412141 0.166641862627839865 -0.0441698131250098588)
(-0.173677334101382946 0.161919643620762721 -0.0607476077358491476)
(-0.175679807543584615 0.165531053152886659 -0.053504263436785604)
(-0.18018460782291143 0.167966021867743703 -0.056351501613303101)
(-0.169415717302171864 0.162474965303287644 -0.0536013350968141886)
(-0.170808122259002909 0.153217198241234004 -0.0737043334892888563)
(-0.174089609339970003 0.158957106305204543 -0.0650069675944113107)
(-0.17898132136368114 0.161650524345411994 -0.0688398164849657462)
(-0.166209733967200124 0.155518236893991468 -0.0645066234036548863)
(-0.165734560605165532 0.139589985491377133 -0.0896027267343447453)
(-0.171434914001773242 0.148373121828987986 -0.0790877063250408352)
(-0.176696760992808372 0.151450640471103237 -0.084317638333541986)
(-0.161542912497970509 0.144743480733345975 -0.0775672809165118826)
(-0.155570799147207256 0.119496486177546907 -0.108356082865307887)
(-0.165114263363068309 0.131455144919111838 -0.0965610695045656109)
(-0.170585969203381344 0.134999081525951581 -0.103776404236758699)
(-0.152705309206392803 0.128470939554862607 -0.0934180329826032607)
(-0.135311262706508229 0.0958605699042719972 -0.12636457391953751)
(-0.151397761126442432 0.106790083740873176 -0.116609682594629838)
(-0.157134964947920591 0.11048899702166598 -0.126562409338851101)
(-0.134870580057278089 0.106476170868650757 -0.110862149964567405)
(-0.100322309032812265 0.0803083872503527751 -0.131028420594402145)
(-0.134180959290175345 0.0817466609968285907 -0.133284108020242376)
(-0.139828339095560417 0.0835976446545384777 -0.146253672116548439)
(-0.109808325459451184 0.0867182851784432662 -0.123184969618773441)
(-0.0492749563997126327 0.212236833435848454 -0.0371557502270209866)
(-0.111867473538627776 0.0725971274139892986 -0.127646704768916541)
(-0.111848539543154241 0.0721794471547235056 -0.142860740824563209)
(-0.0950220926633532914 0.0856811952297497625 -0.11270496655453538)
(-0.0164970314315036892 0.732781259210841918 0.305001567414194152)
(0.105401252193147554 0.344204146344799955 0.0540351255631587174)
(0.101205626097722254 0.327845367228437767 0.0459519440745995086)
(0.195570725947690927 0.375297214643324051 0.0639564995531266139)
(-0.0892549201388884855 1.73893559272931952 0.819888486286869167)
(-0.517890235602795679 1.12614294266559978 0.546574874256291476)
(-0.527871357857952916 1.10549325063278103 0.566562674939124378)
(-0.507310354628677906 1.12101071797047469 0.542243622694574268)
(0.500528183976232444 2.3182801063212346 1.05015425061121648)
(0.509398924648875817 2.27548316363332015 1.10529498905233825)
(0.544981513363047676 2.42874470708865431 1.04581317346873037)
(-0.202247841048544708 0.151674471349063644 0.0147474445331420099)
(-0.204405041576348062 0.147402844950393713 0.0191309945918315405)
(-0.210143190476437342 0.148719515441693928 0.0163327658749214365)
(-0.201865201496956026 0.148230764810549781 0.0213876317399880056)
(-0.195148788203406059 0.157646437559094049 0.00652202818746614853)
(-0.196698834804242495 0.154048650320993463 0.0108090979432032067)
(-0.202086563892969667 0.155439793587634378 0.00867656692720500215)
(-0.194009889269021102 0.154439985946333153 0.0121282091888463006)
(-0.189675976240143457 0.162502669908398956 -0.0012845521050683247)
(-0.190741922073603631 0.15954144329222511 0.00290421039182178504)
(-0.19574969130653333 0.161046146437408166 0.00122261853658970623)
(-0.188026460287557096 0.159468241594733273 0.00349403583325845176)
(-0.185516996720350602 0.166313410026844799 -0.00868543295032065885)
(-0.186227227956889368 0.16400188569159535 -0.00454545632386505871)
(-0.190869945026340415 0.165626600654520256 -0.00596142851196926251)
(-0.183524074298893392 0.163464120564556836 -0.00449103226991412127)
(-0.18244266321040925 0.169067330961887391 -0.0158218922869048581)
(-0.182891332870520368 0.16745649107345828 -0.0116276245133256507)
(-0.187226812426212919 0.169186884783669805 -0.0129447270781963483)
(-0.180130453542367952 0.166460661275231236 -0.0119269725319899704)
(-0.180285798589988833 0.170722887669877227 -0.0229388640613974286)
(-0.180547390068377417 0.169863426234192733 -0.0185396298315457855)
(-0.184671747813217574 0.171695223450222867 -0.0199053946234911995)
(-0.177582160227956865 0.168404154354639762 -0.0190311462594765154)
(-0.178883116248286567 0.171215970491022468 -0.0303404729938111656)
(-0.179064920237793246 0.171169761468006332 -0.0255639842508470598)
(-0.183094592756271296 0.173119530560067292 -0.0271053741054190292)
(-0.175711010040989962 0.169217359984651761 -0.0261286116555398788)
(-0.17802991466350318 0.170369963488481713 -0.0383425721936827488)
(-0.178304336388611206 0.171278297300475446 -0.03301460580107346)
(-0.18234651771021787 0.173365839003858963 -0.0348534134859024222)
(-0.174358022459671386 0.168790995606100031 -0.0335677205563255227)
(-0.177437346699164944 0.167795627025780603 -0.0473162712097364366)
(-0.17803419663133227 0.16991135237361929 -0.0412052959787641213)
(-0.182197634030798611 0.172175344078004666 -0.0434924385591791349)
(-0.173229560305333763 0.166886042554678871 -0.0416714889317024301)
(-0.176832558462495876 0.162836667679261582 -0.0577636232953478088)
(-0.177996013373091649 0.166571814230636439 -0.0505611787149751746)
(-0.182402123028899715 0.16905268990613595 -0.0534962815600808772)
(-0.171975208160124488 0.16299955876797001 -0.0508083064196415829)
(-0.175763144975977309 0.154430157522723682 -0.0703903404301629704)
(-0.177994010146075576 0.160458330188779613 -0.0616534226853194048)
(-0.182736589301251806 0.163255527148220198 -0.06552611795687667)
(-0.170323827590353194 0.156321297293215367 -0.0614549395574834206)
(-0.173211891027302944 0.140642555004416414 -0.0860460490952617008)
(-0.177501759118754487 0.150167364577500545 -0.0753078262074664828)
(-0.182554244309071745 0.153431618252394264 -0.0805093649731316724)
(-0.16764727282613287 0.145576185939728736 -0.0743727296121397125)
(-0.167230078029965701 0.119295775536575555 -0.104814669233887922)
(-0.174425103993684272 0.133030373046222727 -0.0923764712251706338)
(-0.17961439171234278 0.13686061115237047 -0.0994535928813562037)
(-0.161473153601801089 0.128490034271263376 -0.0903267602734558195)
(-0.153744639848191728 0.0929621760829235644 -0.123529216695334704)
(-0.166431194118994014 0.10681408677126196 -0.112301857974503871)
(-0.171839370504728445 0.111011874603651542 -0.121865483348346904)
(-0.147963466580082637 0.103921028843692989 -0.108338170020370703)
(-0.127472820637204803 0.0749597062812887155 -0.129902392194756827)
(-0.159111707398180896 0.0785674751369877106 -0.129803789749706133)
(-0.16464676829205413 0.0815557451131378591 -0.142164624016784563)
(-0.131696059870724663 0.0798909793710505384 -0.122256884666453292)
(-0.0979994957010507373 0.208124477929652246 -0.0364558289787344017)
(-0.139535910646846339 0.0702206878472405732 -0.125992038716533639)
(-0.141885590561289132 0.070768127089473068 -0.14023112481696659)
(-0.11388968122723088 0.0765994596358891416 -0.115516017944305674)
(-0.0922664268620905781 0.739197362228487975 0.295608432405261246)
(-0.00944545022354813246 0.347227655025260873 0.0558868679423345088)
(-0.0122293991931744107 0.332219409845210645 0.0498223262482246701)
(0.0968131650550311113 0.367957793174570835 0.0615994578982241303)
(-0.11816730474664687 1.70593910517116765 0.776840638580636123)
(-0.514650080807717236 1.12816505235883802 0.523826990649583268)
(-0.525762529854936989 1.11277751953477777 0.545254849647838102)
(-0.504511542927096768 1.14165892458488583 0.523397890762150153)
(0.428897730691391033 2.23320518919942002 0.981345332657632796)
(0.440360326138198255 2.19318982621490655 1.03629075753749222)
(0.484155921568842962 2.35126744832696488 0.984308595297777478)
(-0.217642088577177095 0.133733096953228686 0.0321758080935558161)
(-0.227178412854992934 0.129481042034847754 0.0318410980045158443)
(-0.219214644674269682 0.129032747363514111 0.0413090035796893976)
(-0.221191528946240445 0.1281808885192742 0.0367431485326193685)
(-0.207044833186543431 0.142462972988066205 0.0235835552463977138)
(-0.215599868649079873 0.138877436448907154 0.0243479059356088365)
(-0.207220271249871302 0.138261953274387783 0.0312973184611297778)
(-0.209726723190226144 0.137635954391352122 0.0281158063360885981)
(-0.198665379652601143 0.149842817205514234 0.0151926480018928119)
(-0.206225274021527766 0.146957757054958699 0.0167174910345416934)
(-0.197933679426689629 0.146041363537556812 0.0216685717934699366)
(-0.200638266591891518 0.145691026781148036 0.0196138683140716016)
(-0.192154362434949239 0.156021081252001814 0.00719128014755887786)
(-0.198749134250925108 0.153853834460803751 0.00921968337338606794)
(-0.190781801500773451 0.15252344046804181 0.0126471149173724377)
(-0.193526161051748913 0.152509066001893623 0.0114838716483268207)
(-0.187213404021326829 0.161125546048630386 -0.000356693826974847483)
(-0.192937365188552479 0.159677620095940137 0.00198780840128810667)
(-0.185391435013894268 0.1578495202404607 0.00429646119972076999)
(-0.188096974876042405 0.158226978683259634 0.00382030129593418678)
(-0.183573815298435583 0.165235438046233224 -0.0074876478868701685)
(-0.188558621234087592 0.164521057868568327 -0.00494583587695248197)
(-0.181418455630149994 0.162163345337919762 -0.00339356110092303969)
(-0.184076297853771526 0.16295979708089442 -0.00336843771858899143)
(-0.181030537823639287 0.16835141974706333 -0.0143453620579665746)
(-0.185426473682982151 0.168409191751933723 -0.0116607361981208059)
(-0.178555145646240337 0.165512143596752564 -0.0105404022292690559)
(-0.181236020778527296 0.166747698604660044 -0.0101798095024099242)
(-0.179432665383898626 0.170420135537320383 -0.0211647500209955104)
(-0.183404124565321347 0.171312150648490563 -0.0183300354510236956)
(-0.176567880444110897 0.167853828539222594 -0.0173634064687442462)