/*--------------------------------*- C++ -*----------------------------------*\
| =========                 |                                                 |
| \\      /  F ield         | OpenFOAM: The Open Source CFD Toolbox           |
|  \\    /   O peration     | Version:  2206                                  |
|   \\  /    A nd           | Website:  www.openfoam.com                      |
|    \\/     M anipulation  |                                                 |
\*---------------------------------------------------------------------------*/
FoamFile
{
    version     2.0;
    format      ascii;
    arch        "LSB;label=32;scalar=64";
    class       volVectorField;
    location    "0.720000000000000417";
    object      faceTraction;
}
// * * * * * * * * * * * * * * * * * * * * * * * * * * * * * * * * * * * * * //

dimensions      [1 -1 -2 0 0 0 0];

internalField   uniform (0 0 0);

boundaryField
{
    inlet
    {
        type            calculated;
        value           nonuniform List<vector> 0();
    }
    outlet
    {
        type            calculated;
        value           uniform (0 0 0);
    }
    top
    {
        type            calculated;
        value           nonuniform List<vector> 0();
    }
    bottom
    {
        type            calculated;
        value           uniform (0 0 0);
    }
    left
    {
        type            calculated;
        value           uniform (0 0 0);
    }
    symmetry
    {
        type            symmetryPlane;
    }
    interface
    {
        type            calculated;
        value           nonuniform List<vector> 
104
(
(-139.247632387524504 0.0349323583709294019 0.0143155158722547502)
(-61.4326716394235177 -0.00723066087342312015 0.0117905908483546575)
(-75.8190080915774018 -0.00785926130263539004 0.00882339189870295047)
(-76.6335768954713643 -0.00976167612994341752 0.0140587167697496448)
(-76.0623739454113661 -0.00392110145193361268 0.00699325046835209616)
(-76.5409752637389289 6.14321496829337493e-05 -0.000156516281116632594)
(-77.3593922015567301 4.84438173928726428e-05 -0.000145493554766934171)
(-77.5450076238266064 -5.3387997220859951e-06 1.20579915128030356e-05)
(-77.4978391063568637 -1.22876712876584333e-05 2.78724699038789442e-05)
(-77.4377819760913155 -3.2482145685201077e-05 1.97612273811872052e-05)
(-77.1998339720804267 -1.03601029582103124e-05 -1.97251171879277933e-05)
(-76.8862761192865491 3.73489261677664646e-05 -8.66228850216637682e-05)
(-76.6327042083309919 0.000103726178270439009 -0.000162803005143235901)
(-120.009089518524732 -0.00421642281553934271 0.00739136295611220184)
(-77.9958523173029761 -6.90694542438411487e-05 -2.74673931516353112e-05)
(-78.0966184914294672 -2.75416589488875777e-05 -0.00015047171460282524)
(-78.1409094148650212 -3.08701979983950784e-05 -0.000150403065995411491)
(-78.1042333185670259 -7.92375392729485897e-05 -0.0001606180800410793)
(-78.092489984709573 -9.00637386249359892e-05 -0.000170131664441069454)
(-78.1311989985090634 -5.85205483237426818e-05 -0.000157383008184542082)
(-78.1822272166167238 -1.7956199282630842e-05 -0.000162246305287814239)
(-77.959898474525545 1.11116100195767266e-05 -0.000143226853822164704)
(-77.6636117553166088 1.35909665728934405e-05 -0.00013417554214749665)
(-77.3611136219199267 9.93227631976120981e-06 -0.000155151827151966406)
(-77.0477935134528167 3.83885589526368939e-05 -0.000171436328410557825)
(-76.8228697884904079 8.93499016464163032e-05 -0.000193020557371850759)
(-100.55849141082237 -0.0106402056985396929 0.0101823962148027952)
(-78.9146120410896827 -2.20628692734064707e-05 -1.15014058612903532e-05)
(-78.3226245919315289 -5.86838165085642203e-06 -0.000100360092197486077)
(-77.9631367734736074 -2.66165408021321215e-05 -0.000107963301579280818)
(-77.7477718953871886 -5.23899822054420432e-05 -9.95640445486197683e-05)
(-77.8543594792076732 -5.09030578904570735e-05 -0.00010342169668192867)
(-78.0802299406374658 -2.2338040724852942e-05 -0.000119493740798315841)
(-78.1013564191506049 2.01600883795214782e-05 -0.000115906800620338904)
(-77.9158063099785352 3.75722630020905771e-05 -0.000124850129357393258)
(-77.6359110407867092 2.49766168141998948e-05 -0.0001443171805962093)
(-77.3023736523631584 1.14962934304437424e-05 -0.000175393905099698402)
(-76.9432927722959334 2.87144434595310254e-05 -0.00019643524437928074)
(-76.6362582362916385 7.47312439588383194e-05 -0.000217056841941244509)
(-91.7192804050468169 -0.00531214236090384474 0.00957449805483214129)
(-79.9213487618503962 6.56411668928769907e-05 0.000187900655876313858)
(-78.9757299062589482 -1.61090637529864489e-05 -6.9295343460440935e-05)
(-78.6647043450574728 -7.29356755535385843e-05 -9.44978555226689702e-05)
(-78.5556022862363363 -6.66609332175234829e-05 -0.000104813009978506791)
(-78.5760536973948547 -2.30528804187961685e-05 -0.000119938747849683265)
(-78.5900346998030983 9.15536812407668743e-06 -0.000123724504287119492)
(-78.4340932213027742 3.23327889886863297e-05 -0.000127073498557345481)
(-78.1306413664957233 3.46403864013921116e-05 -0.000143658423823094525)
(-77.8212678193671792 2.63040470114852749e-05 -0.000173991042017554714)
(-77.5047328410602461 2.03216060584206164e-05 -0.000225318473252429175)
(-77.1987486417286561 4.07700001756879191e-05 -0.00025012796358178706)
(-77.0037360726736608 8.21190732934630729e-05 -0.00026547540694148061)
(-87.9670024547214524 -0.00157236746204889445 0.0042783733900515512)
(-80.1826918363614567 0.000197208407747333578 0.000661223119076801541)
(-79.0082813759032092 2.22205943861143368e-05 -2.33517224185442197e-05)
(-78.8176470247003493 -3.8329238727943987e-05 -7.35299639995599128e-05)
(-78.7915079241685845 -2.61981101496975488e-05 -0.000105202270065874164)
(-78.7977424566768576 6.91302816933937025e-06 -0.000139318280411165679)
(-78.7212697081584025 2.81218776517344949e-05 -0.000163908911500562274)
(-78.4905193356303386 4.74389357260043056e-05 -0.000178548551288161414)
(-78.178608596739295 5.88761665838364502e-05 -0.000199837084044855268)
(-77.9753111473274458 4.23574521318891735e-05 -0.000240356081078186483)
(-77.8299620107987522 5.8355246155220623e-05 -0.000307546177338143749)
(-77.6987284382663006 8.60004079827477407e-05 -0.000321765913236310636)
(-77.7555851928044888 0.000116360795219109058 -0.000314760280316721524)
(-91.2228313854246977 -0.00205255223907334014 0.00558579401009849132)
(-81.3445693496686886 0.000229408612317558944 0.000799480288602488461)
(-79.4251017156704648 0.000108470349902742695 7.54828664083008775e-05)
(-79.0009676635389155 0.000138743050800199018 -4.52937516252274183e-05)
(-78.988232580745148 0.000139955034691755827 -0.000146557943661455848)
(-78.9558904098626471 0.000116269900899002596 -0.000258136897084352017)
(-78.769140920546846 0.000140342217783441298 -0.000359088272425255994)
(-78.525761600891073 0.000102096151052040348 -0.00029451479112779696)
(-78.3383438067230031 9.52295654670327825e-05 -0.000321677275932317282)
(-78.2852778843298012 0.000117607117179358773 -0.000345633393862963649)
(-78.1068799116303438 0.000152011531520476631 -0.000390825244999198635)
(-77.9423538339829918 0.000207874136987923049 -0.000425007648334697755)
(-77.9142276231435744 0.000269792557088920494 -0.00031911426977555325)
(-103.167826618516003 -0.00108605118171464484 0.00397165700134692688)
(-91.1095741983061487 0.00111897826375018127 0.00273832802496473075)
(-83.9061825885773231 0.00155822198002682059 -0.000206576343645186995)
(-81.6003773483925272 0.000430558057781497625 -0.000370023462460071029)
(-81.0761319082881897 0.000567944196180863677 -0.000657511414090466506)
(-80.5985651495149114 0.000423960622468282729 -0.000723683438993122374)
(-80.3157058457820909 0.000449579383065468966 -0.000899793953756443691)
(-80.1969863682512738 0.000389311820233939404 -0.000763309799141616697)
(-80.3048288833318509 0.000228125205926772273 -0.000385950568721415803)
(-80.4601112034253987 0.000282219467021570833 -0.00039073129483072278)
(-80.0284715512737392 0.000307605457087159213 -0.000372879494776026362)
(-79.9999699943766558 0.000317796894713259987 -0.000383923239522302644)
(-79.7470976507904084 0.000398930125835382727 -0.000152279998250049554)
(-117.396099765288511 -0.000475898775373689343 0.000375388707832448949)
(-108.95217424434496 0.00136519240266563553 0.000827707192143382268)
(-99.8375635453082708 0.00254696032321840909 0.00056487244070666724)
(-93.8665229905024177 0.00238434647809631761 0.000536074541178451218)
(-91.2327883346609383 0.00171448233162325059 0.000370147328931131117)
(-89.6418427863712992 0.000581257313776072245 4.18042396517734438e-05)
(-89.2324558818476277 0.000587964127384091729 -3.47402230697024152e-05)
(-88.7241060214425374 0.000653262464340038256 -8.56487713233230737e-05)
(-87.8200479675804502 0.000599770992460319234 -8.80566987289710569e-05)
(-86.7939558829382776 0.000569434518709301704 -0.000109381863581259253)
(-85.2801211860876123 0.000619200105437650561 -0.000158269791826822235)
(-86.0643092738532118 0.000490972689636999743 -0.000164684852675834356)
(-87.7592419224232145 0.000482228524555544527 3.77987511650777842e-05)
)
;
    }
    procBoundary3to0
    {
        type            processor;
        value           uniform (0 0 0);
    }
    procBoundary3to1
    {
        type            processor;
        value           uniform (0 0 0);
    }
    procBoundary3to2
    {
        type            processor;
        value           uniform (0 0 0);
    }
}


// ************************************************************************* //
