/*--------------------------------*- C++ -*----------------------------------*\
| =========                 |                                                 |
| \\      /  F ield         | OpenFOAM: The Open Source CFD Toolbox           |
|  \\    /   O peration     | Version:  2206                                  |
|   \\  /    A nd           | Website:  www.openfoam.com                      |
|    \\/     M anipulation  |                                                 |
\*---------------------------------------------------------------------------*/
FoamFile
{
    version     2.0;
    format      ascii;
    arch        "LSB;label=32;scalar=64";
    class       volScalarField;
    location    "0.720000000000000417";
    object      rAU;
}
// * * * * * * * * * * * * * * * * * * * * * * * * * * * * * * * * * * * * * //

dimensions      [-1 3 1 0 0 0 0];

internalField   nonuniform List<scalar> 
7236
(
1.48465418250345171e-05
1.00327746612518155e-05
8.95122217656536647e-06
8.43495069926985508e-06
8.12273839889758463e-06
7.90864271066462281e-06
7.73606250602071131e-06
7.58967884237361824e-06
7.46113793707876845e-06
7.35486203593261389e-06
7.26404429203482616e-06
7.18577930160703216e-06
7.11772560217018244e-06
7.05970485969870931e-06
7.01041885378120105e-06
6.96547285605990583e-06
6.92882474720998173e-06
6.89796812922033759e-06
6.86940889709650015e-06
6.84661832687625347e-06
6.82567726955274507e-06
6.79972053032090015e-06
6.77890236578587253e-06
6.76543840314404825e-06
6.74925896010453499e-06
6.72921739656792954e-06
6.70206594296889397e-06
6.69360620784481618e-06
6.68320834634532624e-06
6.6733959039257439e-06
6.65952249313826257e-06
6.66291674931779052e-06
6.68898434011054561e-06
6.80878393842929144e-06
6.9448514381937101e-06
7.4795333504605066e-06
9.34739101139656915e-06
1.58897505290800839e-05
1.8314635040890822e-05
9.80816647056800937e-06
8.37347487685003429e-06
7.90871104988287084e-06
7.88943282467987848e-06
8.00556419678100354e-06
7.8776441834819978e-06
7.67362189678864306e-06
7.44233456988147439e-06
7.31312102236250696e-06
7.20270330603831766e-06
7.10814282518609525e-06
7.03460040972652351e-06
6.97760744303126305e-06
6.93599331150015362e-06
6.89562149707677935e-06
6.87041452888137895e-06
6.85453408027533837e-06
6.84080759162123674e-06
6.83653289745868264e-06
6.83541552643624697e-06
6.84483473747279621e-06
6.88471592415032386e-06
6.90463107320233446e-06
6.9240394633112573e-06
6.94298503056812656e-06
6.98605406160173731e-06
7.06131489604590102e-06
7.12318340746019331e-06
7.23250447802837152e-06
7.34023154349466238e-06
7.2893344519989597e-06
7.3083200041655544e-06
7.59278237979592138e-06
7.28315832470524557e-06
6.46885039443598508e-06
6.39763111958216095e-06
9.19030788437193993e-06
2.27628432078764196e-05
1.23656853918139056e-05
1.06109553589224906e-05
1.10962000582208661e-05
1.33840483773004254e-05
1.63429102518543063e-05
1.68787975062345266e-05
1.62297869245835198e-05
1.39090769247730769e-05
1.1989211179430039e-05
1.0235873104802349e-05
9.29354894529674955e-06
8.7656754067222664e-06
8.52370708009207976e-06
8.37829124075695638e-06
8.48914855269470308e-06
8.75937223654023848e-06
9.35303428732631821e-06
1.00573743033402236e-05
1.06077413083655655e-05
1.09056257471088968e-05
1.25603096651940066e-05
1.55372440438163617e-05
1.61326295990263163e-05
1.46586098559348283e-05
1.73836360115568083e-05
2.37702883504639263e-05
3.21480043354975688e-05
2.49573535697631637e-05
2.92187173579218815e-05
3.40026550967727781e-05
5.50148922499486405e-05
4.44285039866842974e-05
5.95410824669051491e-05
5.37005811364537554e-05
1.78193860199528632e-05
7.29114432601689028e-06
7.45770115974323017e-06
2.8212056131934079e-05
1.72814490002878939e-05
2.69791853532744773e-05
4.02691004255035964e-05
5.88100062978987338e-05
7.95395696088184987e-05
9.37930524958613783e-05
0.000100519345374523012
0.00010355412853993536
0.000102475913278429401
9.54466703643303921e-05
8.3133904029694249e-05
7.36680011681885793e-05
6.67998960155297795e-05
6.33207339358639846e-05
6.27001945619646493e-05
6.7871025602635139e-05
7.69199560480239103e-05
8.91047327079717079e-05
0.000105508025359444667
0.000124556462832372286
0.000148680734393511111
0.000182125856180236675
0.000219874901400351932
0.000263388339156371153
0.000323085089038532218
0.000396232789830402359
0.000500902867698801925
0.000606706183552269563
0.000769557319949799325
0.000958970307814799544
0.00129648446773782404
0.00160499638914253745
0.00168947942434384394
0.000414414439737736506
5.80067839894371447e-05
9.42899586561058072e-06
6.72557350744864473e-06
4.85881361570764884e-05
4.32331347331596987e-05
6.61426544306597874e-05
0.000135893919360577435
0.000219112920610006669
0.000237545976719580841
0.000204692978991177267
0.000195028277349721155
0.000202532810949023325
0.000225840642916519575
0.000247010402429432966
0.000248974102322698605
0.000247916498759892859
0.00025452765520449298
0.000266386149672255838
0.000282481360005439638
0.000318728114399846748
0.000360093555422710614
0.000413352386004655129
0.000479461760744811041
0.000552467036149737671
0.00062677035601080614
0.000697133359693162579
0.000795289487310500893
0.000908665903237444272
0.00103834830915812263
0.00122046950173565851
0.00148408327390688673
0.00182688262552750148
0.00229293095616893254
0.00279321226640020419
0.002951250608657475
0.00278275424086004732
0.00205050440856468195
0.00086196284279366328
0.000140158581281889276
1.31372974226510725e-05
6.43431057332150457e-06
0.000128165249132252199
9.25367186607132245e-05
0.000177145543729132003
0.000323032371194484499
0.000224870056376121687
0.000155532164284473667
0.000137493124248974858
0.000140554032398043459
0.000157301090245220439
0.000182654322849547528
0.000212949299426655329
0.000248141942584067068
0.000288769561405233743
0.000312629257891545553
0.000329283459996139308
0.000364026720904634369
0.000411455316439427149
0.000481616157236151973
0.000576582552139883256
0.000727098461379009674
0.000821636035266014981
0.000863242082707199989
0.000962222810515266655
0.00109415024128488585
0.00123420310782817208
0.00142025838536483399
0.00167255420926220623
0.00201955825101177025
0.00254172262921372773
0.00311951063326370735
0.00329135336381544208
0.00323578931664898067
0.00301979070305480757
0.00240703461664357491
0.000897950727625513559
0.000290507414541295837
1.56154050639347854e-05
6.28444758758194833e-06
0.00025760032103729557
0.000241930882895308738
0.000518659566089626112
0.000260777034113324647
0.000129751141538247727
0.000104561549175766769
0.000109023354417261628
0.00012366043149276878
0.000143114358176182601
0.000164181375808647716
0.00018477335530560395
0.000203483977060426072
0.000231729708034844747
0.000280254892997530757
0.00034060713969192506
0.000428792582484176395
0.000417824805146775982
0.00043840778925619922
0.000478153476145489126
0.000513343413141255345
0.000546989193752969076
0.000600323200001981385
0.000793644797355978911
0.00106557118167486717
0.00120801283428562329
0.00144075594304182448
0.0018768017820609943
0.00243239726528842728
0.00319782490252396717
0.00346007126856360051
0.00348668356538093648
0.00322237323712235967
0.00296987017411163515
0.00280264585075490867
0.000918360239668119128
0.000396524306060708177
2.408766805289557e-05
6.27547451692412966e-06
0.000683560381023928061
0.00102689899871130706
0.000523965278239069739
0.000145237260193373105
8.66959612771246279e-05
8.87387964468282643e-05
0.000105544240900737324
0.000130895457353096597
0.000162717702643365306
0.000198440194434694938
0.000231969372871724248
0.000281897264841958289
0.000390868599920899686
0.000568308211952553281
0.000627090559945641681
0.000605423451039137578
0.000520807435903277317
0.000461282501831225588
0.000483396186738226314
0.000506599915405867582
0.000510638437148332289
0.000514952385582503479
0.000577950199854221532
0.000728375696616489392
0.00096917421562685486
0.00147534905281569793
0.00218193176198125871
0.00303348211612750052
0.00372008187901689494
0.00381510965569644258
0.00357332322588767856
0.00316072696562852114
0.00286165421675136332
0.00311251694757823643
0.000831497146371436291
0.000429383632034900035
4.26068584091972448e-05
6.39548578028355411e-06
0.00683992678950790835
0.00391627051879296206
0.0002652174610595685
8.03970462956263185e-05
7.25063527532906078e-05
8.75292440324776648e-05
0.000118219512395405701
0.000185583136488457785
0.000294663580880100823
0.000433074767335824961
0.00060922995757738184
0.000814978410888380451
0.000969676019883090445
0.0010880054750389296
0.0011058987880354699
0.000803886888578718927
0.000594358603423774615
0.000492639291651604137
0.000501441963638945372
0.000509118613233143437
0.000531295939850167515
0.00056985281997794018
0.000645131390636137438
0.000814800262070870611
0.00114074404541242595
0.00183289759395534519
0.00278874706109455851
0.00378893269446643364
0.00429798067748548163
0.00414146420546536442
0.00365178085742199829
0.0030344558274858738
0.0028266255504257598
0.00340246751906948721
0.000616324348201738943
0.000391295005818355834
5.23511820198745289e-05
6.62660021011256467e-06
0.00535804076839399915
0.00143214358695858295
0.000116619393073493625
6.19167730416903748e-05
6.98612098769715428e-05
0.000100222268178077866
0.000196234718732850923
0.000384170075959633904
0.000664967556572352474
0.000986174843565878209
0.00123984483722579925
0.00136446123459439596
0.00140376205831520035
0.00127331004392418497
0.000857541429792430671
0.000605322812910014628
0.00051095673814830888
0.000511165835525775468
0.000517225848368194877
0.000526548280258518054
0.000562899309830614024
0.000643912467749018186
0.00462307818375332687
0.000328287550712386632
6.10405110967738966e-05
5.4028151280688841e-05
7.55659987291798822e-05
0.000168106561840968558
0.000374232913387999842
0.000695890541538253049
0.00111051518220396683
0.00151804186912065319
0.0017485094975864758
0.0018286684361820823
0.00175703033636710987
0.00118201816781716854
0.00077789194621750578
0.000605551283686649438
0.000575542703985692291
0.000560936373044581822
0.000558521796989529468
0.000584633778504963495
0.000687134486299327248
0.000898501876334568289
0.00395903371899329441
0.000127945231736822625
4.48763675244686784e-05
5.44234651361378145e-05
0.000116731652454002343
0.000312165973114451694
0.000633899759282097533
0.00114196251701499793
0.00181805060805653143
0.00247862957174274689
0.00269580574335170258
0.00258890771995311719
0.00239751455773171704
0.00186622646964752716
0.00125077531155052451
0.000865424076894602827
0.000728982862070427936
0.000715348890054608557
0.000803477668327722298
0.00105112228559938966
0.00162911666981638064
0.00284674605362187933
0.00339414448814238197
5.3944067094379244e-05
3.95614117006193319e-05
6.8693681721304517e-05
0.000219318013177436088
0.000512935389091289523
0.00100770227053296308
0.00185916965723278266
0.00308312771131970731
0.00420139510654930683
0.00407149291023698508
0.00337987566552040838
0.00271675234337995534
0.0023935320545170188
0.00205098565832612881
0.00171653875649271231
0.00174823648398329747
0.00206169141858096464
0.00224479293478011726
0.00306226256298337135
0.00477522191774625623
0.00674842847113577091
0.00717161287298267308
0.00655804408002569339
0.00490271474690171655
0.00312723981235544504
0.00264078195575004164
0.0027904959301417705
0.0030591860308525759
0.00353846957553650369
0.00400634172337556785
0.00541268530543865568
0.00656256588912700316
0.00494924484814141495
0.0041738090309434402
0.00438322640696067745
0.00493529424258204279
0.00578333818043913657
0.0068704225541434856
0.0078303355246298733
0.00756198370393444501
0.00765490001116533089
0.00832508541174802053
0.00869148318155003353
3.03509746857408591e-05
1.43921982373169533e-05
1.0045822215237565e-05
8.9928107145848265e-06
8.47778404572729722e-06
8.15387219650076113e-06
7.90830386535414288e-06
7.71357265168927405e-06
7.55585531531873485e-06
7.42042402572633366e-06
7.30559682642570956e-06
7.2057299923520369e-06
7.11528342768600648e-06
7.03498518110701066e-06
6.96468656964158286e-06
6.90746323752492568e-06
6.86001533437361808e-06
6.82259515765939463e-06
6.79289276678804221e-06
6.76815437397060937e-06
6.74257479842216704e-06
6.72008202317049582e-06
6.70641115216574452e-06
6.69286781489499305e-06
6.67623005427842025e-06
6.65253883458043302e-06
6.64157514313762444e-06
6.63347727584315516e-06
6.6232634153987481e-06
6.61080668939193771e-06
6.60751638606911089e-06
6.61003439930046057e-06
6.6363045303607018e-06
6.75351716523551001e-06
6.88896519011971092e-06
7.44016995291045686e-06
9.330142794924167e-06
1.58743684029266858e-05
0.000317057547028057817
2.71080758735909509e-05
1.54196421308544054e-05
1.07568279921814725e-05
9.58329806081963689e-06
9.29973405979724104e-06
9.16403494117889787e-06
8.95265253334015015e-06
8.68065893912991112e-06
8.36871722806508627e-06
7.93282318571843071e-06
7.54603868181265725e-06
7.26020720280543351e-06
7.08114738504445155e-06
6.95927118673906747e-06
6.8820539196402315e-06
6.83240949168738738e-06
6.81218286127015878e-06
6.81568548642815218e-06
6.83853106886999377e-06
6.86147105929452058e-06
6.91598379167627164e-06
6.93697402232933131e-06
6.9837573052927028e-06
6.97053493713063747e-06
7.08136296975125417e-06
7.13872434649935721e-06
7.17845012101725128e-06
7.35894264916561271e-06
7.58511186656774678e-06
7.4697226398962247e-06
7.45728159479604208e-06
7.86050080302634528e-06
8.05910767917507754e-06
7.639481941398545e-06
6.54557292270111234e-06
6.44145740336947644e-06
9.16562009411645031e-06
0.00486557290328296956
5.43059815375349954e-05
3.08857842764209602e-05
3.20716486276314893e-05
3.6696133276578571e-05
4.1840518930661543e-05
4.66003745626235807e-05
5.11717990341776176e-05
5.12848449255779069e-05
3.7779637064970796e-05
3.23207323832085588e-05
2.16629865970687244e-05
1.58895538870046955e-05
1.27871614206689624e-05
1.14785963675495505e-05
1.10495164910460232e-05
1.10749855997488447e-05
1.16444539124008411e-05
1.22179286165150265e-05
1.26277103816784078e-05
1.42118852307917067e-05
1.7204041538732252e-05
2.01358260270355966e-05
1.84320797212302368e-05
2.13842832524071325e-05
2.59943183063406178e-05
3.95304424042768504e-05
3.09882329954792559e-05
3.5386367114159252e-05
4.24178803138903029e-05
5.78271584983402803e-05
6.4260431688293061e-05
7.0539366035047443e-05
9.73722637397145182e-05
6.13214450429537609e-05
1.87469867695555757e-05
7.33942011667595442e-06
7.47249286679585965e-06
0.0041427880036635405
0.000104389949294322654
6.52513833636543143e-05
9.16696802990528555e-05
0.000136081891497175642
0.000181660349251051926
0.000220116277355047611
0.000245138657325420111
0.000270257077740357267
0.000294729894169099037
0.000316278241430983736
0.000309174743454042691
0.000290436741409432907
0.000264609060144332183
0.000239821341931172537
0.000220895083330392207
0.000214519606528794512
0.000219739971367347877
0.000232569996105750769
0.000251811786683601405
0.000277971763346986491
0.000313049432275146807
0.000353613733505767861
0.000398909385152791034
0.000459797672352296413
0.000520433084839771218
0.000626436549069553351
0.000727260983669331942
0.00088717496722162312
0.00107280291624480256
0.00137511955221243133
0.00165515899285466404
0.00183504848911035436
0.00139500407731075245
0.000383342758027214678
5.69911810779857937e-05
9.34320899268844231e-06
6.74493491184941026e-06
0.00373878498907978052
0.000187234245187977875
0.000152744734805352781
0.000294506638447852409
0.000413076436219950854
0.000325564652403251894
0.000248982946856832275
0.00023092107989579249
0.000234772496914036213
0.00025203030979480454
0.000277912032434047206
0.000298434488190152131
0.000311905897321320617
0.000324159162965291839
0.000339282311613844315
0.000356964234173525385
0.000381918019414895552
0.000403555703515387433
0.000440612152646910522
0.000491558409909350074
0.0005650105329478573
0.00064004242826936654
0.000709403762795234147
0.000803302588829436803
0.000914827932148857452
0.00103155761642539402
0.00123790873401373631
0.00148865677505488994
0.00179532525594094223
0.00215981752799233396
0.00256379921046447036
0.00256848908877864912
0.00240365442339866191
0.00153417059445297281
0.000590347567070558768
0.000130860517979798733
1.2513636085503785e-05
6.44255669239717372e-06
0.00369638604339101546
0.000496561460286141414
0.000548454712273481384
0.000846735083990681099
0.000317655379935257701
0.000179941875464567787
0.000147687069391075647
0.000144419372828051974
0.000149763723352310988
0.000160480471854174692
0.000172440770514430196
0.000189925699201526046
0.000218209244560928879
0.000255282376944034213
0.000275259781932437719
0.00031068646004664901
0.000348887489838326512
0.000399041674995654467
0.000468498254058159899
0.000603323251019143199
0.000718479096573109485
0.000777359636987295954
0.000851522378267509611
0.000962471913458083812
0.00112374299105145645
0.00131532877222519974
0.00157167596343701184
0.00189300333410197274
0.00230118044995111575
0.00271628327520468402
0.00289483335705027246
0.00278833428300826261
0.00261380628834187185
0.00198158205858557472
0.000652197848791380473
0.000227265365051382176
1.38852793829994284e-05
6.31313180222038243e-06
0.00440040095090330884
0.00171666359306471886
0.00375260206117832224
0.000468896185778982209
0.000150096133174321079
0.000106173670366614204
0.000105841541975193937
0.000117429294221042159
0.000134866704943733845
0.000155431840934764731
0.000176140333202378345
0.000194067077866917691
0.00020523434395846118
0.00021341395949236826
0.000236224572976870913
0.000296923744449591697
0.000378065921546191753
0.000470412243337890495
0.000488975231153371834
0.000513891701099474635
0.000541725320646664339
0.000545159066538532418
0.000586350129366956406
0.000703121726674964037
0.000918546031396875345
0.00128496192467052986
0.0017084191666951712
0.00218706839125319945
0.00277746211094109579
0.003123264951981038
0.00307100347351025324
0.00286510002196948329
0.00271502484823404411
0.00242640423038694309
0.000617336831195765658
0.000253305949930022773
1.95000384859574219e-05
6.28651959623256921e-06
0.00454550811863789136
0.00369923826806056039
0.00107528297081921787
0.000177694431689050957
8.80494159945866749e-05
8.51274766062027867e-05
9.81712709081012557e-05
0.000119277750729260729
0.000148803696608771946
0.000188757830231220641
0.000237542474148222431
0.000278002115950445167
0.000314074844617862373
0.000420513657161946948
0.000657931759037722486
0.000883773358325857508
0.00102107110250335186
0.00085395190196267093
0.000685485376036991693
0.000587860815347718974
0.0005787698510348714
0.000592006648941664142
0.000621807471843540522
0.000674216069888024564
0.000845201207995574066
0.00118061368501710343
0.00201911160605236549
0.00276205958030421167
0.00349280865561155335
0.00352179224859028523
0.00333266078772446062
0.00293353721077457396
0.00275860947138212688
0.00288756754971614083
0.000457716485679307366
0.000197525610330085723
3.26708519038944572e-05
6.37745275915338049e-06
0.00362894229750602331
0.00371757292551345726
0.000321521284690016096
8.50652343591627318e-05
7.09132921619403555e-05
8.08216331764038227e-05
0.000104302931295395665
0.000154687577663994931
0.000249785756549713374
0.000425281985456887922
0.000669451932074409568
0.00096999204017569722
0.0012692749384503434
0.00155355846762064427
0.00183995548365340953
0.00201610991682581913
0.00198372860562587511
0.00139669065330980851
0.000907760611019471208
0.000688303216362273177
0.000646020899465820806
0.000660800128903207243
0.000726028012701137649
0.000821533434991130731
0.00105535632026033011
0.00159429094177788804
0.00256425422390469228
0.00358208818767546348
0.00422702392579819668
0.00406770721182106183
0.00355551211910948295
0.00294371944893970705
0.00281666514343277986
0.00316025174141228464
0.000388664746541135704
0.000169296831642858596
3.8365030757614137e-05
6.4109915772059522e-06
0.00348486157043219032
0.00169182258635445994
0.000130995801537478305
6.14138810760406342e-05
6.49197504913984305e-05
8.60241240212201617e-05
0.000151411681691662243
0.000307548099288475056
0.000571690348345422626
0.00101032431152942113
0.00161991396540214186
0.00225731592838202422
0.00254925365913343839
0.00263124072905185184
0.00268578726831440566
0.00242780575786389523
0.00175557924087968963
0.00105921832764694734
0.000767011600232893722
0.000685959722670353989
0.000685739496794123839
0.000712623656311510466
0.000794885234463934979
0.00327904839091834426
0.000359547569459723942
6.25290656713195622e-05
5.17324625992752706e-05
6.6874202960912139e-05
0.00012566289601186078
0.000291057459514381409
0.000592316233839387698
0.00114261707247618333
0.00205780968846530632
0.00319375422372751528
0.00346241320647616832
0.00332963131934772708
0.00303259193859092184
0.00243958116781976993
0.00161715404706756706
0.000999614525237200536
0.000777950651829166832
0.00073772298600187098
0.000725369208200262274
0.000735828777431019737
0.000819174411684419398
0.00313588487561355283
0.000143342129381562481
4.51556704272068572e-05
4.96986948502050341e-05
8.90320486482532427e-05
0.000237814672714416219
0.000523661337214952169
0.00108967319731362181
0.00222251639746997524
0.00430759189846920739
0.00523425828238834913
0.00470406555337157806
0.00399884222570850382
0.00337601014001967428
0.00224307581058813457
0.00127779835769824116
0.000953994771774125186
0.000885978350163846859
0.000863058550179254683
0.000870685388450645622
0.00102526036433816733
0.00151678172789885082
0.00303359047332133272
5.63020681385199159e-05
3.76113961304406339e-05
5.636706954070916e-05
0.000168308738366609243
0.000409985989929572857
0.000898912876265307685
0.00201236787810180409
0.00471594939856440337
0.00837744627133824027
0.00718380588570366463
0.00589125602889357947
0.00490024502336609824
0.00400777150259011995
0.00279082568922231749
0.00170955589996026253
0.0013381891800788076
0.00138627742066556379
0.00157098536421739128
0.00205496715245775475
0.00374576398336198867
0.0059361051952028978
0.011093138277233414
0.00897761210016168217
0.00742232758493810343
0.00604215360645689922
0.00477901645104886891
0.00397154581516944837
0.00333722479057860406
0.00314328329497945034
0.00350316157994007629
0.00469168540538551608
0.00928445195443709619
0.00736984577815057943
0.00616738676525824172
0.00563642875729177244
0.00560735717909425189
0.0061901919397063165
0.00705931802961893336
0.00811925559408823924
0.00858887716757344641
0.00818810153149583317
0.00841266100914382642
0.00867418232395710323
5.98616699724616454e-05
2.1141849464410349e-05
1.30014429650300735e-05
1.05148077211702113e-05
9.24533956925981305e-06
8.65153218243554788e-06
8.24626882813219488e-06
7.962625843399778e-06
7.74260705779399669e-06
7.56307779588858212e-06
7.41630744475300122e-06
7.28923070583010872e-06
7.18300733381559014e-06
7.08787311611861493e-06
7.00752483397737947e-06
6.93449371078616315e-06
6.86950961765644004e-06
6.81337772885905357e-06
6.76835726273063584e-06
6.73175922469123899e-06
6.70210806910240979e-06
6.67957906173521838e-06
6.66446523022323444e-06
6.64231941715338871e-06
6.62800757368542769e-06
6.61496371469075501e-06
6.60599948425092269e-06
6.59425083122344365e-06
6.58489226973196274e-06
6.58417384048347071e-06
6.58130248931969228e-06
6.58476120393084179e-06
6.62093270541685874e-06
6.72376550080989786e-06
6.88790965044187656e-06
7.51169173268331893e-06
9.54374425631477207e-06
1.63606291036326378e-05
0.0017005574091578633
8.72899394335820296e-05
3.98205576233134654e-05
2.07816216076053917e-05
1.582008874225373e-05
1.31604934757317719e-05
1.20880431184588598e-05
1.13740402648474457e-05
1.05699605514328188e-05
9.72756858706816023e-06
8.99239123449909875e-06
8.39970881767703378e-06
8.01280991688965368e-06
7.70794552019189392e-06
7.44939626223082451e-06
7.28662226791325592e-06
7.12130354010247451e-06
7.0175323075286677e-06
6.99215894399770611e-06
6.99061669090744822e-06
7.01436077243970637e-06
6.98753569167216849e-06
7.04235075822635601e-06
7.10725296435915019e-06
7.33138534076176255e-06
7.39924555529105535e-06
7.40547661550044745e-06
7.55583803650970721e-06
7.84565080889151782e-06
7.92197974512338838e-06
7.81166745350606459e-06
8.16363751454887861e-06
8.71796903308320829e-06
8.8928466859160844e-06
7.85099630862051224e-06
6.60548573742247626e-06
6.5512455013806556e-06
9.36499507765138353e-06
0.00414527419039330009
0.000166634918618223892
7.39944398936525066e-05
6.39540491959148704e-05
6.82790396961236275e-05
7.64971054165649455e-05
8.56501198863590272e-05
9.04629596196186741e-05
8.98819197810733561e-05
8.14062853969358199e-05
7.62612806647292848e-05
6.99580621204015386e-05
6.01303886882382135e-05
4.13454152295871758e-05
3.53878142195248092e-05
2.39941770298157107e-05
2.03050116974396236e-05
1.85056489264187139e-05
1.89188875545150932e-05
2.07429324436368452e-05
2.37619127218938952e-05
2.4769732823395807e-05
2.62934629527724383e-05
3.09500665420595146e-05
4.19827444607323577e-05
4.49665417334177983e-05
4.8504812298071934e-05
5.68489183528285381e-05
8.09462461096885984e-05
0.000109421972549834375
0.000118978080442745996
0.000133381272881298195
0.000160113282134215679
0.000183612072577130737
6.51623565953199065e-05
1.79953903897695594e-05
7.38579062254456738e-06
7.62448193613190264e-06
0.00316541633407276543
0.000322524244264803511
0.000150645920473040486
0.000179014899193552209
0.000281694181992790281
0.000447202543186214817
0.000421918707525762934
0.000381961068405398476
0.000351038163264112267
0.000337793343992618593
0.000311299242300629663
0.000274869382707021795
0.000244814297745386713
0.000247466430755706392
0.000260148011762775626
0.000268905752125282954
0.000293428121807339534
0.000315147857166208452
0.000330739101964451401
0.000358124475201157316
0.000404747201400974192
0.00045284836073029985
0.000499604367709179141
0.000544017403805817064
0.000609399575220592456
0.000689862056428299712
0.000790462560108161371
0.00094061428423070591
0.00118333466143062823
0.00148688859774040753
0.00174864821419367885
0.00192013305831752038
0.00139085807535736729
0.000745270928606355898
0.000315010082887663538
5.48264963977806481e-05
9.16605597613009978e-06
6.87056314645438728e-06
0.00286839920278581049
0.000794709901322525943
0.000452193525029722049
0.000744051742689797596
0.00114952348269583052
0.000590209810740087871
0.000377069756425835114
0.00030882551309747633
0.000300717345796704897
0.000306061148883669549
0.000312234520336001329
0.000317388278262659054
0.000307225919874353718
0.000308640645868795511
0.000324681189077018532
0.000346709536977453446
0.000348626843033644947
0.000350980905296887833
0.000350999067137922288
0.000390967736536597377
0.000481223760798816169
0.000618851358950296801
0.000704138337949999893
0.000764143894796292188
0.000876108996544723161
0.00100957797411111924
0.00118375065424092263
0.00139660016478021162
0.0016907622538519533
0.00201765320818076419
0.00227957914499278026
0.00224756222885489363
0.00188961340224148931
0.00107345178395745386
0.000388733117260737354
0.000115756573654011833
1.17152478278983166e-05
6.5435204208838383e-06
0.00277275839173247085
0.00243980760652680881
0.00159275548916018258
0.00194154597569760239
0.000613505531922491488
0.000277448930318850945
0.000188825616351708138
0.00016885540162389306
0.000167047863504403318
0.000173448442371054728
0.000188496131967028606
0.000203528312432956616
0.000213760570170984848
0.000225292756764722567
0.000242807072607001081
0.000269991977889589912
0.000312146167287059547
0.000370350409760754275
0.000423225810365394147
0.000556936433661105027
0.000704819987140313151
0.000792450403416143688
0.000859617319255834137
0.000878516301341255852
0.000936276958134215948
0.00110945486499866141
0.00143069580724862759
0.00170926396055027553
0.00206376379530050181
0.00239781736831426191
0.00263161555685512008
0.00252523009906563227
0.00220294008529372132
0.0016183185961066947
0.000420641407478323029
0.000149495766357771301
1.18219190116221591e-05
6.42016726680743713e-06
0.00275982326635725419
0.00243012334051750283
0.00193240460912939989
0.000792500148931477629
0.000220716777966622362
0.00012416115581813714
0.000112370422518611268
0.000119645124287349954
0.000133203402931594128
0.000151130505630241911
0.000171522580612113498
0.000190659857968116805
0.000209278234881999536
0.000221467509982106687
0.000236628175827087738
0.000277835120615543363
0.000376601419298222995
0.00054051570279880232
0.000671162280734289868
0.000641906061287729696
0.000592535145657089517
0.000592206354360914271
0.000624733556133730684
0.000655589910728873542
0.000711684327378258263
0.000868981033563596354
0.001244352311805466
0.00200039528310038718
0.00247852395148703527
0.00280693129155509292
0.00286003668606268913
0.00264782044929063633
0.00244507770194932975
0.0019701711637846943
0.000341275498770801232
0.000106935371949475199
1.42535962110463692e-05
6.31319172358158098e-06
0.00282193860135564797
0.0021917378609590428
0.00162034123085719965
0.000255595267827880433
0.000100718864126582756
8.84615621031955245e-05
9.65873152104454344e-05
0.000114268682980397712
0.000137934646855905033
0.000168595369500671848
0.000214464667546794926
0.00026548966156557819
0.000334195571272053447
0.000421788317911690823
0.000602625302392017863
0.000985956783605002572
0.00132173414995316943
0.00167352687018530863
0.00182528627286751566
0.00128331831568882955
0.000909450526114096857
0.000731246125844530175
0.000731726000069668264
0.000783336936535477461
0.000844616061179926324
0.00097172041699407157
0.00138086714626630032
0.00228692182966044313
0.00322473952328793806
0.0034071141574999902
0.00315151251284627801
0.00278945119786099113
0.00258928039626794924
0.00228516524618106861
0.000270653936335925229
9.60344042273363459e-05
2.10366743333992258e-05
6.25695303891323586e-06
0.00298966974714506709
0.00300948770242911393
0.000439322329506371752
9.96276877877067793e-05
7.33261811722366594e-05
7.90104279949728001e-05
9.64836750325681229e-05
0.000130527629718226042
0.000194310493131636465
0.00032108427361273443
0.000544004604613944364
0.000853852530489239555
0.00126187229967320231
0.00173223969174374302
0.00220852061049752434
0.00259617242670722196
0.00292552515679382836
0.00305757443337017695
0.0027957785640810146
0.00175725492282388196
0.00112112925411742091
0.000897081215077811991