/*--------------------------------*- C++ -*----------------------------------*\
| =========                 |                                                 |
| \\      /  F ield         | OpenFOAM: The Open Source CFD Toolbox           |
|  \\    /   O peration     | Version:  2206                                  |
|   \\  /    A nd           | Website:  www.openfoam.com                      |
|    \\/     M anipulation  |                                                 |
\*---------------------------------------------------------------------------*/
FoamFile
{
    version     2.0;
    format      ascii;
    arch        "LSB;label=32;scalar=64";
    class       volVectorField;
    location    "0.300000000000000044";
    object      faceTraction;
}
// * * * * * * * * * * * * * * * * * * * * * * * * * * * * * * * * * * * * * //

dimensions      [1 -1 -2 0 0 0 0];

internalField   uniform (0 0 0);

boundaryField
{
    inlet
    {
        type            calculated;
        value           nonuniform List<vector> 0();
    }
    outlet
    {
        type            calculated;
        value           nonuniform List<vector> 0();
    }
    top
    {
        type            calculated;
        value           uniform (0 0 0);
    }
    bottom
    {
        type            calculated;
        value           nonuniform List<vector> 0();
    }
    left
    {
        type            calculated;
        value           uniform (0 0 0);
    }
    symmetry
    {
        type            symmetryPlane;
    }
    interface
    {
        type            calculated;
        value           nonuniform List<vector> 
67
(
(0.00306025885943234273 0.00713670019633113727 -5.18174337227798087)
(-0.000123456979587496086 -4.71923206939487371e-05 -2.30138653756938805)
(-0.000152726501308419229 -4.06717535476363489e-05 -2.465266885224628)
(-7.64298032538063748e-05 -2.32923470935744325e-05 -2.86344748849954822)
(-7.7265193840482009e-05 -1.88612299869050438e-05 -2.81124477931506522)
(-6.87309270182975617e-05 -2.65426137770118281e-05 -2.64557501089329516)
(-7.00380012397969437e-05 -3.57818901993888755e-05 -2.58480471065167627)
(-9.55093987026515382e-05 -1.3955809087539775e-05 -2.78070089256548059)
(-8.86390457497135366e-05 -7.75801336857362541e-06 -2.67720067593233901)
(-8.59316893114260008e-05 -3.17596791910418203e-06 -2.61284286838122837)
(-7.95075623903820222e-05 -3.24837331575586973e-06 -2.56642889974417354)
(1.71840280296643977 1.35764595998811244e-05 -4.73439701400195308e-05)
(1.82485195957767066 1.68289837854221367e-05 -4.47002195270705015e-05)
(1.93345452071988344 2.25072156959237616e-05 -4.02342281258242558e-05)
(1.61685165234964967 1.91496588048355369e-05 -2.77760326528042035e-05)
(1.73896887054337257 2.2805192185755797e-05 -2.58971343053325951e-05)
(1.87256631581138855 2.90500300622693663e-05 -2.34914133602753258e-05)
(1.5636356763509085 2.25854999566216767e-05 -2.2880156629707713e-05)
(1.69201784789050569 2.61022128917264629e-05 -2.12492095970856958e-05)
(1.8343029546860099 3.25639549568061703e-05 -1.96315961833822495e-05)
(1.53856585423497627 2.4739242084719646e-05 -1.50516014076557218e-05)
(1.6694562351804505 2.82346187481140628e-05 -1.41838171119609466e-05)
(1.81425192967036186 3.45723054891556398e-05 -1.33885500800796679e-05)
(1.51630301211939988 2.6294031419687401e-05 -1.17779152824534554e-05)
(1.64827766442526857 2.97901813676092933e-05 -1.10944466139732269e-05)
(1.79381451578438589 3.60031095300230864e-05 -1.04636027745339282e-05)
(1.50215905345071388 2.72886750290688122e-05 -7.77298968910408778e-06)
(1.6344575870496636 3.07708547142245386e-05 -7.35251043334164858e-06)
(1.77981992228845187 3.67978641506284149e-05 -6.97149813492960626e-06)
(1.49174646562105284 2.79773429709863991e-05 -4.63584152186211765e-06)
(1.6245789393179233 3.14683242242654073e-05 -4.36985076775586605e-06)
(1.77060481801540948 3.7438165386479234e-05 -4.11304247676043545e-06)
(1.48697038774134138 2.83419652667178086e-05 -1.52030126006002901e-06)
(1.62035143918805935 3.18249930007296226e-05 -1.42815329373144473e-06)
(1.76728803449081528 3.79426948687968104e-05 -1.33828760655319457e-06)
(0.0023695436872592365 -24.8789675232613376 -0.00568689317376306399)
(0.00364126017699251863 -30.6759549824795492 -0.00561338016546399695)
(0.00224118671396387548 -30.0953838566363991 -0.00462088985627983912)
(-2.42997977316246768e-05 -31.7140017845701614 -0.00226658662417076077)
(0.00387876591065701307 -32.2226877370516931 -0.00241998415003421945)
(-0.00055974550913730518 -37.7024444802374603 -0.00388563712978189004)
(-0.00325510973735395346 -39.6003113230415593 0.0017521544080299949)
(0.00427030403858943888 -33.966686474753395 -0.000305388451571266407)
(-0.000102208996132223197 2.19026553720385975 -6.8643430323123145e-07)
(-8.93557186006432245e-05 2.21216770147314623 -1.34423444787698816e-06)
(-8.85589172277347791e-05 2.20627032283758995 -1.64940075157579109e-06)
(-8.48154473554985452e-05 2.16870638531633908 -1.77141923739091492e-06)
(-8.903561091907793e-05 2.14176847095968803 -3.96782669174898199e-06)
(-7.7299730180373745e-05 1.9800478339468901 -2.74924757184836126e-06)
(-7.74015369021487706e-05 1.99050121293711446 5.60400849355405891e-06)
(-9.22090710825829461e-05 2.18528911326296083 5.3704611503346953e-06)
(-4.05642293597703254e-05 2.24137348002953152 -8.99983128160218566e-07)
(-4.05646084726339997e-05 2.25310792992004272 -6.6084728524462734e-06)
(-4.11874362548837096e-05 2.25596096725578876 -5.6949421909037573e-06)
(-4.17579522827487231e-05 2.24489010526414123 -5.05587466377856076e-06)
(-4.03125918947904737e-05 2.21228556420138256 -5.26871933332611932e-06)
(-4.02731544425126173e-05 2.14764711190503732 -3.37266954766823878e-06)
(-4.21803103501180269e-05 2.14463927549362676 -8.99460255095705572e-07)
(-4.22568435262907175e-05 2.20768434560021554 3.36735789294521516e-07)
(-5.24456633443655989e-05 2.25013347265329378 -9.55942411515902941e-06)
(-5.15929184836694412e-05 2.27902918160569623 -8.28628166353864503e-06)
(-5.23080206834674591e-05 2.28392193937978316 -8.15974635807965478e-06)
(-5.29860495426221178e-05 2.2784933717798328 -6.32400444480890245e-06)
(-5.26210370622087536e-05 2.25363956625069983 -5.25780671434873732e-06)
(-5.14957535421285714e-05 2.23014468118789777 -3.38801698589979642e-06)
(-5.15432343025634733e-05 2.22596164087827075 -1.63827452432572225e-06)
(-5.35408789333180666e-05 2.23286605315372411 -4.58001625517791151e-07)
)
;
    }
    procBoundary1to0
    {
        type            processor;
        value           uniform (0 0 0);
    }
    procBoundary1to2
    {
        type            processor;
        value           uniform (0 0 0);
    }
    procBoundary1to3
    {
        type            processor;
        value           uniform (0 0 0);
    }
}


// ************************************************************************* //
