/*--------------------------------*- C++ -*----------------------------------*\
| =========                 |                                                 |
| \\      /  F ield         | OpenFOAM: The Open Source CFD Toolbox           |
|  \\    /   O peration     | Version:  2206                                  |
|   \\  /    A nd           | Website:  www.openfoam.com                      |
|    \\/     M anipulation  |                                                 |
\*---------------------------------------------------------------------------*/
FoamFile
{
    version     2.0;
    format      ascii;
    arch        "LSB;label=32;scalar=64";
    class       volScalarField;
    location    "0.300000000000000044";
    object      p_rgh;
}
// * * * * * * * * * * * * * * * * * * * * * * * * * * * * * * * * * * * * * //

dimensions      [1 -1 -2 0 0 0 0];

internalField   nonuniform List<scalar> 
7248
(
56.2166952204980674
1699.54115927413272
5.8497410678220163
1642.70537743379737
0.892457416721441854
0.765638873152925781
0.781896659863371646
1.5886199902101954
493.139787067883674
0.622894050821134249
0.519889286375188719
0.564158800170842745
0.676433375583055607
26.4043006698351128
0.431836752289011638
0.402954766265748388
0.534341667225310291
0.567900643884790224
0.846085935585640936
0.360899814383638662
0.329347764020275657
0.450115210793440135
0.539451471157152085
0.68927743569564992
0.291016289620948554
0.257723317045995604
0.322256135880135297
0.874180510104273445
0.769905271746710085
0.214415313378777672
0.179495696921609132
0.151407141764795888
0.228897082397695933
3.41933124019494272
0.139631423931313031
0.101497605949007461
0.0603143512746912996
0.0203679761431550185
-0.0615339919604395227
0.0767582441948776034
0.0373855120252269066
-0.0105267078208556193
-0.0621699726836932171
-0.110376663824807777
0.0276007084966048664
-0.00993480826238368059
-0.0566314431972889665
-0.11160762248235527
-0.172225669412114202
-0.00861746264677478065
-0.0417849905997029827
-0.0831842629526535204
-0.133567371484540537
-0.187720275710521523
0.00392923341322685363
-0.0123934265752590374
-0.033539935466679105
-0.0603758217002657513
-0.093851844423206765
-0.134869681398688462
-0.183595236990650917
-0.0230277875776780071
-0.0346133765019565331
-0.0496838954164917843
-0.0688995974084285201
-0.0929931306085685222
-0.122788432334947753
-0.159369378815458068
-0.0455819310101877942
-0.0516238812926162194
-0.0597650157130220558
-0.0704373366567101894
-0.084148294658875078
-0.10155413911093096
-0.123593232283564711
-0.0656256688626498247
-0.0656480377279778371
-0.0662938987887132375
-0.0676965756589274908
-0.0700502981271728803
-0.0736901827372413026
-0.0792506139591094283
91.1147943052117739
1786.89857025120477
10.5654604819391942
1714.25011625984757
0.915090799292177515
0.801519085710132195
0.820714392643128288
2.6920909724747637
918.677977798656457
0.649276546131218546
0.532569744426119818
0.53919300991050656
0.861068670150236914
57.4025652235595416
0.440096783529612234
0.394559677888596916
0.430196094888083691
0.549852729691194253
2.08346037699734365
0.357041049833812241
0.409544750046295036
1.11664462711417523
0.803539165346661477
1.07526737477549728
0.291862266738054155
0.258584840618567013
0.55173818236984129
2.15114810955515168
1.31535395356474694
0.213877218932107399
0.18265249551385293
0.160205644296632949
0.587254182984236817
6.29712052363400066
0.138473311711672792
0.104355256946723124
0.0716165785062907734
0.0712339404030667422
-0.0375635495273015235
0.0744891427016534519
0.0381397855115400836
-0.00474649618114239731
-0.0613922019746517
-0.125455916432226838
0.0242345194908174799
-0.0118500315035325425
-0.0565396245334322325
-0.104754811509119417
-0.0914223547129760505
-0.0127358370019323274
-0.0454316062535485149
-0.0860185183756842636
-0.133856970297823286
-0.190328195046431892
-0.0381588536143758067
-0.065149008380444462
-0.0987933218241335565
-0.139756450668336474
-0.184414115356621028
-0.0545704116968813852
-0.0743786050079559419
-0.0992456118730801612
-0.129957713961451282
-0.167452732185226577
-0.0646546510454380913
-0.0761813881387589653
-0.0910521123532777449
-0.110041423020448878
-0.134349072170259626
-0.0706340466400540712
-0.0728338137389216156
-0.0762844656931867954
-0.0815424411479511863
-0.0895122111402463505
147.169966932745098
1862.41408379903578
17.9243899121611641
1821.23920850959144
0.853474012895670819
0.828510923728394078
0.893113899805063283
5.08896675362199336
1373.58646481599772
0.658344378042238332
0.548456383076967313
0.534883758401504816
1.41361819950666878
102.918594731247978
0.458565896219861102
0.454243474603464314
0.440784166407615474
0.744539125727201156
11.881323229025293
0.36294536224824947
0.468765488223799709
2.05751377765488375
1.01322421001751262
1.55820492107246156
0.29363257270085924
0.264399109410226485
0.479837808822365153
0.664370774349440474
0.981394153317413864
0.213590093432090983
0.186481496678393172
0.160359219144591836
0.24336960564549015
0.454393711453808413
0.137187983843999245
0.10680070657043543
0.0774290919467066352
0.15299864577033892
1.2248211354878773
0.0720058187184006299
0.0380283102864983624
0.00635512582771355621
-0.0285291002561639251
-0.0891846565611484898
0.0207568930270453124
-0.0140913450709127096
-0.0571412467080240905
-0.104942470355836481
0.0510527235856147107
-0.01681764908846781
-0.0492291454539525303
-0.0895108698975849021
-0.130706341954115346
-0.168484982320920795
-0.0426049079233412967
-0.0698225576669376097
-0.103746267248506344
-0.144873252712309247
-0.194209843568199592
-0.0592336588307273287
-0.0796316188753195681
-0.105268169788848828
-0.136870687277203723
-0.174524114352561266
-0.069342692077892662
-0.081714610934246798
-0.0977485863749876921
-0.118385938156524373
-0.144950891463012405
-0.0747951142870132285
-0.0778044233365360466
-0.0824230480084243988
-0.089337682602471491
-0.10000263135214367
431.203470849496284
1909.66560788116954
25.2738422717305511
1928.23494276089082
0.851836393518205948
0.78670220349004838
0.79024775809056047
7.96256520909649357
1491.61306315426282
0.690210839836728596
0.553270401946970858
0.50211596810814918
2.44746675518610024
203.647270846875386
0.470387060905106902
0.457126154885470926
0.454074999106807931
1.08114330738873021
14.9448428027766838
0.373931884411379534
0.442834456437562363
1.07470309045757184
0.727389791116056394
1.5828196540455417
0.296888675267363122
0.294970239997189854
0.485491988655152806
0.458968610765974727
0.549049787269441425
0.213842032307975549
0.187248841640610258
0.236863451091286648
0.917633227087025327
0.465171409573289396
0.136046802792967741
0.109333932294356173
0.082045784052777071
0.246120053504884556
1.7764345900646703
0.0691408752959130901
0.0367859108168722346
0.00461831355684469078
0.0438461144428371752
0.274395444320574111
0.0171015160573173494
-0.0169698553556318944
-0.0561776109074399524
-0.110979484843879914
-0.0518599325879184822
-0.0208248449034836511
-0.0531342056410493979
-0.0937974560587695461
-0.138049283357964625
-0.0635904905416412175
-0.0468024880262018564
-0.0743322786062702717
-0.108729068460286404
-0.149154700985777572
-0.199866679514962758
-0.0635557406868623165
-0.0845292176661411598
-0.110902771182098736
-0.143270706325838909
-0.180467033892216522
-0.0736776899546954245
-0.086877830765334868
-0.104113112183413903
-0.126406137105581851
-0.155017717179581876
-0.0786131274195809721
-0.0824310840692304703
-0.0881803590075564692
-0.0968120751938424812
-0.110374404249497654
579.822437985842384
1960.92428807534361
30.5173509526228486
1918.65293073781527
0.790900887188948354
0.778390859141855462
0.783960484482969844
9.71313063382583763
1576.16002913189027
0.644804210523745258
0.58071357026793069
0.591695268458224843
3.11168571592976217
294.491107403770911
0.49324775190078507
0.459236949142547868
0.503563596249160028
1.29953951195168127
24.6847966286129221
0.38955688620421064
0.400823712633881779
0.434563257546289328
0.62403891381573251
1.56931873789605025
0.301232050033862664
0.306078098880406158
0.542202695458395612
0.412671201550949385
0.474002293444141576
0.214332618322899043
0.193267834303828989
0.249458054177057381
1.03377566723861181
0.319522745280286791
0.134570963122002812
0.111251897356867441
0.095201221451319859
0.262464176994110066
0.304640079671762598
0.0662628094446510857
0.0358394093415663612
0.00644313618865003691
-0.0290662455595347147
0.607483317065182327
0.0135227126632842566
-0.0201085048310310731
-0.0598336850585147739
-0.0960518902172716876
0.145009542377119022
-0.0245715463862913111
-0.0569882714292711673
-0.0973691786970051487
-0.14093982481098688
-0.0289760673125850979
-0.050587235998133126
-0.0784475888438546654
-0.11324444844234989
-0.152707496566986678
-0.19811666658086477
-0.0673844601759379935
-0.0889175695618016765
-0.116027796188095375
-0.149039025211121889
-0.18623463457648981
-0.0774947738655442087
-0.0914828354277580635
-0.109905756404394428
-0.133863478474338465
-0.164538814288130303
-0.0819321204935768571
-0.086504014911576832
-0.0933411154486348815
-0.103670805070183072
-0.119830823683633542
721.97552027726681
1971.49409780117253
51.0714283102812701
1908.72101132915259
0.813765137293169571
0.792024240209912245
0.907650093686642623
13.871346962297455
1684.43697392140848
0.724430958518952228
0.607134068714327846
0.785198395987537823
4.60759405190077675
542.200018269818429
0.506630772606686541
0.49063100841936691
0.542301665469810734
1.32607070656856929
40.4702502682087797
0.401773610480562204
0.420543477359231199
0.56044110107548295
0.579926462998450187
1.54928607483588254
0.30437233914899936
0.335836969662355544
0.547852207422914739
0.338698552441514367
0.372986325225324822
0.215961583327137191
0.202669933689267362
0.196894886982346529
0.908284168366624844
0.225002630952079202
0.132945975576130415
0.113878822741614982
0.10643255383928038
0.157617242406940999
0.123941372763732072
0.0634597745030864024
0.0357016795887804342
0.0299793087676784448
-0.019312216556171935
0.155016998114710397
0.010505738475229098
-0.0228836080372440062
-0.0642135094996046235
-0.0736610773171324645
0.62418017171484641
-0.0277591500392331825
-0.060307182039761438
-0.100806166538872991
-0.144416724962293963
0.0197618184279291891
-0.0537259618226969063
-0.0818893414688960236
-0.117073525915761228
-0.155490649642566786
-0.186273802305580882
-0.0705155872139441586
-0.092567480914373737
-0.120464542078404346
-0.154478557971057251
-0.195533079754544259
-0.0806028046146007038
-0.0953032764043502678
-0.114821206200200213
-0.140391696745805178
-0.173237953821529178
-0.0845982892992123564
-0.0898150773145182518
-0.0976510315100470316
-0.109571103489672902
-0.128027640579875895
868.148461050059154
1958.52639454555197
39.3022956398961156
1911.90705304951439
0.83726902055325958
0.776446382888775433
0.981109422063884073
10.4954707550079416
1755.88808719247481
0.776047579147259969
0.729673707525396398
1.68484482647777156
3.32516969595207712
702.24177163311947
0.514308419739999634
0.720973717919483281
1.64772412168699378
0.65787373951347361
47.0527797803162002
0.410346378889168528
0.461574315758644049
0.545473800627607641
0.469592187520238735
0.525936180905576034
0.308816161412810875
0.317987952683951081
0.318411652153001823
0.324768302635440043
0.273847624601254336
0.217067137408790828
0.204415255619641079
0.226842287361862599
0.403171689687392309
0.201881889465917425
0.131390309454587684
0.115492629128723948
0.162842453489171174
0.399641914491743633
0.126497320063183399
0.0617439900019878599
0.0368865346418969925
0.0342445448004781786
0.0513605902880940532
0.108321637655379138
0.00849326707948759065
-0.0244198195521746347
-0.0673035566001981417
-0.0811605043566298034
0.864428646514434851
-0.0300106925345981768
-0.0625997176439187508
-0.102575645630827772
-0.14917729345472322
0.154258435616067974
-0.0559470696019618782
-0.0842385722712274132
-0.119619838881173154
-0.157487591974929425
-0.179123482180546773
-0.0727423198551103711
-0.0951836923848438932
-0.123680991059321219
-0.158531356955901509
-0.202250711124426469
-0.0828065535718124635
-0.0980659309648577171
-0.118491838987758724
-0.145517905089290384
-0.180631392250189204
-0.0864817242474151815
-0.0921775804237966456
-0.100765619610594576
-0.113841390756655295
-0.134494545780054986
1045.49489797534693
1936.11967535301028
73.3892849217892831
1899.37133603536631
0.944205140980947433
1.13938164682337506
1.61802600000272889
23.5055500612125243
1853.92025563381731
0.808608526664325145
1.1915758616178791
4.2136856098171771
7.36757991584542093
737.96038347982676
0.553775429452365908
1.65268279276638053
4.03479727936697508
1.27096039599169686
57.1675109925854343
0.43408376618406086
0.429372908743223314
0.433635382560512594
0.490378951961948806
1.22974933051605562
0.319111453929371014
0.323025535030455002
0.316420558128923834
0.330964899474323837
0.274712796472270093
0.219124275126647255
0.207287399665244648
0.255111957565508585
0.317121285035418976
0.203968567038456838
0.130798538678128268
0.115109428971682928
0.162929775026744328
0.402569968626009189
0.106876004660600529
0.0608419924090644326
0.0362823413951747359
0.013207997802232644
0.0237906906074937703
0.0662713054048308936
0.00715927828152160706
-0.0264854266786853296
-0.0693396655486060443
-0.0968298311897044656
0.640136760726330079
-0.0313056603993318097
-0.0641964228105931511
-0.104820718895100445
-0.145685094990249397
-0.0570235877858908669
-0.0571666604947812032
-0.0856483737856125749
-0.121494519039031273
-0.162980274053026786
-0.212555411156311713
-0.0739231943792694607
-0.0966307037535034108
-0.12573466674786557
-0.162402288370558784
-0.208229080521827564
-0.0839509352995348596
-0.0995414719461592407
-0.120579883112426109
-0.148779134348672681
-0.186544390954104217
-0.0874674782930292133
-0.0934303598521655787
-0.102453510508156334
-0.11620899460281188
-0.138638308427730644
3.25544621238820442
4.88919703551149265
5.094534728170105
8.35163962069238863
1.64930092843636933
2.19643352239576473
4.10415389965236521
8.0204498663073629
11.1799110091535212
1.04458466095303693
1.27314926429235009
2.17924289382793823
5.12145123136365488
10.757801597730559
0.601532727251610111
0.66415005286573725
1.01387486261288373
2.48214668511496273
6.21180140916347412
0.42676289668071038
0.439654738209537821
0.656427484363120595
1.47079468017693049
3.74153796370675362
0.328873618518842281
0.314882884060411872
0.411364013224143843
0.853537590452145278
2.10954576191567744
0.240047841795852701
0.199103097110803762
0.188652191727812585
0.378800879486396957
1.00465488683810467
0.165713290552494313
0.117744615807724065
0.0608438978710526338
0.0397750640693395816
0.204886402190505357
0.104709529617005942
0.058577920759715657
0.00142171831014073599
-0.0642875735036193691
-0.106391637830569902
0.0579302310301487502
0.018753304947133221
-0.0295163251492864716
-0.0876459062693244195
-0.151911994790060484
0.0233232082685125366
-0.00753123960906871507
-0.0451419061603438795
-0.0895644522142913929
-0.139437396542973102
0.0309366557848097072
0.0167804712204849306
-0.00125761282374697511
-0.02350594912074579
-0.0500065273970997093
-0.0803699867208516466
-0.113601523689637954
0.00130333928981668686
-0.00734556029585682006
-0.0184086022729853527
-0.0319605832563721881
-0.0479256762036365247
-0.0659026643968500386
-0.0849891913175828961
-0.0239202616206074664
-0.0268666238710587764
-0.0309168467661154779
-0.036080264586498989
-0.0422476663534153557
-0.0491317809965022487
-0.0562265324024852006
-0.0470868779909332374
-0.0443468439201004649
-0.0416126378070010641
-0.0388567554687236222
-0.0360234718375713955
-0.0330494310007897335
-0.0299048612455409257
2.62580237038133113
3.49314548770814559
1.47561036221835051
3.50745380421321729
1.82041706826936633
2.36645913094191807
4.05257974808132371
3.37704647172673411
5.01855161357071644
1.15749050720227831
1.54174348164800334
2.72765902999157994
4.61888439105605109
8.45756810494134648
0.618391538119139494
0.843021109198139329
1.53105861006736088
3.3314656687729034
6.35381464657697492
0.463133185641189438
0.569992193303254235
0.999329687717168347
2.05850902711254991
5.83644036463535976
0.340627980195066515
0.354542447214817535
0.488531784369992117
1.05417110906204625
3.85191221051743238
0.245882340837043245
0.198560318314229128
0.176388054917223591
0.311524384542475496
0.975904347921296433
0.170424204820438824
0.120062188054307462
0.0581202354345764366
0.032871297966193376
0.152108778395608046
0.105895872755204082
0.0591082143915455244
-0.00135547718250228033
-0.0742780912083406408
-0.146778997799530991
0.0575086930039165126
0.0180683424120472447
-0.031549602822195405
-0.0920604953909588686
-0.164842109690776395
0.0220645839481296291
-0.00919636415127074447
-0.0476220242998198345
-0.0934220434281317069
-0.146219484874620442
0.0298046870177816337
0.0155506089569492634
-0.00268693962896139876
-0.025291815263244373
-0.0524394616871475261
-0.083963363355393672
-0.119157704499735145
0.000367966286592247608
-0.0084556613733471897
-0.0197570771232687716
-0.0336761277768430206
-0.0501836896999163923
-0.0689786540792355629
-0.0893451429216553655
-0.0247240853874384978
-0.0278204431606677328
-0.0320671053514148055
-0.037493613691074984
-0.0440246027478741683
-0.0514367901873635444
-0.0593023222281270773
-0.0478231298590549025
-0.0452039586260637866
-0.0426116587229391636
-0.0400143249759052425
-0.0373572831523567087
-0.0345865902137662898
-0.0316944998853975202
1.63192640773866149
2.91141628549045395
0.998790650385786738
1.7970101906677709
1.54317739035370738
1.76951496972294953
1.7741681458384384
1.28355587714944419
2.49924970667761137
1.01373179510664646
2.0459009492330531
2.92261351035087813
2.33791876439180246
3.72429077262491237
0.677624641653122195
1.47916676044236239
2.45981419799103795
2.72953204350672829
4.0794268723008944
0.493206688325588838
0.780765259054869154
1.22049968804953202
2.36216812670273546
6.62576449730482597
0.362434346828534537
0.348363428083605542
0.411804340451973672
2.61477322827749203
8.37043187237747155
0.261603266285877212
0.201090524774492824
0.308745821719622338
0.708988007361083916
0.779229530801264336
0.173801855908186809
0.121635140498101174
0.0507764351259401212
-0.0257379633108345794
-0.0588735790008808671
0.104428938074085764
0.0558835351071169731
-0.0106029103033583889
-0.096000070162251136
-0.190290476746725834
0.0547763426686344243
0.0141884893299298095
-0.0382538337141535983
-0.10459649478238596
-0.187911299509957025
0.0190352946310110953
-0.0131930198715565425
-0.0533980598262653802
-0.102497230459648148
-0.16170605395540763
0.0277235308623986244
0.0131726965795311186
-0.00556604511888280241
-0.0290019312767787231
-0.0575259469017532291
-0.0913776857313189639
-0.130627981549515382
-0.00143269112112742996
-0.0105674347287775579
-0.022323869358942202
-0.0369263701610913
-0.0544725803919518317
-0.0748839524390418482
-0.0978192363121353631
-0.0262658979697291232
-0.0296253313872648777
-0.0342287889945430551
-0.0401491738986511221
-0.0473762415177204632
-0.0557879684406164464
-0.0651013937611815696
-0.0491313778587519762
-0.046709891314074263
-0.044356564826647564
-0.04204748648969657
-0.0397371852205621948
-0.0373800015653449683
-0.0349741588177334001
1.29883806506767341
2.57913768716302405
1.14251991274565134
1.32936875441179336
1.28596704880995127
1.29820046073178963
1.27093356066235263
1.1924661209724372
1.37621115800111893
1.01257836097758291
1.36238312798633254
1.51984089971044023
1.54714540921968635
2.28864132965825062
0.658126695246983751
1.04796942612574773
1.26408372930015722
2.16968971950984946
4.07163018657320208
0.478728435205474812
0.558888715809917946
1.44525141691904913
7.1742310941881291
8.33555963198216432
0.329132470602158833
0.351052630081515105
0.636302290240688295
1.874315121673235
6.66143575875069516
0.253830789816059388
0.222406460065194045
0.349868676376615173
0.372257128365476142
0.126577861032616951
0.167718951103399128
0.109927317365580021
0.0220890143275422127
-0.0853620841457067292
-0.145119978218120116
0.099491199683659215
0.049154699337592235
-0.0202334821124573218
-0.108118429861312565
-0.19921548386798435
0.0501751788276502825
0.00834160566237894877
-0.0461481317554077869
-0.115460954603375285
-0.201771846627647994
0.0147593762211140223
-0.0185505980999774028
-0.0605335834836451606
-0.112489821478862911
-0.176167547998463014
0.0248265118297726455
0.00987039161063383956
-0.00949767276667505371
-0.0339249696225859265
-0.0640198246023917228
-0.10036575667133972
-0.143565046700334792
-0.00397858121524968453
-0.0135215484006712093
-0.0258591949613572285
-0.0413133789064491774
-0.0601353713786456842
-0.0824805052111065029
-0.108357739317240312
-0.0284770485474755072
-0.0321952708017445299
-0.0372798069949094868
-0.0438591248605182948
-0.0520041707282142829
-0.0617119370686700433
-0.0728623258023413378
-0.0509959515831447455
-0.0488555497957375851
-0.0468430808731122167
-0.0449483691502649829
-0.0431392726945257349
-0.0413824012701064919
-0.0396788883141518944
1.26670838342762115
3.68324644755591413
1.22297199069393669
1.12233152174269257
1.06130208960252381
1.05741173222061491
1.15168797647079257
1.21656680587803123
1.30338315252889081
0.831218964550330952
0.921911406536423006
1.09259058379382945
1.31694553873208342
1.46942950887930235
0.537625156523072412
0.668896391644883792
1.18904640768428282
2.76637479965050526
3.12668492375428331
0.378615099339395245
0.365362423240050693
0.723497269946476007
4.54488271818120904
7.40821661722434754
0.289124229216949191
0.335280191081507917
0.587357614499884995
0.543274048291904399
0.440606129078237874
0.235229592489232753
0.180690440139590458
0.136101320038866602
-0.00212536522141198742
0.121443751202169187
0.156849419918102417
0.0979655060165977865
0.0156098462617415192
-0.06665985069113739
-0.0933942572254655018
0.0928500349352415488
0.0422539333437252224
-0.0251277135455363551
-0.107268805862898609
-0.194376593517289004
0.0447114263838455789
0.00237787059913822842
-0.0524073921825552666
-0.121191724519225136
-0.204259390993149659
0.00985098241168444813
-0.0242001518215781281
-0.0672134383439065286
-0.120573354176916572
-0.185966275551788268
0.0212605042119183504
0.00588262358063797088
-0.0140883921871748398
-0.0393999658774944264
-0.0708137983366829149
-0.109148162688779388
-0.155359518006110475
-0.00714571683357764081
-0.0171341481969307548
-0.0300885977413702238
-0.0464221603029285751
-0.066527850583428999
-0.0907715467893859956
-0.119478413125691976
-0.0312530814956619163
-0.0353920254192655187
-0.0410344131017406702
-0.0483673667905493154
-0.0575491220627873667
-0.0687044466350808375
-0.0818916425486621996
-0.0533409825696656223
-0.0515536841434746304
-0.0499701706522408459
-0.0485969698346512824
-0.0474207610052632539
-0.0464256649220234352
-0.0456244950312174949
1.4436881869409508
24.8353133710857179
1.17619596983990649
35.4618221109620038
0.94803205462353346
0.931729209725380314
1.01040299809176348
1.08179299281973895
36.9867846113604557
0.717259374024449281
0.749491749853150591
0.921026309717165592
1.2381771947254312
1.78771488388450073
0.461017380164295776
0.522598031962862031
1.14382345871142332
2.75915032393954052
1.46670967979533162
0.335876016085055351
0.316361085475992121
0.592503728784578576
0.921451018473414263
0.778550327241005702
0.277786101835885368
0.218889489474758836
0.229687321241449721
0.245335155954268358
0.462003451892319006
0.221416310503708247
0.156734779333379537
0.0825935663820198535
0.0112651329596737074
0.00970450361703475463
0.147966777890192774
0.0928055017369616708
0.0219210719840745583
-0.0504942541441836951
-0.0416148054902648751
0.0868348124731591064
0.0379899262197568865
-0.0251245372725744549
-0.0997537563276312544
-0.174792392072713076
0.039466338342661389
-0.0024122632793397822
-0.0559552285781129699
-0.122093374400478724
-0.198986635081163155
0.00485796843366872316
-0.0294556534378777983
-0.0727165797563397304
-0.126276843701586511
-0.191549909231157667
0.0172210386402017641
0.00147643902658414132
-0.0189755200277561646
-0.0449500190192264268
-0.0773081924899696182
-0.117022325225242127
-0.165321582199839306
-0.0107760751677895266
-0.0212066344816443236
-0.0347551375598144918
-0.0519178549499081654
-0.0732094507747829693
-0.0991793005730124549
-0.13046586224633383
-0.0344729077250747126
-0.0390687998532661118
-0.0453115648311350691
-0.0534491870686648746
-0.0637285338542792068
-0.076405958748534758
-0.0917488754365127362
-0.0560784785447831294
-0.0547018242950924466
-0.0536175012645191892
-0.0528510853149925727
-0.0524165508612986775
-0.0523335572435374916
-0.052655301916494715
3.69775194256720141
790.278297820788111
1.14626100198614345
472.189771502853034
0.893667569467348488
0.767628564833877536
0.839996898465709796
0.937281059391076421
84.6261676932160043
0.649321491606136947
0.606856068399691306
0.70636977605417095
1.14184805618925966
10.7154854678696374
0.441444008133669186
0.453951047162089449
0.899871728793377179
1.67744294394804916
1.16285902544517095
0.346572886283313897
0.313683853179594685
0.44978656986579546
0.840353903161944249
0.760540407495939874
0.280899366122280336
0.227035600810609833
0.193680992296835136
0.259401958759933438
2.74296433634413761
0.215261481118584647
0.162132459564245268
0.106871179670699826
0.070596279397957068
-0.00667517327519942007
0.142931307934183793
0.0937399152614185327
0.0336388661348537774
-0.0312113128714545073
-0.0821315791426532327
0.0823691566863390956
0.0364736545686949049
-0.021465599553747796
-0.0891634227569254451
-0.14925207581579078
0.03493555734174357
-0.00577069786045392771
-0.0572761153276420201
-0.120052889018833903
-0.190836638654156621
8.60740789700420428e-05
-0.0340669386644540176
-0.0769934223779744908
-0.129959591828228943
-0.193888059734785539
0.0128997588323212543
-0.00312261287441741812
-0.0239125830944220963
-0.0503248988222883969
-0.0832838674331365797
-0.123854772344427155
-0.173414523223022893
-0.0147185156927966548
-0.0255640396723645497
-0.0396624231768936616
-0.057581880158322489
-0.0799333530742807191
-0.10741526550263579
-0.140950353888025043
-0.038011942223139715
-0.0430848312705328501
-0.0499545277231638468
-0.0589271344180498993
-0.0703357415085974491
-0.084574772626128461
-0.102148334682121963
-0.0591104138535691326
-0.058184439553878857
-0.0576480486819434951
-0.0575535595579216366
-0.057957017510741303
-0.0589431075556624134
-0.0606635264220977827
14.5521517969004162
1515.49818802978484
1.865775171854406
1393.77159735652913
0.818379950719263949
0.744476634446388674
0.767135610142005819
0.953216715389300973
379.104532784886885
0.606739663827052356
0.562185935419904914
0.714789161214795299
0.708822735260073999
4.41677069845157089
0.437372384108026868
0.447041067131165593
0.629928305556831991
0.602899581842897159
0.586982539088757083
0.358570906277930035
0.320920949437570657
0.406395313911632416
0.835647249145297311
0.709348973010635819
0.287782488827099614
0.246618209840279407
0.235676394762907804
0.256266391268971494
1.67622270806692608
0.214214699069222858
0.17130196699738276
0.135428098273899372
0.14843319644554917
0.0171710839102532549
0.140639943832052805
0.0974550808883054842
0.0473416952632565793
-0.0144085499474862141
-0.0855996675607939156
0.0792031988450963287
0.0366479713049473119
-0.0162065554253680785
-0.0766433907295088201
-0.107586810912340985
0.0310771877579489181
-0.00807379266442913995
-0.0572094089022403343
-0.11618889834422981
-0.18080233001327739
-0.00438837779579126768
-0.0380946982123413283
-0.0803155843752945131
-0.132111736030245952
-0.193202069566879409
0.00843430100267771564
-0.00777550934129116536
-0.0287818361593876505
-0.0554555328493110816
-0.0887548394469929308
-0.129760017371956193
-0.179596558878476337
-0.0188388283382561819
-0.0300694687229189003
-0.0446753877672976737
-0.0632759984098433537
-0.0865537664784117589
-0.115304936687773918
-0.150629278798958821
-0.0417533110236644397
-0.0473123667389947836
-0.0548211058042152866
-0.0646418637710081678
-0.0771933436610774959
-0.0930097368369151578
-0.112830046200342107
-0.062329248514178183
-0.0618756087821709655
-0.0619183597512173584
-0.0625488864888227164
-0.0638841830407047978
-0.0661093597550993783
-0.0695536614983753854
65.1428027263491174
96.9884189707160971
50.3758166081894103
78.598361975976303
24.3978488294768852
40.6008883282949995
64.514045273143509
14.3735288615799277
18.9797252333028936
32.5170914340897781
60.6117217742583918
88.3663120284213477
117.653447257816708
63.9143108301086045
96.483583073043178
26.261509676210224
48.7591937257746224
81.6912513627237189
11.8230112409862258
18.6205901548747619
35.8161080752985583
71.4733892480567761
130.325316459366917
201.978428494284856
90.6815543181435402
184.968102997246376
40.1341306864926324
72.098702863927457
192.203481548180406
10.200566180082431
26.2258619295430044
60.8374376059055848
258.354647242218334
548.498032885968541
752.749367909733905
545.67422474131763
656.107687019100581
85.6452470394165033
516.977227193737463
577.944196498654037
21.415907397526297
80.6157947297142243
516.297067176217297
513.361197253502837
984.841795685510078
878.515466282820171
877.473244747184708
739.629636633701466
800.032407138292911
766.414394234191832
636.790461719559971
145.563516179106102
683.160329889911623
671.952341358682133
479.737379101758449
805.532441538299395
211.69946621972187
779.646953842754783
39.8182872084002994
960.368804398883753
525.899525752438876
31.1759985692506199
907.799398359298607
850.978621863409671
248.646208317527226
3.5043614596493291
0.340313048663163253
-0.382775205438890598
0.0075827190021122157
-0.363122537257448752
335.654438726267585
-0.186620580677105186
-0.363881034785197455
911.954981058894987
126.189602660953526
-0.237766154873860658
-0.313677576515505374
-1.32180791079453797
-1.2400018816797338
-1.14698853237368903
-1.01374588563185908
-0.515871440840993345
-0.859511436618469737
-0.826659336957184299
262.006959551477564
-0.55821401015541483
-0.676428194801805049
-0.657502657495359633
11.0277010520043142
20.8405023219549399
36.6592859170060876
59.1195850797372344
17.1117197888098609
25.7180369240556708
49.4909703735544539
76.9362363480080802
20.3761030936222838
38.2667734580836054