/*--------------------------------*- C++ -*----------------------------------*\
| =========                 |                                                 |
| \\      /  F ield         | OpenFOAM: The Open Source CFD Toolbox           |
|  \\    /   O peration     | Version:  2206                                  |
|   \\  /    A nd           | Website:  www.openfoam.com                      |
|    \\/     M anipulation  |                                                 |
\*---------------------------------------------------------------------------*/
FoamFile
{
    version     2.0;
    format      ascii;
    arch        "LSB;label=32;scalar=64";
    class       volScalarField;
    location    "0.750000000000000444";
    object      alpha.water;
}
// * * * * * * * * * * * * * * * * * * * * * * * * * * * * * * * * * * * * * //

dimensions      [0 0 0 0 0 0 0];

internalField   nonuniform List<scalar> 
7248
(
0.000132446874486289682
0.0622136728838749362
9.95629721792311404e-05
6.82056222486738265e-05
3.86188040135094161e-06
0.000194083727233086608
0.000395822498615511177
0.000323391466258418181
5.06838717048989671e-05
8.94803751702068519e-08
1.42256209214558767e-06
4.35243049130056164e-05
0.000367754846671039786
0.000278950825507592545
1.48799834476035126e-08
8.94733636380261545e-08
1.25515264363874767e-07
1.51015444299264048e-07
4.19395135401241483e-08
8.8937708234579685e-09
1.13122535132409389e-07
1.19673519572645801e-07
1.10601266719593748e-08
4.34855539588068884e-09
3.38176593932936028e-08
9.2296149249184817e-08
3.30290391495866273e-08
1.02528229510334214e-09
1.59549228865831915e-09
-1.63670524950733305e-11
-2.16448903083696131e-10
-1.98594338955098038e-10
2.67005702783377474e-11
8.36858659963546326e-10
4.2657265412790758e-09
1.18432308516411396e-11
2.65184912802396835e-11
3.97184726550310356e-10
1.21459941297356704e-09
1.3836627871196007e-12
2.11538120396247296e-11
1.18099361674431758e-10
2.44795453970547973e-10
3.64802626233946959e-09
2.25977057167976256e-12
2.50947902229734391e-11
9.42653793816627819e-12
8.73341497144162055e-12
4.29413819546900204e-09
7.92209340393116835e-13
8.23006806389729827e-13
1.75306208839110838e-12
1.17948623358845953e-11
1.26580093633409472e-09
-8.73770217947694536e-19
1.43083725331544581e-15
1.00260933438770484e-14
5.76866041118266665e-15
7.30394296023953265e-13
5.15028892786468176e-11
4.08831270370088273e-16
-1.88666501441273731e-19
1.18312077099179155e-19
6.45505889950351867e-17
7.13361629417605807e-16
1.50797146683866838e-15
6.10523728878704222e-15
-2.28873036004382554e-22
-2.27215540601325174e-20
-5.63024751155713235e-21
-9.63469994800371781e-22
-1.33149157724954655e-22
-1.25868209271853525e-23
-1.93229207498890036e-20
-6.74014073696190183e-17
-2.47339243176993426e-21
-3.14576782336819879e-22
-2.30749579997736428e-23
-1.27411192344021383e-24
-5.83972542378061486e-26
-4.73614235251934224e-24
-8.32357796591372538e-21
2.4948692642758916e-05
0.0726692943661792073
5.56034604090399295e-05
3.05868029835366592e-05
0.000262981906161030891
0.000223320572734952017
0.000110632122676253169
9.02688402981914996e-05
1.49332482996710216e-05
2.17242557294099067e-06
2.36728484687391016e-07
2.03599166994962285e-05
0.000140610198321477158
0.000163165288405657809
9.62763098907289721e-08
1.65801714562957009e-07
7.34786597006994157e-08
3.12013086351448578e-08
1.54812345755268625e-08
1.59694842467532419e-07
6.32643829416374741e-08
2.18485864828321491e-08
7.58399030293982025e-09
6.09415704485484422e-09
5.68807522527035633e-08
1.09871479253802787e-08
3.15158251514082391e-09
1.67415522123053471e-09
3.36007600338696568e-09
2.13665561005209562e-08
2.04176330688571819e-09
5.69231362820415677e-10
9.27461718366919269e-10
2.63468687812411514e-09
1.25279727251218633e-08
-1.14434591894008935e-11
2.10711158920376621e-10
4.36755415071757345e-10
7.78385577416252754e-10
7.13186540850692611e-13
3.65785692049177253e-12
1.26577966001673198e-10
9.49116590256952604e-11
4.28735030288015664e-09
1.07054153107443685e-12
4.79149450606288451e-12
9.76403662675189597e-12
1.07009844637838506e-11
5.0668227664885325e-09
1.84097843037603138e-12
1.12114347734050491e-12
1.35360727160626718e-11
8.44091092479381105e-12
2.41027817347201162e-09
2.31999912064735156e-14
1.91247492197182078e-14
7.95037464953978106e-12
1.54152516585780188e-11
5.33703327085216882e-18
5.24264570296608697e-17
6.44476731750649951e-16
-2.20502902137421991e-22
-2.15434392789513228e-22
-5.84809149829622882e-21
-3.25611590404960104e-22
-4.98882731614252452e-23
-6.37326837207833161e-24
-3.17486793878278403e-21
-1.39469160597304516e-17
-1.38656676290700191e-24
-8.57282517043519413e-26
-4.46620174444990536e-27
-2.45656913439485989e-25
-4.54305143490562961e-22
-4.5089713070674659e-05
0.0820818390032211354
2.42715343790958798e-05
1.49681970350275417e-05
0.000295324517641282506
0.000266304284198406213
3.04110055158768897e-05
5.93870843206039311e-06
4.78961165229180643e-06
1.47204424053304903e-05
2.82781213478739635e-06
-5.514389169117171e-07
5.16809895179214036e-08
5.95964916468465643e-08
3.00471916648594203e-07
2.15588556453137126e-07
8.23512124399689459e-08
2.84682815718364036e-08
3.48346450733951897e-08
2.3057974109374204e-07
9.96348562572663514e-08
3.7868954062597778e-08
1.61176150590491802e-08
3.06549172408430079e-08
1.2697254452711098e-07
5.60691361430516765e-08
1.29119518720713017e-08
2.7055314367223581e-09
2.21729327034557318e-08
1.25494842088099085e-07
1.22246937971454819e-10
2.06326395454272257e-10
7.0638976699921289e-10
1.62887842805320572e-09
5.62763342649540429e-12
1.12832596490990613e-11
2.02409537656498291e-10
1.44653337473184424e-10
1.30695015156591697e-10
1.4504446962977378e-12
1.53544356270580169e-11
8.1086269324058021e-11
1.70189516219283824e-11
2.55820802709143414e-09
2.49334917659388293e-12
1.15410014438416236e-11
1.58725410903054262e-11
1.05524011647457029e-11
4.19190082868197346e-09
2.90877078028281562e-12
1.30133530863832135e-12
1.41917548214489935e-11
3.50352367011782051e-11
1.06795362811437444e-09
3.15154923855084658e-14
2.28800482954975293e-14
1.29015497839066906e-11
7.03574002936768424e-11
4.53822662796901259e-17
-2.74693397711951118e-18
8.04542594613873669e-16
5.84113152911045801e-33
1.80544418451182486e-16
-1.67181418783613563e-36
-1.61613146611530223e-18
-2.76563772977842045e-19
-3.97083771791987577e-20
-5.31002547480195805e-21
-1.72710099620231357e-18
-4.10523595877920898e-23
-2.45232162242002299e-24
-1.23133051136167257e-25
-1.38902458560072795e-26
-1.70699214679719541e-23
-2.43782223346172318e-05
0.0898482425174039895
1.38686367507344675e-05
9.93973165067167439e-06
0.000122417591869472585
0.000135604996773278254
4.7040560199166403e-05
3.00031461267943557e-06
3.83874346237701996e-06
6.57680529900905441e-05
2.28635568922540835e-05
3.30461153649227046e-07
8.89215201612923496e-07
1.56707847434908604e-06
7.2344850364697997e-07
3.26983115780520377e-07
1.58657047084612266e-07
8.13020960691957095e-08
3.89291272058288422e-08
5.41663227349507553e-07
4.63257946399028851e-07
2.35633198161340037e-07
2.73064223252517566e-08
1.22564695588965664e-08
1.52084761293783788e-06
1.40406555688417685e-06
8.30220202811656534e-07
4.33488213479111854e-08
1.36121392987623073e-08
1.26887432632383817e-09
1.36019304659419387e-10
4.09241936312709536e-10
1.55213435767159254e-09
2.73434105507889994e-09
8.77313313050275257e-13
1.66380597733529273e-11
2.60522038739094094e-10
1.40211721711624587e-09
6.15384787558240727e-10
4.72974023589418609e-13
1.50514135897554174e-11
9.61515587995794114e-10
5.27909528121635644e-10
6.05009027305706051e-10
4.48864126209063372e-12
8.34356673709133874e-12
5.27295381554839506e-12
6.88526566750962967e-12
1.81705222984454387e-09
3.6745050105302376e-12
1.48648133275929695e-12
4.90102298881107497e-12
7.02291978090358318e-12
1.80316973586332866e-09
6.5615719926141531e-14
3.904090016916797e-14
5.18228860733994811e-12
4.70338917326256826e-11
2.13337113062987975e-18
5.28444636907108825e-16
6.53128072428096962e-15
4.63657478882199662e-16
-2.83076928089816442e-29
0
-2.16360292799966733e-19
-4.1206258636061683e-20
-6.6735990453007937e-21
-9.81877344803186218e-22
-1.43215987949664965e-19
-2.28287020502207649e-24
-1.50218825930337905e-25
-8.42229321245512759e-27
-6.2415368799759512e-28
-4.5924711737412624e-25
-8.35280135824102791e-05
0.0966561265850562901
1.0442754823741393e-05
1.37024539761314184e-05
3.34215533876923773e-05
1.27081000212460947e-05
4.204057669671054e-06
8.34657802097172143e-06
1.23914863532578248e-05
6.09602618128142254e-05
9.99481335566076602e-06
3.13883449854315121e-07
1.51472908668363395e-05
4.97450195336301106e-05
4.51634952850166061e-07
1.96952987786338017e-07
8.68939076251604262e-08
3.73646337423971967e-08
2.21309951376876142e-08
3.54164257826150171e-07
8.23963109634429533e-08
3.21315800279044594e-08
1.11254813980256869e-08
-4.13081040393418913e-14
6.54610373482475724e-08
1.25108362447993741e-07
9.51934101749321452e-08
1.88025226985134817e-08
1.21239463374290237e-08
1.07345158756217492e-10
4.73850973256340761e-11
2.96127179313357571e-10
1.77718959892212061e-09
4.9508211188042762e-09
5.47017696898978836e-12
1.97256372893613955e-11
5.1170940829701373e-10
2.55615261477021199e-09
1.29032598434987102e-09
8.07519711730961634e-12
3.03178359903112817e-11
1.00296656287433401e-09
5.70343325596609127e-10
8.75722975106739871e-10
1.00369607717441066e-11
5.92958896006657223e-11
1.51352975505625185e-11
1.10748448399031528e-11
1.8431703058948787e-09
1.36741990435841807e-12
3.92138966138780328e-13
5.18564341641027709e-12
8.17736914344426737e-11
1.82664714921589897e-09
1.63449408446533516e-14
6.81581181470142463e-14
8.27261447098551355e-12
1.86731086118146702e-10
4.79527008252482373e-12
1.62647321053827174e-15
6.30659337678931053e-14
4.51040945491747896e-14
1.22617169083825304e-13
-9.81693570941701101e-29
-2.20055433636913701e-20
-5.97874114561093199e-21
-1.21602167161378702e-21
-2.08312026599783035e-22
-8.19205318687464405e-21
-2.62955292390063728e-21
-4.38275116158857612e-22
-4.25460158140325602e-23
-3.1239886604406785e-24
-2.00580114951292468e-25
-0.000115139855112550413
0.0994627799056804485
7.92019463848396183e-06
1.04909294157506866e-05
4.45736870011326974e-06
2.92479310282645185e-06
3.08310981789336533e-06
1.18352118988934999e-05
1.35079157282826254e-05
2.45058049597714479e-06
7.23479236842876873e-07
7.7145908352706769e-07
4.85305212808459876e-05
4.74485016996553749e-05
5.81120740167090579e-07
2.24825957795748498e-07
7.63126646567171132e-08
5.33104699199213363e-08
1.33205616089918535e-08
5.39633949745199536e-08
1.43412989345092176e-08
6.19733584075388052e-09
3.74689099654838001e-09
3.73260924150551082e-09
-3.96935734809818316e-09
-4.41652182543728565e-10
1.58570091835889515e-10
1.28637798189182281e-09
8.82110245695898656e-09
2.26823779999570373e-12
2.4895265573255131e-11
3.20090293720022735e-10
1.50473905979211324e-09
4.27971637005901969e-09
6.83535612398702712e-12
1.43962701080631826e-11
1.41806047834772454e-09
3.11930202756426651e-09
2.18132740131516873e-09
9.42189326955161316e-12
1.14246272600551723e-10
7.7047565989287423e-10
2.09477757569866707e-09
8.70072844694284832e-10
9.56344116526543862e-12
2.22229615904506188e-10
7.25184592672734242e-11
3.65618464146083888e-10
3.29810366733066679e-10
9.13960447757468055e-13
3.4283908694482823e-13
6.81973419789513418e-13
3.54397098943760298e-10
3.21749317954805263e-10
2.59263947908401751e-14
3.34491246758684476e-13
1.2227911904184012e-12
6.043810615487329e-11
2.58290246377743743e-11
2.84793603188507248e-15
1.08245540165575392e-13
4.53957948710132847e-13
-4.10998367321385808e-24
1.9034008438822337e-31
-9.35100235653931388e-22
-3.192472804795474e-22
-8.54733919444769635e-23
-2.67237099063896002e-21
-1.43502335826025625e-18
-8.94624544338106097e-23
-1.65511896054252805e-23
-3.77083995367042087e-24
-7.58697960661704656e-22
-4.34360906927554235e-19
-0.000168646115607760125
0.100687820333270603
1.04607793786144125e-05
1.3844849553018027e-05
2.05196440566461207e-05
4.83926175566473606e-06
4.43461673870846282e-06
9.72145086829461085e-06
1.31620494588978913e-05
4.56454327282862084e-05
4.00622758782514401e-06
1.88897420407052106e-06
9.73880791136196708e-06
3.3972668269543353e-05
4.07376584871352579e-06
5.33792853429587149e-07
2.23256829344437359e-07
3.28141235708909037e-07
3.46594814563363639e-08
3.10921273800955777e-07
7.80211621700300054e-08
2.0576420008298438e-08
7.12698085797640876e-09
4.47141640826397887e-09
-7.98298917100213074e-10
-2.91249640777031435e-09
5.18470904772865891e-10
1.15019737526564762e-09
2.23160654522139916e-09
-3.62069850921376206e-11
2.59519151569303587e-11
2.82780198553709173e-10
1.31981143836471234e-09
2.17569151814087488e-09
9.1674746121765075e-12
2.32434629260625879e-11
9.17906700782089932e-10
3.01118015057358356e-09
2.13227625335748438e-09
3.88946350004748286e-11
1.83480394593429896e-10
9.00227379877324788e-10
2.23795932201036514e-09
9.54065805286056242e-10
4.63489210472382856e-11
2.44217390440247562e-10
8.51859886027189263e-11
4.7191420097208691e-10
1.77819204446172633e-10
7.42285295256734901e-13
3.5175209403766493e-12
4.11895284775703672e-12
2.42701778066156333e-10
1.28008298941861158e-10
1.77333297334426038e-14
1.74790303398859517e-13
4.5770913439055455e-12
1.66620140318026775e-11
1.59250151569359772e-11
1.97071895480725445e-15
1.51043176704079451e-13
1.44545747397808458e-13
-8.92236744289637439e-29
5.0185962958276888e-12
-1.88323560625002794e-23
-7.79626384081702094e-24
-4.14629218268288048e-24
-4.45826460728048377e-22
-5.55757248508640965e-19
-1.11085708673317421e-24
-2.53218109699851538e-25
-5.19340092409639391e-25
-1.10544506890499661e-22
-1.55238677354227618e-19
-0.000192520431904699891
0.100867967683362092
1.42782403656849309e-05
2.27023425339258048e-05
0.000173867534030014296
0.000172592488512279189
6.00156288980599248e-05
1.44823790676843205e-05
1.28517071530350842e-05
0.000178144587191448928
0.000170701179549934481
0.000121254500120637247
2.66264009625402787e-05
4.35066187295184172e-06
0.000182381667743289442
0.000137078143756763225
1.40923745555825284e-05
3.64044220809641789e-06
3.00220448847034258e-06
0.000100338175670634181
9.65748505028217002e-07
2.44902329557607514e-07
6.63536600962505745e-08
2.10251220036953141e-08
5.6306320206765167e-08
7.99812418138825732e-09
1.03582585051726215e-09
1.88064175274967075e-09
2.71584587775852845e-09
-7.75869538452852806e-10
-1.6259634013913322e-10
1.71043381802554197e-10
8.32019416724271188e-10
2.3396092935281444e-09
-7.53665082907346574e-14
3.2112908186738296e-11
2.85050670370408376e-10
9.3216287197221466e-10
1.96183737542703397e-09
9.58641151134912096e-13
7.95613933342387447e-11
7.72481822759359489e-10
2.40799240194920646e-09
1.29567871917680919e-09
5.782924848966152e-12
1.71746788162585279e-10
5.55995840676141306e-11
1.59792020606380388e-09
3.91356228934043817e-10
2.2220259865227395e-12
5.05415398231856458e-13
9.55546493940849407e-13
2.83483383391622594e-10
4.70444582504046204e-11
3.85454026172451161e-14
8.4087409616183296e-14
6.35601424825450807e-13
3.49143341865153832e-15
8.79513595340587145e-14
1.081383720309476e-15
9.39105764970412078e-15
7.58340055063972883e-14
-5.36807515624749332e-33
1.10510218031216222e-12
-1.96632873391668527e-25
-8.21520795875458675e-26
-1.81551372204065048e-25
-1.35407827215378136e-23
-4.3107849547463036e-20
-6.04257798451158449e-27
-1.7616487295639343e-27
-3.79750034630967252e-26
-2.30874184747127465e-24
-1.05752076110590777e-20
0.0186883432611078988
0.031392854023154948
1.37470951805137449e-05
2.66301990241483217e-05
6.88231804886475498e-06
2.55468358533249424e-06
7.80154574235932905e-06
6.60800251161847168e-06
9.75269408618686708e-06
2.46789690568102225e-05
2.17402815483842288e-07
6.64382809983152737e-06
4.67662572524598459e-06
3.01045140197001749e-06
1.30285963331174428e-07
1.38960603575361839e-08
4.16675363156376787e-06
4.76540526938129918e-06
2.44441104951041147e-06
1.16114722254184551e-08
8.06992141951715969e-09
3.54312415953047649e-06
3.54771886751142015e-06
1.22344156883847032e-06
1.80280191183501603e-08
8.76474009021959935e-09
3.30647191895256211e-10
1.66380799927445636e-09
3.91024992754660054e-07
1.81546060023286746e-10
1.11628698137349558e-10
1.50552702143192857e-10
1.94711458112661532e-08
6.85509598290357335e-08
2.59558666808024679e-11
2.01492634677305414e-10
1.02857112545989034e-09
5.77132831977873924e-09
4.06769024406262094e-09
1.01475093549645761e-10
4.00384145401230651e-11
8.33738038116503141e-10
5.17635326496213641e-10
2.77826447558107428e-10
-9.19275853516493569e-14
-1.60412758280102839e-13
-1.05073762196530538e-13
1.58481555949317825e-12
3.19248147906024975e-12
-1.7243908894257638e-13
-1.73412906224287604e-13
-8.23262851672578558e-14
1.24007862330957985e-13
1.08915485012039944e-12
-4.94127574414138493e-16
-5.78378832885754202e-15
-8.77774660586188351e-14
-7.4092029983449222e-14
-2.96938780038240947e-14
9.50760846011019962e-14
2.73643318012030979e-13
-1.2116488804700553e-18
-3.11272250705572235e-17
-7.08613423277123213e-16
-3.86945945931996528e-15
-1.8237918915871314e-15
-1.19811163606770235e-17
1.18786327279971758e-15
-3.74279458844587022e-22
-1.64522202816570254e-20
-7.04935106507562713e-19
-1.61354253024134054e-17
-4.62147800067704023e-18
-6.0577302208950836e-19
3.89465833198311272e-35
-1.15162166946937052e-28
-2.43037917567171582e-26
-3.51964035898305943e-24
-3.14914341243593276e-22
-6.53525394589326976e-21
-5.21778845577950024e-22
0
1.65504595605414116e-06
0.012369691646750754
1.80065746386288392e-05
1.80276657020722516e-05
0.00016831110885247587
8.19430100984166619e-05
3.40426776438375721e-05
1.2634151095169882e-05
1.42065981686354185e-05
2.84168430633829398e-05
5.90598937984533251e-05
2.3249102808813282e-05
3.40015109865446882e-06
1.01238260805094642e-05
7.3574059010740424e-09
8.07223213834203389e-09
6.85072429767585971e-07
5.71920427831844762e-07
1.21351354363758754e-06
1.5845881438006635e-09
5.55182857471647083e-09
3.22931150395631179e-07
5.65018773640877909e-08
1.70622585409408148e-06
7.02230013535084526e-09
5.69763643573792051e-09
1.28766960490885065e-09
3.92367980369171512e-09
2.53495940466719683e-07
4.43872696239816933e-11
6.16205111656910821e-11
5.9453612900188352e-11
6.19449809190145185e-08
3.71446578892848839e-09
5.80473662524225914e-12
1.13013324453089149e-10
8.6440482304511312e-11
9.5959182451713447e-09
2.6604839967507337e-11
2.17358616146248947e-13
1.57635872750946077e-10
5.01673292041695847e-10
2.12611474777788935e-14
8.45750336520138466e-12
-4.80241195923230533e-15
-1.40935276527663495e-14
-7.15323639842015547e-15
-4.38256058456119178e-31
1.7749380268785843e-12
-1.70682760791872726e-14
-1.73029634298327907e-14
-4.95278833996552921e-15
2.44170611105247903e-14
1.96302936415635567e-12
-9.92063032037623763e-17
-1.34484203220304988e-15
-7.82733965011380341e-15
-6.73560939826022084e-15
-6.93416251842097518e-16
2.10128893324960339e-14
2.63380112662223678e-13
-4.0542725594206955e-19
-9.3103497477817513e-18
-1.29423787258251726e-16
-3.35810914525841457e-16
-1.39895512719938695e-16
1.96991127148941383e-16
1.10459508338312953e-15
-1.18400034786998013e-22
-3.22261332242908385e-21
-8.27467846367055302e-20
-8.34205008614599153e-19
-2.67684317669843595e-19
-4.02774039834937018e-20
2.89033738806477278e-27
-1.40505918439493331e-26
-3.09339143129894071e-27
-1.5404658962135416e-25
-6.61795563007782957e-24
-1.418507399514793e-22
-1.22256222086368568e-23
3.16425842202461973e-23
6.05852228061799222e-05
0.000604465026008595228
2.39130075056737622e-05
1.38146941700146205e-05
0.000514439779323741606
0.000454696380960354501
5.60066990270085511e-05
1.66850922229313285e-05
9.12474209221460244e-06
1.4500623172356979e-05
2.89474096391937028e-05
2.61072852271450296e-05
1.53013051375800539e-05
4.91720645783729306e-06
2.40554419475049433e-09
7.35740680254518919e-09
1.34708341288156228e-08
9.57706671275320739e-08
1.02905011019617865e-06
1.18180808714342135e-09
7.16226967975361034e-09
7.69016027456907109e-09
2.33969131702019233e-08
7.15194045179311101e-07
1.68910478768486925e-09
5.42225073939035204e-08
2.59798315461556948e-08
2.49857301855737281e-08
1.22948726435537416e-07
2.91901924695383035e-09
4.56108331699125794e-08
4.83811969936136378e-08
7.5237987640903199e-08
2.87760978787371789e-08
-3.70196875331159843e-11
-2.02823284300844789e-12
-7.6352178430628395e-24
1.36139129374965061e-09
1.71690823875905376e-09
-1.5333094738330131e-12
1.15457605583379016e-11
2.15597060746394399e-11
3.83839177008679877e-12
4.1777290637943618e-11
4.69110415983895318e-14
1.03990830033632322e-12
7.63580655813119187e-12
1.86429617490657045e-12
3.0796789954934956e-11
-5.64012933718721125e-15
-2.20929897325602143e-15
1.47261344386159176e-14
6.41216071417802798e-13
1.76803905289003915e-11
-1.67368216997306138e-17
-2.14619693732319956e-16
-7.67212390223759864e-16
-6.3809757099747093e-16
2.66009319174304154e-16
2.5702876425668838e-15
4.6729194641152532e-14
-4.10901124198600757e-20
-7.58350946209265827e-19
-1.12642574060437705e-17
-2.45030132283089781e-17
-7.61484234075666325e-18
1.0118571478212609e-16
1.70984285388216287e-16
-8.69890250988312186e-24
-2.98997580741155736e-22
-6.92453362101679001e-21
-4.45160554123894942e-20
-1.26266207167512922e-20
-2.96902564586004362e-29
1.71113485187623822e-25
-6.78860721178393874e-25
-3.09392909804027897e-23
-8.2663166240411201e-22
-7.32234860884375998e-21
-7.55539955871739348e-22
-3.77932089077842554e-23
1.12621906130816325e-25
0.000101996788491581059
0.00731261399803347957
6.20269737683203375e-05
3.16646227956107512e-05
0.000456136292439473677
0.00061960659276697307
0.000215384257577730897
4.11288221524833575e-05
1.85522874389294372e-05
1.79812359699109278e-08
4.20720418661975812e-05
0.000101899423677760079
3.89056490627624136e-05
5.6196337766265622e-06
4.38563606767587377e-09
1.15657186547161864e-08
2.32727576796888579e-08
4.60712219394790069e-08
9.50239779621590585e-08
1.57125357240691237e-10
3.99733096240166095e-08
1.78543200399364888e-07
1.77370834790425511e-07
6.53311300206488232e-08
2.17636437543789456e-08
1.77486396599367911e-07
8.23263019120161385e-07
4.66996770651860696e-07
2.31778969228779225e-08
1.09954215455638721e-07
2.48446926326031132e-07
1.88853112964649494e-07
7.87385773466320758e-08
1.44532300477885892e-10
-7.08087521572172324e-11
-1.51307029184484692e-11
-1.09095292975000672e-17
8.04028621216551581e-12
7.78214414801427968e-11
-3.19734653710384382e-12
4.63718664720940608e-12
7.07526572859051724e-11
3.18289855500560535e-11
9.14432175184091719e-11
1.27480786516151368e-12
7.91049451853735615e-12
8.54565846501133488e-11
1.03738975530722188e-10
1.17491537915232465e-10
2.13578046752375655e-14
4.30092928599342428e-14
2.08732180539593943e-16
4.38252685233949629e-12
1.99123941915156583e-11
-1.2895331076911749e-18
6.76096399847764745e-18
1.92504427268247619e-16
5.59615728771072634e-16
2.05519208633398844e-16
5.70437026357132472e-18
2.16722072272671404e-18
-4.97462336007314694e-21
-4.11567467510401075e-21
3.29373215711001975e-20
3.54133649423730915e-18
2.23165693250697636e-17
3.08196444208596562e-18
-5.53709425892347597e-20
-5.39400029607454103e-22
-3.31744967208687727e-22
-8.48865789416437447e-21
-1.54846734256601838e-19
-3.05539374077534152e-20
5.20169982963051454e-20
1.13695152948279742e-21
-1.35131137359645369e-24
-7.91893072044399536e-23
-2.93208507400803869e-21
-5.36157031026673912e-20
-5.93644991359739849e-21
-3.26357805595884966e-22
-3.90946219013721004e-23
0.001274507155437725
0.00405948986200442216
0.000232907141242153903
0.000148805262841552786
0.000346990994626708181
0.000568718711930485442
0.000625519808740813304
7.31084538196234333e-05
7.46661816329055269e-05
3.61300372062469077e-05
0.000111531599079536047
3.50975415788275398e-05
2.79474064836912689e-05
1.83501010698544532e-05
1.10225503968547547e-06
2.32728007905529178e-08
6.1577944014283658e-06
6.24986343635193118e-06
3.75111959571600076e-06
6.67071639598034703e-10
7.5395545521982068e-08
3.90078259230018779e-07
1.32158366231325799e-07
2.8987004449113761e-08
3.83970657629984914e-08
8.97197933123575205e-07
9.20205992849981706e-07
1.79306756867337433e-07
2.40743845664007494e-09
2.13374589081783554e-07
1.97505185899276011e-07
3.81779765061695976e-10
5.97408561258462196e-11
2.0523730389829936e-10
-2.94514751523775942e-11
-2.79238485005223257e-12
2.64632425689828266e-11
1.40579244884241105e-10
1.78910375733288061e-10
1.31862964382708936e-12
7.51994887339681476e-12
2.2011567781433255e-10
4.01625234719576786e-10
1.09869634547618148e-10
2.76032689642336801e-12
9.16958845528353278e-12
1.6547523523032087e-10
1.7615363325614726e-10
4.33203810756679288e-11
4.76730420519586786e-14
2.77555495312823577e-13
7.58675821493089063e-17
3.95579294140265208e-15
9.56708100428615331e-12
6.1699514221796907e-19
1.59198352167218033e-17
7.54942749944770561e-16
1.44358458161026858e-16
5.55027978331531341e-17
4.31122783199303109e-15
4.24860130936755653e-12
-5.21964813440802556e-22
2.3472469737343296e-20
2.01645520398958284e-18
3.29798340267042169e-18
5.61527913345141946e-17
1.25455556034451802e-16
6.63445181653895253e-22
-5.04480844015676812e-23
-3.86752682599523593e-23
-8.41084264008487393e-22
-1.47067843991074138e-20
-6.53425822772343656e-22
3.75332457499246272e-20
2.07371442581599113e-22
-1.36307377372681482e-25
-7.78149069470029903e-24
-2.06381371615778882e-22
-3.32113775270592556e-21
-4.32485354265553221e-22
-2.88158521771040389e-23
-3.55262225357276821e-24
0.00134131100676034855
0.000727698758398430574
0.00169636876262057451
0.00121009839291040728
8.99221444815697854e-05
8.5341465222623454e-05
0.000310980521124165014
0.000369693119420964748
0.00037856122693460183
4.46285034103566553e-07
7.47203097609610385e-06
0.000317611518502767609
0.000102640858311067992
2.07081981353777461e-05
2.10325848511068292e-07
2.44600220455046866e-05
9.32971731111770838e-05
0.000116442638302753393
1.40922720289297842e-05
5.63484273583354891e-10
3.31995557949346836e-07
8.84242969604835211e-08
4.25511718196931919e-08
3.10332277413475019e-08
-5.3532956072178786e-22
2.36055593112892627e-06
7.35223768056410063e-07
1.16015155819696722e-09
9.58410007242393297e-10
1.40511334342727133e-07
-1.45128848854246332e-11
5.8012460943990994e-12
1.15617488670137951e-10
5.08501786745737223e-10
-1.697656602452857e-13
1.16945262676548371e-13
3.82973897654504738e-12
1.39310369785335337e-10
1.36120630189594326e-10
1.15440635790096454e-11
3.51834495003747443e-11
2.1629412423641472e-11
2.1231911668378242e-09
1.98984573061402352e-09
1.11547687726468802e-11
7.61850821146097693e-12
6.0304706627801289e-12
1.85048926421338414e-09
1.85970718765768556e-09
9.87461726979660832e-14
1.38486666435704999e-13
5.66631355074079148e-12
2.23417074337147125e-16
1.7261008628615863e-13
1.32552955184402389e-17
2.18016223130116557e-16
9.58788584015082906e-16
3.36686261272333359e-15
4.28526945319774263e-17
6.35016677190090416e-17
2.15090302907782865e-13
1.02715480774270518e-20
3.74739303804922023e-19
6.85413517760659653e-18
4.05278839480229842e-17
6.12946851160207198e-18
9.56158366304179153e-17
1.84669410640986447e-17
-1.33236209911162689e-23
-1.07722387690444064e-22
-7.69781741657726529e-23
-7.28265627583069185e-22
2.09091939651570491e-22
8.49451852447220417e-20
1.10715497130810135e-20
-3.26632879129094161e-24
-3.60630945177303756e-23
-1.1968545583860934e-23
-1.22358179675538021e-22
-1.86500015679900122e-23
-1.49932866646077944e-24
-1.98444820673357414e-25
0.000847349215664327821
0.000565737174523836105
0.00173340773255635625
0.0011218339829062755
0.000111474308127821337
3.34674090880077756e-06
3.98326800950429862e-05
0.00114557521642385217
0.000787354270596602834
3.36002680756309126e-09
1.05596107077853994e-07
5.9272816421137263e-05
0.000401680398039119531
0.000376546303372403868
1.49367829632820816e-09
3.35999579335367976e-09
0.000142149517309245025
0.000184473365717909509
6.26626866460022275e-05
6.26922273268718054e-10
1.85071201704401246e-07
1.79074577895341823e-05
4.40668359398522441e-08
2.41376096122748793e-09
1.05330543893490668e-08
2.72464854048191773e-06
3.87873606092325674e-08
-4.47304318131995247e-10
2.34013776818433808e-09
-2.37854091251762328e-16
9.15662191999779705e-10
2.21265266639024717e-11
4.914392368528629e-11
1.03014578929781306e-09
1.71157424318588819e-13
3.36053385433138771e-12
9.14745751642184025e-12
2.2002965482912427e-11
1.22043508861859686e-08
2.58606486899518378e-11
6.52737424216162326e-11
8.92769877452222649e-11
1.36122236440129336e-09
9.44507604048678045e-10
9.39856441086376972e-12
7.82230998269005582e-12
6.92700730250329996e-11
2.1332191429944237e-09
8.86627033959760506e-10
1.01569526406637602e-13
7.00850067105268888e-14
1.3140936313816566e-12
7.54814574289482537e-12
6.10675462843959846e-15
8.23915627442809349e-18
6.21938573106830921e-16
4.10103752685551418e-15
1.44192022014434089e-14
1.36214580088742338e-15
9.05151482452888147e-17
2.51973777189084042e-17
-1.91388649091011517e-20
4.16109781206316718e-19
2.30728492951843384e-17
1.84709491348550116e-16
6.2033167177288088e-17
9.5265409388916104e-17
2.56712840063048306e-17
-1.01229013612260458e-24
-9.54772604140166008e-24
-5.23060970532265059e-24
-2.67518379393886178e-23
1.19467928384688119e-21
1.30402102190484605e-20
-1.48200886229932979e-18
-1.43211126828193511e-25
-1.84931810635290002e-24
-4.5175508767756153e-25
-3.3770738979367638e-24
-5.98071180454750066e-25
-3.74821513628585465e-22
-5.13496425030243027e-19
0.000369005497171841885
0.0257226676521715436
0.000322762989467448877
0.000156516826501602039
4.79475106835934765e-05
0.000322365573452735243
0.000269636165315287302
0.000587028816659738604
0.000316306818558075736
1.48831987536907257e-08
1.1736285435099615e-07
8.90962862140111728e-06
0.000516556346353755618
0.000444547658162122456
3.35948965359850888e-09
9.85471271906237586e-07
2.94702468375168238e-05
2.58570313082530278e-05
1.69495501209287706e-05
9.57340758505872758e-10
6.06082090843218648e-08
1.30127835303252873e-05
2.12299879836266826e-05
-2.00102075249571774e-08
9.57762310272172503e-12
2.55870896790770695e-06
1.42055706661692762e-08
-8.34753937039055311e-10
1.91338343448883791e-10
5.97067541906535669e-12
1.55695480447649905e-11
2.57934289003800516e-11
3.6053401910768932e-11
2.85162702248904989e-11
9.84672211393078121e-12