/*--------------------------------*- C++ -*----------------------------------*\
| =========                 |                                                 |
| \\      /  F ield         | OpenFOAM: The Open Source CFD Toolbox           |
|  \\    /   O peration     | Version:  2206                                  |
|   \\  /    A nd           | Website:  www.openfoam.com                      |
|    \\/     M anipulation  |                                                 |
\*---------------------------------------------------------------------------*/
FoamFile
{
    version     2.0;
    format      ascii;
    arch        "LSB;label=32;scalar=64";
    class       volVectorField;
    location    "0.119999999999999996";
    object      faceTraction;
}
// * * * * * * * * * * * * * * * * * * * * * * * * * * * * * * * * * * * * * //

dimensions      [1 -1 -2 0 0 0 0];

internalField   uniform (0 0 0);

boundaryField
{
    inlet
    {
        type            calculated;
        value           uniform (0 0 0);
    }
    outlet
    {
        type            calculated;
        value           nonuniform List<vector> 0();
    }
    top
    {
        type            calculated;
        value           uniform (0 0 0);
    }
    bottom
    {
        type            calculated;
        value           uniform (0 0 0);
    }
    left
    {
        type            calculated;
        value           uniform (0 0 0);
    }
    symmetry
    {
        type            symmetryPlane;
    }
    interface
    {
        type            calculated;
        value           nonuniform List<vector> 
181
(
(606.851301273124022 -0.021134235326571188 -0.0114036096292299601)
(552.00605294419961 0.00561463885502475318 -0.0145726206248380039)
(470.83830267662546 0.0111613724292690172 -0.0141438682397271136)
(391.065508286023032 0.0126618574639812704 -0.0129968217864501606)
(323.894541353086026 0.0125772057617444966 -0.0115536331747551502)
(266.531378987375092 0.0130686082042755416 -0.0108597802553330146)
(216.337708301900477 0.0142989462664470952 -0.0107615715981732377)
(173.890881585064648 0.012951996705341709 -0.00892611338248653317)
(139.272668039341312 0.0101716423058269261 -0.0065546951409382187)
(108.472890278657346 0.0119214645778301289 -0.00712759151633403278)
(80.4162106673679631 0.0120331745164579899 -0.00669946392392257312)
(57.201186531351965 0.0106380175586529031 -0.00550730258820813882)
(38.9498395140515754 0.00874157071450200503 -0.00417986541880615691)
(24.8929267313267815 0.00603942468115285444 -0.00266190109380473302)
(14.4504282469832201 0.00393274281515374781 -0.00161052826959520159)
(7.3620805366264257 0.00439241156368044665 -0.00173102557558890788)
(796.211358059420718 -0.00559281687035613137 -0.00691523482222994833)
(729.512616843133969 0.00660839444706697032 -0.00857964669413260189)
(634.958310650854742 0.009774255787104804 -0.00789731460327198521)
(538.751513400441013 0.0112460227584864365 -0.00716595159172163897)
(451.684785038814994 0.0127245067395997061 -0.00709551594304361124)
(375.573533008710115 0.0106580478921999913 -0.00549738281696256388)
(309.134605653981566 0.0116045672911304597 -0.0056466677121553106)
(251.313173200308626 0.010731803806440933 -0.00495143369005548745)
(201.669186091971426 0.0102852137080431619 -0.00450057513211151328)
(158.213830379541093 0.0125984035481256761 -0.00521523174436635834)
(119.034198539232946 0.0132406911118963175 -0.00518442786669048254)
(85.3067259116318297 0.0126506487018324537 -0.00465108679353804302)
(58.3802594806323327 0.0111005293217665869 -0.00380687364156321803)
(37.9071011076699165 0.00927477070859556753 -0.00293811732370800882)
(22.5939848827617489 0.00743091488330133512 -0.00219480106087746509)
(12.2693720509453748 0.00346360358582913476 -0.000961706095525764271)
(884.183955786783827 -0.00696305887192124641 -0.00379139938184969811)
(818.668376486805528 0.00672798116710659599 -0.00526813383916021217)
(723.946361912904763 0.0100963824208094334 -0.00508866856312876863)
(625.486607682474983 0.00934445666268946505 -0.00378878401341987275)
(533.806435712545749 0.0125409937554684329 -0.00452327528928308815)
(448.935791852200111 0.0130724721200861562 -0.00440689607971404482)
(372.685681248659591 0.0117310883420545242 -0.00374178179216700475)
(306.126250002304971 0.0107759432353652113 -0.0032763678842365339)
(248.225450110551748 0.0102594220769323032 -0.0029788299441831363)
(196.692240069285958 0.0112315936488000031 -0.00311334004320518512)
(149.443268241514318 0.0151667389497797452 -0.00400925808338371478)
(107.622505685234586 0.014738407552081138 -0.00369747861562356485)
(73.4599945530356848 0.0131582746924849715 -0.00310884247238176793)
(48.1297633530975233 0.00940958021565402314 -0.00209387713377347587)
(30.7417662369196236 0.00334083149593309044 -0.000715590130126896886)
(18.521108074000395 0.00320509591853454946 -0.000650843051108008141)
(924.824838438929078 -0.00711819055476220833 -0.00219022211383011365)
(860.561677068241806 0.00703855355790806037 -0.00311582002378895566)
(767.290215927184931 0.0106589380104273289 -0.00304488794506419707)
(669.887798403456031 0.00928825925218600308 -0.00211145648264731995)
(577.947192650286866 0.0121618149602041262 -0.00244888066603300009)
(490.29735042178919 0.0136015705410950424 -0.00255286908497181879)
(409.771891979370366 0.01257662547881685 -0.00225294971941371455)
(338.373326799978315 0.0110389431009592486 -0.00190642709828153117)
(275.691395515417298 0.0106218424046142547 -0.00177312817291927862)
(219.954113575835578 0.0113813848201126198 -0.00183455393221755732)
(168.485676506968616 0.0162299006172652339 -0.00252919468861063706)
(121.933661701582039 0.0162930972823175334 -0.00243701822861989688)
(83.2491691632629909 0.0143215332396297579 -0.00204885430220043234)
(55.744304035659809 0.00165918478410005503 -0.000229274828142277749)
(36.6132877069863056 0.00298653408843927836 -0.000395530890802728839)
(21.6640234242798542 0.00438490685032610298 -0.000542696651567454243)
(943.579983420683675 -0.00752972901471318182 -0.00135454156912958625)
(879.554227576761377 0.00712941572080658548 -0.00171845505287409315)
(787.405089697430981 0.0101707938564426972 -0.00147683008590175397)
(690.359402986401051 0.0104836338946827576 -0.00118280263714831192)
(597.482141982807207 0.0132823116599929576 -0.00130912928163383758)
(509.70330555831066 0.0133630680396317324 -0.00122723766459832467)
(429.256479589935111 0.0124203734834612747 -0.00109677966686538169)
(356.847555114591387 0.0119899691697106826 -0.00103812925653346357)
(291.991652869054292 0.0115969207566098444 -0.00098887239346430976)
(233.902280298989922 0.0121575533262648083 -0.0010267355290904355)
(180.055822978576373 0.0177225565727892331 -0.00147025291745230338)
(131.115236897607986 0.0175345102751751497 -0.00141895994298243087)
(90.360557436056169 0.0141686944172700457 -0.00109779330917536273)
(60.7968759229016058 0.00147091924342524047 -0.000108322242514360818)
(39.6369469407693487 0.00296181360685142695 -0.000210157705989975804)
(22.9272906480257177 0.00487893202035940936 -0.000271301532600574751)
(948.74144023013389 -0.00708053670231327797 -0.000774049677650022428)
(883.2592225036542 0.00742818655335322504 -0.000739183218542906022)
(791.544355606636259 0.0105724230224732395 -0.000477217691582067596)
(696.770853078002006 0.00860870220679890025 -0.000247703954154449891)
(604.614483076724696 0.0147522877710251389 -0.000357003219350601536)
(516.107201557510052 0.0141082151959552194 -0.000320666679476969585)
(435.699541749130674 0.0126132339898770759 -0.000279225594683578718)
(363.890220027313433 0.0115560545458688897 -0.000255484419155831892)
(299.809487523557721 0.0097598488121479459 -0.000220837015072014315)
(241.916153089440314 0.0110227057978850487 -0.000254953627541919562)
(187.168418355268699 0.0187742622208408143 -0.000419621447405200303)
(136.524320704407415 0.0183430971301967935 -0.000369762102479293106)
(93.9473871166485992 0.0161585120592656652 -0.000303028856277242904)
(61.6552523543179021 0.00899358728460724483 -0.000159949310739760606)
(39.4050047798245444 0.00694478021222222092 -0.000117606949439588132)
(23.5960110266364929 0.00792923322216828284 -5.98916891964222084e-05)
(943.910707504523771 -0.00646879934680442276 -0.000240734254574728529)
(875.088587449166994 0.00816802470459909551 1.46972167446493738e-05)
(781.785586143752766 0.0135009786489008778 0.000256194988945197496)
(690.627708937838179 0.00744782172834328529 0.000193280226670015026)
(602.87890863440839 0.015955333656525069 0.000420955239246787025)
(516.19994360462772 0.0153876239921732581 0.000360764427557946313)
(436.843629117543742 0.0135375263894463947 0.000257160215117127437)
(366.091166533707735 0.0105378257855414156 0.000151326155083909738)
(302.941354272635522 0.00854764185135974131 9.47877759632900817e-05)
(245.096785702621105 0.0100574352096684857 0.00010328704197363342)
(189.936805375982345 0.0206003002331666789 0.00023713217357956048)
(139.22439867423904 0.0203962751568320666 0.000263728116659468564)
(97.318170562830133 0.018321324615589326 0.00024793425180200503)
(64.8481391485197349 0.0158009563457424847 0.000241609174121986195)
(40.1756527347872989 0.0137473118803425175 0.000297652403709383823)
(21.3159331698941337 0.0117917443157581851 0.000271328825028388423)
(938.960727179055084 -0.00613623047379331394 -1.2890370207240528e-05)
(868.570486774575215 0.00866429677637338413 0.00013949376098747719)
(776.708658709223982 0.0146606173405090957 0.000237174929014068327)
(684.97512989312861 0.0123669502062195812 0.000195525990566203575)
(596.690973602886515 0.016977700060973256 0.000287012440270310019)
(513.336672259303327 0.0154820225277014258 0.000246528589273183345)
(437.612838894690867 0.01301539695101365 0.000165116941012101421)
(368.577081297081577 0.0100135198949315666 9.53711886198339772e-05)
(304.285994019244583 0.00860821392237534275 6.87107078636980479e-05)
(243.528269940458785 0.00966252824014376087 7.29220531283569426e-05)
(185.757443087381375 0.0216631481056325896 0.000188353592327086486)
(134.233154753855899 0.0217661902846658928 0.000197731088490089342)
(92.8455074822804818 0.0197076558615427201 0.000211647786413056692)
(60.8269269188052277 0.0173436086892865167 0.000235195647149780108)
(36.9208035847531448 0.0150870983265240788 0.000255831464451642115)
(19.2432709493220777 0.0141205385305711046 0.000270368068447893563)
(0.0250270526510441814 0.0105890264436611647 -87.9966962328402502)
(0.0224297641098802729 0.00336007345607763431 -102.298921467654623)
(0.0122283635677833437 0.00177026002610838114 -81.2719055157837147)
(0.00439630080435518024 0.000991814967243483591 -44.812897509713963)
(-0.000479829063455259903 -0.000199802609927505321 -12.7751813233453912)
(-0.000588837052907659414 -0.00045960956474121634 -9.60493061917014579)
(-0.000428890412331731498 -0.000561970329344992645 -10.8136301536059918)
(-0.000631996265641254448 -0.00122462435895840478 -9.27611122929685727)
(-6.05795494742372121e-05 -0.000157740985225222712 -8.58535963352921172)
(2.3571921784086437e-06 7.99592263107059385e-06 -7.97292770214169533)
(1.56822039779655946e-05 7.02745411581651527e-05 -7.48978418087943165)
(-8.7194854742645022e-05 -0.000468787758098631691 -7.15291076329159647)
(0.000130102182032467762 0.000857414473976918614 -6.77870685665596007)
(8.41480113981970238e-05 0.00077378150804626269 -6.40428105493581246)
(2.55663305548194366e-05 0.000363715144451161939 -5.93558484270976194)
(0.0152358191387768054 0.00538326698180829726 -29.3224378009735744)
(0.00910404653791926921 0.000864753992778425013 -27.2393744737560404)
(0.00154637989261392729 -0.000246596290592024478 -14.0183595673582797)
(-6.62882076474145993e-06 -4.98155508846288446e-05 -7.20496008699503765)
(-0.000243308363819469989 -9.4105882128309439e-05 -6.88433827816513144)
(-0.000214924801027437974 -7.83550787909737499e-05 -6.76334859871858107)
(-0.000205940998768275221 -7.8230969028002332e-05 -6.57066607714827544)
(-0.000186908467832918814 -7.41532363876813949e-05 -6.19009373580983624)
(-0.000163568636279367902 -6.53031913787384806e-05 -5.85346815584605906)
(-0.000151370479387814177 -6.0445264694267103e-05 -5.63454127288269913)
(-0.000128232891672875444 -5.46242889385481609e-05 -5.55523583398424936)
(-9.9854297727321905e-05 -4.35349465841662346e-05 -5.47950242835231371)
(-8.21777272264844719e-05 -4.43990895160781976e-05 -5.3379011921388182)
(-8.290847174114536e-05 -4.25628909370274447e-05 -5.21189363297527652)
(0.00813769345013906978 0.00210295454418517325 5.0782974805054808)
(0.00209792767117972928 -0.000185399409143330779 -1.75908746579646946)
(-8.05978397736500474e-05 -0.000103414790158329889 -4.96002104212585593)
(-0.000167513295971129895 -2.73745610503311047e-05 -5.43634424017097562)
(-0.000135022132350367938 -2.80012525897645969e-05 -5.71677989107645423)
(-0.000136158462509372021 -4.9238756139865658e-05 -5.69724767511311647)
(-0.000116567544248055867 -3.89483753606898372e-05 -5.54515045416179753)
(-9.64355964759682616e-05 -2.43704198833131386e-05 -5.36119041223924597)
(-8.6299242726606726e-05 -2.66377836046575775e-05 -5.15728505662741199)
(-8.16988966218473955e-05 -3.5550055115607821e-05 -4.96948288655537151)
(-7.79568182367982871e-05 -4.48517869090641361e-05 -4.84244788352916533)
(-7.49417074487749218e-05 -4.99526773671445581e-05 -4.78358811282523)
(0.00548167099076235249 0.00077663066886794101 2.63956274934946888)
(0.00052302281095085773 -0.000117705091061094292 -2.52216098957771084)
(-4.64761772692136584e-05 -1.9221862211815248e-05 -3.73630160707283121)
(-6.42467996858030584e-05 -6.20948067097280928e-07 -4.01924904895592938)
(-7.16961764235162982e-05 -5.17297278702466214e-06 -4.1061474793282482)
(-7.97328936653087889e-05 -4.01296970728693057e-06 -4.15107046175631034)
(-7.73968306654842077e-05 -1.49959664249051117e-05 -4.12301010396971535)
(-7.50718278096891643e-05 -1.92617822348510654e-05 -4.05608357160126509)
(-7.6034170745650255e-05 -2.05252851196655626e-05 -3.99227762701198996)
(-7.39469007741962403e-05 -2.34072727623501427e-05 -3.95176409330679057)
(-7.06410564248915503e-05 -2.72908768332282017e-05 -3.90928515481372685)
(-6.564351962422907e-05 -3.04571665429243047e-05 -3.85938515024046547)
)
;
    }
    procBoundary0to1
    {
        type            processor;
        value           uniform (0 0 0);
    }
    procBoundary0to3
    {
        type            processor;
        value           uniform (0 0 0);
    }
}


// ************************************************************************* //
