/*--------------------------------*- C++ -*----------------------------------*\
| =========                 |                                                 |
| \\      /  F ield         | OpenFOAM: The Open Source CFD Toolbox           |
|  \\    /   O peration     | Version:  2206                                  |
|   \\  /    A nd           | Website:  www.openfoam.com                      |
|    \\/     M anipulation  |                                                 |
\*---------------------------------------------------------------------------*/
FoamFile
{
    version     2.0;
    format      ascii;
    arch        "LSB;label=32;scalar=64";
    class       surfaceScalarField;
    location    "0.119999999999999996";
    object      phi;
}
// * * * * * * * * * * * * * * * * * * * * * * * * * * * * * * * * * * * * * //

dimensions      [0 3 -1 0 0 0 0];

oriented        oriented;

internalField   nonuniform List<scalar> 
20789
(
1.89945217747001214e-05
-1.90313397794179953e-05
-1.56918325075423367e-06
1.60600127430750316e-06
4.01709196083141842e-05
-2.12137588371842057e-05
-1.70664100825547127e-06
1.74378644046403649e-06
6.15237114403211654e-05
-2.13907305605820852e-05
-1.93195050502659113e-06
1.96971435717821219e-06
8.37494634622117378e-05
-2.22648823933277467e-05
-2.3029744798811134e-06
2.3419502268350316e-06
0.000107217896556149796
-2.35092263506201842e-05
-2.8482861330975027e-06
2.88893829335382036e-06
0.000132564070470432875
-2.53923003089485869e-05
-3.6221243380905961e-06
3.66812547661556866e-06
0.000160443916119357155
-2.79276670731113405e-05
-4.70697686794066401e-06
4.75470782922793646e-06
0.000191291564732856543
-3.08994457764059721e-05
-6.21662487044521716e-06
6.26838026731105727e-06
0.000225693177431239198
-3.44410774922342933e-05
-8.36013676949274583e-06
8.3995866747121393e-06
0.000265376074602570108
-3.97528740860120071e-05
-1.14075477711922674e-05
1.1477496473785391e-05
0.000307183169008622462
-4.18532603349352572e-05
-1.57029184429558773e-05
1.57490439848613984e-05
0.000354784559900614394
-4.81841968318594168e-05
-2.2787932778738883e-05
2.33707220956475871e-05
0.000410354530351838707
-5.52838989657260095e-05
-3.16664096610615208e-05
3.13803422003477848e-05
0.000446854330598322048
-4.2915809905237031e-05
-5.37768384080914485e-05
6.01928824699618194e-05
0.000385888028183010697
4.55282662634859861e-05
-9.78260818244370048e-05
0.000113264297499622314
0.000202958763275119423
-0.000256274581811439107
0.000439204222943725877
1.9166083370979363e-05
-3.82359342043355082e-05
-1.56915402126225402e-06
1.60715684662483799e-06
3.98097733321884452e-05
-4.18962092630766818e-05
-1.69386767191760089e-06
1.73205857987499911e-06
6.0443381635575481e-05
-4.20636586246329072e-05
-1.91491885151222577e-06
1.95374778314255505e-06
8.19921053887659077e-05
-4.38540832506204448e-05
-2.27739867567946946e-06
2.31743433156034041e-06
0.000105081284147772659
-4.66405459020842797e-05
-2.81194125834056662e-06
2.85369676889948972e-06
0.000130064902635123594
-5.04232307704116181e-05
-3.56975728207650227e-06
3.61678194214741949e-06
0.000157307486148242461
-5.52195063156660099e-05
-4.62761894626840894e-06
4.67671438811374185e-06
0.000187593484487041419
-6.12372617780900327e-05
-6.10758747151334999e-06
6.15932443254916211e-06
0.000220921312780551006
-6.78176736757370939e-05
-8.1899480538805067e-06
8.23862640728273702e-06
0.000259166421692065454
-7.80435619221171657e-05
-1.11482672730192537e-05
1.11937375678968195e-05
0.000301152559151812694
-8.39762336734092732e-05
-1.54975676805486302e-05
1.5634347508150026e-05
0.000348623832855212204
-9.55832304955136494e-05
-2.20320353058687684e-05
2.19598248709769001e-05
0.000406886482679829069
-0.000113583016139652847
-3.29655161606002845e-05
3.3002160567350567e-05
0.00045444587863913968
-9.47713915934929882e-05
-5.72513910576613418e-05
6.15480836670367871e-05
0.000432364974140894329
4.11060951328654211e-05
-0.000118145629972267346
0.000144649530788251761
0.000461844547059303502
-0.000324437044215657839
0.000497916754061706462
1.92769398288917937e-05
-5.75528049315608315e-05
-1.56045518068667836e-06
1.60000464297858101e-06
3.94576451461987705e-05
-6.21169094152129075e-05
-1.68473957695891132e-06
1.72428688414662989e-06
5.99954717066065186e-05
-6.26419225595953804e-05
-1.90135301606088975e-06
1.94140070481792018e-06
8.1459302314000731e-05
-6.53593455894234474e-05
-2.25676146269047532e-06
2.29783855641710522e-06
0.000104389921974907518
-6.96142607684880352e-05
-2.78122353534433338e-06
2.82400898234951942e-06
0.000129187103892676371
-7.52681960647435947e-05
-3.52376146353473032e-06
3.57131945170153762e-06
0.000156266093530735793
-8.23477132848556757e-05
-4.55729616419223289e-06
4.60639659201916325e-06
0.000186251160685066343
-9.12764239265851182e-05
-5.99947468746005756e-06
6.05351437973042224e-06
0.000219464805458208212
-0.000101073637433268725
-8.01544960624069977e-06
8.05769415680925055e-06
0.000257171771176694655
-0.000115830274279543936
-1.08879027045258406e-05
1.09675525039973584e-05
0.000298424002551195733
-0.000125271808835789863
-1.50391804336855601e-05
1.50824786233132769e-05
0.000347152623083836357
-0.000144305552413939768
-2.14485168218960995e-05
2.14422711928055565e-05
0.000407775884427494218
-0.000174347475900675953
-3.27663385396370291e-05
3.29077344999050318e-05
0.000451812431646332504
-0.000141244264829442831
-6.22438096010392784e-05
6.46805518288948731e-05
0.000420033851076997554
3.91005044063557966e-05
-0.000131433955178960314
0.000165218567922740915
0.000691713925729133374
-0.000359367283576242813
0.000549531816559802651
1.92332353323634091e-05
-7.68281402135071904e-05
-1.5457607104403202e-06
1.58752050558292235e-06
3.89977716428500262e-05
-8.19231033061211528e-05
-1.66780504611934126e-06
1.70905377222313208e-06
5.93269094068007264e-05
-8.30127451724346462e-05
-1.87863031324781501e-06
1.9199550669897005e-06
8.05960561118512347e-05
-8.66706014948243346e-05
-2.22486895137588548e-06
2.26664814377581259e-06
0.00010327748579017185
-9.23391789603257503e-05
-2.73572411490116845e-06
2.77892720143557195e-06
0.000127782895327922862
-9.9820873589296242e-05
-3.45765503078097335e-06
3.50472370110589435e-06
0.000154559540540545045
-0.000109172411917818408
-4.45893406832931297e-06
4.50689332253260851e-06
0.000184117318200770609
-0.000120887492560399148
-5.84922375026273841e-06
5.90246908591046069e-06
0.000217041474010406946
-0.000134034588856923046
-7.78556290990972743e-06
7.82227935863278139e-06
0.00025430045091293438
-0.000153188420922353705
-1.05196288529366381e-05
1.06187029491855554e-05
0.000294577492871313175
-0.000165510041957127665
-1.45015784808124605e-05
1.4462764697742914e-05
0.00034439460501412949
-0.000194295632694910984
-2.05745364877030814e-05
2.07476387431139529e-05
0.000405188719386703972
-0.000234774317297131344
-3.17877251580104886e-05
3.14206539839126384e-05
0.000448516423336382374
-0.000186380009416718857
-6.49515530352369312e-05
6.67597580498122009e-05
0.000407828320525002589
4.39028348236836935e-05
-0.00014589965904069133
0.000181785547082970975
0.000891851193312868137
-0.00038926912713300977
0.000596960493959573335
1.90502394499185441e-05
-9.59237274111794235e-05
-1.52539414130811487e-06
1.57042403518106269e-06
3.84371006029161799e-05
-0.000101353982187679255
-1.64361103014212982e-06
1.68724261671098265e-06
5.84700198655601662e-05
-0.000103088927498272331
-1.84731078833045597e-06
1.89022973362209963e-06
7.94534006970551394e-05
-0.000107696536876960783
-2.18260484811726396e-06
2.22484251464773639e-06
0.000101801393855664225
-0.000114730570546884038
-2.67677776641485129e-06
2.71990682336387844e-06
0.000125925603660206333
-0.000123989631797052333
-3.37356542552659575e-06
3.41793599716981142e-06
0.000152276066572665258
-0.000135569092335814168
-4.33497305214684256e-06
4.3811159324607936e-06
0.000181332831157941657
-0.000149992996884889304
-5.66040875724817255e-06
5.70910695975899281e-06
0.000213830364229052739
-0.000166569356259749522
-7.50307412648269163e-06
7.54021835965063865e-06
0.000250360594925068771
-0.000189799133035009024
-1.00611005515823742e-05
1.01414917662816505e-05
0.000289753578975926788
-0.000204880082151431305
-1.38715951910834475e-05
1.38487056330127958e-05
0.000341198657417362866
-0.00024588013865523028
-1.93114940267903341e-05
1.94511371813063744e-05
0.0004008868573176479
-0.000293874978501519786
-3.06429637687711992e-05
3.00555925752739141e-05
0.000443098946225749398
-0.000231330807897122163
-6.71243280821316556e-05
6.98628766842286332e-05
0.000392796254095325345
5.94432081778093076e-05
-0.000163728230621581377
0.000198490705611293873
0.00107109454115084319
-0.000417144278591557961
0.000630697738449758965
1.87682249396788834e-05
-0.00011474223848466399
-1.49972358482481211e-06
1.54970978910986822e-06
3.77621335491495989e-05
-0.000120395197965169392
-1.61269860596542905e-06
1.65963885114212638e-06
5.74263595087454209e-05
-0.000122798440006197817
-1.80788923384143585e-06
1.85284495119034628e-06
7.8038748612003944e-05
-0.000128351486284248917
-2.13083959446565239e-06
2.17309462856342513e-06
9.9969741730739252e-05
-0.000136704161112107838
-2.60575864692637094e-06
2.64810263104581942e-06
0.000123622049531086579
-0.000147683251382845409
-3.27345058061460325e-06
3.31460601474953649e-06
0.000149436703281666597
-0.000161426924346554399
-4.18801371153253877e-06
4.23113508107468683e-06
0.000177920518017152235
-0.000178516324061849386
-5.43932906491551062e-06
5.47880111499401813e-06
0.000209632510781850126
-0.000198316255315508783
-7.16903229940106571e-06
7.20383887321249541e-06
0.000245283366445038921
-0.000225496765692373218
-9.52071716729250025e-06
9.56741778609976948e-06
0.000284157473402130698
-0.000243773029598808808
-1.31203986958887627e-05
1.31393480893546484e-05
0.00033692295302135153
-0.00029847845606702125
-1.77701808020333665e-05
1.76032758749235802e-05
0.000395543759431334269
-0.000351754625658092792
-2.90830472499373536e-05
2.83420687303788888e-05
0.000431913567618702173
-0.000272230291644836469
-6.98640757171183058e-05
7.43935623236421765e-05
0.000373355011344582953
7.12211938236766194e-05
-0.000189110608962361206
0.00023589176469855465
0.00121302420418788843
-0.000447316562793151449
0.000678741925518191232
1.84068485239242227e-05
-0.000133206924961826585
-1.46931419856421129e-06
1.52686893240342581e-06
3.69700344798905547e-05
-0.000139010248944654318
-1.57561657211210923e-06
1.62713298150789382e-06
5.62008813488817856e-05
-0.000142077211430249097
-1.7608920788660931e-06
1.80849889155261512e-06
7.63623731304697575e-05
-0.000148554767150546716
-2.07070235393327011e-06
2.11219857400400857e-06
9.77944156366126441e-05
-0.000158176987857265605
-2.52445575045778566e-06
2.56500347052878667e-06
0.000120883584847625544
-0.00017081054216818784
-3.15872311750846354e-06
3.1967090946028939e-06
0.000146068060106884759
-0.000186649173868024817
-4.02229465751588712e-06
4.06002675228455621e-06
0.000173829542974718049
-0.000206304038208086633
-5.19334848972258764e-06
5.2195395765632398e-06
0.00020479110814981507
-0.00022931375481464688
-6.78757849464493528e-06
6.82341040655272671e-06
0.000239681624276063404
-0.000260380460807277045
-8.92006596512457021e-06
8.91318898396431907e-06
0.000277822601159337585
-0.000281964909086600756
-1.22193974550388831e-05
1.22704369350950516e-05
0.000330974128423653432
-0.000351220408601539446
-1.60149290010680212e-05
1.56055951926564527e-05
0.000386918352519885175
-0.000407064539453095425
-2.72011612385017229e-05
2.65670645764057275e-05
0.000410495871974732524
-0.00030180493936368799
-7.13825699972049958e-05
7.73800968539672235e-05
0.000348938367568730687
7.14330259390247779e-05
-0.00020210164812003035
0.000263448166503345185
0.001329672051438366
-0.000461981118387130049
0.000694271426090811933
1.79787205488657548e-05
-0.000151254994928145945
-1.43489472097374053e-06
1.50397712958577142e-06
3.60635885589812317e-05
-0.000157153318985035588
-1.532939503048272e-06
1.59081097530617846e-06
5.47995053804022016e-05
-0.000160864527236148305
-1.70691050947945498e-06
1.75800542856639393e-06
7.44347592345146261e-05
-0.000168229790481239457
-2.00359403888820758e-06
2.0430844529647124e-06
9.52881067813567465e-05
-0.000179067909495991714
-2.43504638359628472e-06
2.47240148488057643e-06
0.000117727432207692304
-0.000193281432723614924
-3.03540508447535955e-06
3.0668527994028817e-06
0.000142179480166634652
-0.000211130100194301253
-3.84360527717530989e-06
3.87245169731209203e-06
0.000169116136499737889
-0.000233248713018299053
-4.93049498177939139e-06
4.93847405964114067e-06
0.000199163964443402233
-0.000259396606407271356
-6.36953466497780565e-06
6.40446330799574677e-06
0.000233124763682999108
-0.000294266318399757519
-8.29232775141686195e-06
8.21735483330368952e-06
0.000270504540119956489
-0.000319464864879117477
-1.11493108808020629e-05
1.12696255041749418e-05
0.00032300695133683936
-0.00040288310872960072
-1.42035319639179004e-05
1.33640060058785196e-05
0.000376039476245072671
-0.000458517835001844552
-2.57653126707206896e-05
2.41862642181599838e-05
0.000389901640795858222
-0.000319273206054038379
-7.36437631889906011e-05
7.72509289778647204e-05
0.000329916595121248102
7.66024018483408404e-05
-0.000203274781851750638
0.000258090659221452969
0.00144554671073886427
-0.000468382452190467243
0.000682426377926804951
1.74931153177486635e-05
-0.000168835131237017312
-1.39695891278207013e-06
1.48372873202480315e-06
3.50483116241102991e-05
-0.000174775778481551283
-1.48511906261201379e-06
1.55206966309404448e-06
5.32296641259331159e-05
-0.000179101902426815707
-1.64669771684810955e-06
1.70243091879405371e-06
7.22671378569836862e-05
-0.000187303217470525277
-1.93130192087714901e-06
1.96699141461168268e-06
9.24657664383138328e-05
-0.000199298645316428727
-2.34047636374879808e-06
2.37238188304629709e-06
0.000114170802571984361
-0.000215007471563091361
-2.90761391547268132e-06
2.92851304009909298e-06
0.000137792962537132245
-0.00023476551927840617
-3.66008592737356037e-06
3.67331759565221244e-06
0.000163784950162592692
-0.000259226689149691673
-4.66074532943836466e-06
4.6466962737190855e-06
0.000192778964028663378
-0.000288418055776312689
-5.92654004923167689e-06
5.95389786557382168e-06
0.000225605612797612844
-0.000326959197958459342
-7.65486318080953906e-06
7.52109064319039683e-06
0.000262323822314975731
-0.000356358792392645022
-9.93700061584287328e-06
1.01128252675773447e-05
0.000313245008741204294
-0.000452242183558020777
-1.24149127147905838e-05
1.08528829262806652e-05
0.000360703928161872751
-0.000502669600444340483
-2.48656958714110852e-05
2.15587066751834509e-05
0.000366348750508399849
-0.000325065779233180347
-7.75613122058385862e-05
7.77100938303490078e-05
0.000307986535400293763
9.24725722613539366e-05
-0.000206944831073746201
0.000249436598304098554
0.00156289620989090417
-0.000466333010678811279
0.000656971397913735933
1.69564433317120444e-05
-0.000185904178708840262
-1.35707526082320859e-06
1.46944366194480866e-06
3.39293763430661602e-05
-0.000191830069617088391
-1.43169608872008006e-06
1.51275962937332885e-06
5.14996039806898731e-05
-0.000196734511267890631
-1.58115099263089798e-06
1.64325851626342415e-06
6.98713969296055126e-05
-0.000205704495281647666
-1.85642299946416455e-06
1.88566105131586479e-06
8.93436998713895494e-05
-0.000218793490473662882
-2.24515331866502714e-06
2.26751031903519099e-06
0.000110233540444819566
-0.000235901759404925259
-2.78264706009276311e-06
2.78699932149547206e-06
0.000132931878816691733
-0.000257455352380629742
-3.48119603734479719e-06
3.47266160724845634e-06
0.000157859692265822568
-0.000284114498222266798
-4.3932528924682209e-06
4.35321325001439838e-06
0.000185642067638916111
-0.000316212268940631173
-5.47211148871355564e-06
5.48389644983846125e-06
0.00021715724446475933
-0.000358320976618538994
-7.01155806603476991e-06
6.85818973679166651e-06
0.000253013709869913948
-0.000392338839248241699
-8.65778703232031896e-06
8.78145874367369153e-06
0.000301180882256870763
-0.0004980006452680603
-1.09092041067378249e-05
8.50045803000504893e-06
0.000338888884909030301
-0.000535925083050117594
-2.41613230950882082e-05
1.97088961515020673e-05
0.00033981088558353588
-0.000324704036760790037
-7.91983586411394334e-05
7.79145251363218375e-05
0.000281702840693926143
0.000113942964603255305
-0.00020543217632865092
0.000242070957756659942
0.00166975131123985369
-0.000461711839846446089
0.00063655916425932465
1.63691539087731793e-05
-0.000202421390598976007
-1.31723377617731087e-06
1.46507112398932953e-06
3.27092655405983342e-05
-0.000208273616265063316
-1.37250269581917459e-06
1.47566164435621812e-06
4.96187888113476395e-05
-0.000213715423694805162
-1.5112534195703445e-06
1.58238668192007149e-06
6.72606559518327304e-05
-0.000223364460832362895
-1.78317332810437304e-06
1.80104421685289217e-06
8.59398433627800754e-05
-0.000237478267584124812
-2.15540663342855501e-06
2.16082724406910165e-06
0.000105937019738420356
-0.000255878481806901957
-2.67119984793790552e-06
2.65065479913836275e-06
0.000127623847415259594
-0.000279103988933648622
-3.32173820191225054e-06
3.28351093888529984e-06
0.000151366226213624574
-0.000307789332936646721
-4.13343634662749177e-06
4.06585895529257173e-06
0.000177810188881102687
-0.000342661524927690905
-5.01892205196958504e-06
5.02419177079515526e-06
0.000207923859108979236
-0.000388305275340075477
-6.36073281921954975e-06
6.23142279269015636e-06
0.000242365574820725986
-0.000426737485982742442
-7.41715672904521965e-06
7.37415857040931587e-06
0.000287864352859828088
-0.0005405256559455439
-9.69403373419476468e-06
6.72016930387967058e-06
0.000316156462806599522
-0.000560232666987607424
-2.39291949050592152e-05
1.99449130384984216e-05
0.000316170416851831648
-0.000323517987163163495
-7.88084406182075644e-05
7.76077322353649297e-05
0.00025556616290079142
0.000142991835787099713
-0.000199538344124568548
0.00023109525978562477
0.00176539246760863276
-0.000454090577932209668
0.000614015533617234691
1.57235738329214317e-05
-0.000218340280742279088
-1.28105513772075272e-06
1.47616596866528419e-06
3.13865382045300023e-05
-0.000224074464087022958
-1.30781548306061235e-06
1.4454427625541934e-06
4.75987584370159774e-05
-0.000230011509191251735
-1.43779106586114633e-06
1.52142124615350073e-06
6.44510435250839379e-05
-0.000240213226779006841
-1.71799617918411586e-06
1.71427210447099571e-06
8.22744948846771751e-05
-0.000255279402686260008
-2.07862943573525513e-06
2.05616086064161878e-06
0.000101306166042375848
-0.000274855263597569401
-2.58632676863247508e-06
2.53134760760161724e-06
0.000121900674223075097
-0.000299621937367578709
-3.19279043459240423e-06
3.11618491784361998e-06
0.000144335980070978007
-0.000330129249227829099
-3.87909557997499591e-06
3.78367385759241507e-06
0.00016938299849486883
-0.000367730798868119799
-4.56973244670565618e-06
4.59199245099786555e-06
0.00019791824073062185
-0.000416746331603182532
-5.70339685026355399e-06
5.60929763565315284e-06
0.000230523236997165248
-0.000459060119007584941
-6.41326648510548053e-06
6.13095653774315667e-06
0.000272282201809001306
-0.000578875805832309589
-9.03336731446402286e-06
5.62446554546381571e-06
0.000296042152789084603
-0.000580661672100729132
-2.37673302289593015e-05
2.04365505208251636e-05
0.00029692475679787909
-0.000322314653696500661
-7.45005466111363807e-05
7.24148831087575095e-05
0.000234033557911361912
0.000181747947335362723
-0.000191382680829737509
0.000215518185235260987
0.00185270437576723172
-0.000443087725405080129
0.000589809978720470828
1.49967798441922522e-05
-0.000233598202502197121
-1.25286893916203908e-06
1.51382118919878541e-06
2.99480226683266327e-05
-0.000239217296142181534
-1.23665557629297065e-06
1.42801064434185402e-06
4.54513911543705945e-05
-0.000245619968800647867
-1.35853080506731163e-06
1.46341096483321488e-06
6.14628288520551212e-05
-0.000256178583394566189
-1.67001286153398573e-06
1.62375261931468141e-06
7.83691156669851126e-05
-0.000272124352372645601
-2.02246107503596084e-06
1.9609892339912104e-06
9.63723103519551454e-05
-0.000292762300874046882
-2.54104277457665394e-06
2.44479622090293387e-06
0.000115806730549169548
-0.000318932476751571125
-3.10043399226366193e-06
2.97649885281483074e-06
0.000136831100804797742
-0.000351035667328912537
-3.62214340342492807e-06
3.50416001906207118e-06
0.000160445496033715756
-0.000391410731305637596
-4.11383665339693084e-06
4.17939821724402336e-06
0.00018695096270762677
-0.000443162393711953701
-5.031118491704979e-06
4.94181352296330387e-06
0.000217566275611623541
-0.000489149413357158861
-5.69100247172040616e-06
5.16500589210651723e-06
0.000254537118760032833
-0.000612069136242160807
-8.63048995295291098e-06
4.85294380168662239e-06
0.000279280453141724037
-0.000601101705763478953
-2.27809160627146933e-05
1.84775165141800115e-05
0.000279594158560263206
-0.000317263614014139529
-6.7579101231554116e-05
6.22158747669762896e-05
0.000217057033913918703
0.000228413046906394686
-0.000180026006970050663
0.000195898426484535689
0.00193654785578074081
-0.000427253313755192993
0.00056046846019539194
1.41235640756141209e-05
-0.00024808362593217823
-1.23330312107950305e-06
1.59498932111062302e-06
2.83587986133349391e-05
-0.000253730024136664426
-1.14390651177905683e-06
1.42118935125054436e-06
4.31957213759323323e-05
-0.000260602149339503406
-1.25974762861997366e-06
1.4048204851272313e-06
5.83168140550177194e-05
-0.000271165354863741714
-1.65470705408011214e-06
1.52023329646658656e-06
7.42440503039688382e-05
-0.000287942507470492672
-1.99703641839379522e-06
1.8878371147509592e-06
9.11746397296888647e-05
-0.00030954862583568762
-2.54814881885924511e-06
2.40379599947435387e-06
0.000109403078292995943
-0.000336970103534771543
-3.04848665765988006e-06
2.85761664967529798e-06
0.000128981197834906298
-0.000370487138740659605
-3.33817087082893362e-06
3.21149282129963768e-06
0.000151081730466574881
-0.000413630570241366126
-3.63142478882146293e-06
3.75075523282662704e-06
0.000174968555127416972
-0.000466922336253594778
-4.373214199669086e-06
4.24642427573432143e-06
0.000202911515277906805
-0.000516275281726484114
-5.12261567919479778e-06
4.30553102098697548e-06
0.000236277073635269771
-0.000641420692883260609
-8.02019828385598154e-06
4.0061628396117173e-06
0.000261464018318077133
-0.000620730612709737223
-2.04373854991480091e-05
1.48792466816721503e-05
0.000257511332919579093
-0.000304280472545978618
-6.04876828786225237e-05
5.14586825648798892e-05
0.000198462951043390794
0.000281114482980562776
-0.000167141823049674683
0.000173488766808223516
0.00201397330582747886
-0.000407303609841923244
0.000528341880786283523
1.29935582074994946e-05
-0.00026157548228977111
-1.22617332481297356e-06
1.72431462784611007e-06
2.66129885023053452e-05
-0.000267771044561835648
-1.00351729060090428e-06
1.4249191343606614e-06
4.08932626792167804e-05
-0.000275083402760702091
-1.12165810750952247e-06
1.32247706147824216e-06
5.50260414549906426e-05
-0.000284985099306426224
-1.69276205980817386e-06
1.37959832322861318e-06
6.99251162209680492e-05
-0.000302678591395858356
-2.01293987477337183e-06
1.84984273719342673e-06
8.57556022085630403e-05
-0.000325156726977709587
-2.61500426724143687e-06
2.39253142370861985e-06
0.000102735839000923788
-0.000353634950057383102
-3.03478673837256205e-06
2.71934103789070094e-06
0.000120936891630141988
-0.000388625903477810442
-2.95918748394367559e-06
2.89687068763358597e-06
0.000141338099912229146
-0.000434146984371398792
-3.13763068110722595e-06
3.25283171079045162e-06
0.000161782982901563868
-0.000487144060236515601
-3.76312967735622902e-06
3.54002383542613989e-06
0.000185577096182961527
-0.000538786056981249988
-4.54231758313965842e-06
3.25902848051825756e-06
0.000215085315910292153
-0.00066682218770266284
-7.07955829848563964e-06
2.97283487995144685e-06
0.000239130186960668487
-0.000637999460172573645
-1.75782389437621831e-05
1.08022251247268192e-05
0.000224617231396845784
-0.000275833440486520807
-5.79261110865491127e-05
4.39920256294853995e-05
0.000173408666299228848
0.00032985753040599931
-0.000156544114930760869
0.000159008888938961103
0.00207409521171428909
-0.000386205449175310424
0.00049949182111684164
1.1647195478542306e-05
-1.24252459836544161e-06
1.8902070570980807e-06
-0.000273870499478597756
2.48482608997683558e-05
-7.84155397465023663e-07
1.44048814175252004e-06
-0.00028162860008084181
3.86568495276119097e-05
-9.83585603540876243e-07
1.16429842958629136e-06
-0.000289072833092884581
5.16059869171564217e-05
-1.75873672586810026e-06
1.20620434985474411e-06
-0.000297381807420200731
6.54491358098779002e-05
-2.07917256422202971e-06
1.83618611695946019e-06
-0.000316278846648628833
8.01417275563394112e-05
-2.71167197845516926e-06
2.3702166438709088e-06
-0.000339507942609754642
9.57891402200331627e-05
-2.98765668859958435e-06
2.49064726281855025e-06
-0.000368785390475219433
0.000112592501073979776
-2.44293454941292836e-06
2.61056601998549289e-06
-0.000405596922251221447
0.000131031489531323829
-2.70435714721193059e-06
2.66554283313742939e-06
-0.000452547213081041881
0.000147154458154987101
-3.26251150089610188e-06
2.88164429461368175e-06
-0.000502886143065501526
0.000167926855631338667
-3.9667429268132496e-06
2.21601539629852786e-06
-0.000557807584022121145
0.000192097256978228126
-6.59721348648888298e-06
2.92280442027111803e-06
-0.000687318106826830932
0.00021282554404559244
-1.59996702963451728e-05
9.19768043193892236e-06
-0.00065192573109118827
0.000181454568219257319
-6.42549426666040894e-05
4.30421438054934589e-05
-0.000223251243807223265
0.000138604776119331173
-0.00015631929545241246
0.00015963074118010106
-0.000361654184972374755
0.000470386761991107845
1.89113623617576202e-05
-1.900984946438172e-05
-1.47096243299889184e-06
3.99916393179323786e-05
-2.11838392501533615e-05
-1.60349022416837245e-06
6.12303359860253598e-05
-2.1352931360464166e-05
-1.81806538888797198e-06
8.33129589742663611e-05
-2.22150424920980698e-05
-2.17086994691438294e-06
0.000106595111365036067
-2.34428211260318103e-05
-2.68789950942886119e-06
0.000131690722889284356
-2.52988608457963095e-05
-3.41909912414261728e-06
0.000159211437645220279
-2.77892615341425663e-05
-4.43856235279681148e-06
0.000189536699824526667
-3.06987521396884726e-05
-5.84318386993551576e-06
0.000223105506286022681
-3.41159630664877991e-05
-7.81300550304954523e-06
0.000261531168568859731
-3.93011030060455896e-05
-1.05321462586188349e-05
0.000301049336809487483
-4.08716903517891711e-05
-1.43494222242614345e-05
0.000345020744279423981
-4.67141040670943859e-05
-2.00452292087525727e-05
0.00039457550379294815
-5.43721368429705425e-05
-2.68489791367750068e-05
0.000420384142526171358
-3.7247333311681943e-05
-4.23379188621299433e-05
0.000350535792670228627
5.41639135505416142e-05
-8.21410882293646086e-05
0.000238610279657547222
-0.000144348590566261076
1.90828081513319379e-05
-3.81922844468600509e-05
-1.47008763879444571e-06
3.9632091720673221e-05
-4.18363648154988047e-05
-1.59122246243242267e-06
6.015624809536068e-05
-4.19910194630370017e-05
-1.80150831101606462e-06
8.15692168097135382e-05
-4.37598392303872229e-05
-2.14604348059905308e-06
0.000104479863873056572
-4.65129617489071551e-05
-2.6528530405332254e-06
0.000129222671507559671
-5.02429922077920471e-05
-3.36870887563400262e-06
0.000156126116576725028
-5.49573041972324628e-05
-4.36312471360332798e-06
0.00018591269198345287
-6.08546605858364492e-05
-5.73824532594034417e-06
0.000218474510285077942
-6.72190747448498304e-05
-7.6486521206249715e-06
0.000255549513424682098
-7.72148137082139376e-05
-1.03096006048818981e-05
0.000295465724048940505
-8.22576718975670523e-05
-1.40278245923762936e-05
0.000339527751201721545
-9.32695150699919923e-05
-1.95386188683238171e-05
0.000393493871146714791
-0.000113282464415062698
-2.80211415220913429e-05
0.000426576595094716685
-8.13854287028297402e-05
-4.61955868117924569e-05
0.000375880070884112313
8.0626201733289128e-05
-9.39107409590236029e-05
0.000496409091536515194
-0.000206355520611373915
1.91940764932905017e-05
-5.74864016767238426e-05
-1.46086275973677506e-06
3.92831060931641236e-05
-6.20288446126000435e-05
-1.58177978908230778e-06
5.97132661701027862e-05
-6.25351183665673988e-05
-1.78784759568570707e-06
8.10437095696350129e-05
-6.52218958760170927e-05
-2.12554562134489998e-06
0.000103800134524031606
-6.94282790761771931e-05
-2.62267156798419107e-06
0.000128363105078543269
-7.50057483435134364e-05
-3.32420067938439615e-06
0.00015511297374214093
-8.19683935320495566e-05
-4.29615101998871438e-06
0.000184614334628366186
-9.07178049928915244e-05
-5.63768090109447753e-06
0.00021709051599501936
-0.000100217043297901363
-7.49367552606110187e-06
0.000253657401434023082
-0.000114595454764221055
-1.00741953339351862e-05
0.00029282806245972936
-0.000122821198368794978
-1.3646313285240531e-05
0.000338583154426210094
-0.000141460417597327965
-1.90126002796026975e-05
0.000393664967252354767
-0.000173566636094512998
-2.75637756131172639e-05
0.000423352197159900597
-0.000122928363997939848
-5.03878611992125599e-05
0.000369395410355878031
0.000107399400674256787
-0.000104250242376095431
0.000736160973413296175
-0.000229723681677165191
1.91516919306048875e-05
-7.67389107260395953e-05
-1.44534967811214521e-06
3.88274465751637496e-05
-8.18083155555955426e-05
-1.56454082520058183e-06
5.90514203967051668e-05
-8.28728494541834958e-05
-1.76527721788591949e-06
8.01908326583589999e-05
-8.64924261455784989e-05
-2.09412355360479697e-06
0.000102703919484318081
-9.20993281287505166e-05
-2.57807694787451435e-06
0.000126984407486207038
-9.9483721249561319e-05
-3.26036830171328162e-06
0.000153445365085295022
-0.000108686924349439245
-4.20141745451524519e-06
0.000182545990715653552
-0.000120169830509753912
-5.49781565201696494e-06
0.000214764357884557133
-0.00013294125982460145
-7.27974638429293074e-06
0.000250939037875310788
-0.000151540773581429142
-9.74904038879068465e-06
0.000289221248831500314
-0.000162444059166690433
-1.31608730512764735e-05
0.0003360104326162032
-0.000190710582059229288
-1.81133654481245588e-05
0.000390364157121559068
-0.00023318647626995937
-2.65214007818620323e-05
0.000419937016316783321
-0.000165371055948604459
-5.20816693222260867e-05
0.000363104553464738448