/*--------------------------------*- C++ -*----------------------------------*\
| =========                 |                                                 |
| \\      /  F ield         | OpenFOAM: The Open Source CFD Toolbox           |
|  \\    /   O peration     | Version:  2206                                  |
|   \\  /    A nd           | Website:  www.openfoam.com                      |
|    \\/     M anipulation  |                                                 |
\*---------------------------------------------------------------------------*/
FoamFile
{
    version     2.0;
    format      ascii;
    arch        "LSB;label=32;scalar=64";
    class       volScalarField;
    location    "0.720000000000000417";
    object      p;
}
// * * * * * * * * * * * * * * * * * * * * * * * * * * * * * * * * * * * * * //

dimensions      [1 -1 -2 0 0 0 0];

internalField   nonuniform List<scalar> 
7340
(
7.64227820688423698
7.58095485856775131
7.25368640981977553
6.85022414951240677
6.62761969765312564
6.75344543107244988
7.02505824151504221
7.33712101479784184
7.69576493060107403
8.88847239573936498
12.8187443298865666
14.9913860650313229
4.24504556323930604
-11.6374802472024648
-16.4213706543836651
87.8009748590602612
7.43238408823877172
7.4559784716630535
7.03811811008237154
6.50559288398971614
6.29236700673942373
6.41278366333934446
6.63721439259065527
6.83947819440813465
6.95333702740915705
8.04552143058674574
12.3867840757931233
13.8828116845500453
-6.48113323295482502
-18.1742094324997403
-13.6749120280940986
86.7363250664255929
7.32409721037019779
7.44334407679068555
6.86757709481204337
6.18240805226895418
5.95639242207534636
6.065624904843542
6.27841709174374962
6.40224911644909689
6.36189276550565186
7.50188443978663955
12.3995962688476435
14.2106913209366006
-16.5878286629664338
-21.8677673718791183
-5.22132923895232892
90.6458362195243126
7.43750994227669349
7.49772800693352082
6.77105435199649186
5.95618922200649781
5.67184943520181761
5.75648138165575141
5.94645522456528752
6.02457558140724636
5.9258814789885097
7.35805757971238616
12.9351967780712158
15.5902245964165189
-19.754725109692739
-23.2860353319090123
1.64132443625003077
98.13013335979781
3.46915247614031008
5.02607536603656868
6.54666431400439031
7.50292319160445231
7.57731844396750276
6.82184711290201129
5.94270326939323468
5.54293796098376745
5.50614665658655511
5.62963320017687696
5.67216137711464086
5.60243942799807293
7.48489419015155022
13.7503195178385234
17.1628068153895654
-21.1636997329290324
-25.9717014432196542
5.95826168052718685
104.57446865677025
3.25926339946992893
4.86560899431766458
6.42517717401812227
7.35632994682436703
7.53933409119805642
7.02044896495162174
6.28594779266570658
5.71612281599540673
5.39834708612490033
5.35635730839656787
5.28977166923908548
5.31507672667919984
7.82109990338163463
14.6330807468144943
18.2848717419286331
-26.2865794723491675
-28.9747881083337759
5.40573634289307847
107.9837052461246
0.670303703277294716
1.65437261342184616
2.9538394841856821
4.42563241572475974
5.68519885554901983
6.37222906827215496
6.72846029652055933
6.75372654577040166
6.6636532396544883
6.12822454605656475
5.56315848229924104
5.07486121301940862
4.77852762473473547
4.92734177554064345
8.23156551549451265
16.1636000988047108
17.3781455783740313
-33.8483592711035612
-29.1561791713218632
-0.596098802536744188
108.898186080042933
7.40079480349679208
7.05324919826211971
6.74750343405097919
6.77225197331166484
6.95613749279332083
7.32608765500937231
7.80551415452720931
8.44492351621280157
10.0925838300413577
14.5797560107562489
17.4209774724045765
7.5344282718731943
-17.8969732172509595
-23.8116923547627266
141.78341497709107
7.12221834830325307
7.03532051585864249
6.66453894927142443
6.46432154856309538
6.45013684172055513
6.62664703136085453
6.91837823269622021
7.28054384555525846
7.71605228414282163
9.34236536227341574
14.6546227854156825
16.9553318423968662
2.65517537299537576
-24.9911842647489735
-21.3119788299938762
139.737864940157124
6.98184720942895787
6.84211062807049775
6.45958622889366296
6.18628003159540274
6.15993783816920448
6.31189184475554654
6.54762491189986395
6.82904134790623196
7.12796241320195101
8.87268707152630576
14.3941618799236579
16.2635868885353432
-11.115786993308383
-30.8717529640374018
-10.6217482360961668
140.182708921758149
7.0056843894923766
6.81831160314193685
6.3106313387678572
5.93182732863491857
5.87536240907092111
6.00607818285327966
6.22304729578571436
6.46115696714645349
6.67751501683631687
8.54864131870236221
14.6325877590955464
17.3130232653266525
-28.8879092772631836
-33.9534702776081545
2.21306586097401237
142.414731792458724
3.47245757647834674
5.07064467920011541
6.41076406022827339
7.0786199774486942
6.86470600046482105
6.24628364211779541
5.76940848898698988
5.62640183105221148
5.71358318459699355
5.9077807143559582
6.10856669659431439
6.34073897266733955
8.51884818733834415
15.2056267500948454
19.1261258327972783
-37.2992873726254714
-35.2263721071878066
4.41705130688492886
142.685018019512427
3.28750002878378522
4.88198921566471711
6.25427045581099694
7.02321508138897599
6.9448342382106798
6.31970144361444852
5.77951315576023639
5.45683569420485171
5.47109140844319253
5.61435040725862144
5.76368541767737774
5.98895121487874604
8.6222847992157341
16.3032815023444826
19.3743211513028619
-46.2313517195469359
-39.6947436603668393
-3.0090118655622291
138.003262538737999
0.676106009385384343
1.66876921678321377
2.96311703524084047
4.28725114817736142
5.45157946547036776
6.41180303092144577
6.62310328848611896
6.19793304371443288
5.8828345585161248
5.495137226051094
5.40741943506485079
5.34896539453062658
5.30703085013581344
5.60050522170544518
8.96599260557994882
17.8506942206930184
17.9055521185338193
-61.867121796659859
-45.5100417843000926
-12.9305335048578627
132.330047476620393
7.0321750261115259
6.84247198660514133
6.66985906279366159
6.78588897303002003
7.08111097138867507
7.60717259984632488
8.30883099570276329
9.37485580426148779
11.5789742583821997
16.3767486034060425
19.4933058397900147
8.55414415999177535
-22.8018251997888157
-10.677910397234939
222.93466378781784
6.50661130911156249
6.49385960936789619
6.39742806027371103
6.36062135045490429
6.45202573248374911
6.72602668960157501
7.17191205726143366
7.77630024845534784
8.69074966130820847
10.9214319943667952
16.3178550682972023
19.3411955852480482
2.29068134386506728
-39.6223097498696717
-16.4564933093331547
207.057589509888885
6.25270001481376703
6.23400221890967821
6.11424776747712517
6.09122511035209513
6.19576033764104661
6.44118205902046714
6.81408029504076396
7.3223611605562402
8.10623277287189836
10.3862210980531593
16.281756315449293
19.5460613878745555
-13.2619644653551312
-60.2512055125650718
-14.7041589239450161
199.569114851777613
6.11892901128635458
6.11203322300551299
5.94967534349505911
5.86425256311736565
5.96249427257012954
6.19486947932297038
6.53258180197003391
6.9698716101560203
7.65389709612980962
9.98575547470716351
16.1182774896868395
19.1248787625595256
-33.3124393220003086
-72.1960940957883821
-9.14368431825138828
196.329193278637831
2.89861050088063488
4.28138846724001176
5.40062146285019917
5.95607390448890239
6.04128609711383646
5.86600553190088991
5.70166173917965668
5.76311229672685243
5.98201776819380893
6.28100862178386343
6.65130117454332925
7.25027905931325201
9.6538577997513304
16.0028108318451601
17.8257245201495422
-50.6894325266907941
-69.9203103374294415
-7.80493557940519622
191.955441088604857
2.62009403010507214
3.89508129611326215
4.98609857018433278
5.77756383653936822
6.09769268289656097
5.84718718509861013
5.62943164169117161
5.60017518576043649
5.7889226657139421
6.04762201477121053
6.38795477455659366
6.9151415530448892
9.41994446091937299
16.5734658035646589
14.763659920448406
-69.490875088024751
-82.6416605953968428
-13.5276965205799797
182.295028609887368
0.408752302243064136
1.21297759565290253
2.21179251958502698
3.20410416302938206
4.20477028613846571
5.40955114222926436
5.77432863136666885
5.64444177501220778
5.6479535605244866
5.5640187345307961
5.68760148882019134
5.79789030751316758
6.01245199646617223
6.5393186254182929
9.46870348861581235
17.7031906217914639
12.2892682953130503
-74.0889560847738267
-115.93517744666417
-36.0330664982079725
171.425483901683265
6.6204552078294423
6.85508028376254419
6.79924222952283142
6.78327281139497718
6.98269442673959428
7.39361652515403112
8.0285027621777818
8.98382988958458917
10.5559474541558842
13.532474318100931
18.9822200958001126
22.6919629861556338
14.260469576898231
-19.9909015085764352
76.8326952379384238
350.835152034861949
6.05878547484925889
6.28360475838949917
6.33153728910957092
6.39401249982354969
6.60549988098454754
6.96067007338560995
7.5076589077661362
8.35613122482325288
9.84764067521427044
12.7854574620774883
18.4641837852876769
22.16093979759275
6.31354409139629791
-43.3971308550076955
75.1068103042379676
323.206528055076433
5.58792943279430787
5.87632196388925809
6.01663438213884749
6.12971322478091185
6.30157584783279567
6.60829716749281104
7.09979338057253884
7.87772353435940786
9.26217772189510491
12.058288385417498
17.6894527184956125
21.3467506557252733
-12.7641661423276584
-65.6999745966980981
77.9409774026910327
305.103500126512245
5.27518951564715266
5.64610184212436383
5.81953420228401441
5.91684593596333563
6.06662713004914256
6.36485896806307938
6.82710260908996869
7.54848636366005543
8.87711209468037765
11.5802775105986875
16.6622179664762484
20.3286508767284602
-23.4477606226717583
-95.1716114935187534
65.5241487137609511
290.979887976057853
2.08876652914641259
3.15133643137587072
4.15698666285912743
4.9383188357523391
5.48874964013904698
5.71183042200302182
5.76266331294493739
5.89056464645796662
6.19484918797354034
6.6391916535073241
7.30916382784152852
8.56970169268712034
11.2978042420099278
16.2214098876703012
18.4534560898476592
-27.7350723422533783
-109.348861633225738
45.3542259953653684
277.56002345677939
1.67770177691851119
2.60116009631643053
3.61809388879937366
4.5962786692266917
5.35312562678696668
5.65361508954566272
5.68783359140974198
5.7485129773311332
6.05734594310067109
6.50226431045010145
7.19955048504923667
8.50217112672214448
11.1581962293255863
16.2196275496606575
16.6140846462912677
-28.6146646415581785
-92.1042365174600945
42.417705633266678
262.794822408048503
-0.0356872626996658227
0.541235367940891443
1.24645846328582488
2.03754761826699049
2.96170399067138312
4.08306343572750308
4.99266836314343454
5.54104311177738396
5.61632624001483993
5.63329001656051975
5.92595596845232997
6.2941146253130551
6.98387801768783323
8.29009301418603783
10.9543602094285504
16.9822040892167543
18.8538828427240475
-21.1653484300830996
-72.1569262295652152
30.6687635284076805
247.35557756730509
5.95258069890231845
6.38998192473994742
6.61255201506603907
6.7337020994656358
6.90558567988214111
7.29916247032999443
8.08339557858376168
9.6073271685360595
12.3949110550182446
17.0878935418858049
23.6104146343634511
28.8082989890426973
34.5804542027928932
13.8433977543302618
234.933796010243668
497.221931848781196
5.63833413255889937
6.05267003690299354
6.26230850681606022
6.40265208702995459
6.56858494636178225
6.90896364380739136
7.57801143752623396
8.85540858898230532
11.1822610357502636
15.0549632984439654
21.4300130709857513
27.4369149260227445
32.340102719683486
2.4478407055896696
204.490380328862102
441.812123575601163
5.26993960389105354
5.74040742563802109
6.00814091163775021
6.16487679830988888
6.33556516207671372
6.66583152151174563
7.30673349019440455
8.48373327653265008
10.5839883517329643
13.9225140284512516
19.5419989419407152
25.5874866549706326
24.3644677255386313
-13.3152940542149736
164.517104243738004
399.111492453664368
4.89169039678661122
5.44805429731642654
5.79508065895716662
6.00631959194495657
6.1879653058341928
6.54840185305482514
7.20176705567145437
8.34074961727288233
10.3656643236689181
13.3196192965258398
17.991917566423961
24.2745516916399815
17.5165175237643389
-30.55546815264222
146.281748897046555
365.644922984488858
1.71959033779963644
2.65325768155743624
3.61773934445796908
4.42914425542275936
5.1313463976789544
5.62474175434183721
5.92039056932925334
6.12089975613231108
6.50992637820480802
7.16177712474882799
8.27914142787568075
10.2888855202924105
13.1134858003435468
17.2222456198883016
23.4385058728335878
21.8763165109022744
-12.835166131626579
135.842847723768728
339.158429023003691
1.23636154643791318
2.07373479209338329
2.9972989560213108
3.89759267305905244
4.82807072278830596
5.55666762193771735
5.92894067684684067
6.112230038229578
6.50768248745400957
7.17653547395534819
8.31342776457836408
10.342097725248971
13.3922628496531466
16.9829120628706107
22.4941341666972896
25.4114802851546386
10.7171818075960346
130.616847314666984
318.541472776900719
-0.332903189060905103
0.153272210061130121
0.758175378621638529
1.51073853441610773
2.37921079104489985
3.37714721456914724
4.50766775744237513
5.46478501218409107
5.87289858224385508
6.09177977824042927
6.50394545652878975
7.0963636529518741
8.05381592021234738
9.91969781256303307
12.754822901347378
16.6968377941430859
24.2984364117585017
31.8376408400583557
29.7269018965891973
121.239579378593817
304.181102966974322
6.06026872836661568
6.38265877446835361
6.55003389838758121
6.65701967720593402
6.8314700324228923
7.5798906428536057
9.20710732944845489
11.898627214705142
15.5270931380135409
19.7498634583178259
24.8086357578764556
29.9458112185572958
29.84566655187853
36.8423073182439111
290.94406951902954
619.80528726280977
5.72342906593353007
6.07465594684324639
6.29413172384940101
6.46224291468666578
6.75297980277839915
7.36188945200077782
8.6257072298445614
10.7221988111935005
13.5316626919095295
16.5161228358793046
20.8304958625881085
27.5271302876763606
30.3124528004306484
36.1716287602197895
217.197565319743035
521.248607113744811
5.35792309301318337
5.79481424072581763
6.09081243623426083
6.35710504074994098
6.67574490273720045
7.25743378928615712
8.34106272237722912
10.1104223663326049
12.608883832775744
15.3637966627623861
18.817138740366353
23.8316824568034704
27.5302507093289464
26.1406930974085299
155.495190775594438
444.413198702001637
4.89748874339709417
5.48818938408557866
5.88858487067293268
6.24288484132483124
6.62841626927951033
7.25812088289492596
8.28966633475811321
9.94949600006844292
12.2113468775655321
15.0692640277900267
17.6470506313624185
20.6398803632045116
25.0982904793393509
17.3863448673255334
112.486943974426367
384.724571272336107
1.59837057361560397
2.51483966552466986
3.46546090719345923
4.30021849435327574
5.04378344232797104
5.60685557550336888
6.07011021410324147
6.50380242836664646
7.12200124716413629
8.07285683046662861
9.59894800264067527
11.6255520630611677
14.0839660189171401
15.9629226805562148
18.0394561350364455
23.7736320950985913
19.9829483097502134
96.6634433223950964
340.41591524962837
0.997984857634242051
1.88409788663516364
2.81727962190313308
3.72916679807052542
4.59522320517018557
5.35802233545402551
5.93711598438017329
6.39466937791567069
6.94182273959715701
7.7668821466209419
9.16290075920452374
11.1305804580280014
13.1106275294641073
14.9240311614834607
16.9313823769410909
22.9350001192160633
27.7627795442949719
107.895791858484472
312.173943659800443
-0.623738716470199739
-0.177707374971616705
0.487729500178591291
1.27780136646272346
2.22341875716614235
3.24358344649512231
4.29082432187099982
5.2519785696753214
5.91981920973027798
6.34130799472069562
6.80329866108456649
7.49207969768007942
8.57063768480909793
10.1771364424596094
12.1348646041707955
14.1828274150465372
16.648614963950596
23.5471270492053613
41.414177264797658
121.880325756540287
299.971122863043547
5.85848995835522768
6.09283195642574604
6.49283607840141919
7.22820437578614605
8.23512904512229582
10.0131842919438689
12.9099409396365026
15.2390786908173439
17.3577845814509288
18.645193018359528
23.8202437919048364
26.8620996999632879
23.5420563932668401
74.1658647771211434
266.438468852648384
688.761763745856001
5.5410492937422573
5.89709722854545593
6.25378611306508603
6.44785185039521913
6.83521307845840553
7.83367494839676048
9.42786237754502743
11.3754091941832876
13.9469729418155488
15.8161641996713591
18.9069898701347228
23.9814812072174526
29.6965521440525606
57.5109281451580472
182.163650175723546
525.08253240151339
5.27858947742153539
5.82028074311967103
6.13514928409305593
6.26970809201370471
6.47849439187371967
6.94503238887859453
7.86518008008198777
9.4490102978743522
11.5540138729235853
13.779437345133891
15.6638809447054541
20.6396772175928902
28.3003830723871168
45.2929401519305941
130.271344140694737
395.624128043074279
4.68476125460642123
5.54059168440310579
6.01722176413884391
6.19670416165714855
6.33075201539269816
6.74698867899331312
7.57464399330544591
8.95239637983262426
10.5701882063222428
12.9015480489931065
15.1024068487294549
18.0458118439950539
23.9026257498754333
35.3881844144072204
93.1209783208082627
302.722351272157994
0.71429652184353376
1.5853004771632655
2.69217716275959518
3.84863936136761353
4.78269274263031718
5.45011104711294081
5.82916072026050713
6.06247232531776881
6.50677883631574261
7.3813097026654404
8.82176258621149145
10.2732602678779834
12.5650597375747886
14.6187410032630112
16.3729931673327833
19.9749455577471693
27.7134788417002795
70.4404163134696546
243.655752590461816
0.323497917510912725
0.957633791415466007
1.91687657855854532
2.98818572811969219
4.12045771047482035
4.84810858751662721
5.4706293159704984
5.95911295337482727
6.41808780666985434
7.21366227757150469
8.36216790756934358
9.87958353741004203
12.326703877292001
14.8733077481542377
16.1731458435972684
17.2498207445027738
25.6721981958417125
76.7947195202786475
223.46426632744874
-0.867110143791826715
-0.579599838140387735
-0.0790703984603977617
0.654989612515707087
1.5806290891657202
2.66159114485308645
3.81745385182233576
4.75290990563061833
5.55025591708074817
6.15884016518021671
6.4088147082507918
6.88994145743934006
7.79952581718274551
9.25485122684959194
11.9755026965551039
14.7668252327319074
16.4102219724314509
16.5530586574454972
26.5753859603026683
96.6684124147491843
227.150513730378179
5.2869749367763994
4.80389216872525093
5.20434023250265998
4.76286745617467044
4.37341765840441621
5.10050087995713053
6.5173455779449494
7.64788129110916515
9.27664125523033256
15.460250414949698
27.9030253711565734
56.8937313507943543
111.033177604590563
225.851219637610086
488.702071015416323
803.989835434314159
4.38046767032547102
4.44832826028704975
5.0810942086386639
5.44726086024800527
5.53787604873971695
7.10449471903547547
8.50078876899600644
10.0194020965669459
12.6989297222734407
16.7645305739147119
24.4777699265023685
37.9482437588305075
72.509530517030754
164.700941394826089
358.748079352881859
610.912773751448185
4.16650445966146243
4.48954633702735606
5.94332091186156042
6.4773972736848533
7.82415692806607854
8.7252479806231662
9.59662209499015972
11.4156748487685391
14.2850785269889844
18.7868339220317964
24.5636500647864509
32.6011957000237373
51.6545989313172669
112.724023554164063
272.100128871814604
458.452728789290632
4.23826972181931794
5.39457380045680068
6.8315080866037512
7.90133257025774327
8.85457776091394066
9.31561846954746642
10.5310897770519389
12.686923280102107
15.9806705524123025
19.4006461725397372
23.0591253943856813
29.5593073268613118
40.083297963770562
78.8178246643480946
214.13390459673883
345.42507854069413
0.301927391198466566
1.09865423901979398
2.55880481142498262
4.01059325154915491
5.67284852857309119
6.66772754941237622
8.43734416305431267
9.68459435188594853
10.2914354306908464
11.6529555476312012
13.5811685951166581
15.5484139653671107
18.2553377450931791
22.4103368061403643
27.130176388206511
30.1426468549332576
59.035692534155217
163.152353903515916
266.693308806840378
0.244174383045250742
0.775963964946636331
1.71080691775078275
3.1792483409246568
4.71543496096878023
6.18160157735871962
9.24466476267004822
10.1804106956530163
10.5374300385143869
11.6503149599945388
13.1145579318790766
15.1148237207482552
17.7924170004511453
21.1963095598905618
23.8399225882346215
22.8795823215535776
47.7451243114801258
134.292811729179334
221.987503002830863
-1.00355458385931229
-0.838132229744377177
-0.307016129667353255
0.536235312374806927
1.53799729731194201
2.74810299926484891
4.29270959090934312
6.29730927988099509
9.16143945582994235
10.1485320939311379
10.4872753540982728
10.7090940097277922
12.1790772346224614
14.0920645410567857
16.5392351761465264
19.9062699180732032
21.1373665418713763
20.3554905554576102
39.1604540189023638
126.101871599336476
224.091677074906784
5.82685409984461167
6.52328077730099132
6.76306939646795691
6.6660046921398397
6.69446847666964828
6.94483671247439283
7.30258121188613796
7.72843621896436161
8.22298457387971027
8.82549203634864021
9.46275958474557299
9.59182868124903543
7.16837158222100967
0.442954807133673967
61.1311494729948208
4.78044217186946163
5.74219992032819082
6.43172913965749871
6.52837820442313088
6.36821594866391294
6.37862389543769837
6.64521821284298575
7.01411195648086228
7.44902088455664124
7.9727545354361169
8.64486203888155735
9.2656281006603507
8.78855755450927489
6.85232945187018494
3.62521486197061904
52.3030525515797535
4.58841010786411196
5.55753649714035447
5.9389014804477398
5.76854213873058086
5.73880737269221797
5.90613559918741071
6.24360029975017472
6.64407327068743836
7.11358639088967681
7.68269493815885429
8.41699252675925358
9.0361339792490103
8.08147804966678329
6.65474310966534865
7.00393010222097701
54.6025520650541694
4.3314715859004167
5.00124808470442339
4.78167806930964545
4.54890572660077641
4.86192648936319216
5.29377594534812967
5.73731010471107972
6.20286005786996597
6.7195751352660924
7.35072459577082249
8.16307361329108083
8.7347250121031621
7.60387002075270857
6.68010941069463549
8.33800730480737684
57.4312052765133103
1.43642747956927175
2.12930796306966297
3.03007751720944718
3.88187159490173972
3.97251781148557459
3.42250239819537905
3.42879131857992547
3.97396506365649937
4.60668178033645415
5.15510060431159367
5.70508379987094916
6.28530456407748161
6.9852723584865144
7.87096853657267292
8.42005396709274478
7.2039171667305677
6.61452225704819519
8.82100213318051374
59.5871611458608186
1.24256448554657206
1.90472294310427293
2.70388400592421529
3.238968237280476
2.86956384120270069
2.40584004321604406
2.64121060382847794
3.21852328389947129
3.92897853723044044
4.5598331190156971
5.18458445648852795
5.8363647503140017
6.60668399931611727
7.49741742359036323
8.02797273582176096
6.87474543075103384
6.57756521251180892
8.53225424904402985
62.8577000384436815
0.381094408579492505
0.620465260132405882
1.034267775026388
1.63736036337410962
2.2626662238310109
2.48762314925272987
1.97852157978420751
1.73778457865771596
2.06298990789795678
2.63930358450716751
3.33493595838537171
3.99851750032088704
4.67819479812328076
5.38827420803015578
6.2111802066888373
7.06652058515951342
7.50618730481607255
6.65393824534267697
6.64846899837515615
9.06979485646476746
68.7736698700502984
5.5122854682930047
6.14735834545669579
6.37423923497898581
6.3071220502890446
6.45836927007903405
6.82929973059774298
7.23517681593857542
7.67336357870360608
8.16146063148286416
8.7798806407345289
9.43913713906112584
8.76076372669668757
7.21877155010093308
7.86364765804907506
46.3926759013908168
4.38711428443181539
5.2420156559425175
5.771544842991152
5.78340154077615676
5.75735480859129645
6.01590594133172996
6.46823773048888651
6.90359140230044943
7.34496978230756348
7.84241416192029028
8.5260622635576091
9.21974647758534616
7.80443510112354843
6.49604921181357664
7.54658096015810997
28.2835573415892441
4.01015588260602751
4.77683284394917163
4.86513751638152225
4.63774741665494616
4.86252310791152365
5.41288658931680011
5.98698457647341264
6.48197868278485423
6.94461525446202455
7.475133000344095
8.23716651566594393
8.85143664065261859
6.91101514186835875
5.89404652600989643
7.2350877427724356
17.1586511951511511
3.55012730552024536
3.87849352589155094
3.44790308892785102
3.20356195650425413
3.7109412619711093
4.65983742122374878
5.3924886013721558
5.97454512975683194
6.48311506033334606
7.06871035808049886
7.92464337743855474
8.42824851862257063
6.23013175049622703
5.53301382084544358
6.49872512754879494
28.6884596650220374
1.23407282151159459
1.74120341723194483
2.3979286497060821
2.97266110704817077
2.67304709242835159
2.0407638281915812
2.04300048069473839
2.75622122530928904
3.90712182821371989
4.75097092443430391
5.41896166580361083
5.98664548799723306
6.63792042464964105
7.58674833239687718
8.06889945916203466
5.79116206870128103
5.26362280508712033
4.78028865831475969
41.8721095927007809
0.994767530702270086
1.45742629819015268
2.03655360702610144
2.28302660087051423
1.57557584694543618
1.17636707343273983
1.45638344984321089
2.19367796210804
3.29508688394323634
4.14474686920181323
4.87073397326567559
5.48995758461708583
6.19260932947763632
7.19504898317429742
7.67641452103948119
5.47756503094480696
5.18879889736604127
5.57674257895409653
49.7742476638429707
0.262625758327436731
0.467057604755966249
0.759225102062676349
1.19296765186945875
1.64026397721163786
1.54340420877376028
0.832784768313959312
0.792147646730599231
1.20373304683397286
1.88292760016071492
2.80967442648183319
3.62851966378008406
4.36507862362506138
5.01716439975130157
5.75097584167671627
6.68833943920025309
7.03217623951872461
5.27171392978770115
5.35515692665082277
6.58331678166587153
59.3203364209521169
5.00290808292154932
5.74065654877446274
6.26523700036150455
6.32719676976262146
6.14265225216322364
6.25780450155437507
6.70714655476754906
7.16514159560920749
7.63720198859336463
8.16637184931637172
8.93809827232081844
9.76832086083416939
8.38621949101560915
6.40261708021800757
5.76875820845909004
41.4612953680499459
4.63915565887741721
5.49283768196815991
5.86089993904345707
5.61993500314533367
5.41076157085504406
5.69483248267903619
6.252507554819144
6.77083088948357403
7.26042237717601324
7.80021884731599346
8.70779647896384823
9.66169576258059593
7.2511058098975596
5.61892061079292571
6.50724829386625458
34.7963135345244154
4.21377874299371413
5.01756222143010255
4.78220634335440486
4.26517579728997909
4.21838365370498636
4.85850010458515325
5.6152814800510189
6.26581696679294531
6.8072816578556683
7.39360181337658329
8.48152216669270409
9.23042625620302104
6.0066234215799339
4.83376770621767182
7.17791023446935128
32.2948567384853504
3.62254737706696694
3.93534109405957633
3.1048135777481658
2.4511572800083119
2.6229764640365687
3.73846450473149616
4.88205652573030413
5.71212262475174892
6.29750247615745007
6.9599309150719133
8.24189729749787325
8.59164258444827311
4.99424440828099581
4.07517513365113082
4.98836990061747088
32.0115283736595302
1.16407276761859269
1.69580317646019529
2.34113553175396127
2.89158762725914587
2.31684136568738985
1.45789819941970933
1.14255873708174782
1.5267155433388373
2.89676219614414165
4.22559069098419737
5.16901648589380436
5.77741139889491784
6.52940970392812492
7.96449011536573437
8.12562389962497278
4.53379934003306229
3.63454963157279032
2.78869480039438145
37.1994110587538671
0.841486383706586905
1.32402837553611419
1.86735832677484481
2.01001180270609225
0.921512406624463765
0.570009000823163525
0.722579057897792421
1.2213903589173416
2.46939441102261448
3.70513355761673902
4.6439200887282146
5.29458393253353687
6.13279821835819305
7.62475258860448868
7.88609127217060291
4.52671053923199196
3.43636243157893251
3.09733849880277035
49.672014600274224
0.0702421102801826791
0.268363926943492093
0.566700280202447004
0.991061993608301606
1.3730517605116499
1.02223356914535568
0.228795903348435914
0.301711404767186053
0.61113000583867505
1.16100852462103044
2.20011426181387426
3.28405137104119227
4.17835390584701383
4.86523826881377097
5.78301566954027457
7.18971471689776465
7.50617466093912622
4.55559780930970692
3.60740910854768071
5.35025418962453614
60.6857463193650801
5.66369907352311763
6.41883748386526598
6.79546335404683077
6.55318203343671968
6.08562734844132613
6.18836384653185956
6.67326130517249894
7.14461001429583398
7.62900651996120338
8.22101456874907299
9.27500856231758064
10.3998127065066939
8.92407426448500729
6.02877518039639249
4.50663081828926693
33.3285428110666544
5.46075944734899821
6.35108967039692907
6.61820277175301719
6.02574292327297467
5.38766034186277221
5.6239941515753813
6.22255239101511926
6.72514026746056004
7.18946997366560225
7.77024651202661332
9.06007488509912662
10.3153312109043505
6.93693272110964632
5.03852461101676141
4.58740401513747997
30.2788549315986302
5.16827584845615462
6.0973721585054772
5.87081129666184864
4.86206061103324849
4.19710186085429626
4.72346386995135337
5.47348549520952687
6.11686946047771585
6.65146446329877072
7.26422182663924865
8.84693454592478723
9.8711910048418563
4.95677709535971545
4.17734651975661819
5.17091298320536907
30.0105370732038637
4.65458542056514091
5.22608726772210908
4.29337193526075289
3.24037238801535921
2.6222739114500051
3.2987595227428983
4.40568918338340865
5.38443449999702572
6.07850928837026316
6.76259928850932379
8.62072998658546652
9.12760102370074833
3.68036165007733995
3.37087069026114339
3.69588295897489161
31.61039489049449
1.29145641154171176
2.07248676464944426
2.96463427748898267
3.81604123906668224
3.39545962987060257
2.42768701792828168
1.6179648463695635
1.2325146874966606
2.22372795683184332
3.70377977855783902
4.88864683605952965
5.5586097869886224
6.31826470925720685
8.42867392609826283
8.54677644689850524
3.34258381784718406
2.69334683650183759
1.53837857956037283
36.8591793297123331
0.921930339343441929
1.59811939594556351
2.32300001263192657
2.66910261916398461
1.33607554932042483
0.854731954738975119
0.582806638993346837
0.710194541877135599
1.84471251150696736
3.35010808587507025
4.54936536959701687
5.1141014377041154
5.97072483008361399
8.16269205155042776
8.32780246909126731
3.6287862743962922
2.69094207803677588
1.60774606165585965
45.4782723962098316
-0.0974905554066807234
0.180996165747286053
0.586617139569204138
1.13086816681508262
1.61937971142756698