/*--------------------------------*- C++ -*----------------------------------*\
| =========                 |                                                 |
| \\      /  F ield         | OpenFOAM: The Open Source CFD Toolbox           |
|  \\    /   O peration     | Version:  2206                                  |
|   \\  /    A nd           | Website:  www.openfoam.com                      |
|    \\/     M anipulation  |                                                 |
\*---------------------------------------------------------------------------*/
FoamFile
{
    version     2.0;
    format      ascii;
    arch        "LSB;label=32;scalar=64";
    class       volVectorField;
    location    "0.0899999999999999967";
    object      faceForces;
}
// * * * * * * * * * * * * * * * * * * * * * * * * * * * * * * * * * * * * * //

dimensions      [1 1 -2 0 0 0 0];

internalField   uniform (0 0 0);

boundaryField
{
    inlet
    {
        type            calculated;
        value           nonuniform List<vector> 0();
    }
    outlet
    {
        type            calculated;
        value           nonuniform List<vector> 0();
    }
    top
    {
        type            calculated;
        value           uniform (0 0 0);
    }
    bottom
    {
        type            calculated;
        value           nonuniform List<vector> 0();
    }
    left
    {
        type            calculated;
        value           uniform (0 0 0);
    }
    symmetry
    {
        type            symmetryPlane;
    }
    interface
    {
        type            calculated;
        value           nonuniform List<vector> 
67
(
(1.06879609518956757e-08 2.07538842076060567e-07 -0.00284050830936801021)
(-3.859897161225675e-08 -1.66602652090196437e-08 -0.00232148544225359689)
(-3.13670981437833965e-08 -1.17556290766495404e-08 -0.0023264170144691931)
(-2.58621276031183795e-08 -1.3166234293197952e-08 -0.00197205841861454933)
(-2.51760001702477758e-08 -1.32793345813523051e-08 -0.00194796143432675794)
(-2.64003729609062742e-08 -1.42311739703669885e-08 -0.00190788240579195956)
(-2.95455931573791332e-08 -1.33067269824057793e-08 -0.00185688024392180505)
(-2.36904683459165024e-08 -1.16116570500227449e-08 -0.0015068745881984117)
(-2.37012372459138124e-08 -1.19296740006997868e-08 -0.00149047893122305065)
(-2.22017101662738111e-08 -1.29311663596363938e-08 -0.00146349278873668907)
(-1.9541197123428178e-08 -1.263862895773574e-08 -0.00143070853698476367)
(0.000898901785512974671 -2.35542654422368957e-09 -1.3396798433762305e-09)
(0.000921752866282935001 -1.82519609190620486e-09 1.54077564065551163e-09)
(0.000953675832436509771 -1.39962277188183001e-09 4.1114370172552439e-09)
(0.000833347978696166009 1.04598102196074638e-09 7.40698908863333112e-10)
(0.000874083448776289025 2.17204824368033973e-09 2.06429038500889433e-09)
(0.0009244800831146858 2.40832123789834578e-09 3.71374179599423995e-09)
(0.000801376316651653486 3.36816134211907155e-09 2.03069445484009507e-09)
(0.000853168207120347309 4.69664798333286083e-09 3.03337684420390363e-09)
(0.000913886801900033068 5.06896101801418774e-09 3.95867590724916124e-09)
(0.000784484945346461925 4.91023509776234687e-09 2.4024774005075495e-09)
(0.000842078295221699203 6.30794648739353052e-09 3.03594967828041462e-09)
(0.00090944576780481142 6.71702758242772287e-09 3.6967720705180274e-09)
(0.000775087195244034306 5.91962458564127997e-09 2.23656507716802378e-09)
(0.000837557435657373733 7.49376674104647965e-09 2.69291469023382986e-09)
(0.000910643852084051038 7.93548681910447335e-09 3.00154936373341423e-09)
(0.000769834162386531253 6.62779645930547781e-09 1.93327959818488413e-09)
(0.000835995377389879514 8.2026536408247674e-09 2.36493626370866654e-09)
(0.000913827339353254242 8.31444141587483602e-09 2.34997651001944055e-09)
(0.00076645400525955816 7.43899808314088356e-09 1.61531331154735728e-09)
(0.000834951589535686879 9.1201386654319182e-09 2.33969622740158339e-09)
(0.000916260660010651613 8.89307116624622359e-09 2.6828333710175416e-09)
(0.000765490766052626245 8.72112326878414134e-09 7.27810818836775428e-10)
(0.00083779919926248083 1.11059338693691156e-08 1.07385255805555935e-09)
(0.000924608176653128914 1.17553143416290399e-08 1.02074120883063498e-09)
(-3.5562912036841113e-08 0.00549280992848449022 -2.51431767741020262e-08)
(-4.14649108155086033e-08 0.00557444630551503281 -1.59420946431337616e-08)
(-6.90942314739196992e-08 0.00555813157643646975 -2.38321346998935381e-08)
(-4.58255822695750071e-08 0.0058404362658065357 -1.33861475424456852e-08)
(-3.62395385027368949e-08 0.00635475381551565532 -9.97806643833763406e-09)
(-5.25402700410856633e-08 0.00688101488104882111 -1.31522976237976667e-08)
(-4.4233709659770957e-08 0.00740191628465793929 -3.90942630215239909e-09)
(5.41374114116246015e-09 0.00874505872159658804 -2.78750820771697699e-08)
(-5.45319457031586842e-08 0.00394027112216620897 7.93140093791929973e-09)
(-6.29146977909403383e-08 0.00365660698214502131 1.11506705756934095e-08)
(-6.82594776854461784e-08 0.0035746812372387006 1.52410258474425459e-08)
(-7.01566310580729054e-08 0.00364798324106064761 1.71483635144687959e-08)
(-7.05451371515009297e-08 0.00385391024245275741 1.84630553815420494e-08)
(-7.51768403628687036e-08 0.00412417586241053697 1.96551348869094148e-08)
(-8.97579493434857591e-08 0.0043790786569484607 3.58911624651313071e-08)
(-1.16434569532940724e-07 0.00527408536017681933 8.5268832557288536e-09)
(-2.73544806685890511e-08 0.00314732186411431983 1.2574982280898571e-08)
(-2.46554587216449645e-08 0.00302470646708170214 1.2096194798178691e-08)
(-2.46485663338441678e-08 0.00300797468245948959 1.20682108869563398e-08)
(-2.593396323190035e-08 0.00307115063556758156 1.02022825228592305e-08)
(-2.71314960097736146e-08 0.00320907707970495299 8.76958748145932491e-09)
(-3.18041422964186211e-08 0.00336185160724037811 1.38218093569224802e-08)
(-4.18802534436892711e-08 0.00344156240065372895 2.44516580345103388e-08)
(-6.83362133643717651e-08 0.00372086186814860878 3.6852407862772236e-09)
(-2.20803156366420509e-08 0.0024799775922006639 1.58492186405210855e-08)
(-2.26301969835511079e-08 0.00246346954304422355 1.35044275056402984e-08)
(-2.33014147663515446e-08 0.00248552697591959562 1.16387286081674213e-08)
(-2.46875426750136106e-08 0.00253546127813006035 9.78001938669560399e-09)
(-2.61706344737608293e-08 0.00261133846058254427 8.63071412446892848e-09)
(-2.75806114012140687e-08 0.00269789457336199303 1.01557975340696107e-08)
(-3.34930524068067545e-08 0.00277981709404200418 1.6762933036061552e-08)
(-4.3862411542791373e-08 0.00297611441635736154 1.67863161732315793e-09)
)
;
    }
    procBoundary1to0
    {
        type            processor;
        value           uniform (0 0 0);
    }
    procBoundary1to2
    {
        type            processor;
        value           uniform (0 0 0);
    }
    procBoundary1to3
    {
        type            processor;
        value           uniform (0 0 0);
    }
}


// ************************************************************************* //
