/*--------------------------------*- C++ -*----------------------------------*\
| =========                 |                                                 |
| \\      /  F ield         | OpenFOAM: The Open Source CFD Toolbox           |
|  \\    /   O peration     | Version:  2206                                  |
|   \\  /    A nd           | Website:  www.openfoam.com                      |
|    \\/     M anipulation  |                                                 |
\*---------------------------------------------------------------------------*/
FoamFile
{
    version     2.0;
    format      ascii;
    arch        "LSB;label=32;scalar=64";
    class       volScalarField;
    location    "0.0899999999999999967";
    object      p;
}
// * * * * * * * * * * * * * * * * * * * * * * * * * * * * * * * * * * * * * //

dimensions      [1 -1 -2 0 0 0 0];

internalField   nonuniform List<scalar> 
7248
(
1.38734963567139147
-1.54278455932943359
0.037328033624739021
-0.772583854748400967
-15.0712109510422465
-6.32955490969305146
-3.26689587256929315
-1.07179231262390218
0.265215000380049304
-23.8524859278535359
-9.60214711077576055
-5.82273637514768616
-4.68198208506481794
-1.56598053520379032
-2.49370379614181559
-8.21661230468469128
-7.62291286891281406
-6.48698386715958986
-4.2090393778697166
-6.99461411316457937
-7.33348582718932285
-7.2257158330342186
-6.61688995327281937
-5.06887498847760654
-6.57974445294929211
-6.59140210929340231
-6.36881595731061889
-6.0446086102564438
-5.21771901829732432
-5.84331919829097846
-5.85349267540314955
-5.72714121181403346
-5.46510229327286101
-5.06519840995473203
-5.88281607596842537
-5.77782819365027667
-5.62075863299935552
-5.40974754290004078
-5.1775723357249408
-5.99294443216823147
-5.91242195475242305
-5.79973698489820055
-5.65851755698694614
-5.52020766338687618
-6.20981950207903122
-6.1456486591107824
-6.06680174098217417
-5.97894018066942134
-5.89464573911141088
-6.47357821232006359
-6.42556806562930483
-6.37054233933310776
-6.31267918024603158
-6.25811424876761002
-6.81837324882547424
-6.79375727317746492
-6.76349725135580737
-6.72852406473535503
-6.69037388793917831
-6.65149142777458469
-6.61485342027360268
-7.10939740778320761
-7.09042267447592067
-7.06825916100407525
-7.04371437061255357
-7.01791032694413897
-6.99225276837054111
-6.96820173901390572
-7.41106705375655572
-7.39733706081592146
-7.38218479265672656
-7.36618694714485311
-7.35003895866370449
-7.33449718673101714
-7.3202446005294286
-7.71956070427851948
-7.71070188470149542
-7.70179492438246438
-7.69319493324104631
-7.68525904595775344
-7.67829044932040095
-7.67248211003753156
0.917268689977760232
-0.884291436414841314
-1.69073276181827481
-2.05204302313187092
-10.0201590362208321
-6.12223903202731634
-3.98012862371244402
-2.28910996072749739
-2.41735653774328263
-16.4296907469981761
-7.8958323297752715
-6.18414134801384741
-4.89140545704524232
-3.33537981565195452
-2.86474023626817598
-7.67610736223209855
-7.44950213093716407
-6.7253654780710459
-4.51487054120964437
-8.1691265375850417
-7.88414247402080459
-7.34700432652203173
-6.63344404060107617
-4.90593191852151289
-6.99511178793502797
-6.77745403500782917
-6.42808653253334938
-5.89733960518666844
-4.84350845920182138
-5.8870125291728117
-5.82907152952678942
-5.61654195181315785
-5.25967238428499684
-4.76845006900192736
-5.86691921702667329
-5.73414071616137555
-5.52978564913367965
-5.27289816977384618
-5.01105859672769505
-5.97924762104676866
-5.88639655979764687
-5.75311313027469939
-5.59093385495483908
-5.44111823436145237
-6.2011008077544556
-6.13152603313209088
-6.04509248759965612
-5.94964563605827657
-5.8611443652249644
-6.46760703964756622
-6.4172080451145046
-6.35917574180879885
-6.29859347811903003
-6.24248755291286805
-6.75956606456974729
-6.72347437970863115
-6.68400513538228758
-6.64392985146799742
-6.60655495476977794
-7.06570726995292642
-7.04063014540131071
-7.01422927752032432
-6.98803467130282119
-6.96363385103843502
-7.38068551775720216
-7.36444759704490348
-7.34805296720170897
-7.33229609836513241
-7.31789776843269646
-7.70114087885280707
-7.69249674780890302
-7.68453035090459657
-7.67754653229053829
-7.67173815798185021
1.38076327728298232
0.661384268250188256
-3.18310684784726572
-2.71665900657520432
-3.40250112650022629
-5.52809209214252117
-5.71682319239909997
-5.3130936186313189
-4.97737172471816436
-6.9986947648570208
-6.37050596719776241
-7.02059894201540935
-6.65866380426547444
-5.85236772674745787
-5.22219718634406149
-6.76451667260255185
-7.37718028792762492
-7.40874379652496096
-5.64197685019900508
-9.13570171289090283
-8.25489600794709943
-7.5870745994645663
-6.83271444478196965
-5.13826657337025949
-6.92700143085472408
-6.58246583860465506
-6.14891373465592039
-5.6527526098290739
-4.71096967019260582
-5.89149668605123722
-5.72252178754502694
-5.45633590426114878
-5.09396213403419296
-4.60514869440806951
-5.84011948374656864
-5.68257477272019695
-5.46110146472315261
-5.18896994697655245
-4.92630275334038714
-5.96301470501333064
-5.86370616588457771
-5.72239120466088824
-5.55557371785255771
-5.40256371175989347
-6.19381677148289356
-6.12163197757033828
-6.0318808343163397
-5.93325534350399586
-5.84275567395924611
-6.46293731920702008
-6.41155290677878398
-6.35202895656185973
-6.28990292477537061
-6.2327396092531826
-6.7563301042193995
-6.71976171908278452
-6.6796034567335818
-6.63879678222240877
-6.60085468558570732
-7.06350383064075604
-7.03819199381408911
-7.01147057634428172
-6.9849370141631848
-6.96027210033248611
-7.37935189681452464
-7.363011437080897
-7.34648680166786683
-7.33059679619680704
-7.31608851971957819
-7.7005635863622679
-7.69191230623928757
-7.68394546114990629
-7.67696388049631917
-7.67116078406450974
2.88135136949892434
1.20463511203449514
-3.01645488222753411
-2.48742173037252279
-3.62352958592401819
-5.62159796600589523
-6.20816641905225186
-6.67932730027250532
-5.88037382808333042
-7.00335067218588847
-6.19633789077462005
-7.27653142482007276
-8.40508671237465066
-7.70779291669583699
-8.06828151964288054
-6.78619541493196365
-7.34884203900505817
-8.17835265932473021
-6.72814793724301374
-9.02110497433940139
-8.49945936496253474
-8.17934524554778619
-7.65919950552614903
-5.81837448734287044
-6.56318507293297948
-6.59728074021435873
-6.46986040338065393
-5.94027755105689703
-4.93497465656261269
-5.81378940956797585
-5.77458227707554883
-5.54631779338815356
-5.16070537716507527
-4.65997227214620402
-5.79932700446035376
-5.67682176620799517
-5.46338635901274117
-5.19541298043670174
-4.93715902382040817
-5.96262412400243047
-5.87305574964460231
-5.73032812117700097
-5.56188642190309679
-5.4082710845922275
-6.19166472770362653
-6.1219385172250611
-6.03296913444704863
-5.93370777698896124
-5.84219255451153074
-6.46092144921626677
-6.41020967915783135
-6.35071206764101603
-6.28803900235498503
-6.23011020852004016
-6.75431647814249025
-6.71792302568628141
-6.67770873615008487
-6.636616850560352
-6.59823913179717891
-7.06187753059265066
-7.03661893710501829
-7.00984834490704056
-6.98316560370078854
-6.95830629979248272
-7.37829411510495436
-7.36197461713678702
-7.34542902966877254
-7.32948163515711926
-7.31489354650468915
-7.70008803962939226
-7.69146651921892044
-7.68352665006446944
-7.67656296952373296
-7.67076853995196739
5.46679025091912685
2.03422941471050578
-2.27140319602214946
-2.10445971466046888
-4.72712802355829353
-5.45274182678414832
-5.77735160374440238
-6.14095178685480114
-5.62659617928126021
-7.31921449592789486
-6.42242196692870415
-7.13637984514202373
-8.39180194960165871
-8.47709958260630358
-6.6689354172996218
-6.70460306202955003
-7.24883197300332505
-8.23583896831242868
-7.57302494157669503
-7.06223936501538496
-6.96967046981381255
-7.70306472030963274
-7.85057559120005788
-6.62341679555397533
-6.23119681949505022
-6.15667302332411381
-6.12123653131078349
-6.02270288341560001
-5.31706716486945297
-5.93349683670340244
-5.89493947458094425
-5.70207994137849727
-5.33254997435362732
-4.84674731593706642
-5.82671854284940238
-5.72961686159412231
-5.54718297450359987
-5.30444896832943602
-5.04626876210881203
-5.97061026657972516
-5.89360030991267259
-5.76837104343924967
-5.6091835870306479
-5.45457177334168453
-6.19454102517578686
-6.12951429433979467
-6.04483274570333684
-5.94787904941713652
-5.85624566953951575
-6.46102619553085766
-6.41200717867163839
-6.35397369746535556
-6.29183230111158043
-6.23339528924492026
-6.75338447270575148
-6.71767264603648151
-6.67792411676993591
-6.63694116655098831
-6.59825708569316749
-7.06082866577127355
-7.03583992626736787
-7.00922973244775349
-6.98256105976579811
-6.95757039743224137
-7.37753457041041472
-7.36132625098469084
-7.34484236866639773
-7.32890041171842554
-7.31426682357885571
-7.69972024905902153
-7.69115624429506362
-7.68326328779055778
-7.67632891118196703
-7.67054540776385263
8.94642739651550656
3.01907763242962801
-1.3797363974728909
-1.72160475471894259
-4.61155705923698633
-5.05775585301295205
-5.25574575724726945
-5.61990029744064223
-5.11699160190378421
-12.4123611399743368
-6.70492185454826561
-6.81806103686489084
-8.06929054668260903
-7.95387488840449386
-2.98883908184072311
-6.09269918078891237
-6.82559899018737681
-8.13884923791577819
-8.37648012571857059
-6.64566440702079486
-6.73714252718912388
-6.96570284831504161
-7.22848736635296341
-6.88366706575519327
-6.20670529993298015
-6.22563501339151326
-6.10854519243658345
-5.80030493134532144
-5.26355522919439789
-5.95865493408755142
-5.92798921473259988
-5.73389720064220665
-5.35819846182258797
-4.9383420034645944
-5.89031041214127526
-5.78725515288635162
-5.6116537969790441
-5.38302088466459416
-5.1425827018691761
-5.99483454029242147
-5.91556397494071451
-5.79839071096557213
-5.65378922661639916
-5.50190083268666363
-6.20222572064754551
-6.13918701759700181
-6.05851781535498191
-5.96575091309633354
-5.8743928411270776
-6.4629683280789223
-6.41507325130827333
-6.35874969906341292
-6.2980280986411934
-6.23939091005998936
-6.75318090237297941
-6.71816276036192672
-6.67913222675427498
-6.63860208656971018
-6.59988358639189698
-7.0602367870125784
-7.03557051387341126
-7.00922054655930893
-6.98268998847819411
-6.95764767569193054
-7.37703634233651329
-7.36096982159947899
-7.34459119586600107
-7.32869815914935252
-7.31405231455444049
-7.6994537220782
-7.69095789087694826
-7.68311944294086313
-7.67621964281198377
-7.67044901384963751
14.1239413810159373
6.67226044041078836
0.749003613205963426
0.359140822803379223
-4.92560155222361118
-4.91854237107300829
-4.91871567735150261
-4.90890578785470488
-2.59577631999500902
-9.13572750078265017
-7.27857618131513373
-7.14094170021982144
-7.80889288485882638
-7.08553462843325477
-4.82312310270926048
-6.83480442996432025
-7.20509312999739304
-7.96166141058933974
-8.27640679497636533
-6.6317153619294702
-7.05116285486093108
-6.7970511786773713
-6.68326437624082104
-6.56222155061175894
-6.37611197490568848
-6.57628894135347508
-6.20311415825299939
-5.6012388119446932
-5.129429678292869
-6.21092352473074527
-6.19608831424217499
-5.82017327949426377
-5.31879154670888976
-4.9756873141669935
-6.01268292597132081
-5.90792449659220864
-5.64704849346582183
-5.40784487290721039
-5.19312423985491733
-6.02404529965390356
-5.94508919687882731
-5.81410628613388614
-5.67594819049871813
-5.53321505922278778
-6.20824074383319768
-6.1465488249103517
-6.06710494132778777
-5.9780909843802803
-5.88759275890467393
-6.46394137586292672
-6.41719538270751322
-6.36234482709269411
-6.30298776612576628
-6.24452465206294693
-6.75290972498774167
-6.71853055653181386
-6.68025256288727132
-6.64025627638673299
-6.60160586778321878
-7.05987809865045612
-7.03547307657968091
-7.00940263971759947
-6.98305488599322999
-6.95801953520768279
-7.376735852311743
-7.36079076949587385
-7.34451778219615203
-7.32868777816209072
-7.31404637688630554
-7.69927920366411644
-7.69084155565734218
-7.68305136103369257
-7.67618362293753709
-7.6704242914475147
19.3209547308660738
12.0926311569781859
4.3916543553412275
5.16107420789907323
-11.4530727462131381
-4.96107784754713421
-3.69830761069608016
-2.87179518654608845
0.248293034317172534
-18.4221227536319248
-8.72329179563598345
-6.53913964189675134
-6.28981452901202243
-6.19026147434556862
-5.01489166041823964
-6.43837957266926608
-6.21337259642675299
-6.66555273241812873
-7.61394387540261341
-5.91354542639206571
-6.11301486586724607
-5.82374339645663675
-5.88355776346222115
-5.9872907214004627
-6.1587865796116299
-6.07345221085752307
-5.55444543290286408
-5.18227027864479961
-4.92193306178452428
-5.93810580225074869
-5.79719376321883306
-5.48781996005797978
-5.18223484916253785
-4.93931117039808232
-5.82669261785114667
-5.80004805932377376
-5.63524008565699308
-5.38862531710937365
-5.21695938314735486
-5.98019361789323689
-5.94144574414501747
-5.81801616822878387
-5.68129082884116521
-5.54965925301411822
-6.19995334226251149
-6.14467037340427602
-6.06874380935035873
-5.98342695430879079
-5.89669773817523168
-6.46249250944436504
-6.41766660404796241
-6.36423806129207303
-6.30590206545705012
-6.24829264784278227
-6.7524035180226889
-6.71851554839359455
-6.68088385597765555
-6.64136699737191272
-6.60295357562254637
-7.05962665014668023
-7.03540614814754761
-7.00955234656953596
-6.98336239741102638
-6.95840212873395725
-7.3765890553341471
-7.36071932690861352
-7.34451362885506231
-7.3287305928367612
-7.31410178303332259
-7.69919115601286386
-7.69078803648877418
-7.68302672390967878
-7.67617858276581178
-7.67042614342319773
-1.09248598781692841
-0.996458814389378222
-2.15099319296050151
-1.82836206401835288
-14.0560407105726313
-3.64063330456856349
-2.79880073577464694
-2.90500716920227209
-2.72548017994253033
-16.1712784416082513
-5.26021125369985398
-3.09598048903418777
-3.40092514087847109
-3.50111921114212921
-2.98625438418050493
-5.37431731527929202
-5.28994351485641978
-4.83776569657781153
-4.47879765234250105
-5.93966693499335818
-5.84232220639748423
-6.03548646706869896
-5.89964165269661045
-5.35699157208256516
-6.16728952444105794
-6.00279781467933837
-5.85224868640949936
-5.66440677212583044
-5.3589128768099723
-5.8071883812129732
-5.75831796143637042
-5.68247634255196754
-5.52717373687898572
-5.33802198524204741
-5.81955703699605653
-5.80831256348484892
-5.74692318053683771
-5.64308276349901128
-5.51359627271747144
-5.96074250550791973
-5.95281711454919638
-5.90822248396484273
-5.83983625422756436
-5.75753667898430788
-6.19771066960864037
-6.18099241142109879
-6.14468461765551321
-6.094809753819173
-6.03801001318553077
-6.47360926432962192
-6.45323484684566306
-6.42268789025264653
-6.38528656161500763
-6.34443594921138931
-6.79673938223779395
-6.78427065645629401
-6.76889424206099743
-6.74885135863995345
-6.7241435079126104
-6.69607210828754518
-6.66673259878996749
-7.10339334773123365
-7.08987989578014144
-7.0748826849251758
-7.05787007262040689
-7.03896784968760247
-7.01876343500390654
-6.99842215775776921
-7.41086694395798684
-7.39957835076152204
-7.38763654142111559
-7.37503408334760824
-7.36198274658515661
-7.34884607914233623
-7.33617236306618636
-7.72085092811684692
-7.71294281883863686
-7.70499966552858062
-7.69726014319340912
-7.68998427808181262
-7.68340265645597142
-7.67772544491059339
-0.990326432283240132
-0.90820103075874492
-2.16227322585702586
-1.86986008484282107
-11.1112416503102622
-3.41977555331516925
-2.77033866006848895
-2.84911176972076374
-2.78072780265476682
-21.8240067468270809
-6.83829082895758944
-3.47751895915080667
-3.47010767536315479
-3.47322494106215141
-0.575019530099382337
-5.58276636720254515
-5.93411180784231362
-5.17048257513123488
-4.45117023200795714
-5.77110328046262122
-5.86067462462388278
-6.20299607128098707
-6.19234141382749925
-5.51473332838302355
-6.05888839534720525
-5.99116015299762772
-5.91141869401929565
-5.7334475380649339
-5.43877610293394032
-5.81891013377572541
-5.77627111701559848
-5.70971992016559859
-5.56271726356031415
-5.37960931828022737
-5.82955041714792621
-5.81160346751203782
-5.75125693195247933
-5.64940502806952694
-5.51741391936854431
-5.97037608978645995
-5.95453138295351714
-5.90844698465409124
-5.8388369467623118
-5.75509507010669275
-6.20258328449760743
-6.18179065040119813
-6.14373150306942151
-6.09290334246782272
-6.03534763438488042
-6.47591443407512912
-6.45326954798264385
-6.42168038777421124
-6.38359491585315553
-6.34227608200818871
-6.79966217608776624
-6.78632534190152104
-6.7697256923464364
-6.74863112147370892
-6.72324767830497816
-6.69482239635212029
-6.66517091097426917
-7.10446534110700689
-7.09056330752440189
-7.07506719903396064
-7.05758418922481656
-7.03832260708561197
-7.01795803250051975
-6.99744759971832053
-7.41118088484026494
-7.39973211299602873
-7.38759024780480278
-7.37478555571072292
-7.36156811599000171
-7.34835262923666654
-7.3356274986622596
-7.72089075627429366
-7.71292028422992004
-7.70491455583925955
-7.69711713017144472
-7.68979763491427537
-7.68320640639488683
-7.67753616172642062
-0.891634847479740866
-0.785296794716249025
-2.07767270447179619
-1.87551299203365152
-9.65540260053569455
-3.8951015336602417
-2.84924862169052284
-2.93212909013851997
-2.85941007849533646
-16.2124927106593759
-7.01685919895497356
-4.02193353656440866
-3.72718100781794748
-3.61965028468773564
-2.75962503147054861
-6.59881980425994286
-6.23424405793680414
-5.33401808712650904
-4.48201747128422134
-5.69965973560941119
-5.92997293567362416
-6.2786923189002195
-6.2031570729466825
-5.43578620885063746
-6.00220465860043539
-5.945991470589016
-5.89224822782177604
-5.75923241830478361
-5.48776516936751957
-5.7890544750798334
-5.76982112387443369
-5.71874226945724384
-5.61133332346446068
-5.43791482795651238
-5.83152622212751393
-5.80491454104730931
-5.74981632077032767
-5.65615155370649347
-5.52488994096348573
-5.97959689974412534
-5.95392927678850015
-5.90485049391579064
-5.83475381506018209
-5.74995756465686458
-6.20932781674271972
-6.18239933051364865
-6.14114106747187272
-6.08844023428794667
-6.02957727869398497
-6.47942640580155338
-6.45341099271860408
-6.41966441167537472
-6.38009012849784973
-6.33779344224452856
-6.80500730189013137
-6.78977589242746227
-6.7711526549758112
-6.74834431561286596
-6.72167467889662795
-6.69234480644077845
-6.66207872838745629
-7.10641035164596158
-7.09178871905536745
-7.0754344506618585
-7.05713275505645488
-7.03719815049275521
-7.01635108824380538
-6.9955088699023209
-7.4117657061617761
-7.400035054661255
-7.38753898747503079
-7.37437896306851925
-7.36085813445226389
-7.34742418394410723
-7.33455576277267962
-7.7209595453404809
-7.71288033501462245
-7.70476661729920398
-7.69687411842099323
-7.68948339330033015
-7.68285244752649099
-7.67716763219993137
-0.46686663979927534
-0.525789586612527504
-1.92490541793007042
-1.61330274729358525
-13.0938241107465956
-4.29558965698666384
-2.76427335163295318
-2.95913200937943888
-2.70037727542836059
-18.20210522017328
-8.04310802776625344
-4.66570830927169755
-4.03380691146301462
-3.57381038263640471
-2.64685442231576928
-6.24804460472433298
-6.23306025792021501
-5.63678030863040291
-4.77413548582948088
-5.68983062831365149
-5.8607443924476712
-6.15357113522182964
-6.1259547266664951
-5.66378678882872322
-5.96322900759883989
-5.92547267293587865
-5.86629527191246058
-5.77275396077154745
-5.59872952238795563
-5.75474838644181297
-5.74478645424192091
-5.71686882695503673
-5.62999292263991968
-5.46956494047177433
-5.8209688116579823
-5.79458785555086386
-5.74392922736408362
-5.65473787899874214
-5.5231092986355792
-5.98414185640981078
-5.95063665465734193
-5.89898927460444256
-5.82664547892441842
-5.73917825352141797
-6.21456269842541342
-6.18147006562546331
-6.13635493211687777
-6.08072011803298107
-6.01970215306594003
-6.48259430596152431
-6.45274355387309129
-6.41618954758259541
-6.37448462210573918
-6.33073302636319291
-6.81098535778195568
-6.79344586115492177
-6.7724147049800969
-6.74750254848151076
-6.71914431800584477
-6.68853430899443868
-6.65739569533722353
-7.10862281238679028
-7.09309422697660441
-7.07565453034772673
-7.05630009622768206
-7.03546592009598992
-7.01392628604856316
-6.99261540464629938
-7.41240747564672109
-7.40031314893453551
-7.38735677546152569
-7.37372959242644122
-7.35979997886499948
-7.34605207379527325
-7.33297515781623677
-7.72100290504237208
-7.71278473126918662
-7.70453068303655808
-7.69651470224826539
-7.68902981171591904
-7.68234040312153077
-7.67663067078195205
-0.0126371037986396928
-0.209853341549012917
-1.22323869545120534
-0.686878835297664914
-16.5914728111712293
-6.71295638704588526
-3.43242004366603126
-2.34854013335863243
-1.66114007860468327
-18.6210654723327593
-10.075506989770771
-5.66239397830453584
-4.14848271123810353
-3.26920223885722372
-2.5699412698556614
-5.90983024022834336
-6.41007367901717728
-5.9473684634807622
-5.04984954574549771
-5.71301201238398182
-5.94581994666459757
-6.3098953436438574
-6.4020818522530174
-5.82942482562800635
-5.87274411834304733
-5.94670908535399079
-5.97735341554269795
-5.947164292089127
-5.67506508159560941
-5.67886693884388727
-5.71863635463086517
-5.70161063695198855
-5.60795708559912498
-5.43115464458039376
-5.80447130242646203
-5.78199665363661186
-5.72876773231838055
-5.62655429694464981
-5.48937350619902364
-5.9846032966308389
-5.94428451635804755
-5.88764415734739988
-5.80903527352656113
-5.71683470534723437
-6.21750257011075025
-6.17824144238586737
-6.12837107775223
-6.06858233875085062
-6.0047538750773759
-6.48446093075852481
-6.45064202126331399
-6.41077483424864969
-6.36642824894710824
-6.32089159285627744
-6.81601559033786764
-6.79633953282748671
-6.77289412345803665
-6.74573594378065877
-6.71545337047063473
-6.68330691829396706
-6.6511127014015532
-7.11046863516282723
-7.09401744073835872
-7.07542455959759309
-7.05491045285794893
-7.03304427525186604
-7.0106817367005716
-6.98881043067607077
-7.41287504680036413
-7.40038732124646792
-7.38692427452220191
-7.37277177543846296
-7.3583704993167327
-7.34425031552054719
-7.33092496339186894
-7.7209580395907782
-7.71259049564421328
-7.70418290202433464
-7.69602986698983393
-7.68843876483766575
-7.68168146550830233
-7.67594243581862035
-0.154455579177694702
-0.625325334824134771
-0.931975830802880267
-0.278349042728921248
-16.4198986763393577
-7.40362913491899377
-3.33244360720812693
-1.7045947984658536
-0.818628932904911899
-23.3118950977190025
-10.2521474986816745
-5.59357330846227363
-3.99756333325009239
-3.16423090028471465
0.737043773524192147
-5.48868605880404026
-6.70594227038186119
-6.14268904593162901
-5.07737902389346019
-5.91547634462403593
-6.19527701759332672
-6.51519165693766933
-6.48592779292935617
-5.80195726385926669
-5.88442466517912521
-6.10338664441244916
-6.0763841383513979
-5.88535797965052243
-5.53637626391441184
-5.66048979064490965
-5.70561107449267801
-5.69098149301501799
-5.56143966446519045
-5.35051787919672162
-5.79698031645315481
-5.77980172664449654
-5.71429974403689744
-5.59190673490414092
-5.44323987983059965
-5.98685042113379762
-5.94027348402091615
-5.87438344966016412
-5.78561888165827032
-5.68715873385926596
-6.21873747663581877
-6.17364190974528348
-6.11804454261829811
-6.05292848671650052
-5.98527779805228732
-6.48447537015775666
-6.4469034960309175
-6.40346167348762219
-6.35605099789891259
-6.30841675787587253
-6.81929897353720271
-6.79784079857406276
-6.77224297230258099
-6.74287925392403498
-6.71054871379043316
-6.67670795027308461
-6.64334782094486886
-7.1115427917578522
-7.09425198479988861
-7.07455413425048629
-7.05287165263715909
-7.02992355451536621
-7.00667610139859409
-6.98420308578329152
-7.41300360103483946
-7.40013548179841862
-7.38616727362084813
-7.37147780928351182
-7.35658314178357386
-7.34206749996008057
-7.32847990965556484
-7.72078515052394199
-7.7122733349682564
-7.70371376673265651
-7.69542341640822602
-7.68772520117608416
-7.68089967028781828
-7.67513322900247275
0.0158503695608951389
-1.22251078215805098
-0.578631949553511049
-0.582424863260047054
-16.8627016114695039
-6.62382583178799322
-2.22076657801933663
-1.17534049210037317
-0.0612774867731040729
-15.6500964425686675
-9.58499749145254931
-5.33411018644895307
-3.77517291241016117
-2.55776916127312504
-5.60629715929208849
-7.3321573433634839
-7.2501188025811798
-6.13030792043469752
-4.86505375000054663
-6.34299449290515316
-6.75087747880361455
-6.79369455716551851
-6.45229243046338752
-5.68700525323875983
-6.08678111207202299
-6.29050656934595231
-6.23550793425338234
-5.98924393702962909
-5.50851956247578656
-5.73182556586277947
-5.78006962202063423
-5.74940424767873459
-5.58749350501330344
-5.31743228965124271
-5.84562031962099926
-5.80039090475464381
-5.71358840979806271
-5.57241205974996934
-5.40053606604305525
-5.99754685767628892
-5.93993122226189296
-5.86131694669871983
-5.7601643274882468
-5.65020692915323597
-6.21943173993226583
-6.16789821267331817
-6.10520446377989945
-6.03358337755923557
-5.96075127235640601
-6.48284016559895448
-6.44145851960699911
-6.3941675378705316
-6.34336102213795971
-6.2932967620191258
-6.82061080259392138
-6.79780249606740039
-6.77036216566269999
-6.73889530926413816
-6.70448816795232805
-6.66888024998812146
-6.63431933313953515
-7.11168031800651068
-7.09367886130673586
-7.07298579084618861
-7.05019862467008451
-7.02618798707131553
-7.00205629303227717
-6.97899072805458687
-7.41272392145687142
-7.39951013532934887
-7.38507390494150862
-7.36987527459225422
-7.35450306786851016
-7.33960113178964146
-7.32576112599294227
-7.7204751144680035
-7.71183227848607267
-7.70313408744784311
-7.69471763912879325
-7.68692134936545912
-7.68003480121604643
-7.67424698950594486
1.19204707617209138
-0.651578782001625001
0.320812720088920145
-0.0865791700071731896
-18.6258092966842241
-6.6893176345835208
-2.36427893177204673
-0.651146868268901002
1.13379951634319909
-25.105076641022265
-10.2795571250764937
-5.07980489538094382
-3.68239647492470379
-1.57491152212485019
-5.23390410150914676
-7.22995761537286707
-7.22369462629666437
-6.25733179634682291
-4.45025319545674503
-6.49483088850787826
-6.88148799660788058
-6.94762311680638511
-6.57205760204804434
-5.56085649831504369
-6.24298738824708099
-6.48753828800430732
-6.36480762099009922
-6.08243199806224588
-5.48919856092909164
-5.80226426149024821
-5.83335225354619169
-5.77784548890049621
-5.5808064707119982
-5.27042352388294955
-5.87330065842983107
-5.80607906128091411
-5.68635789204469866
-5.51985907323731073
-5.32613385304523579
-6.00077369306926034
-5.93182873851901338
-5.83766694742385894
-5.71991519636146517
-5.59753028036640998
-6.21656277997333007
-6.15892998420162385
-6.08836839571443811
-6.00916589881425001
-5.9304826834169333
-6.47906971985930191
-6.43421368783882031
-6.38298759423431594
-6.32860288109425273
-6.27611820001327736
-6.82016705445308613
-6.79632541901105647
-6.76731906122819815
-6.73395448537552532
-6.69756357461533991
-6.66022664563268485
-6.62454035478849868
-7.11089779976171332
-7.09232978634153088
-7.07080479789045491
-7.04704573838648152
-7.02206059312536368
-6.99710607409381957
-6.97350412577054346
-7.41204794775042775
-7.3985409328116134
-7.38370416251103379
-7.36805921203876935
-7.35225924273329134
-7.3370082329746964
-7.32294357839404064
-7.72005179271744968
-7.71129281740863259
-7.70247665081283728
-7.69395499845394948
-7.6860777623938823
-7.67914269774674452
-7.6733410665573869
0.132563495170605172
-0.0451092772226044936
-0.161204161369462362
-0.30924712038858404
-0.331052889913744597
-0.395813084474601951
-0.520779836462248458
-0.585427589725134201
-0.598818620560369386
-0.626057948251769192
-0.719399930723697567
0.22278124836942137
0.0391665682554656058
-0.0924053414229004666
-0.242964605570733738
-0.271017905670983605
-0.346242761211897676
-0.479048577851395985
-0.48764271565381434
-0.518165426533699902
-0.576519939976248175
-0.694925893103639947
0.445096214412186608
0.211592212195600649
0.101295017050791358
-0.0971521482543571402
-0.0535584486252709269
-0.176906068634235414
-0.365100813576972882
-0.215858975673200781
-0.311747093359270533
-0.419686864167961193
-0.603906484832030799
0.453061156553081545
0.113094414631659035
0.151312365277684435
-0.148585626593781939
-0.0063336998765226582
-0.114360909089783469
-0.415335626980601447
-0.165168798452846044
-0.248309673986502499
-0.348133873873273103
-0.654622813256114711
-0.462015016357717911
-1.79662811022209468
-0.705055125602417121
-1.82692758419629087
-0.184757545259257583
-0.883222519457692812
-1.89990526107563262
-0.213894510452671938
-0.332914481226971759
-1.06634001902036246
-1.91343214260235683
-4.45032727499185654
-4.55313494220284909
-4.8128699256932066
-4.49724989889358895
-2.67313428631718963
-4.8594723241947797
-4.26529611389258179
-1.00911099060795451
-2.82175648243337918
-4.68351027243894968
-3.96249132263809001
-5.46436910411894061
-4.76704521702176987
-5.61874062801329188
-4.83592105851590581
-7.09071772289969182
-5.75630863010829597
-4.83523717132436914
-5.63899584346670935
-6.77722257897618441
-5.76656999920578173
-4.74275019862347946
-6.31062817417459776
-4.82200382394598925
-6.23351499185014468
-4.76954581895702479
-7.42880223541951779
-6.10526825562473796
-4.68320239844682007
-9.0892178125338603
-7.44458226991979366
-5.94206864532076118
-4.57831360719727698
-1.02901054451037344
-1.0562119477155536
-1.07160335608663826
-1.12525941337217672
-1.69363395636956349
-1.66234905897115492
-1.67765826621157665
-1.71980070866421819
-2.52508719497215139
-2.38704233740187899
-2.32077508678021038
-2.30255175820183622
-3.33484525600708803
-3.14819264237743868
-2.99323670911763839
-2.89872078690798096
-4.13905321087475642
-3.86522485173944252
-3.63286178754826805
-3.47551423359489231
-4.80538615782139544
-4.43386424684481906
-4.14932630635632016
-3.972178600912466
-5.02891110466434732
-4.76252632319938218
-4.54956520851467161
-4.40006710835457593
-5.15552441624472824
-5.00745662824890658
-4.87885961498866205
-4.7760715857859104
-5.39377270979187795
-5.29365624257317968
-5.20660345266571323
-5.13477309452181263
-5.67793334162521202
-5.60791652525212037
-5.54596337405705597
-5.49257784662297333
-5.98336843307459709
-5.93446652661060714
-5.88986425843316752
-5.85047427886600246