/*--------------------------------*- C++ -*----------------------------------*\
| =========                 |                                                 |
| \\      /  F ield         | OpenFOAM: The Open Source CFD Toolbox           |
|  \\    /   O peration     | Version:  2206                                  |
|   \\  /    A nd           | Website:  www.openfoam.com                      |
|    \\/     M anipulation  |                                                 |
\*---------------------------------------------------------------------------*/
FoamFile
{
    version     2.0;
    format      ascii;
    arch        "LSB;label=32;scalar=64";
    class       surfaceScalarField;
    location    "0.0899999999999999967";
    object      phi;
}
// * * * * * * * * * * * * * * * * * * * * * * * * * * * * * * * * * * * * * //

dimensions      [0 3 -1 0 0 0 0];

oriented        oriented;

internalField   nonuniform List<scalar> 
20536
(
0.000435697457504943949
0.000234974457014340587
-0.000568611024497206138
0.000395964833051592286
0.00185111422815153592
-0.00117138625905249989
0.00128887027106046543
0.000517361787921565269
0.000325916196215038779
3.0910193763485197e-05
-0.000472885440330094852
0.000336319083199622555
0.00156669067832407478
-0.00107209593217241273
0.00111939729359811311
0.000563023036235073054
9.51758669243598504e-05
-0.000628811737282645262
-0.000160593648415224128
0.00010376392801373464
0.000251691699203984221
-0.000597961745130204977
-0.000324776137466755354
0.000244891034277396795
0.000201633531134111301
-0.000402903085199922558
0.000159497747177485012
-2.15263842870239792e-05
0.000287931755878127998
-8.81723752452446218e-05
0.000193642755240249138
-0.000160885428845071178
0.00123880778355465299
-0.000736941390599239873
0.000733492006782948203
0.000619256727656962241
0.00033993633780082539
-0.000813566400835332316
-8.68901487472001073e-05
9.94229056617950682e-05
0.000596356787482869638
-0.000787995079527457854
-0.000214399809589181059
0.000148010688599399358
0.000618043263250228126
-0.000438809540994287203
-6.71528466201002077e-05
8.13676973861953638e-05
0.000274351693077303383
3.05320830101796746e-05
0.000420522329503381282
-0.000195542406926234942
0.000957515627308441557
-0.000289235277811940002
0.00029577685023932153
0.000549099657623151622
0.000774898904399982415
-0.00118844662171045494
4.29682238609378157e-06
0.00013699006680061097
0.000475102361396130231
-0.000563449282628154541
2.67670547353328261e-05
4.84832501948251067e-05
0.000155623303172199067
-0.00014030153440108462
-0.000154454759887024366
0.000175425249704517448
-0.000214900929051209302
0.000190289167364705083
0.000190788404833909346
1.99751063107805838e-05
0.00063120002176621985
-2.00278348163639218e-05
-3.21636403844429396e-05
0.000163602462467860987
0.000281551572071702077
-0.00110226241583559698
0.00011589132155590047
0.000196761352476225909
-0.00027993249588203101
-0.000184329988512274968
0.000100572681854458365
8.17878985298340819e-05
-0.000320484463739319735
-8.42378581954314129e-06
-0.000353924484980743751
0.000262599965409963747
-0.000318336021184195466
0.00016155326585670017
-5.38955722628876692e-05
8.04808030912345339e-05
0.000531773271884984286
-6.20064700691024331e-05
1.35055731324722813e-05
-0.000170410852740927014
-0.000519783437601891037
-0.00069246093720190451
-0.000357107451953660106
0.000296844634102678181
-0.000682560773325004751
-0.000221054018610072808
1.14450312361772898e-05
0.00018806315316414416
-0.000705362456115800796
-9.8081690337407598e-05
-0.000147223014368224963
0.000259681878415249498
-0.000655664027677216993
0.00013978857397708839
-0.000204563424182722313
0.00017663118873880476
0.000421261583975651287
-0.000217576987346488915
0.000112267713013278615
-0.000439842284363551662
-0.000672133540509686159
-0.000358325172080879218
-0.000244935475278642667
0.000187601576989146235
-0.000744391760975239699
-0.000187113476475150712
-0.000207262326756897007
0.000245582332629879147
-0.00078251394851417582
-7.9636294626242248e-05
-0.000252115109530756448
0.000271794158436874033
-0.000712505846903528639
9.97595756545843217e-05
-0.000276399503526924672
0.000246422943917913822
0.000282028179175204598
-0.000265913622579785468
0.000212236622514722176
-0.000519593262182099325
-0.000566461737402315516
-0.000243155437292784122
-6.0233599667933234e-05
6.52297026054491442e-05
-0.00060331015045404909
-0.000153152536141695371
-0.000153066511381399155
0.000155957510900313535
-0.000626030440870029687
-6.61235744800313255e-05
-0.000183447978596238678
0.000192657721221591586
-0.000576191121060341425
4.99970612740092117e-05
-0.000214491928943141787
0.000214416902954030301
0.000152004969761845577
-0.000203397772176344829
0.000202255108265849445
-0.000445023019489206647
-0.000401466582552812096
-0.000191798733227032932
-5.992325336742043e-05
5.61881638157056546e-05
-0.00043082641764741322
-0.00012918740261801069
-7.92455783849122208e-05
8.46423158167040131e-05
-0.000442364961880186553
-6.37716235519292848e-05
-0.000100605495978100715
0.000109792451022986342
-0.000408790676542342027
6.50330706133097066e-06
-0.000117451516625188861
0.00012737110600000452
6.97916520484307215e-05
-0.000113032833575994469
0.000122873708534670728
-0.000336417536713454809
-0.000296914948861301444
-0.000162521673270653799
-3.42726184972972416e-05
3.52867625815110204e-05
-0.000312772730809336881
-0.000118041731630447297
-4.4452931687449508e-05
4.91626620004883641e-05
-0.000313870238522073026
-6.94092289934672402e-05
-5.17473390206273038e-05
5.84804319309733175e-05
-0.000294288667768544154
-2.06266582817056538e-05
-5.58879357561399082e-05
6.34354048219737995e-05
2.31804524919876743e-05
-5.29536823301777169e-05
6.0959611672599795e-05
-0.000255683451605025875
-0.000218625298630606261
-0.000145174180818736126
-2.11173763641432755e-05
2.2451799652969823e-05
-0.000228491973220580369
-0.000110477106961075894
-2.60781608851858737e-05
2.83740774611372153e-05
-0.000227907449560579801
-7.33766542797036005e-05
-2.91348404064431155e-05
3.25134489403572797e-05
-0.000215977098986323054
-3.65954197862245034e-05
-2.98543254746144797e-05
3.38899437828753784e-05
-2.84997236617717616e-06
-2.75013052682889658e-05
3.19923641464499675e-05
-0.000194439712779254971
-0.000131172586530703221
-0.000183424728959798893
4.58664528560867544e-06
-0.000146023002902740773
-0.00016098802998307807
9.1911501312432465e-06
-0.000157097995479463947
-0.000134746656422237083
-1.28050100177512856e-05
1.34457072961737486e-05
-0.000162851860438912384
-0.000105791779713378583
-1.55991794942823432e-05
1.66602242192632867e-05
-0.000162267326330447755
-7.55339540476793691e-05
-1.70767727354280579e-05
1.86438545899934611e-05
-0.000155181330666309821
-4.56429500540461364e-05
-1.72574912850973995e-05
1.92145139838300821e-05
-1.7383081126251468e-05
-1.60730236292384891e-05
1.825761249948721e-05
-0.000142836681526221687
-9.0722392343055576e-05
-0.000174997202872160807
3.25810340164536217e-06
-9.91865571475758864e-05
-0.000153020934887273277
5.66884332867716842e-06
-0.00010555022707462789
-0.000128810921351201911
-7.47620505296150246e-06
7.89854144673147611e-06
-0.000108847334157620028
-0.000103053482369169487
-9.02700167518815097e-06
9.57959296444551904e-06
-0.000108555181758828969
-7.66113162272660683e-05
-9.8027786264563218e-06
1.05828340809891495e-05
-0.000104654435973583533
-5.05117268015634909e-05
-9.86610123728660335e-06
1.0829718561867552e-05
-2.56965199583000175e-05
-9.21932251290097572e-06
1.03305263837151949e-05
-9.74561092432362392e-05
-5.24582385338623992e-05
-0.00017090373414342151
1.73407936766603668e-06
-5.67634323509189605e-05
-0.000149136049728457453
2.89019758576619795e-06
-6.00365622010116484e-05
-0.000125884744781077729
-3.62294632516450045e-06
3.9664596574783692e-06
-6.1811710174617147e-05
-0.000101639659190325813
-4.44254262422188437e-06
4.80002563571751877e-06
-6.18179392325741018e-05
-7.70176939069290258e-05
-4.90281094143902869e-06
5.31208625828219268e-06
-6.00317850633763357e-05
-5.27623041515755013e-05
-5.01567734305141382e-06
5.47718484341745258e-06
-2.96154341511321661e-05
-4.79652416744537145e-06
5.30114721891261778e-06
-5.66200492651354519e-05
-1.75780336468745899e-05
7.8112292329815545e-07
-1.87982368611396618e-05
1.06497908455754071e-06
-1.96615747039656304e-05
-1.24006619491036112e-06
1.32877331405577994e-06
-2.00800623514499216e-05
-1.42914999140363002e-06
1.53205010196095534e-06
-1.99928964046498773e-05
-1.53774409484251041e-06
1.65546938445565775e-06
-1.94296178150231293e-05
-1.55408177758170744e-06
1.69075230281500659e-06
-1.48835694311512935e-06
1.64284371304229768e-06
-1.84962195431267749e-05
0.000286290776342063794
0.000624997169853629174
-0.00079427804772583873
0.00205895671079725593
-0.00108831303166096881
0.000500910268724958979
0.000270742342477446119
0.000503628644278178331
-0.000752062659108767195
0.00180878232573835067
-0.00107005309797009195
0.000518867227231965995
6.70969374285280279e-05
-0.000589562729554730285
-0.000234521653691354207
-8.16097265214002889e-05
-0.00048136484217343366
-0.00015219001589649242
-0.000231604362120359469
-0.000348530049373731935
0.000423839657655641824
0.000160739047016493421
0.000313873466520941447
-8.96721056359078492e-06
0.0016171866840630619
-0.000854640816583807235
0.000470030371738958271
0.000321215319890936352
-0.000642801511846680194
-0.000194468998825925014
0.000416126010001346871
-0.000573426697652053676
-0.000217251975047369191
0.000112697705443796242
-0.000341411536104040732
0.00022914940023342897
1.37977017815813234e-05
0.00030915230330018893
0.000524134359104047815
0.00149219575635616496
-0.000503203893055275482
0.000352755071745264196
0.000679406120763609636
-0.000917953271145494076
4.2692250904434589e-06
0.000556762150718574482
-0.000337098463397262488
-8.69180475917382322e-05
-1.32242158139563807e-05
3.73330477154064583e-05
3.67849874224845084e-05
-0.000432159652487882023
0.000628916277862240141
0.000289955174384972226
0.00133165523877641547
-0.00031748749687014017
2.58385353250007913e-05
0.000170806912910513478
-0.000670947185827836272
2.50952849927851384e-05
3.82195928269207265e-05
-6.39159770030550239e-05
-4.00308546226937206e-05
-0.000542692640274306665
0.000255096351906160094
9.22274734513025326e-06
-0.000691207892899799018
0.000670319424213861471
5.3213613563794478e-05
0.00115270317162661021
-0.00024574924645908374
-0.000328514629267611779
-0.000873081468686772388
-0.000415222156968087647
-0.000340296748534722185
-0.000835092237941779079
-7.67697187831752016e-05
-1.36799399590868589e-05
-0.000868728475517523829
0.000192542776426398436
-5.10322042761320564e-05
-0.000808249035263824229
0.00055108880884486807
-0.000145811714898346444
0.000866056462233100025
-0.000229490525160838346
-0.000509689205310229448
-0.000689975466833972094
-0.000265739957652463376
-0.000194158496188265192
-0.000818498660423625478
-6.55615305828105208e-05
-8.9945978789769443e-05
-0.000870131725991501299
8.62106510147959482e-05
-9.41487057910594472e-05
-0.000762805914568546735
0.00032978671738806203
-0.000162421500719968468
0.000529653629810389651
-0.000175689308320319665
-0.000516625745388031078
-0.000614951236449699096
-0.000212053256232944067
-2.5491741337950917e-05
-0.000650607533102819579
-0.000115651283310084737
-6.73202201027608049e-05
-0.000666519689160837737
-7.80076924663007177e-06
-7.35220777675859823e-05
-0.000584025642414934243
0.000142838167251433952
-0.000110034951654363288
0.000256588294421176164
-9.90112185097840426e-05
-0.000415344391211777328
-0.000422618402327989918
-0.000180158134993081551
-5.05117104695161837e-05
-0.000447116592298857645
-0.000114314878727695551
-5.60814143054287032e-05
-0.000452797427988521801
-4.07627631628391712e-05
-6.19608284471574017e-05
-0.000405164754584727452
3.8172261047909878e-05
-6.04168467462031276e-05
0.000103011460299103012
-5.18403759154098759e-05
-0.000312779023892368181
-0.000306683955568064269
-0.000156196853764018352
-3.23123966814557208e-05
-0.000319133323319177402
-0.000109257751030892832
-3.70621853601154456e-05
-0.000316295311179302777
-5.85382391468478605e-05
-3.68113765556666905e-05
-0.000291175441911893163
-8.41097028429486806e-06
-3.44255009023325615e-05
3.46418931458874986e-05
-2.99064597474989054e-05
-0.000245853685237747708
-0.000223096851723656711
-0.000141405189826196204
-1.97491202700616949e-05
-0.000230855207544929428
-0.000105559497071284331
-2.20248010666566063e-05
-0.000228345374922433943
-6.77613552519732148e-05
-2.24269644874875041e-05
-0.000214150263061957771
-3.07309349704282942e-05
-2.1733695440641638e-05
2.56985553814382664e-06
-1.90391576866255997e-05
-0.000190543894764986274
-0.000159525648089509618
-0.00013228503794856806
-1.21539315111222051e-05
-0.000164096074518254247
-0.000102763491248713059
-1.38335472784910017e-05
-0.000162399681265637465
-7.22076181490810163e-05
-1.43342069152929935e-05
-0.000154251621946460476
-4.22759879472794974e-05
-1.38666485540694941e-05
-1.44571685786960726e-05
-1.24033366000718065e-05
-0.000140899694833116222
-0.000106890291622113354
-0.000126979293669504721
-7.03210708484908769e-06
-0.000109551238976452866
-0.000100920033241274821
-8.2169297163044218e-06
-0.000108647059579869133
-7.43541362424562002e-05
-8.56683149257229376e-06
-0.000104155885042539725
-4.82838746481338251e-05
-8.35490384741398685e-06
-2.36778423089579818e-05
-7.58733770697254159e-06
-9.65720356507138226e-05
-6.07961689346232402e-05
-0.000124279666709092292
-3.31982350012883464e-06
-6.22777181572494078e-05
-9.989616596132035e-05
-3.98942192045381588e-06
-6.19848167344823537e-05
-7.52390989535728908e-05
-4.31469474971454669e-06
-5.99200851050890617e-05
-5.1038666001004693e-05
-4.32899799570438583e-06
-2.80448488331623127e-05
-4.06918546718321137e-06
-5.6283307206526605e-05
-1.99162881025397468e-05
-1.15709432126603224e-06
-2.02570233731866795e-05
-1.29660591035869013e-06
-2.00981210036492422e-05
-1.36267174583341222e-06
-1.94712837742055639e-05
-1.3466422568352392e-06
-1.25708323383179509e-06
-1.84870227929133809e-05
0.000264741159531578681
0.000796454211819020916
-0.000921670360184136074
0.00227470032845916758
-0.00100747087018988749
0.000516340343950324717
0.000291773910043962442
0.00070199876436250158
-0.000910104834123434941
0.00202515865378924192
-0.00104721798627641603
0.000518478035884070839
-0.000170108865619675309
-0.000569171535713088299
-0.000125274942909748551
-0.000735311613745375371
-0.000244668170007945461
0.000322503951729199924
-0.000424802051153540282
0.000106214885029532716
0.00031038124553779174
0.00013939118837390436
0.000684166927034337907
-0.000555342136178291635
0.00186929787468537449
-0.000959181706952930363
0.000399791388969422353
-8.79577196263407746e-05
-0.000417343335321867311
-0.000174440404869377163
-0.000345647146860386515
-0.000280752742137303541
7.65160256445716956e-05
-0.000501579410050692338
0.000170795587340607364
0.000320490625688222631
-0.000199572725135197459
0.00085358921809971372
5.27006719540324894e-05
0.00171126493457223351
-0.0007394786973067139
0.000194736825988802787
0.000147164035899335563
-0.000392466588016596521
-0.000109174582156005553
-0.00027839229903718057
0.000141616058956922359
-8.37341425947736031e-05
-0.000762734319167008082
0.000584741318861768753
0.000107174817989271886
-0.000582575706311340468
0.000986772640944946116
-2.33925183603482523e-05
0.00151020307148889499
-0.00058013668395056131
-0.000118865455631682484
-0.000754883316271043672
-8.46442716551305038e-06
-0.000188242194340136138
-0.000923808593153428639
0.000232531390605140585
3.79734019605608214e-05
-0.00102226032910024737
0.00052800618782094101
0.000164403711367436831
-0.000823537573095122193
0.000894850956336804655
-5.35903343701451179e-05
0.00126083280909815103
-0.000391300156953643954
-0.000428618015568819205
-0.000981458902944783987
-0.000325845548824495841
-0.000176708257180707099
-0.000975508047877087642
0.000109118539377776554
0.000103782600152731727
-0.00106145141159921341
0.000391671420403724973
0.000171243375414747371
-0.000906925562324079819
0.000652361514088005737
-5.78498954108873711e-05
0.000938829849933437832
-0.000210932842364221175
-0.000603479093866065826
-0.00077745558246178749
-0.000317011196271780801
-4.56298831109421682e-05
-0.000892060253272927554
-6.5272435997763305e-06
0.000140306925764602599
-0.000925561731558214055
0.000178127135436967126
0.000152899267088266123
-0.000819976707019786396
0.000368263545993026203
1.6092541866428783e-05
0.000568307662598688257
-5.35671949834743777e-05
-0.000571574329710863144
-0.000661626657574936354
-0.000200484378628345487
-1.60537710195774752e-05
-0.000675281534736692332
-9.37169406436064449e-05
3.35274698709475154e-05
-0.000668545762442727975
3.25683367071016776e-05
6.53052676711229365e-05
-0.00059274054828482468
0.000158591292776025266
2.38351334776043538e-05
0.000276258640384060867
1.7571752400860008e-05
-0.00041727315772878724
-0.000434360668224725995
-0.000173550694823220949
-3.48901654309823146e-05
-0.000456783048731643714
-0.000104273971826553214
-2.30980309695832971e-05
-0.000447135134123341266
-3.01643927264065856e-05
-8.87345600950391835e-06
-0.000400018002865240412
4.74918365604567612e-05
3.566827832595003e-06
0.000112390045506089809
1.21762191588066996e-05
-0.000300165403649255754
-0.000311929450083100091
-0.000151707783877639505
-3.17026712245849359e-05
-0.000320740681504932804
-0.000104056706519328957
-2.84681088940624743e-05
-0.000314201547552292091
-5.33271933997339306e-05
-2.01884273284082078e-05
-0.000286991419315295163
-3.11280423385434038e-06
-1.10316674031461405e-05
3.93313940800466577e-05
-4.99552787140936494e-06
-0.000238844107748579121
-0.000226040797254278787
-0.000138290771869280574
-1.9334272771029947e-05
-0.000231502590603989292
-0.000102070322885089925
-1.85539270369372222e-05
-0.000227351686244699506
-6.42028229698499885e-05
-1.57063246186402383e-05
-0.00021191301836529449
-2.73567739997333008e-05
-1.29316978487778168e-05
5.56280923780458968e-06
-9.95215139646711205e-06
-0.000187234175860861128
-0.000161160536360585512
-0.000130016881935737598
-1.19227426568185531e-05
-0.000164643484433825427
-0.000100215285845060067
-1.22125600887787509e-05
-0.000161984920349493827
-6.96410023280325484e-05
-1.15605984916864173e-05
-0.000153095313825712416
-3.98456023035073165e-05
-1.02725450480173729e-05
-1.23890175643645673e-05
-8.44786933162692198e-06
-0.000139103466922288011
-0.000107902368615471288
-0.000125203632822439416
-6.81596040734867571e-06
-0.000109971964381810054
-9.89932534022192035e-05
-7.37588790996358134e-06
-0.000108523735417677565
-7.24153672570288014e-05
-7.24632756904754812e-06
-0.000103578334272249776
-4.64612179175066321e-05
-6.68950845301958693e-06
-2.2091814236830733e-05
-5.7839070488620779e-06
-9.56831910800500152e-05
-6.14678240046377563e-05
-0.000122720058631911247
-3.08933989513797255e-06
-6.26557934351442216e-05
-9.82690428026093476e-05
-3.52999852083229437e-06
-6.20832723761980884e-05
-7.36363785822551423e-05
-3.66986674782345576e-06
-5.97769203199034546e-05
-4.95420677746275927e-05
-3.55756468412068593e-06
-2.67169190589543472e-05
-3.24784720250126179e-06
-5.59757493009047013e-05
-2.0153720273784184e-05
-1.06966911352738323e-06
-2.04220703434436303e-05
-1.14556503909072359e-06
-2.01938680527508732e-05
-1.1560324889853271e-06
-1.95009474067549555e-05
-1.107250642881517e-06
-9.98951921925489442e-07
-1.84449372575761105e-05
0.000332054137161945893
0.000805377762673106985
-0.000951728797883992159
0.0025187731458556563
-0.000940435202045083779
0.00053772452452607194
0.000368710622127144789
0.000568395917891528595
-0.000908760111464654015
0.00225915797273346574
-0.000967360425592138145
0.00054846766907105124
-0.000103018422188207864
-0.000638538229535125408
-1.30923882772177128e-05
-0.000286054001421074137
-0.000353303699946460941
0.000373337580040923448
2.90783539761279317e-05
1.46654074298116761e-05
8.77956248086933044e-05
0.000229156351601956696
0.000559560308091065859
-0.000746596388927036063
0.00203946103252247799
-0.000965659537182443606
0.000455331657287846013
-0.000240987340227302727
-0.000409435058894634326
-7.45679521883259007e-05
-0.000669974494957597958
-0.000201851835163122974
0.0003540430294814351
-0.000529856242175190482
0.000117769058254537848
7.72563183524339263e-05
-0.000127451572968259965
0.000752983280011298908
-0.000543129189374029638
0.00179729601163765317
-0.000873520860953855218
0.000248756674963433169
0.000107929637745373536
-0.000453507709961787839
-0.000149147225037882074
-0.000333811385335769633
0.000135127547055641098
2.10211853802844476e-05
-0.000559035538700689894
0.000351800117522584966
9.83586909980092416e-05
-0.000380689986698397765
0.000932728979009034178
-0.000381486408699426027
0.00156753370764925481
-0.000720107558356596848
-1.09581425045295923e-05
-0.00201950323917065222
-1.81317106044949445e-05
-0.000592330987083511352
-0.0016156320424412997
0.000170756727726781548
-0.000401530009870109707
-0.00112123457762623334
0.000333370441130488029
-0.000311571599323581176
-0.000707443650765851237
0.000771750599296504975
-0.000306406129128569769
0.00124776801992172227
-0.000398740887941921129
-0.000380239869667737607
-0.00225635675184703661
-0.000239909505356893224
-4.24433476644697771e-05
-0.00183377330554077402
-3.86800275427136905e-05
-0.000109363683594618753
-0.00128360528010750029
0.00018235132067603987
-0.000227908067243530487
-0.000931812054177609842
0.000562289431402709884
-0.000200185391068445498
0.000883806241664649339
-0.000141691882431161449
-0.000637090739560756372
-0.00132399990804854865
-0.000309397809198809514
0.000177963072043749984
-0.00126067235724020769
-0.000174071824382578079
0.000212374765375284347
-0.00106787014549007469
4.92065182325571713e-06
0.000137530557936400768
-0.000878053189501646421
0.000297497526137744512
9.1068496719839769e-05
0.000503284949097939673
7.09258177940253723e-05
-0.000622024214557349419
-0.000678085051962202482
-0.00022864827705354151
-3.7404781928020484e-06
-0.000727763529609101777
-0.00015440614592133659
6.354521537477913e-05
-0.000707597161947001512
-4.25980663622204685e-05
9.26619075938639816e-05
-0.000608221454414822329
0.000112360478493192444
0.000109598618727340416
0.000239333310597076318
0.000108687898328991569
-0.000435385201562554292
-0.000417606543654427465
-0.000172588515023439418
-4.2139534284044142e-05
-0.000442015100834565662
-0.000107200350095837998
-4.58904892266066909e-05
-0.000447635269391742901
-4.52647210024515552e-05
-5.83742885592062949e-07
-0.000397030465245691621
2.88018377036271425e-05
3.65224408787713435e-05
9.95527830730767716e-05
5.68609967451739817e-05
-0.000301933309868956663
-0.00031058015232582277
-0.000150011642103815672
-3.28997169444786091e-05
-0.000316826470709373747
-0.000102657813866051446
-2.67631903837520858e-05
-0.000308677293418861676
-5.39143012257509391e-05
-1.96877527743085417e-05
-0.000283308391856030282
-5.69780548133476159e-06
-1.9006267279436499e-06
3.70392847793984227e-05
1.06643689815905615e-05
-0.00023645434212623916
-0.000227427369720414917
-0.000135236544560989811
-2.17801133846946334e-05
-0.000229970551911761405
-9.9314698581696469e-05
-1.93575125109916617e-05
-0.000224260958602919751
-6.2278927710405623e-05
-1.30547257192438467e-05
-0.000209139270250300794
-2.63080141367310241e-05
-7.44605222372667355e-06
6.0397976156326164e-06
-3.43903336508330509e-06
-0.000184655418895531286
-0.00016160772756291077
-0.000127568711653098534
-1.23709713683132083e-05
-0.000163985882291590437
-9.78423541758721184e-05
-1.13134199293264615e-05
-0.000160740427153160373
-6.76730917892024467e-05
-9.4178546269681879e-06
-0.000151589543252966688
-3.83187023691576684e-05
-7.4179398388671911e-06
-1.12615348189367358e-05
-5.3074745446100615e-06
-0.000137433296006335962
-0.000108464486453404668
-0.00012338157774805845
-6.60378827084557796e-06
-0.000109925394100101893
-9.71880337097477535e-05
-6.57604440769005409e-06
-0.000108087983453491844
-7.07864961729944649e-05
-5.97621810161166194e-06
-0.00010287718771521956
-4.50572138925744276e-05
-5.16685296385661731e-06
-2.09620709233211509e-05
-4.17122500158917953e-06
-9.47937823902861423e-05
-6.1966020804285062e-05
-0.000121180955773400937
-2.87557370229969481e-06
-6.28733953507121213e-05
-9.67619244109885836e-05
-3.05337309982175812e-06
-6.2074978367380806e-05
-7.2238611286473922e-05
-3.02007456230812681e-06
-5.95898111079829789e-05
-4.83010146676757354e-05
-2.8021819346632657e-06
-2.565996331037004e-05
-2.4430703362190744e-06
-5.56994311152284331e-05
-2.03460468341287024e-05
-9.65529787593328222e-07
-2.05522631780724092e-05
-9.76954733178655064e-07
-2.02648158821497547e-05
-9.39228226786134928e-07
-1.95155033830912109e-05
-8.65245217236570382e-07
-7.53844828177372586e-07
-1.83847470662261576e-05
0.000399375879777384073
0.000758620413254545815
-0.000862650586098907758
0.00264856261460776499
-0.000843658547187952886
0.00058408824936269409
0.000443536309502002278
0.000384634104505483495
-0.000755255657028917849
0.00238978918934398821
-0.000864511530521222538
0.00059945921695290518
-6.3648518469683335e-05
-0.000628927951065985234
8.66951760909229533e-05
-1.84694245232521387e-05
-0.000467953706698765381
0.00027242257828369071
0.000314150702761042467
-0.000363029052125260227
-2.35821017178173479e-05
0.000393442440079582833
0.000218670738694064947
-0.000659937965063416205
0.0021116570942856989
-0.000867349886864976862
0.00057326322185741554
-0.000316115157741856528
-0.000428508692052329367
0.000137735969062391579
-0.000423249817799227154
-0.000262187057692036196
0.000255401559833804033
-0.000234183050733877281
-0.000341731355013762919
-0.000133122185115068026
-2.26862613436483614e-05
0.000157694528079926736
-0.000693656719887192135
0.00168252631272800121
-0.00087326999234100687
0.000406190361712050136
2.51941884765669033e-05
-0.000500593815871300772
-5.45738654220881934e-05
-8.26805873868888177e-05
-5.36006432724786888e-05
-7.96966151587748077e-05
-0.000107567965751549757
-2.71181728217480896e-05
-0.00019137889755932192
-0.000212879658198887828
0.000396564265229291512
-0.000515052764776094451
0.00127940230843170424
-0.000665897265865385843
0.000136030439645361658
-0.00190656521008488356
-0.000516375194343783486
-0.000288231314648004821
-0.00159965269870189866
-0.000318439490548147409
-0.000443602699266333828
-0.00113304725034417452
-0.000289752044600878763
-0.000515549415560530668
-0.000699369096133297969
8.72669513237013343e-05
-0.000430791838661912516
0.000827525472181769883
-0.000301464935059976157
-0.000344771962227395049
-0.00110087872569158735
-0.000533043469727973178
8.67481865868983471e-05
-0.00109151961401045858
-0.000378810503104957854
-5.83492829190984338e-05
-0.00108840554228272672
-0.000282031411928264255
-0.000238745182552740426
-0.000995121395731888734
2.95209957246367546e-05
-0.000235728173350515193
0.000490799957246764156
-0.000115498993721808302
-0.000684591669280519479
-0.000972283120749030784
-0.000337709529688267316
4.46697792008065409e-05
-0.000980476893353075633
-0.000201377853350770912
4.31368247984044494e-05
-0.00090096304831563021
-0.000150890035296514586
-7.31242671362687668e-05
-0.00086207427076917878
2.9199456900297398e-05
5.24999158963682555e-05
0.000257296962743581103
0.000109145119931006274
-0.000666792562908136155
-0.000577489055306324339
-0.000234168910990318593
-4.10892125238938952e-05
-0.00060831665727387543
-0.000104836670500534567
-2.16421755501931639e-06
-0.000609815448845283737
-7.05707538529125181e-05
1.38432447342350844e-05
-0.000575528192269256569
1.86194694844447211e-05
8.58917132481997272e-05
0.000134805513892834693
0.000111486062070194439
-0.000455834964721756975
-0.000410794897436988842
-0.000165825131471957214
-5.38244380057939118e-05
-0.000419995294874706731
-9.32660767453060444e-05
-4.82554583980308963e-05
-0.00041282931497190953
-5.09732495255732601e-05
-2.73442887328747719e-05
-0.00038299806243831039
7.55602902554780574e-06
1.7756651052086934e-05
7.02462894609473765e-05
4.78614593662197128e-05
-0.000309437444157684128
-0.00030991169421730843
-0.000140530963536268985
-3.74941655850356974e-05
-0.000306638340778593306
-9.51265479104993302e-05
-2.81738950323450316e-05
-0.000297617448636052916
-5.45810470101419659e-05
-2.50994750600549247e-05
-0.000276385033813143126
-1.0253643465755229e-05
-5.32222700589724513e-06
3.06331844065109248e-05
1.03161115291250475e-05
-0.000236422656928179627
-0.000224690069512728979
-0.000129526943297818037
-2.17991605620657885e-05
-0.000225868565741880832
-9.44751219531600602e-05
-1.88331341188579068e-05
-0.000219946555768005833
-6.07140562707469749e-05
-1.284643021612284e-05
-0.000205473005877057294
-2.65005474006856391e-05
-5.6751637198212896e-06
5.16175170372871017e-06
-9.9558589758506792e-07
-0.000182447410303979889
-0.000161090597032791712
-0.000124591335012225006
-1.11958995081011206e-05
-0.000162376379273222141
-9.5180573672739541e-05
-9.32839709019508921e-06
-0.000158788443229316623
-6.61090613839558476e-05
-7.61654190586291621e-06
-0.000149785531404344238
-3.74142542482586816e-05
-5.5123124345321397e-06
-1.08006649021472666e-05
-3.33324986481756314e-06
-0.000135802120646231664
-0.000108482810122157504
-0.000121505480116997709
-5.7996236097559946e-06
-0.000109404028092225891
-9.54986728664263809e-05
-5.34340003571780258e-06
-0.000107358126944071775
-6.94240131423814615e-05
-4.71309586777461943e-06
-0.000102059322074967167
-4.39968255124704646e-05
-3.88823695023977712e-06
-2.01924169321332332e-05
-2.90297097675373582e-06
-9.39403767521350896e-05
-6.22427225296575282e-05
-0.000119704429529845886
-2.4967041690698179e-06
-6.2919092656663414e-05
-9.54069463520080977e-05
-2.47344117227166439e-06
-6.19577896332827548e-05
-7.10519816993119646e-05
-2.35740602251389077e-06
-5.93493269305739863e-05
-4.73085681066780895e-05
-2.10223562841647046e-06
-2.48673107873510521e-05
-1.73567590103489278e-06
-5.53846293705017903e-05
-2.0483682246499089e-05
-8.15123055573609998e-07
-2.06414640005102293e-05
-7.77465678917052481e-07
-2.03104705447474401e-05
-7.15674073787244445e-07
-1.9517594169338103e-05
-6.3555791260404821e-07
-5.31563380270463717e-07
-1.83377495630976232e-05
0.000510382133045460696
0.000560744709175342538