/*--------------------------------*- C++ -*----------------------------------*\
| =========                 |                                                 |
| \\      /  F ield         | OpenFOAM: The Open Source CFD Toolbox           |
|  \\    /   O peration     | Version:  2206                                  |
|   \\  /    A nd           | Website:  www.openfoam.com                      |
|    \\/     M anipulation  |                                                 |
\*---------------------------------------------------------------------------*/
FoamFile
{
    version     2.0;
    format      ascii;
    arch        "LSB;label=32;scalar=64";
    class       volScalarField;
    location    "0.780000000000000471";
    object      alpha.water;
}
// * * * * * * * * * * * * * * * * * * * * * * * * * * * * * * * * * * * * * //

dimensions      [0 0 0 0 0 0 0];

internalField   nonuniform List<scalar> 
7360
(
0.999999979956390783
0.999999980008039246
0.999999976678516256
0.999999949726194881
0.999999944336892543
0.999999963042758067
0.999999978742876272
0.999999982847077584
0.999999988060008893
0.999999991995994097
0.999999992012723493
0.99999999199291234
0.999999991981070258
0.999999985954121318
0.999999967314731841
0.979957881155643862
0.999999979962603813
0.999999979946227024
0.999999973104582662
0.999999949866710369
0.999999948252919602
0.999999963837608918
0.999999975471326241
0.999999980672151012
0.999999985724279394
0.999999991452568682
0.999999992003702598
0.999999991936876609
0.999999991067890726
0.999999973073747439
0.999999761241701979
0.979560937437215395
0.999999977073369184
0.999999950175277541
0.999999921086158317
0.999999910161906813
0.999999919388467662
0.999999939424181417
0.999999951062773951
0.999999962538350218
0.999999969560991242
0.99999998454541128
0.999999991632871232
0.999999991470405858
0.999999973653398655
0.999999834189931436
0.999998299277917058
0.983365390480903878
0.999999895107291925
0.999999368008909206
0.999999135966067043
0.99999916656405774
0.999999315678100631
0.999999441542907874
0.99999953283902987
0.999999617515942574
0.999999710108978035
0.999999801705022895
0.999999943983338246
0.999999973991464119
0.999999874821904777
0.999998815033196986
0.999989281544334196
0.986763873084687049
0.999998467438516503
0.999992768447589886
0.999991154743137045
0.999991132491617307
0.999992729382208956
0.999994051116067428
0.999995229257655716
0.99999602513071717
0.999996836819392332
0.999997900261833994
0.999998929155447858
0.999999764563427318
0.999998752722861539
0.999992500242652849
0.999945286838371916
0.978414867688932377
0.999979414823304102
0.999937046361160764
0.999930540841130089
0.999934028805393615
0.999946469153828232
0.999955846093172784
0.999963257992669718
0.999969439413651018
0.999975597729453991
0.999982655982401214
0.999991009559045407
0.999997129940964902
0.999991466730039358
0.999953280301530745
0.999737171129814195
0.966142541370495378
0.999801079208270216
0.999592291042801673
0.999626082238404878
0.99969447446911941
0.999729699377153613
0.999779142247350094
0.999791640983715757
0.999814112875218153
0.999850268007596688
0.99989124985712563
0.999937264285660876
0.999976401129761272
0.999951907505935322
0.999772462450719823
0.998947284675108405
0.963530351322326117
0.998829529774398317
0.998326410130087161
0.998634968252283262
0.999121989815002332
0.999266517215812611
0.999302575342869814
0.999285632530748424
0.999197629260918596
0.999280681807359183
0.999452456141096013
0.999662313330988095
0.999859100637884857
0.999764801370653045
0.999021268575184029
0.996372792983610145
0.967352644922019111
0.884159086351009815
0.885067125466995175
0.91087658650358394
0.945993041552689595
0.976720128351771244
0.994264274623217648
0.99870977664870042
0.99835278501789082
0.997672116586763247
0.997942132102165758
0.998709952691460678
0.999328573507744733
0.998993619673411493
0.996362252398918846
0.988595293051371615
0.971132221166979615
0.231364583649993988
0.246674808644340604
0.300679642401616043
0.387193153472110918
0.50416598026224746
0.655030186777087131
0.817081316017114423
0.929053594943939576
0.975994769988746791
0.990191018465471418
0.995540309098931875
0.997198490670192172
0.996047866386407077
0.98846145630598814
0.969847754876358437
0.958329572525129292
0.00691713467098552595
0.0086420221777974357
0.0107724355023036053
0.0142366430486212791
0.0431825542955828756
0.118969161720088687
0.257187321887853981
0.455553445945483415
0.674828126693944319
0.856000885241348208
0.94638339844536401
0.98460066449064132
0.985675076300814634
0.966250447493555265
0.929287633388104384
0.93913388056131486
0.00632624314367842815
0.00715213206685737408
0.00968882913903633229
0.0148354718330786194
0.0157542315082313603
0.0209963102635437465
0.0510690616268579811
0.185283213154885884
0.391172988352055384
0.603126684520505441
0.767166718414763027
0.848617683649608878
0.821070644984213116
0.642939982548108246
0.551634164574871244
0.854709035007398477
0.00883144006280487531
0.00617201158604201681
0.00753922674839954503
0.00898206347483471168
0.0151727872271884799
0.0215626983726973712
0.0188220283092819796
0.0188322750839625616
0.0946322653719966767
0.203567750345459847
0.261801893598397339
0.279706577637957587
0.200888358610857354
0.162103824933621299
0.157909593531069065
0.348823382463064657
0.00512469442620885202
0.00499113271456366227
0.00713807997572652678
0.0106576122787236365
0.0168635194226812377
0.0191031088213844055
0.0188398656159295616
0.0180484403066951855
0.0069818528838857764
0.00304865941519546569
0.00230946030390688853
0.00261317172064342391
0.00426036574000450766
0.0228156582577014079
0.0441865781418775
0.0623218832851934676
0.00329904457100072251
0.00563721274850972377
0.00664228081518400924
0.00709600037331258038
0.00945440164505118377
0.014133398467444146
0.0183687068196973884
0.0195390650100452125
0.0132557744418266739
0.00203761160537228999
0.00160842156787442334
0.0015104557094395123
0.00257664745643709173
0.00419012446989924445
0.00716284290251049949
0.0189892935975214464
0.00236831396806230646
0.00499513665162697879
0.00395715035514282356
0.00346518546445138964
0.0038453668383739985
0.0088657385893695928
0.0167148873272885412
0.0183687068165696785
0.0116073972589893354
0.00229264995854398411
0.00105165610287500646
0.000891325660252368941
0.00117694046209793567
0.00183916578343060687
0.0037852312520763997
0.0454994887657634572
0.999999979719847554
0.999999979814389595
0.999999975493517823
0.99999995536946984
0.99999995347160886
0.99999996818834036
0.999999980378973308
0.999999985953075932
0.999999991676131295
0.99999999202213874
0.999999992015805139
0.999999992012723604
0.999999941948637172
0.999999967449731519
0.99999993302416923
0.97833496070788506
0.999999979717061116
0.999999979768435576
0.999999972487016109
0.999999954402990832
0.99999995646301687
0.999999968843544584
0.999999978520728194
0.999999984033211331
0.999999990293545249
0.999999991983676839
0.999999992025180973
0.999999992089466216
0.999999990630106361
0.999999951267498188
0.999999643198059895
0.976977925006094816
0.999999976380885003
0.999999951732128523
0.999999928471588806
0.999999921314055906
0.999999930739154608
0.999999947708479553
0.99999996037644312
0.999999968752546819
0.999999982049035063
0.999999991700561308
0.999999991796017618
0.99999999059284117
0.999999968993416144
0.999999730554010924
0.999997412924949813
0.97425309803930682
0.999999895848894593
0.99999942732828595
0.999999257049363099
0.999999268218367932
0.999999403033873469
0.99999952750954868
0.999999620570023673
0.999999708916647023
0.99999980038092029
0.999999902273416175
0.999999983745502252
0.999999968844225595
0.999999745584473132
0.999998114011712236
0.999983382098307283
0.971894147652289875
0.999998504636106511
0.999993342049012135
0.999992264094137662
0.999992293024014489
0.999993714592619876
0.999994988368394067
0.999995991765889158
0.999996893812427068
0.999997827595001554
0.99999875018473916
0.999999440322213884
0.999999722136408975
0.999997996193055294
0.999987037946631019
0.999915835976671774
0.970834121296139774
0.999979790324195372
0.999940677678700318
0.999937136750475242
0.999941710110044291
0.999953117078794085
0.999961934816956832
0.999968764745859051
0.999975854550836929
0.999982582795682973
0.999988693731891365
0.999994897037335129
0.999997536414214849
0.999987248047943478
0.999931449335262457
0.999636937144677273
0.976504824722152387
0.999800371789656861
0.999599835113629487
0.999652144674247123
0.999724179931151369
0.999757856566326986
0.999799880896877213
0.999817302919835837
0.99984077412619432
0.999882019011335665
0.999923593507402786
0.999962628719030966
0.999980878876806312
0.99993174605092694
0.999688594409213316
0.998656887871090193
0.962110686270843063
0.998779540599043059
0.998308659394799625
0.998682898141605602
0.999204382581510342
0.99932847105439182
0.999347863173560391
0.999336604302866083
0.999288003108371403
0.999415289435469312
0.999594576513756272
0.999788421538599037
0.999883460624710896
0.999684624872135164
0.998733706818080047
0.995660797120065499
0.957950151451614662
0.878834287973084272
0.881448514620735146
0.909998983346715473
0.94788389437274434
0.978876883075069815
0.995311392057275035
0.999115173827481717
0.999027080639904197
0.998350487482150717
0.998564764332481647
0.999162586115774354
0.999412507653600235
0.998709437926481369
0.995605768255278134
0.988086941090712045
0.96049778637815364
0.21959310953959818
0.237411119409703608
0.292862786813203657
0.3858848119328534
0.513832608301931559
0.671681303547708497
0.831990867706765003
0.93571837909713329
0.979594777776115144
0.9940380175731518
0.997471260738819643
0.99746861902857431
0.995217915685619126
0.986713099205072997
0.971324458306838334
0.954476565469783766
0.00579687370159518919
0.00691414910264542566
0.00864970104649617939
0.0127934579071384627
0.0446320381489402063
0.137428868805211213
0.294903974359576437
0.504797919197084166
0.717253567521044966
0.881144850977821914
0.967528646215615629
0.990213003151740656
0.983552449708005927
0.963398579951713296
0.93491070685732458
0.940487007299289246
0.00499508893121494713
0.00601135893603185409
0.00967476127892875383
0.014279019974848468
0.0136856556052498031
0.018150871699781343
0.0552358173179253176
0.21346369461814213
0.428310164090059176
0.633990622265372838
0.79512362654890345
0.8700119111716621
0.847973991308061503
0.707251306718884587
0.607985932715686905
0.898801855316105236
0.00538867415264958349
0.00562111119132234233
0.00708367864996819075
0.00815012177654760375
0.0113794461626242106
0.0187990219748360582
0.0163528912444515229
0.0129266907650375171
0.0813106944202234283
0.176880069279927471
0.253702573713731061
0.295131882041029858
0.254028010903724899
0.20527065655247495
0.237799887337254046
0.49804539179383378
0.00461595351653105133
0.00394579518711945382
0.00495205054053287491
0.00626960650875978912
0.0138621541839942294
0.0217167753593726469
0.0206344717350376121
0.0144394915611854354
0.00383236211486445667
0.00203844588373844554
0.0017365999324818551
0.00259236390287566299
0.00489395489981810615
0.0368940303418505977
0.0796797002543330468
0.151381065602797349
0.0025651735868214209
0.00258361781497529197
0.00354891691332045491
0.00578674814374501544
0.0163410866236837413
0.0178398523941903503
0.0182211704801497551
0.0183687082476106898
0.00618985036344935416
0.00165166448304238708
0.00105149269058746331
0.00130510336554224855
0.00255406974330214939
0.00475797699019819918
0.022125438199743195
0.0446839785910915777
0.00153619054107172323
0.00202140444801151642
0.00263839238016436465
0.00817717951189705222
0.0124354067790796441
0.00840464125265826673
0.0122321027177350952
0.0165462160279369469
0.0100629753151243034
0.00105165729434134698
0.000627307642616652941
0.000573301066983369391
0.00105973264279672109
0.00182481767529744389
0.0044653442798576852
0.0410239389345711525
0.999999978587499228
0.999999979168545994
0.999999976012789116
0.999999960980350044
0.999999960603017546
0.999999972286550909
0.999999982686767153
0.999999989840576031
0.99999999202214318
0.999999992025394691
0.999999992022135409
0.999999992015805139
0.999999891079805803
0.999999933087096338
0.999999881954521719
0.97744345338658345
0.999999978655272237
0.999999978784041232
0.999999973741607873
0.999999959752701062
0.999999961635390733
0.999999972524197256
0.999999981428731255
0.999999987522723455
0.999999991937116972
0.999999992022341799
0.999999992016425088
0.999999991637801511
0.99999972697499051
0.999999884506722392
0.999999415998483632
0.975861569649184579
0.999999975909098726
0.999999958143839685
0.99999993872781312
0.999999928620021961
0.999999936979831805
0.999999953568642241
0.99999996678172498
0.999999975272097608
0.999999991574847424
0.999999991828131818
0.999999991701753022
0.999999989980342341
0.999999954203280361
0.999999613519479746
0.999996510071317624
0.97195463692517281
0.999999899928026181
0.99999956050602945
0.999999398618139912
0.999999369549215644
0.99999946335713541
0.999999577410721541
0.999999678276951465
0.999999767160301145
0.999999852888354579
0.999999954198916852
0.999999983153392669
0.999999960197233362
0.99999963708937567
0.999997013075664576
0.999978176141324004
0.970134264288833315
0.999998904492998664
0.999994866356415657
0.999993655838754547
0.999993354986071559
0.99999440284568486
0.999995520628976564
0.999996510965929231
0.999997433910478684
0.999998335084272938
0.999999030257762489
0.999999623845196473
0.99999961995243658
0.999997208178327379
0.999981944837741388
0.999893277377025269
0.968733754109851963
0.99998497251476004
0.999952422299635213
0.999946964104710068
0.999948786912982612
0.99995774169542162
0.999965747797239013
0.999972231435907188
0.999979055666828653
0.999985723366025203
0.999991002223190817
0.999996020964628141
0.999996868402243222
0.999982483107204501
0.99990973645206993
0.999573224244002523
0.980235956851958523
0.999842851402030774
0.999658552577410431
0.999692355822628942
0.999752546689243626
0.999770468201024554
0.999808338589735834
0.999829668231138169
0.99985485378719019
0.999899348596809512
0.999939682340259539
0.999970942070242508
0.999979245570951525
0.999909230626867429
0.999606621014133001
0.998533600703003676
0.979163874528638623
0.998888398684302237
0.998424174908105533
0.998752811527403805
0.999254339462618546
0.999339729539052035
0.999339096275683181
0.999370136936733933
0.999355178371101216
0.999506150848365582
0.999699668708622702
0.999854897391530439
0.999881899677984909
0.999596366891049692
0.998469651011266057
0.995631125324612176
0.965245348965158234
0.880862503885592174
0.883996394083556458
0.912534991875970647
0.95025734232475001
0.980303751578298188
0.996035312264389905
0.999226354232068847
0.999288109122897561
0.998738203542406278
0.999051554793433771
0.999443784271473623
0.999419315729063951
0.998427990873200222
0.994941791002781573
0.988614476152292032
0.96176494125738321
0.216804890628856273
0.23613788195825508
0.294046109985980242
0.390950801208108323
0.52289239147522415
0.686091323994631019
0.847321993862578893
0.946106900962578656
0.987180271283501276
0.997676418636024631
0.998123773444219098
0.997529316286549061
0.994461024650176051
0.985412834268614146
0.97242836423739043
0.95658470034104115
0.00499508892999123589
0.00579687310960717676
0.00738259135784640613
0.0120361278122723212
0.0482726372963616229
0.150737848440846312
0.320255386528792096
0.541546876777106445
0.759660013493920983
0.915605650928857373
0.984170370926201965
0.990331230872960266
0.982096548721581919
0.961732730868333663
0.938107997316612874
0.944340483682512888
0.00434251876184180152
0.00508512660509783092
0.00934060330098878885
0.0105011495860146669
0.0111551686231124436
0.015876203340945725
0.0609098948781359728
0.229537612924709145
0.446835620788128107
0.654356688236940598
0.818667053622623597
0.888591103201424315
0.866448557215145243
0.734352568213245571
0.69787101333028545
0.910009897135577894
0.00458129498101529295
0.00511272780155155523
0.0060098003534418392
0.00657211915199823297
0.00841343165488631778
0.0156256834740477642
0.0124318401228493761
0.00969767913682861686
0.062626983421705501
0.164790018079789824
0.259541267240152029
0.321071068682965088
0.285461507497540234
0.220367641694927507
0.273691595343985627
0.637759667956494303
0.00352398535298619701
0.00355732630436232395
0.0041351132448017398
0.00522292290907967749
0.0153857939859427077
0.0203556056077967076
0.0174870619615104667
0.00893194595246984101
0.00330130599020915169
0.00160932670204768638
0.00130879233898402035
0.00221868738015274522
0.0050099114256871918
0.0538475859848524183
0.0880928140421004119
0.226321265711615094
0.00217085779467230365
0.00239505660035349132
0.00318103114126420169
0.00555854523428147076
0.0143873466823711965
0.0159813220453975807
0.0163488164923546696
0.017079898030411475
0.00348463536849387238
0.0015641142473401628
0.000815234890851235846
0.000849281933407198988
0.00200620129694935399
0.00493039972036154669
0.0330790416199107998
0.0427122928855380307
0.00155385099404261283
0.00141651396901047201
0.00249114570095940527
0.00805873656512193573
0.0090462827930898812
0.00838781567353013083
0.0146837075415983676
0.0132043889235190781
0.00417975511911881058
0.00147253637335213457
0.000632251920495511535
0.000317849886552761906
0.000573971694535290334
0.00163353074505623633
0.00463731235682371314
0.0424233280659951362
0.999999978001494316
0.999999978525110911
0.999999976033664861
0.999999962751888072
0.999999963872509889
0.999999975734051416
0.99999998507804877
0.99999999145352203
0.999999992025398132
0.999999992025394691
0.999999992025394691
0.999999984115257146
0.999999890901564936
0.999999890871602126
0.999999852605065964
0.975953919344173748
0.999999978083115471
0.999999978236421061
0.999999973817994103
0.999999961369228307
0.999999964647207085
0.999999975682241415
0.999999983864830799
0.999999989791753974
0.999999992003521188
0.999999992025478734
0.99999999201561407
0.99999999144904117
0.99999955965883558
0.999999838245248851
0.999999205144828873
0.975492733054637906
0.999999975812067343
0.999999958581723858
0.9999999390943346
0.999999931907971429
0.999999941807298898
0.999999958543350553
0.999999970518902437
0.999999980490086982
0.999999991819223721
0.999999991824484402
0.999999991517593889
0.999999988161545783
0.999999938857248472
0.999999441832323699
0.999996172564690089
0.973592258400697075
0.999999905581370085
0.999999576761681608
0.999999405268523933
0.99999938865235416
0.999999492908673959
0.999999609069017747
0.999999703523991035
0.999999790283160883
0.999999881364121879
0.999999962308301904
0.999999980844823444
0.99999993764171935
0.999999496761657225
0.999995979110726907
0.999976866726171476
0.971483428991877229
0.999998942285983627
0.999995095904889331
0.999993751628651784
0.999993572864416147
0.999994624403892862
0.999995681725957208
0.99999668828755417
0.99999757675714851
0.999998447578817284
0.99999902841323296
0.999999684257142141
0.999999426949081727
0.999996124251988805
0.99997654863996388
0.999887793388396839
0.967913329891715968
0.999985730649305626
0.999954745013976742
0.9999477515182561
0.999950016092720273
0.999958411226352428
0.999965402239142209
0.999972530881166222
0.999979750213777274
0.999986559499190797
0.999991541900375758
0.999996293282144677
0.999995650269496328
0.999976437120782435
0.99988552527917951
0.999557826743564526
0.96372316361025967
0.999851714970647176
0.999673015603074755
0.999690494530071416
0.999745673788583589
0.999765414205850966
0.999804470924917643
0.999828371621846346
0.99986429429497603
0.99991190598641011
0.999949639099431686
0.999974702058180398
0.999972924279415976
0.999882108166988415
0.999516012108094043
0.998529817013552257
0.965824778067382983
0.998923466740926247
0.998437255649630595
0.998734424539476251
0.999236366031164724
0.999308128589691647
0.999318138057796124
0.999376924729505678
0.999420964743605866
0.999591900899506003
0.999770581979581241
0.99988276547025623
0.999857097006347173
0.99949976566256904
0.998224320940939158
0.995759917208935974
0.963428223863592059
0.886080542980273833
0.887940273978434114
0.914857129848501094
0.951576340709727297
0.981285318738829293
0.996909872083876047
0.99927013509562812
0.999370292929158799
0.998913112045146545
0.999302459440048141
0.999519711726672977
0.999340101622612553
0.998140913343939173
0.994448200520493764
0.988832784638631113
0.964626520669778831
0.221958939716755621
0.239703354508379374
0.298019507466147415
0.396130249623231068
0.531895104714642075
0.702996153723989492
0.86698953135990986
0.959409949084541802
0.99335969334992591
0.998147082883905412
0.998249554150939744
0.997267337092959449
0.993803964749877755
0.984563904642403953
0.9731131728210759
0.958744681524605014
0.00434251876183397445
0.00500057846568277564
0.00691526398854101082
0.0116758742461760337
0.0531929686288238196
0.160861222735311199
0.340416246833939229
0.574287793704229554
0.795734800896032102
0.938934771407388458
0.989908508682832755
0.989751525213278582
0.980959370422111565
0.960650475235494294
0.940590594249107959
0.948906712534427932
0.00404686417466703328
0.00522764843954183663
0.00799333769386177673
0.00808702226936399912
0.00990749839626539099
0.0140573412566797357
0.0641396689161010114
0.238091125732057041
0.459867933635290049
0.673691813610038714
0.834168884474442707
0.898970485165684563
0.868436947868692855
0.734390128171637402
0.749042935895762763
0.919106368386470196
0.00405943525758954444
0.00510703283199223645
0.00551112153396034112
0.00632019778133103421
0.00793453141628260028
0.0125564153379760617
0.0104495739101837827
0.0079314306450040048
0.051351358590993039
0.165931350401530509
0.272284026484417074
0.331711829008573322
0.291927375424257507
0.230647529181159494
0.296158242457250531
0.753412087306985612
0.00282784620532000727
0.00277750678662593096
0.00345098724735748777
0.00586446937867403546
0.0139828380624404912
0.0170053267661300633
0.0133944757092837579
0.00508404855255783442
0.00228583321672403469
0.00139631304543341782
0.00115052809303288982
0.00233612456942219838
0.00857436488217449763
0.0612215642624053397
0.101326947732415296
0.270559117942881511
0.00175670381381946416
0.00192025561955876068
0.00269653501874455919
0.0078598251473237582
0.0108541443841282861
0.0129553720301914133
0.0150309905062479161
0.0116703504939065297
0.00240423355390350984
0.00112108562424822838
0.000549995744320922668
0.00057659644288297787
0.00176597158624645337
0.00591271879470186418
0.0381408081580433683
0.0408161689771997793
0.00131321998237864503
0.00144514524505545477
0.00333968743602831158
0.00448480643130076771
0.00371696707675511946
0.00796651932870405186
0.0130309797810742693
0.0116687435543668134
0.00267225548570662261
0.00135417973507607971
0.00041353821917025765
0.00013296076996107862
0.000148024938027383813
0.00139646459749384264
0.00491217751122280995
0.032181920324614019
0.999999977713679211
0.999999978043799143
0.999999975958217213
0.999999964791600471
0.999999966311913902
0.9999999775273678
0.999999986114747275
0.999999991774576658
0.999999992024783957
0.999999992025394691
0.999999992024783513
0.99999997206860114
0.99999990214681822
0.999999896496067686
0.999999861954995906
0.974862376543631726
0.999999977789604033
0.999999977950679853
0.999999973891003036
0.999999963349512688
0.999999966863403644
0.99999997735114432
0.999999984932038677
0.99999999056019595
0.999999992017381878
0.999999992024874995
0.999999992006066485
0.999999990898637003
0.999999551009651433
0.999999855207085231
0.999999251247490228
0.975119294546464843
0.999999975842526645
0.999999960846607361
0.999999939263666704
0.99999993426989997
0.999999944056291667
0.99999995970870903
0.999999970638865809
0.999999983388608849
0.999999991869978233
0.999999991782685616
0.999999991217793482
0.999999985164385263
0.999999903916114707
0.999999269156428117
0.99999596044712824
0.981787647687071052
0.999999906209980916
0.999999611003504429
0.999999405780075179
0.999999400824207463
0.999999494469998917
0.999999608208587354
0.999999705445909104
0.999999794785912721
0.999999897745035504
0.999999965633454391
0.999999971301866797
0.999999905392381372
0.999999273950424983
0.99999488859726049
0.999976354825439451
0.975432056920920942
0.999998936956102424
0.999995381661661353
0.999993772722708174
0.99999370094090434
0.999994617009001718
0.999995707155081792
0.999996775907320501
0.999997615529699457
0.99999848112783507
0.999999114240361253
0.99999970695766871
0.999999163328450624
0.999994775660640212
0.999970162532651363
0.999886211285654358
0.967294172191186075
0.99998959491400341
0.999957915499073868
0.999948217831523101
0.999950760606429845
0.999958470168780367
0.999965559493429801
0.999973738872531603
0.999980571327665935
0.999987565289131908
0.999992661257173232
0.999996383118893495
0.999993937329046956
0.999969468395144334
0.99985679642289238
0.99955623390785775
0.962184532436122675
0.999894226579396195
0.999696872981693296
0.999691201688861275
0.999742543916763315
0.99977489364090244
0.99980764888288054
0.999836522583934184
0.999877755097722143
0.999921907356211781
0.9999571538044143
0.999974742330472344
0.999963847585299659
0.999852837061538935
0.999426258828612024
0.998531908890639697
0.958598713079880316
0.999156146396781852
0.99850317024719959
0.998731979722275565
0.999244792863162146
0.999312565147227883
0.999352131360171425
0.999413728080890129
0.999477366771059028
0.999633165432685322
0.999799133270894647
0.999882415548710712
0.999819977833555695
0.999398597011435852
0.998025690444399816
0.995696956049415993
0.958975365818117043
0.894539872273805381
0.893166465321649561
0.918071275522042596
0.954434793962189554
0.98373747475728579
0.99808103682769489
0.99934248431953332
0.999270386911262576
0.998951145751614256
0.99934548296204162
0.99948792973448275
0.999220858142346291
0.997857507619480999
0.994028197248604695
0.988864508436907208
0.963493079054205448
0.228393817488413309
0.245395254785224004
0.305027776771335413
0.405361866456832531
0.546838820684981575
0.725054544010484414
0.88704265178228503
0.969135147065903313
0.996024342664785456
0.998151185891252624
0.998123771364955004
0.996905397852515196
0.993143910337972446
0.983773183344132995
0.97361036316824312
0.958926342787897679
0.00404686417466553101
0.00460082376652455084
0.00660685707945799124
0.0111931194351817011
0.0588878025660783955
0.170733235463151445
0.360700151263273983
0.602293519550150092
0.820729780531221476
0.952156988051971798
0.991612401152041079
0.988956677463926903
0.979666366652111709
0.959480279658222135
0.942071039464817073
0.949818217125351638
0.00372224954117319432
0.00535542234666861253
0.00676656291062728912
0.00750653297899116223
0.00910114795023525373
0.0127230587531489345
0.0618951655238409379
0.244320503681544177
0.470661898754245134
0.689360137270291884
0.844787994976504253
0.901690894185234848
0.861485709336200278
0.727726165774969069
0.779943503160397622
0.923996108273112737
0.00356622273130674603
0.00508106511668922952
0.00595437429102771941
0.00663891379133581955
0.00757396233256466163
0.0103453071591177517
0.00961795396636599097
0.00733735047082785617
0.050884708524017476
0.17698556022511519
0.278680986427779998
0.332471825591258818
0.284078835559701648
0.233135015533689816
0.312566377187507904
0.824106042257397586
0.0024489373074875428
0.00272814150375602464
0.00303347645857616685
0.00579801425417159934
0.0113447862583229385
0.0135527545165595141
0.0111533020848800287
0.00477163944658921726
0.00247802180717436506
0.0010886600150425297
0.00120093016049753606
0.00286490237576545815
0.0141292339942156037
0.064791727367820573
0.107398966244061644
0.299077339024053035
0.00142486214758421703
0.00157449517712438371
0.00226428470840868163
0.00650327311944070511
0.00961531735464787179
0.0109636278889449351
0.0133401253469472413
0.0106394801780419889
0.00176538830363641387
0.000592712152637735147
0.000314682338896781941
0.000673380298919150182
0.00238480217459926831
0.00684880890891620409
0.0434764051427254661
0.044323580906079782
0.000995790788237135372
0.00117825394930734192
0.00253972960010505084
0.00438554873961502674
0.00437504569664041477
0.0070303975742803896
0.0112706916218899868
0.00984353067977047219
0.00343991441433450559
0.000442262276982948962
0.000186691334024995331
3.38219818970715715e-05
0.000228315937633815871
0.00165646119713742132
0.00584341776441689702
0.0441662627324463791
0.999999977656091499
0.999999977772635384
0.999999971840105806
0.999999963466890796
0.999999966066142498
0.999999977525225403
0.999999986012891195
0.99999999159438957
0.999999992022345019
0.999999992024783513
0.999999992022345019
0.999999968364739589
0.999999951170829737
0.999999940318895719
0.999999888246725144
0.97427357049966945
0.999999977684649988
0.999999977576837118
0.999999968774998416
0.999999961709245988
0.999999966325354039
0.999999977331781809
0.999999984857195656
0.999999990580304754
0.999999992016316508
0.999999992022416073
0.999999991992703396
0.99999999083002078
0.999999619809251117
0.999999888246774216
0.999999227980280847
0.974762507468693862
0.999999975605744051
0.999999945760734144
0.999999920264569964
0.999999924632993142
0.999999939725195075
0.999999957286964114
0.999999969429799851
0.999999985590831919
0.999999991855685444
0.99999999170470466
0.999999990879375744
0.999999982073240146
0.999999809861445765
0.999999241426408059
0.99999586221023673
0.981189087728736364
0.999999895076058132
0.999999354584881095
0.999999199158089214
0.999999259327763568
0.99999943346825626
0.999999580280944933
0.999999706553246215
0.999999802525341153
0.999999915082772639
0.999999960378806341
0.999999965345456876
0.999999870421885095
0.999998954482572033
0.99999412770680951
0.999975699770583759
0.973148848744221695
0.999998366431098407
0.999992715307757019
0.999991921090098379
0.999992490603284656
0.999994159803399785
0.999995631346027758
0.999996864026383547
0.999997790815668197
0.999998652781562414
0.999999332291905407
0.999999717672856892
0.999998863845887653
0.999993302942483897
0.999965399375596253
0.999883712036694794
0.966019117373043912
0.999978152904496431
0.999937210516135044
0.999935955200793591
0.999945263751518931
0.999957592486446334