/*--------------------------------*- C++ -*----------------------------------*\
| =========                 |                                                 |
| \\      /  F ield         | OpenFOAM: The Open Source CFD Toolbox           |
|  \\    /   O peration     | Version:  2206                                  |
|   \\  /    A nd           | Website:  www.openfoam.com                      |
|    \\/     M anipulation  |                                                 |
\*---------------------------------------------------------------------------*/
FoamFile
{
    version     2.0;
    format      ascii;
    arch        "LSB;label=32;scalar=64";
    class       surfaceScalarField;
    location    "0.840000000000000524";
    object      alphaPhi0.water;
}
// * * * * * * * * * * * * * * * * * * * * * * * * * * * * * * * * * * * * * //

dimensions      [0 3 -1 0 0 0 0];

oriented        oriented;

internalField   nonuniform List<scalar> 
84128
(
-4.7140353782752225e-06
4.65268974151523351e-06
-9.77741762785757032e-06
9.83876324483774841e-06
-3.95804402465268767e-06
-1.24332836166295076e-06
-1.15472991737171818e-05
1.2034636147949063e-05
-5.33739232101570983e-07
-3.94456120256864029e-06
-1.30233561095939467e-05
1.35436125436132261e-05
3.30075837218759408e-06
-4.42322383489552486e-06
-1.51521043320703048e-05
1.57408306953701892e-05
6.05846211275867162e-06
-3.31556209945959152e-06
-1.79591057838412393e-05
1.85169639034617176e-05
7.48455013167688598e-06
-1.97139993088633045e-06
-2.14685025719019364e-05
2.20138145503293921e-05
8.51189874651879168e-06
-1.59557878276590236e-06
-2.58165646715632699e-05
2.63847946959893532e-05
9.95253144087890904e-06
-2.16879667939730103e-06
-3.11661003665733146e-05
3.18942641865424238e-05
1.24311715262442088e-05
-3.40624224338322198e-06
-3.74982156284515083e-05
3.84258175258696586e-05
1.63031937388166321e-05
-5.25383792462459905e-06
-4.51191066118166982e-05
4.65009223302385568e-05
2.21294290749227353e-05
-7.4578969249071194e-06
-5.40688967909926061e-05
5.57005583953134936e-05
2.92615436608553886e-05
-1.02224181493015728e-05
-6.51402635333904256e-05
6.82305671243236335e-05
4.02845791622637907e-05
-1.37155422474085874e-05
-7.83778973314926244e-05
8.10704041920652695e-05
4.76515709063633777e-05
-1.77856475284580653e-05
-9.72842568819166567e-05
0.000107702913620130741
6.42037850391836653e-05
-3.00668834220492112e-05
-0.000114237416862725868
0.000127752099475858126
-3.06958595805337907e-06
-0.000158482291479135199
0.000225484276544429986
-3.02440958141001025e-06
7.52048143791501807e-06
-9.758144544061833e-06
9.91476237824865757e-06
-1.67958177156653209e-06
-3.22149576162514988e-06
-1.11233095584231777e-05
1.17566491088216898e-05
5.28393494222967345e-07
-6.90269019303987185e-06
-1.26511089424742854e-05
1.34012624784602357e-05
2.02386380398821587e-06
-6.66656663811418697e-06
-1.47954321765613665e-05
1.55433044333551696e-05
3.01765989667746979e-06
-4.96898654838119119e-06
-1.76898681724184427e-05
1.83494964624969164e-05
3.88816986695250809e-06
-3.42250343986031711e-06
-2.13666852535818563e-05
2.19472786055826944e-05
4.94579211283464204e-06
-3.23584549244636716e-06
-2.58931924278596684e-05
2.6475836709100469e-05
6.68540392973603663e-06
-4.62283057840294774e-06
-3.13293656474037711e-05
3.20437875334625809e-05
9.59656933288620555e-06
-7.31044387180122872e-06
-3.77241704755405647e-05
3.87172063676256541e-05
1.39871027405944033e-05
-1.10916928461113998e-05
-4.52247228571829577e-05
4.66720443446901206e-05
2.01909053271875336e-05
-1.56733865813953713e-05
-5.40261719811268163e-05
5.60378590675152162e-05
2.819651676988228e-05
-2.14577470474431978e-05
-6.4686970175975266e-05
6.79166877159645437e-05
3.88082302728840723e-05
-2.84618091658434577e-05
-7.74626202841231218e-05
8.15971755252471265e-05
4.78917100242769755e-05
-3.69968210642436428e-05
-9.52607642409675947e-05
0.000105388471930769015
6.23396133827964057e-05
-6.2690943999095972e-05
-0.000112007307799541199
0.000130183660770384748
-8.35516971618928212e-06
-0.000162434857072767911
0.000230044973883608057
-1.19796756831159239e-06
8.43325055160873896e-06
-9.31357070138089164e-06
9.59876873354373531e-06
4.49919041965344005e-08
-5.22536094475333731e-06
-1.10040597061799263e-05
1.17649643863581223e-05
1.64021285997178157e-06
-9.32669206233366089e-06
-1.26639774875294739e-05
1.34927558305594855e-05
2.65083105335087703e-06
-8.47109963727607466e-06
-1.48915471085778364e-05
1.56854594296333715e-05
3.17873749743862809e-06
-6.18773033928216881e-06
-1.78551409838481761e-05
1.85459767510655231e-05
3.62322464951802358e-06
-4.46689006765161739e-06
-2.16166672647460724e-05
2.22165657490364777e-05
4.38725044202689914e-06
-4.58871674983817074e-06
-2.62322512325805383e-05
2.68210956921306783e-05
5.94609540818833522e-06
-6.89906328441232373e-06
-3.17468214012559631e-05
3.24642079600115019e-05
8.75008006981018013e-06
-1.11276683031739993e-05
-3.81981418808831434e-05
3.92113799412676373e-05
1.30647459639885582e-05
-1.69088902693515739e-05
-4.57207363568133568e-05
4.72232673595505465e-05
1.91340853153112496e-05
-2.38653439688593728e-05
-5.45237472375764004e-05
5.66463654784508475e-05
2.68698372283085247e-05
-3.24991731731434294e-05
-6.51974896317007502e-05
6.85031659616143425e-05
3.70011928155627786e-05
-4.29432941758717645e-05
-7.79686600790232968e-05
8.23188076222727626e-05
4.65364973597612685e-05
-5.64708930395417977e-05
-9.56933312594224737e-05
0.000105632293629784774
5.80127685324038062e-05
-9.14643385234666816e-05
-0.00011264068376880112
0.000129939459805157142
-1.65964498067751483e-05
-0.000161403437201421726
0.000228350095816824981
1.42562604692790309e-07
7.9226508908835764e-06
-8.77341990329142044e-06
9.14145106852336431e-06
1.71654787747179939e-06
-7.30961837886013383e-06
-1.07623508085222152e-05
1.12726083546098772e-05
2.78673162197948706e-06
-1.08831849393318226e-05
-1.25895009269339805e-05
1.30757817219725754e-05
3.17519369267057236e-06
-9.34087314287862049e-06
-1.49571977844008187e-05
1.54384832053678863e-05
3.09849604605571477e-06
-6.55482249412658143e-06
-1.8060700939947496e-05
1.85044754266209345e-05
3.00589491943729705e-06
-4.79440149422097641e-06
-2.19722568796875405e-05
2.23923596359004243e-05
3.35878437959424964e-06
-5.40743255435277676e-06
-2.67420834215229201e-05
2.72078998694594301e-05
4.64122048020809089e-06
-8.83329947807599643e-06
-3.23925011007207569e-05
3.30442866508446394e-05
7.27707539015639621e-06
-1.48014264590551044e-05
-3.89291212937779792e-05
3.99670040652156175e-05
1.14698249458844761e-05
-2.27209430699549084e-05
-4.64867023209426968e-05
4.81059903141412869e-05
1.73281449134451157e-05
-3.20564136222561825e-05
-5.52912729184212233e-05
5.76240255588887347e-05
2.46931612742430537e-05
-4.33911508210857417e-05
-6.59641098571427993e-05
6.94910994647789045e-05
3.41229016091287694e-05
-5.70468667347021394e-05
-7.8717242431907325e-05
8.33912735344020668e-05
4.3735264943240321e-05
-7.60834998779627905e-05
-9.62973396907321975e-05
0.000106299094012736255
5.30559982615432042e-05
-0.000117914309614452372
-0.000112752555375986499
0.000129891559781949588
-2.74900295505838895e-05
-0.000160573300362257373
0.000225833392492104997
2.02742207383073707e-06
5.84344476863606797e-06
-8.05257989149753762e-06
8.1043109994899131e-06
3.68516971842694012e-06
-8.66364912212840389e-06
-1.02018012913050937e-05
9.89797823783286767e-06
4.21601397883674959e-06
-1.10658367942173006e-05
-1.22335167914889187e-05
1.18852164379221914e-05
3.91603307187005326e-06
-8.82952934779903981e-06
-1.48543947952043241e-05
1.46429321892633212e-05
3.1669144145658918e-06
-5.72478518159883127e-06
-1.82205762650730221e-05
1.81395924964729491e-05
2.4614349963997383e-06
-4.14719681027846372e-06
-2.23831032358238192e-05
2.24413314557531953e-05
2.31586401351806265e-06
-5.51305057233954888e-06
-2.73763236636959188e-05
2.76274480830350163e-05
3.25520310886600906e-06
-1.03501048627642891e-05
-3.31971476592636961e-05
3.37744923760499989e-05
5.67121633630025707e-06
-1.8334185485650769e-05
-3.98255552534998008e-05
4.09421147810705552e-05
9.6728420466186553e-06
-2.85521724759749089e-05
-4.74166993837907641e-05
4.92461351152836897e-05
1.52000224534253225e-05
-4.02222497139541541e-05
-5.62220429204814641e-05
5.88606579419418704e-05
2.20144751934837812e-05
-5.40501078713029199e-05
-6.68763276215747547e-05
7.07211387732399317e-05
3.05588843633471352e-05
-7.06413352623985215e-05
-7.9596218903926942e-05
8.46476464373505799e-05
3.92716163498526362e-05
-9.49411331908643277e-05
-9.70011028540177173e-05
0.000107154095663056874
4.60501479061206003e-05
-0.000141748227112451484
-0.000113191004866750443
0.000130287381101060629
-4.28876957669722256e-05
-0.000159520079336966458
0.000221712251667915533
4.22464164237346046e-06
2.53468807312531672e-06
-7.06393631054878421e-06
6.14788545094156732e-06
6.01281065262627027e-06
-9.037376405746795e-06
-9.26560427229546891e-06
7.85047872158959576e-06
5.88927424115493814e-06
-9.71419428996228451e-06
-1.15384637745280419e-05
1.03102475229417501e-05
4.76597395007496362e-06
-6.83426509780687074e-06
-1.45079668080524412e-05
1.36361837996577475e-05
3.27018641225378112e-06
-3.69352159642105443e-06
-1.82219530939869901e-05
1.76868643755051248e-05
1.89677950922995895e-06
-2.56293366880035657e-06
-2.27303398637225879e-05
2.25194632315488115e-05
1.19174213472466688e-06
-4.96212851339882365e-06
-2.80326497932286494e-05
2.81865344872605834e-05
1.76237717535864217e-06
-1.15672313549612011e-05
-3.40808212192840888e-05
3.47265956619085029e-05
3.90679767083935188e-06
-2.17852412251249672e-05
-4.08585839119844863e-05
4.21639938035232897e-05
7.67007518259998438e-06
-3.44313023368483155e-05
-4.85114889351514637e-05
5.06258933539009432e-05
1.28413178728009499e-05
-4.83767167947919438e-05
-5.7306161697759203e-05
6.02891712033739788e-05
1.90829263869433064e-05
-6.44738359768766352e-05
-6.78440516858118902e-05
7.20283258604464911e-05
2.64450748028524109e-05
-8.33748865716583097e-05
-8.05407986800525661e-05
8.59204906625625454e-05
3.26941104134866988e-05
-0.000111419570257016479
-9.79076381368020906e-05
0.00010817394501010486
3.60539743360843365e-05
-0.000162163568437360007
-0.000114617232703538842
0.000131824057533055499
-6.57145855908358874e-05
-0.000159590446469653926
0.00021658305019419801
6.67386441734477179e-06
-1.53416726104692583e-06
-5.7254847164087007e-06
3.1170556683062743e-06
8.43022453989172448e-06
-8.63647547745374041e-06
-8.27054387210793377e-06
6.09838626638274187e-06
7.45238552758698421e-06
-7.21740232566741749e-06
-1.07774299222324786e-05
9.25373656890594631e-06
5.47301942448201691e-06
-3.90403436577888433e-06
-1.40889980354892012e-05
1.31383162896328041e-05
3.23367465941864914e-06
-1.01299883129999406e-06
-1.81045295563041027e-05
1.76638559777922988e-05
1.16918198082159806e-06
-5.0123421208252703e-07
-2.29846600295075084e-05
2.29877429572528029e-05
-1.47055242031114902e-07
-4.08975764751606117e-06
-2.86755450494364104e-05
2.91190476261927372e-05
4.46472807485329542e-08
-1.27498273687465253e-05
-3.50251018007920233e-05
3.60140319083110673e-05
1.92989720243580073e-06
-2.52900946707183846e-05
-4.20058369046782102e-05
4.36192081323297204e-05
5.55865529446777105e-06
-4.04278834498821628e-05
-4.97368264794060172e-05
5.20958954559325025e-05
1.05939739061821135e-05
-5.66409009306239201e-05
-5.84348706543650134e-05
6.16628265315653242e-05
1.63236582383751928e-05
-7.45635712562251688e-05
-6.87409853262969223e-05
7.31134036148680522e-05
2.1686895240754838e-05
-9.419321800833904e-05
-8.16613581143756947e-05
8.71546153991495398e-05
2.33916573695557932e-05
-0.000123301895359088551
-9.94512058863047162e-05
0.000109780542422298601
2.2887937488647513e-05
-0.000178754808213259762
-0.000117828511535852492
0.000135425548458412934
-9.88860741232617157e-05
-0.000155749353775658402
0.000210243937184661947
9.28997791065160605e-06
-7.32542545651868677e-06
-4.65514554294773918e-06
1.03773258541920716e-06
1.02080818538022019e-05
-7.61085090339152207e-06
-7.56502506604336181e-06
5.45558933313325699e-06
8.45017145333855028e-06
-4.4582171323735278e-06
-1.01002577288997451e-05
8.98491508875323912e-06
5.8848791284995621e-06
-9.11329795936089825e-07
-1.36857794140565585e-05
1.32394180343337418e-05
3.02585010094784379e-06
1.58297851380260671e-06
-1.7945497039418211e-05
1.81875162023437997e-05
3.05033413658434833e-07
1.38645664688878643e-06
-2.3193540631562582e-05
2.40207497538306384e-05
-1.6376775252191341e-06
-3.46756060168862229e-06
-2.92854570079970126e-05
3.06030139831641731e-05
-1.75366862354012817e-06
-1.44218077811767189e-05
-3.58899561680645063e-05
3.76506925799694289e-05
5.60197319237649456e-08
-2.92141620185280037e-05
-4.30411250658012314e-05
4.51085144266107817e-05
3.84595812444651282e-06
-4.67479168558184718e-05
-5.08063079095897737e-05
5.33015119657044329e-05
8.88094327397004809e-06
-6.49030547952978413e-05
-5.94107394350233453e-05
6.26376008983000888e-05
1.36129207457228273e-05
-8.34351635975032912e-05
-6.9777186268826609e-05
7.39773891297598545e-05
1.52930811756043692e-05
-0.000101165113909768795
-8.35731717775500913e-05
8.90185567653964215e-05
1.11703360546210032e-05
-0.000129258603635635795
-0.000102204448868838487
0.00011283305301861361
7.89296125668397712e-06
-0.00019212265319778666
-0.000122215582335501036
0.000140409140129668777
-0.000141557625283638615
-0.00014998127273682172
0.000200265182642184398
8.46495410443630816e-06
-7.64975390327938469e-06
-2.01442214001622491e-06
-1.21291774854805686e-06
7.94012257913223398e-06
-2.7785101228511773e-06
-5.1998048395103069e-06
3.65620094708624614e-06
6.94306859198092064e-06
-1.50467594231336635e-06
-7.26254531260804469e-06
6.75243281641304414e-06
5.16172025150884058e-06
8.8163964249746422e-07
-1.04084192105181472e-05
1.03681754905406102e-05
2.27397712037184214e-06
3.35021749287917536e-06
-1.58653783189054537e-05
1.60672792227570887e-05
-1.27650755644070199e-06
3.0502669596205583e-06
-2.2471542560512101e-05
2.38204163167248435e-05
-3.44071505564816403e-06
-3.87852270625273113e-06
-2.89401583724125937e-05
3.14421542252188264e-05
-3.84482298895246396e-06
-1.6862727617280628e-05
-3.58630938902416901e-05
3.86412370109165537e-05
-2.0048190586578051e-06
-3.38565998446888015e-05
-4.33994192376084849e-05
4.60104864738959175e-05
1.89851871297976028e-06
-5.31531610476712832e-05
-5.15666725130724664e-05
5.40170689078246381e-05
6.14484852479126543e-06
-7.19549501063425009e-05
-6.082651213447858e-05
6.36615570430920587e-05
8.48716610037311387e-06
-8.93386390640809279e-05
-7.2233057639653451e-05
7.60463445900099247e-05
5.12478268917546185e-06
-0.000103168655079342983
-8.72837960285502841e-05
9.32043651899287366e-05
-3.15427922370123924e-06
-0.000131323478294450625
-0.000105618025968123245
0.0001175519615002473
-8.00938049897552542e-06
-0.000202425296506252711
-0.000122880739792890212
0.000142350226499126899
-0.000187467112400600789
-0.00013801943478807682
0.000177597122514389517
-3.29698748224687671e-07
-5.87458522708688836e-07
6.98745075021919929e-06
-1.29181995463425987e-05
-1.77148868266710803e-06
-4.57990245398491973e-07
4.24342186500063942e-06
-6.95317959625069875e-06
-3.2880887693862027e-06
-3.30479126817467829e-07
3.82921533946668759e-06
-6.9429637748556722e-06
-4.89748588617105064e-06
9.46181346747001141e-09
2.03097720530099349e-06
-4.65765360129897641e-06
-5.96442211985495217e-06
5.61517321362878746e-07
-3.81972130775101534e-06
1.66008263590642965e-06
-7.587659297264344e-06
9.65817086652979465e-07
-1.22914869067407292e-05
1.12725444908423907e-05
-9.94891184687853212e-06
-3.10962526593320363e-06
-2.28980252743295347e-05
2.37647671310263031e-05
-1.08163372020965602e-05
-1.73579067203609335e-05
-3.34803678777651273e-05
3.576245495133429e-05
-9.75510443342600197e-06
-3.73201610813360632e-05
-4.34713151835704772e-05
4.57348809516581046e-05
-7.48228084474298839e-06
-5.79434593092796808e-05
-5.43755032125675561e-05
5.59845003211265811e-05
-5.16542442886590719e-06
-7.61745181466133087e-05
-6.51537769570710996e-05
6.75434405014291973e-05
-5.49025377830973752e-06
-9.24939734779464841e-05
-7.79196485911839179e-05
8.24339192871129193e-05
-1.12714313104765607e-05
-0.000103871944417020413
-9.23349972695190546e-05
0.000100704043038983025
-1.73397248182224141e-05
-0.000129763625059792334
-0.000106472224426667442
0.000121698761007498608
-1.88421833082638319e-05
-0.000168105964215866375
-0.000113269382008398482
0.00013383179977827258
-0.000223772999404220742
-0.000118553568691926817
0.000143259769414137185
-1.66024828165469179e-06
1.52597262966110583e-06
7.77442178943226272e-06
-1.01433877724034116e-05
-2.93298907883420177e-06
5.23150209512464925e-07
3.67634392420238661e-06
-5.03302547162741223e-06
-4.90295576750708946e-06
-3.26631962705823744e-07
1.66572502544519886e-06
-2.19278197922007478e-06
-9.24541541191545852e-06
-6.22441147842833449e-08
4.52669349711171943e-07
-4.22431521231625887e-07
-1.76050391798327502e-05
-1.63783843427243448e-06
-1.04904386663799255e-06
1.10917868348834792e-06
-2.86809931359924335e-05
-3.97326153734957585e-06
-5.80458451513413373e-06
5.60374796020788532e-06
-4.00544903247659372e-05
-1.02364827296447925e-05
-1.41290584135180832e-05
1.36742752012375799e-05
-4.6411585771467329e-05
-2.58409855936421511e-05
-2.61431592572207907e-05
2.53279953515210432e-05
-4.51168913807399922e-05
-4.60941429702257151e-05
-4.11840507397211446e-05
4.05991604378971548e-05
-4.05796701223946736e-05
-6.23606636809025182e-05
-5.77279027009141451e-05
5.80868713527246601e-05
-3.57604658622568214e-05
-7.69776927539758118e-05
-7.17009126681485023e-05
7.45197058126930909e-05
-3.45621333515869466e-05
-8.57105121996893911e-05
-8.37139328863219462e-05
9.16572259202281836e-05
-3.1258041098860119e-05
-7.21451746966552483e-05
-8.91063117739119686e-05
0.000101371545952204671
-1.49946732676612188e-05
-5.50925136003232075e-05
-7.39638781656433626e-05
8.68556446845601248e-05
-1.81935638648237022e-05
-6.3867879612885815e-05
-5.10393834733103403e-05
4.6422251660972962e-05
-0.000117227545054368468
-8.42459672785713038e-05
6.77070777880672955e-05
-9.44470745923108988e-07
2.73517280629058769e-06
5.33111831800208565e-06
-6.77935667410612646e-06
-2.00000397362307132e-06
1.55545409222793327e-06
2.60988109271965043e-06
-3.34446510496330131e-06
-3.98405675547250848e-06
1.83037682616819172e-07
1.76187408752243779e-06
-1.58806524947794398e-06
-5.55031710715866742e-06
6.24595975934358211e-09
7.24221580152324817e-07
-1.71037848537884242e-07
-7.3640055918153503e-06
-1.66887968432447759e-06
-4.4181369908067897e-07
1.25261843993773763e-06
-1.36369527968893019e-05
-3.08970715770015051e-06
-1.67502774312266562e-06
3.05308589310803144e-06
-2.8411671000324534e-05
-4.08381376878015773e-06
-5.008360595245358e-06
6.98222938529788287e-06
-4.70126533872079755e-05
-6.29905632988899819e-06
-1.20554550954528275e-05
1.43698298102011614e-05
-5.78422129603028477e-05
-1.48904251251266113e-05
-2.25823654201206712e-05
2.55962104372640061e-05
-5.5521582350732577e-05
-2.09859139722882533e-05
-3.26519165387032732e-05
3.8153370723501199e-05
-4.91224114496568922e-05
-2.29423723423410533e-05
-3.90173563550607241e-05
4.69564556518778034e-05
-3.46264274601469063e-05
-2.01714896755926095e-05
-4.15294570743208308e-05
5.03832641812060268e-05
-1.24511544601772669e-05
-1.36511945071116503e-05
-2.93028697658573673e-05
3.58033023122743309e-05
-6.32158072002703317e-06
-1.30248983920135793e-05
-1.48233214022588587e-05
1.67528542986652548e-05
-5.06485225474958372e-06
-2.28387337169561633e-05
-1.40487086585684486e-05
1.33205477952566582e-05
-3.06356796747227539e-05
-1.95294367594381682e-05
1.30010578440493794e-05
-3.50582790910432056e-07
4.65051217791434518e-06
4.81775598167228343e-06
-5.61908895356136533e-06
-1.05402368205744866e-06
1.72416496586034069e-06
1.96131804580168142e-06
-2.11048495239775778e-06
-1.58804402713191249e-06
9.10837050441184378e-08
1.48836400772783805e-06
-1.34645212720517004e-06
-2.88973351913430193e-06
4.3880361175207593e-08
1.02286534590407379e-06
-9.32665484112386372e-07
-3.46721259484995878e-06
-1.77620550615149639e-06
4.1403425965540556e-07
-3.80675398643839193e-07
-2.60204795999256956e-06
-3.65133803062985177e-06
-2.53150449739993607e-07
5.10528679779952046e-07
-2.11413339012171356e-06
-4.20443451970565669e-06
-3.19385165539922717e-07
8.17369898262398704e-07
-4.36824994079478907e-06
-2.56445344968928977e-06
-5.37822920030061714e-08
5.52012018527891836e-07
-8.12335611346211021e-06
-7.79110049129086669e-07
-3.25430033250151048e-08
4.31222732063328925e-07
-6.57504674246814249e-06
-3.97726070370911956e-07
-7.8671631923975038e-07
1.02259127128925302e-06
-6.19721172967638908e-06
-5.67409973158865931e-07
-1.82846280629509116e-06
2.26273052490644779e-06
-4.65459339485562678e-06
-8.79466783933794324e-07
-2.48221832764578874e-06
2.53946262882077869e-06
-4.34732318381014868e-06
-2.01174477857949776e-06
-2.80786334157496019e-06
2.95236159878189582e-06
-2.83745131260021933e-06
-5.46141578751884465e-06
-3.53276621622661406e-06
4.00543574817399951e-06
-1.32911866489121572e-06
-1.32656296012764273e-05
-4.90860797303220072e-06
4.09231196585847877e-06
-1.34797925163174345e-05
-5.47243457241486737e-06
2.61157337380082093e-06
1.32564620884218121e-08
4.06803906444734445e-06
5.53426487136553944e-06
-8.92355275186367187e-06
-3.17425458144228898e-07
2.2677966846560257e-06
1.28122333863673422e-06
-2.09836879940275665e-06
-7.74192366375086921e-07
1.14134229884696762e-07
1.16494360974477316e-06
-1.02074104089375087e-06
-1.99499231949772815e-06
3.32359968951531861e-07
8.90282073328021825e-07
-8.18784117307155199e-07
-3.11454838722143207e-06
-8.58113553523382952e-07
3.78608120771667221e-07
-4.27678037623068067e-07
-3.36251028132060315e-06
-3.31616871643098744e-06
-3.05379797921541039e-07
3.78061388364831216e-07
-2.39841713732631139e-06
-4.71987827261428637e-06
-6.37588235863672629e-07
8.80119464053340666e-07
-3.32822328086803473e-07
-3.4992408037007082e-06
-2.337351116611391e-07
5.0100812870023017e-07
-2.28927510712852254e-07
-5.82228204912909389e-07
2.12779044790364699e-07
-1.46479629418143191e-07
-4.76536676963832031e-07
2.37430627082915639e-08
3.05564517267111593e-07
-4.05917298076113762e-07
-8.41699755894494094e-07
-3.44589852572869025e-08
2.50314332757849286e-07
-3.79474238197702483e-07
-1.29494830026222696e-06
-2.978607384205756e-07
5.52970767504818518e-08
-1.23766577927670669e-07
-1.81374822046471266e-06
-1.36969591742712198e-06
-2.47941029605252378e-07
2.60328008828792122e-07
-1.73048735073933213e-06
-4.474804038035508e-06
-8.18362367492188228e-07
9.73006922385050968e-07
-1.09941522122816236e-06
-1.05631682458488581e-05
-2.22485912357047005e-06
1.89882890113429183e-06
-1.20825272798949567e-05
-2.83466815275839585e-06
1.79601675679152693e-06
-8.19536063914840771e-08
2.54289175620656761e-06
4.20841117945593858e-06
-8.03413770195812571e-06
-1.01162427472456161e-07
1.47259161737940117e-06
1.35579270773066154e-06
-1.63021113020459002e-06
-6.59982180696971827e-07
2.2618588592651671e-07
8.09703587423693973e-07
-5.60957231370184714e-07
-1.31974953854394991e-06
1.20759299718553272e-07
6.33651220570268894e-07
-2.88245267010265762e-07
-1.53318412309181826e-06
-2.4101854552991518e-07
4.25759323952928955e-07
-1.4419240904814747e-07
-1.53088354381779501e-06
-1.7663440218346155e-06
2.43314349132537819e-08
4.68202247093183572e-08
-1.54537971799516002e-06
-1.85197690582649239e-06
-2.33879780689248599e-07
4.18883716954496794e-07
-1.27518418068013917e-06
-1.85761081294536082e-06
-4.01001430263318671e-07
5.19856843374175673e-07
-2.77952081021869493e-07
-1.02312459170462632e-06
1.13566014310504858e-07
4.74533663424896715e-08
-2.92918097525728929e-07
7.79558310007987479e-08
2.62727312956413608e-07
-2.74322206797120782e-07
-3.35364068523519665e-07
7.20358285802281655e-08
2.7607789409214676e-07
-3.32957895811660824e-07
-4.65583902654982928e-07
1.02058219268806965e-09
3.01245132647396226e-07
-4.2517627029457844e-07
-9.81105289378124229e-07
-5.76643238339605102e-07
1.30715260594286607e-07
-2.82946902088546297e-07
-1.84380250791454478e-06
-3.37460497269313139e-06
-3.75961523246280076e-07
2.46729861067744701e-07
-2.75461540322245534e-06
-1.26607054920826719e-05
-1.50141575740986254e-06
1.42926425172074017e-06
-1.9963279643304476e-05
-3.53491610495322017e-06
3.47697709826649483e-06
-1.2953532619188554e-07
3.19154175580527911e-06
-5.59771510727407663e-06
1.35250431737567506e-06
1.25606358861528473e-09
1.05219657527946415e-06
-1.24044270794797072e-06
4.71176318172589526e-07
-6.81115377451639171e-09
5.62462616803323224e-07
-5.08158846989534979e-07
4.35714775670743936e-08
-2.14437197725267994e-07
4.74868300769886553e-07
-2.87353223349966095e-07
-9.78339000119504527e-09
-5.2397075151608137e-07
3.14065756260508228e-07
-1.13008375882087828e-07
-1.96947393269224558e-09
-3.86587545335196412e-07
1.26277803604515755e-07
-9.92846216838029025e-08
-7.23916591124537251e-07
-2.96505751474933959e-07
-1.03632062209194583e-08
3.36053635479144342e-09
-4.09234450032109234e-07
-6.01349344405502966e-07
-1.04165660891266959e-07
7.1443185531425304e-08
-2.18112775019757434e-07
-3.21602294359723224e-07
-1.52754932446246641e-07
1.43773757277968572e-07
-7.66723195750121759e-07
-2.62579894291665841e-07
2.2289718458317421e-07
-2.11480956851974126e-07
-2.11951974795399694e-08
-2.06281791398456716e-07
1.61976479851095699e-07
-2.3674008998386349e-07
7.76437516849324541e-08
-1.45101808899344368e-07
2.12004188419109723e-07
-3.03169583801866613e-07
1.03010520435265457e-09
-4.31406407498506801e-07
2.54760450160772813e-07
-2.85511132446555396e-07
-1.4711501018263559e-07
-1.53036136173147088e-06
-2.98794905370127242e-08
-1.35861846800759458e-07
-2.00399166512980604e-06
-6.62135329521340267e-06
-1.9898334974659154e-06
1.59452780141479848e-06
-1.0070988475308694e-05
-6.70558552719710576e-06
7.92980086860094875e-06
-2.83924453076943734e-05
-5.2724442037553671e-06
4.87992927665739452e-06
-9.38490271782356435e-06
-4.90999914239765916e-06
-9.36171604650224994e-07
-1.09735726626959278e-05
-2.14167760355312685e-06
-3.43881248226505627e-06
-1.23528651537487645e-05
1.08050670762190784e-06
-3.99378477071568801e-06
-1.43805039160073218e-05
3.10933855442108709e-06
-2.96707337146271886e-06
-1.70208640925795761e-05
3.75707555498584475e-06
-1.8341739058872821e-06
-2.02820657560122075e-05
3.9531429042520627e-06
-1.72338617288671359e-06
-2.428924592524835e-05
4.48700429356505207e-06
-2.53467859745185632e-06
-2.91652833458770646e-05
5.931263207424003e-06
-3.983304338167233e-06
-3.49591702190403148e-05
8.59464014683705786e-06
-5.93060834236722224e-06
-4.18518752035127402e-05
1.25890376758694391e-05
-8.14942125445090071e-06
-4.99138730592043668e-05
1.81838674438916278e-05
-1.11589020269653257e-05
-5.95761912504360949e-05
2.47918569515136196e-05
-1.41128680777769462e-05
-7.08730222601637209e-05
3.20014663730826298e-05
-1.94432210090333806e-05
-8.50506435518993731e-05
4.97321173504110159e-05
-3.16037915736785076e-05
-0.000100364253337245011
1.54691905737954229e-06
-0.000110490425484276956
-3.60996624098254603e-06
7.99634848248126072e-06
-9.26459756798349541e-06
-2.84374489187287834e-06
-2.3433763795431377e-06
-1.04823261621153153e-05
-1.21901883666664503e-06
-5.80913103090671755e-06
-1.19055165902358801e-05
-3.52979649471196407e-07
-5.65606283992681278e-06
-1.39991935472424159e-05
4.92451101219954825e-09
-4.24646810908361926e-06
-1.67683778970307719e-05
2.02097166184348363e-07
-3.19677229435853053e-06
-2.02012597356986796e-05
5.46845140110424564e-07
-3.61678629860009605e-06
-2.43445404460092775e-05
1.52176056872229854e-06
-5.57842361258325198e-06
-2.92605362812558677e-05
3.54618977335852161e-06
-8.71549316276595855e-06
-3.50164110351928391e-05
6.86106474714525637e-06
-1.27596295712369969e-05
-4.17105765959021604e-05
1.15970858606772234e-05
-1.74413445851841759e-05
-4.94702697481970855e-05
1.7711174003753782e-05
-2.33821008869172293e-05
-5.85778594332069251e-05
2.54270869534235762e-05
-3.01231774105011452e-05
-6.91682191048138134e-05
3.25405921077340829e-05
-3.95682490108154985e-05
-8.224921544835194e-05
4.59014751990534939e-05
-6.18056053191638207e-05
-9.51661543855801019e-05
1.19742740194430446e-06
-0.000116278901644429678
-1.81813536687237784e-06
9.27446017149511991e-06
-8.77354746900896508e-06
-1.18540046715615371e-06
-3.75094227935136801e-06
-1.02292293822099493e-05
-2.22580169452797664e-07
-7.59673797732919052e-06
-1.18391926774806358e-05
1.45561255650152514e-07
-6.86392561753652476e-06
-1.40518275260929974e-05
2.45800005182424502e-08
-5.06111651146276458e-06
-1.69195124887326462e-05
-1.99420794008422833e-07
-4.14804850571063101e-06
-2.04413911164490317e-05
-1.25781697615388356e-07
-5.26770284268836199e-06
-2.46549747462804203e-05
7.02144233291672264e-07
-8.53556681636760719e-06
-2.961760531938332e-05
2.65894109412790521e-06
-1.34761395781017327e-05
-3.53942931063680276e-05
5.92236957098941472e-06
-1.96522163486662271e-05
-4.20915779506414743e-05
1.0525585601261891e-05
-2.67025023971737991e-05
-4.98658048456994028e-05
1.63723981471549667e-05
-3.5403936673260086e-05
-5.90224634803098683e-05
2.36881284365566621e-05
-4.5718851422699615e-05
-6.96886837335975725e-05
3.1276153128037963e-05
-6.00004721915349721e-05
-8.28488214837771921e-05
4.21374571719792149e-05
-8.9391314559417195e-05
-9.59138569666908485e-05
-3.08392013165539015e-06
-0.000114982091834889145
-5.26742330476984474e-07
9.25184870043945184e-06
-8.2240726858103205e-06
3.69098707015050887e-07
-5.30038687665220302e-06
-1.0108757728082111e-05
7.90036229330568244e-07
-8.66320015620602176e-06
-1.19439970838755704e-05
5.17029479856642199e-07
-7.26404178444433844e-06
-1.42840932031654892e-05
-2.28944762926825833e-07
-5.13913698385829559e-06
-1.72367171675144435e-05
-9.93006993204260215e-07
-4.52178891146184108e-06
-2.08344626682623217e-05
-1.30090589306460405e-06
-6.58965777647335073e-06
-2.51122404212085961e-05
-6.94244197690628928e-07
-1.14115875065966385e-05
-3.01231570739445962e-05
1.15057616838136133e-06
-1.83303174041492308e-05
-3.59197819391957995e-05
4.3257450940641181e-06
-2.6682255402027123e-05
-4.26318373360886824e-05
8.71601741533315863e-06
-3.5945387793802484e-05
-5.04386489558934317e-05
1.41736975071155674e-05
-4.71897706361690126e-05
-5.96358999415837521e-05