/*--------------------------------*- C++ -*----------------------------------*\
| =========                 |                                                 |
| \\      /  F ield         | OpenFOAM: The Open Source CFD Toolbox           |
|  \\    /   O peration     | Version:  2206                                  |
|   \\  /    A nd           | Website:  www.openfoam.com                      |
|    \\/     M anipulation  |                                                 |
\*---------------------------------------------------------------------------*/
FoamFile
{
    version     2.0;
    format      ascii;
    arch        "LSB;label=32;scalar=64";
    class       surfaceScalarField;
    location    "0.0599999999999999978";
    object      alphaPhi0.water;
}
// * * * * * * * * * * * * * * * * * * * * * * * * * * * * * * * * * * * * * //

dimensions      [0 3 -1 0 0 0 0];

oriented        oriented;

internalField   nonuniform List<scalar> 
20856
(
2.55785666185211024e-23
8.65520568233383971e-23
-3.43547981270718125e-23
1.87237674447025485e-24
7.03902282413749332e-24
4.98998562753806402e-25
-2.42468174045064334e-24
1.24199155859495982e-25
5.24341510189219364e-25
3.17455151850095878e-26
-1.56157595812428064e-25
7.43430527958639392e-27
3.57133840274268548e-26
1.83913569426842361e-27
-9.15196645931488566e-27
3.99361584594739223e-28
2.21597706837198864e-27
9.67593818939013413e-29
-4.86639009781014677e-28
1.91139189837459327e-29
1.24656574670631746e-28
4.60432387133324723e-30
-2.33833464157226436e-29
8.07367181406610508e-31
6.31774189902364591e-30
1.97078594917686386e-31
-1.00995436201697234e-30
2.97237909878018692e-32
2.86140345197577412e-31
7.53488579609473561e-33
-3.89399225484441945e-32
9.3799819676040579e-34
1.14596663502071897e-32
2.55025665358956514e-34
-1.32836910747366873e-33
2.47994787679934716e-35
4.00193393457356054e-34
7.55245692913525943e-36
-3.96309722688004251e-35
5.31765874012148628e-37
1.19580748360769438e-35
1.92647193069425352e-37
-1.01802105551269145e-36
8.80697494177210364e-39
2.97738039724166242e-37
4.13957519808637678e-39
-2.20224295593568015e-38
1.03997470610735186e-40
5.93970796718538381e-39
7.24467715610785364e-41
-3.87916150135161553e-40
7.52801863719583e-43
8.91469880476041981e-41
9.75881322350928643e-43
-5.25838795872379827e-42
2.32751819691588422e-44
8.95550938359349162e-43
9.06298483497496376e-45
-4.91312956620555411e-44
5.84121300871886672e-45
5.93192437574518346e-47
-3.42034730793725e-46
9.62520659226247278e-24
3.5435728496993919e-23
2.62934404748820295e-24
-1.27255378609480831e-23
7.06529991865407095e-25
2.88841377441122061e-24
1.83895121232097338e-25
-9.01463307968393641e-25
4.698646198734969e-26
2.15637519180758167e-25
1.17415290891724538e-26
-5.82658035748717358e-26
2.8193352341482229e-27
1.47187082348920538e-26
6.82402407265689054e-28
-3.42527976141416058e-27
1.51796333367180462e-28
9.15088340229712217e-28
3.60191353415149972e-29
-1.8266484011719985e-28
7.28077538197311772e-30
5.15720262466068955e-29
1.71920568689626247e-30
-8.80162188388808974e-30
3.0816533586022363e-31
2.61827246324957076e-30
7.3799561051952238e-32
-3.81159976102493917e-31
1.13673969316910968e-32
1.1878082686951402e-31
2.82938038244179522e-33
-1.47333756379124323e-32
3.59392703189817078e-34
4.76453814499284507e-33
9.60190778401490045e-35
-5.03841400481138349e-34
9.51904765139324348e-36
1.66638064260914537e-34
2.85092036844065553e-36
-1.50677810346099877e-35
2.04472604035327118e-37
4.98655987306665393e-36
7.29040986768051078e-38
-3.87956617511979541e-37
3.39228132341889321e-39
1.24335684855563904e-37
1.57040017575144263e-39
-8.41160528490648834e-39
4.01265541966355136e-41
2.4839406597816963e-39
2.75491689860039272e-41
-1.4849566617792535e-40
2.9096421640162456e-43
3.73334193671600508e-41
3.7194699431692758e-43
-2.01723116270672034e-42
8.56921622528468953e-45
3.75594705618458684e-43
3.46186434909953056e-45
-1.88864900174033958e-44
2.4298573718647824e-45
2.23287999906269713e-47
-1.29783232581900746e-46
3.5442982376033671e-24
1.41245552786530283e-23
9.44483800659087165e-25
-4.61457596455337624e-24
2.60685534388354871e-25
1.15270811356949349e-24
6.62768657818582786e-26
-3.27877982508467022e-25
1.73696751718557168e-26
8.61868960407722916e-26
4.2418294201914328e-27
-2.12394998175186159e-26
1.04407515544455814e-27
5.89122661047735535e-27
2.47219979379310935e-28
-1.2515604629063575e-27
5.63069420901674675e-29
3.66739922326905388e-28
1.30830892251082932e-29
-6.68966007605350366e-29
2.70494363630633274e-30
2.0693397192803543e-29
6.26001625159489287e-31
-3.23045086104007537e-30
1.14660328151668441e-31
1.05178473831842159e-30
2.69355948081367856e-32
-1.40191698046525969e-31
4.23556850404882716e-33
4.77671561888144862e-32
1.03502933944749066e-33
-5.43003148205613726e-33
1.34096787918519481e-34
1.91803067107670715e-33
3.52028684063761542e-35
-1.86062154433095853e-34
3.55650859962380585e-36
6.71499340412526662e-35
1.04746817340820704e-36
-5.57519304454098272e-36
7.64954050489925426e-38
2.01140185988949673e-36
2.6842511131556891e-38
-1.43821315887664569e-37
1.27073849481854492e-39
5.02013074839280558e-38
5.79398724887670374e-40
-3.12415366713243952e-39
1.50508507034336307e-41
1.00388144395744717e-39
1.01846531236672433e-41
-5.52536249142224779e-41
1.09282121509766674e-43
1.51031735925585099e-41
1.37769515934824406e-43
-7.51905754451925497e-43
3.05837148212390354e-45
1.52107631561001242e-43
1.28463743909987027e-45
-7.05157310997277076e-45
9.7490935165728095e-46
8.15748156962850491e-48
-4.77870529356414623e-47
1.27988889159277972e-24
5.49699205331819805e-24
3.32670596898700689e-25
-1.64104404561819251e-24
9.42507897854722886e-26
4.48819690407281299e-25
2.33864365946611585e-26
-1.16801591581643923e-25
6.28701476542900934e-27
3.35841142957492377e-26
1.50019532276467964e-27
-7.57853737874586969e-27
3.78290837748248198e-28
2.29696120070259381e-27
8.76214591691212832e-29
-4.47325341005367906e-28
2.04213582387147335e-29
1.43067910777642833e-28
4.64600452827156521e-30
-2.39485978969726992e-29
9.81971519531914929e-31
8.07696018850214133e-30
2.22716570973350345e-31
-1.15830920522591616e-30
4.1663694714953728e-32
4.10742029545240179e-31
9.60037046341406828e-33
-5.03449210860564439e-32
1.54044871879472364e-33
1.86634622168141259e-32
3.69555121836413487e-34
-1.95297862167616079e-33
4.88128645044858467e-35
7.49781063446199125e-34
1.25908490300466185e-35
-6.70205461904020472e-35
1.29572618648902394e-36
2.62626188120196091e-35
3.75281867965037656e-37
-2.01122275255808233e-36
2.78930301347709136e-38
7.87055154440247534e-37
9.63320645501762169e-39
-5.19601247705720585e-38
4.63756480842302438e-40
1.96534743973353864e-38
2.08278702011710572e-40
-1.13036634618932537e-39
5.49765070326236989e-42
3.93217982856217761e-40
3.66702655429870859e-42
-2.00203617510323419e-41
3.99550911528299917e-44
5.91916874609789438e-42
4.96809579294761827e-44
-2.72815481491178508e-43
1.05976553487311754e-45
5.96520172327471884e-44
4.63931042684060302e-46
-2.56187425491100731e-45
3.78144375640382987e-46
2.8977216491091664e-48
-1.71054618058350101e-47
6.41801806383304337e-22
2.30834071010726473e-21
1.92138364518871641e-22
-9.1816504342664005e-22
6.2803950905345045e-23
2.43334150770836374e-22
1.77239395632543219e-23
-8.59648250661810612e-23
5.59689561626682648e-24
2.35512060258468889e-23
1.49373002019272101e-24
-7.34529481584238038e-24
4.53913679115264424e-25
2.09427361724216705e-24
1.1507347929168937e-25
-5.73157494226851239e-25
3.34403008689901776e-26
1.70932300951335384e-25
8.10055960726844477e-27
-4.08273981953852133e-26
2.2312560413545942e-27
1.27876201117430473e-26
5.20333565121492626e-28
-2.65132222196402654e-27
1.34297893502720964e-28
8.7438126932611147e-28
3.0431266988212775e-29
-1.56632820365121819e-28
7.25235790078546106e-30
5.4452209710527905e-29
1.61561560691382971e-30
-8.39347712384041038e-30
3.48857843219752109e-31
3.07374428788805906e-30
7.75444175057780452e-32
-4.06348274800897117e-31
1.48068903240825181e-32
1.56296473036783135e-31
3.34673835969305487e-33
-1.76786536250072869e-32
5.47659988439168243e-34
7.10139291686537082e-33
1.28987529181447831e-34
-6.86466204654087366e-34
1.73603126448871485e-35
2.85277043325226784e-34
4.40007165005147578e-36
-2.35813050893714163e-35
4.60998370177574259e-37
9.99219759122533444e-36
1.31310974680426219e-37
-7.08383121040013261e-37
9.9277541871737064e-39
2.99453515948924297e-37
3.37484935477972976e-39
-1.83203657275497398e-38
1.65129624442395342e-40
7.47786576930327859e-39
7.30576622680122e-41
-3.98971160968685962e-40
1.95843355824764363e-42
1.49624306658402419e-40
1.28783661626787691e-42
-7.07365978346184632e-42
1.42408195835266728e-44
2.25259103948757306e-42
1.74677341275352236e-44
-9.64866061391654122e-44
3.56593688675209716e-46
2.27063108290741533e-44
1.63294335429768722e-46
-9.06897206390758456e-46
1.41483376656583504e-46
1.00236386209307816e-48
-5.95691998993508549e-48
2.2457527201918405e-22
8.63233173846610551e-22
6.54467566201950192e-23
-3.16274189162875041e-22
2.19535374505459003e-23
9.07832393405381666e-23
6.03420343145153741e-24
-2.956783193182144e-23
1.95403811096766698e-24
8.77286185772945572e-24
5.08458134865444097e-25
-2.52443934199743974e-24
1.58332972343680626e-25
7.78924872656417916e-25
3.91692908295416303e-26
-1.96900502311258365e-25
1.16563213488858721e-26
6.34989548483619293e-26
2.75774530928622955e-27
-1.40226005123815951e-26
7.77388721682797174e-28
4.74556692268242382e-27
1.77209546836954471e-28
-9.10565056878909106e-28
4.67738125037252223e-29
3.2421331301867592e-28
1.03693985147581578e-29
-5.37998357616541547e-29
2.52513480363473598e-30
2.01755762450627782e-29
5.50838003342896608e-31
-2.88365583622908894e-30
1.21435577031632085e-31
1.13812908418686028e-30
2.64549150046642387e-32
-1.39648790140171602e-31
5.1531332493820198e-33
5.78378489156093686e-32
1.14252281896140659e-33
-6.07790994395047254e-33
1.90565215336102722e-34
2.62643320322400781e-33
4.40651570880868831e-35
-2.36111905112574085e-34
6.03988823420639929e-36
1.05454928660017065e-34
1.50428060021201823e-36
-8.11496618470384117e-36
1.60370012373149067e-37
3.69193504963509324e-36
4.49269939185248608e-38
-2.43911036340881722e-37
3.45336377700246604e-39
1.10593869701783057e-37
1.15560801530328493e-39
-6.31191737744992137e-39
5.74383882200201963e-41
2.76060817921095981e-39
2.50367546580786205e-41
-1.37544821212432739e-40
6.81234757232969974e-43
5.52172178534330319e-41
4.41696677572313298e-43
-2.44017589183962476e-42
4.95421603507841166e-45
8.31048623173777107e-43
5.99556179933549933e-45
-3.33042126077925459e-44
1.14792384099781787e-46
8.37624046598744486e-45
5.60877038620913856e-47
-3.13202662476659317e-46
4.87778856820613475e-47
3.37786374246962265e-49
-2.00954202852610086e-48
6.06157819477184654e-21
1.94400297378529461e-21
-9.24948278486137673e-21
2.77634021242731537e-20
7.15091596374607187e-22
2.15040748976811426e-22
-1.03714535527934066e-21
3.46292737163186993e-21
7.65086298553155469e-23
2.16808331943813268e-23
-1.05989975963775997e-22
3.96378691413500378e-22
7.46226609519046053e-24
1.99678874557680779e-24
-9.88996126309393085e-24
4.16516386675075778e-23
6.63240925485417811e-25
1.68163505227490255e-25
-8.43344777448420164e-25
4.02301048671412466e-24
5.36748686809450483e-26
1.29505915809565849e-26
-6.57185443806643217e-26
3.56981042416902689e-25
3.94748044391695325e-27
9.11759661335113526e-28
-4.67719852997557729e-27
2.90900147107665838e-26
2.63039849884684422e-28
5.85936736572136808e-29
-3.03594359629952524e-28
2.17309334511517458e-27
1.58148618187801154e-29
3.42929563372013557e-30
-1.79337807095138398e-29
1.48401251477280964e-28
8.53216611341121232e-31
1.82218455128216512e-31
-9.61160118707524956e-31
9.23095687051677137e-30
4.10066953061662653e-32
8.75411903010405623e-33
-4.65466485853701347e-32
5.20503723991455754e-31
1.73912124115412585e-33
3.78203849138202414e-34
-2.0259779141448235e-33
2.64394655794162478e-32
6.42781150145404972e-35
1.45924145178435469e-35
-7.87143753256328005e-35
1.20008308828230071e-33
2.03619165656808199e-36
4.98362982019940432e-37
-2.70584398842128682e-36
4.8162899179013783e-35
5.40370862408877282e-38
1.48909045070210721e-38
-8.13482389682274353e-38
1.68537944108769702e-36
1.16305405625367249e-39
3.83202387004627888e-40
-2.10568584752864409e-39
5.0462749622616008e-38
1.93357705939490709e-41
8.30613385433931537e-42
-4.58983636576387083e-41
1.25904323192960972e-39
2.29233661071803945e-43
1.46600304629114153e-43
-8.14488465985850869e-43
2.51714422187691268e-41
1.66671216579709545e-45
1.99067556459512535e-45
-1.11184832971000025e-44
3.78671911714972524e-43
2.40236158476883886e-47
1.86288178580830628e-47
-1.04593597298935729e-46
3.81566364190690616e-45
1.09100626402997881e-49
-6.00052511316484238e-49
2.01708107770178103e-47
3.63338594566380408e-25
1.3880515388662017e-24
7.90213944711521572e-26
2.38645676685827584e-26
1.02302966871457216e-25
4.96648694552430118e-27
1.41571425480815492e-27
6.8986788907473097e-27
2.84608380189440888e-28
7.54147462413080677e-29
4.24108465337542853e-28
1.48244710926663192e-29
3.58114848171253434e-30
2.3651016891735635e-29
6.98838459309970693e-31
1.50152039776702282e-31
1.18891702270181971e-30
2.96511944967110654e-32
5.48943094670659221e-33
5.34359180205937483e-32
1.12437492807894204e-33
1.72081547150264731e-34
2.12458785285263261e-33
3.77626587469549357e-35
4.52066613750623786e-36
7.36850700379931637e-35
1.11017890204588109e-36
9.63383548465350913e-38
2.18731023225844137e-36
2.81219027689659741e-38
1.58594753632602624e-39
5.4116545287062266e-38
6.00258048898061063e-40
1.86168368728317964e-41
1.07297340496066568e-39
1.04374602102450778e-41
1.33974921185570103e-43
1.60071676097140382e-41
1.39710418703946543e-43
3.08215369471360787e-45
1.59874682548754311e-43
1.28958942775486161e-45
9.71249094084133949e-46
7.94191033360633982e-48
1.87382842566929057e-24
7.01347990371600271e-24
4.19372974744254885e-25
1.36142073114795857e-25
5.65412221346917592e-25
2.89676360752832596e-26
8.96914540101980586e-27
4.17757715957285273e-26
1.8278828999923985e-27
5.3347160343308639e-28
2.82412007093160854e-27
1.05134476704261352e-28
2.84878594887581504e-29
1.73999567046729965e-28
5.49490526224899044e-30
1.3559361807808523e-30
9.72335837137781063e-30
2.59868794894610911e-31
5.69784236891265564e-32
4.89735950293404865e-31
1.10598077687823646e-32
2.08748575969204773e-33
2.20517180916045283e-32
4.20618988389790938e-34
6.55707221363316953e-35
8.78303923759983218e-34
1.41666129645474889e-35
1.72594699088952131e-36
3.05126448920986535e-35
4.17620681113962013e-37
3.68511256625039319e-38
9.07228817080509175e-37
1.06068172094015315e-38
6.07786900826193004e-40
2.24815032763955534e-38
2.26986060466105043e-40
7.14777989006123556e-42
4.46440072386551703e-40
3.95679848328554741e-42
5.15341485165111174e-44
6.67060967637226092e-42
5.30913939004326798e-44
1.11896619536430997e-45
6.67308745736166294e-44
4.9119127034777382e-46
4.01798817891710524e-46
2.9720296145984615e-48
6.85107488054434825e-25
2.77466744279698005e-24
1.49810674817245176e-25
4.9892499632297468e-26
2.24041497419694766e-25
1.0382130559655139e-26
3.29393801965891993e-27
1.65821331821059423e-26
6.57172260780695961e-28
1.9631077214286902e-28
1.12284694935459275e-27
3.79117233800637516e-29
1.05028252434180197e-29
6.92866726969530813e-29
1.98707280176559839e-30
5.00790275508513859e-31
3.87742076940235717e-30
9.42262531140418298e-32
2.10794067228448946e-32
1.95559329315363475e-31
4.02047161275956081e-33
7.73517016360879869e-34
8.81696211242810774e-33
1.53280613021191743e-34
2.43347805576540128e-35
3.51605988281514231e-34
5.17485717648742061e-36
6.41497580946787565e-37
1.22294265727507953e-35
1.52904233614638925e-37
1.3716828692454898e-38
3.64035099843045838e-37
3.89227070424936647e-39
2.26558940391107851e-40
9.03115032979973276e-39
8.34782450941648981e-41
2.66825080813587495e-42
1.79543382257878266e-40
1.45829544603658733e-42
1.92659126509945246e-44
2.68574522820664495e-42
1.96071733307547287e-44
3.93334554709390013e-46
2.68996892116483379e-44
1.81757354276665714e-46
1.60364379887979402e-46
1.07943233370222949e-48
2.45663909375901955e-25
1.07189641914166196e-24
5.24622869806348501e-26
1.79175916127277561e-26
8.66095522475022465e-26
3.64456786385856252e-27
1.18457641934426412e-27
6.41749396993188143e-27
2.31261799570238744e-28
7.06866892804614949e-29
4.34930912380619344e-28
1.33721663088903331e-29
3.78641684125686687e-30
2.68594981974412104e-29
7.02410919576991035e-31
1.80754461426034733e-31
1.50427743421489203e-30
3.33780099470966567e-32
7.61695098196936107e-33
7.59254245119129671e-32
1.4270671666461283e-33
2.79810163951996526e-34
3.42561978852410578e-33
5.45138498240377924e-35
8.81204082641381181e-36
1.36702844188562803e-34
1.84394927907257543e-36
2.32535125433206626e-37
4.75795930009726736e-36
5.45864577714625665e-38
4.97720794048084414e-39
1.41725202211284153e-37
1.39209711407733126e-39
8.22908135890229419e-41
3.51832734769914211e-39
2.99105996663451819e-41
9.701556759912682e-43
6.99934061929965442e-41
5.23431591152931198e-43
7.01247723918208298e-45
1.04775367267110891e-42
7.0494946270078658e-45
1.34071077100794494e-46
1.05023035233184818e-44
6.5452717556346992e-47
6.19290820265774206e-47
3.81186391994861475e-49
1.26395936538654443e-22
4.62241486052604971e-22
3.13524245690169331e-23
1.2224847517913243e-23
4.81492084552569378e-23
2.85106895073707938e-24
1.07768233493486538e-24
4.60740238083788606e-24
2.37100874957563268e-25
8.65280693444930157e-26
4.05377351668072704e-25
1.80406678938949263e-26
6.31556709818811168e-27
3.27542880440797356e-26
1.25555664841715827e-27
4.17762888504702664e-28
2.42729485923947344e-27
7.97976718207908744e-29
2.49429712210412788e-29
1.64509360575685303e-28
4.62128872770049612e-30
1.336875639416681e-30
1.01603416893814156e-29
2.4311546865322255e-31
6.38558060899141746e-32
5.69102938989289258e-31
1.15698452460739081e-32
2.6923776496690656e-33
2.87282220856954534e-32
4.95387741821171238e-34
9.89594183203682e-35
1.29635402601836577e-33
1.89510382985107658e-35
3.11821295881527841e-36
5.17402689992424211e-35
6.41940744151137394e-37
8.23289629152597966e-38
1.8011206916521246e-36
1.90303662650664431e-38
1.76314246009325097e-39
5.3659438408935602e-38
4.86009641432916285e-40
2.91674286302448371e-41
1.33235827090023248e-39
1.04570030809118358e-41
3.44071060829557487e-43
2.65118864171558799e-41
1.83245684839028448e-43
2.48868760626455933e-45
3.96973078948144792e-43
2.47112499309360657e-45
4.43558819616352352e-47
3.98058820615769264e-45
2.29718246118294032e-47
2.31865785844269302e-47
1.31105188822759746e-49
4.38752409590936693e-23
1.71399795313386013e-22
1.0598593532471912e-23
4.24131727991966172e-24
1.78205074545825576e-23
9.63763004990218047e-25
3.73587346548389287e-25
1.70334913631352855e-24
8.0175847878539407e-26
2.99796460732870235e-26
1.49687905288279884e-25
6.10407689886169962e-27
2.18728945830400755e-27
1.20843651366030329e-26
4.25045976093516943e-28
1.44658785102426006e-28
8.94900796189276694e-28
2.70330227262874694e-29
8.6361637261715473e-30
6.06180216049079816e-29
1.56681845282751193e-30
4.62848725384060645e-31
3.74211839642827851e-30
8.24972024429727895e-32
2.2107301242506389e-32
2.09518166611453885e-31
3.92947164400133639e-33
9.32114929605348742e-34
1.05725286349865822e-32
1.68399154200182982e-34
3.42608194174204098e-35
4.76921101959956471e-34
6.44799692984738336e-36
1.07959767465419803e-36
1.90289781967028913e-35
2.18621980905683663e-37
2.85058250980971779e-38
6.62222080880339015e-37
6.48728271273348448e-39
6.1052665463243454e-40
1.97238543149002928e-38
1.65838430712694648e-40
1.01010622193361436e-41
4.89625700469231422e-40
3.57169651819918857e-42
1.1917666566439566e-43
9.74086780993222341e-42
6.26498202412279896e-44
8.62235798445845254e-46
1.45832924172455397e-43
8.45621181809238805e-46
1.42120035594893868e-47
1.4623172676390354e-45
7.86757220375009406e-48
8.39416645545942357e-48
4.40152592180083151e-50
1.20258988218764954e-21
3.21665980009407277e-22
5.62394075894761803e-21
1.40224773915871445e-22
3.50557682709138111e-23
6.93175249244035911e-22
1.48312702592229559e-23
3.4847788073442106e-24
7.84194048448756166e-23
1.43111685991628439e-24
3.16757286391074287e-25
8.14791957387504608e-24
1.25922603782467096e-25
2.63496466520342192e-26
7.78533385717996727e-25
1.00958837648643183e-26
2.00618057427201542e-27
6.8380813652147607e-26
7.36067777755079725e-28
1.39734915516662141e-28
5.5189102320684042e-27
4.86525251156797395e-29
8.89082559266262651e-30
4.0857514174786154e-28
2.90318066747019404e-30
5.15561858264358827e-31
2.76672655915317076e-29
1.55527766557122465e-31
2.71603719908473792e-32
1.70743588706286537e-30
7.42564244012471486e-33
1.29442344575422891e-33
9.55665670146199036e-32
3.12972269168979256e-34
5.55055610913289925e-35
4.82075334926449737e-33
1.14994652518338931e-35
2.12659136981149564e-36
2.17384363639852875e-34
3.62234182133697199e-37
7.2147865279235284e-38
8.67036167379229216e-36
9.56121391594941894e-39
2.1422449471617989e-39
3.01620266404557494e-37
2.04711427654389026e-40
5.47987740029801687e-41
8.98008130341664919e-39
3.38588701602206398e-42
1.18096064235406235e-42
2.22834550225858191e-40
3.99377086773799437e-44
2.07271633132294715e-44
4.4314536434759425e-42
2.88910176693835527e-46
2.79912982746837553e-46
6.63191249350685878e-44
4.16179648683330679e-48
2.60531246440142122e-48
6.6481091064076554e-46
1.48242094198246718e-50
3.50357656056306384e-48
5.72441602127648604e-26
2.22556433975311682e-25
9.56118801956045399e-27
3.72550103960875877e-27
1.62373837207541002e-26
5.94245353178857107e-28
2.1911067580499934e-28
1.0845589369592486e-27
3.37123142906646106e-29
1.15781496925525193e-29
6.60810675436085872e-29
1.73959715872296131e-30
5.45643585507852336e-31
3.65421968571019522e-30
8.12859717423569624e-32
2.27146520705986889e-32
1.82244716798537817e-31
3.42057232435798951e-33
8.2479995901897836e-34
8.12995152109923454e-33
1.28708835594290992e-34
2.56882695987387528e-35
3.20959736849961264e-34
4.29138956785548876e-36
6.70640968358662704e-37
1.10566414115987617e-35
1.25295086694910517e-37
1.42055223159318327e-38
3.26095902842041774e-37
3.15303109251952897e-39
2.3247477783935573e-40
8.01781514203852704e-39
6.68767519967957439e-41
2.71303894926394976e-42
1.58009020471076746e-40
1.15577458349784388e-42
1.94118971568571037e-44
2.34329094656702652e-42
1.5378320973818966e-44
3.24769711975111813e-46
2.32698187194394554e-44
1.41127869926103797e-46
1.32469879915769268e-46
8.11270108052637188e-49
2.9695386632910704e-25
1.13153032615686369e-24
5.12291198387877687e-26
2.13665080385766795e-26
9.02654487010434895e-26
3.49768176149228182e-27
1.39492535537516401e-27
6.60289489438439021e-27
2.18267659285580217e-28
8.22693946724545104e-29
4.42213613993273841e-28
1.24323345911633442e-29
4.35856498299348939e-30
2.70074938371965059e-29
6.43759609761497283e-31
2.05914220554269477e-31
1.4968173111334457e-30
3.01810241593770059e-32
8.59216630242521931e-33
7.48068500112309645e-32
1.27407646740604618e-33
3.12691999119525186e-34
3.34378218562376384e-33
4.80868511792774501e-35
9.75965974209438235e-36
1.32258378224491602e-34
1.6080048719494282e-36
2.55322621050191248e-37
4.56441015149072837e-36
4.70817362292319423e-38
5.41914842100134644e-39
1.34855498058159636e-37
1.18806638243376033e-39
8.88601629942498111e-41
3.32140233578403936e-39
2.52667435560942127e-41
1.03904659877554584e-42
6.55657949317537936e-41
4.37796682120490428e-43
7.44897683797761368e-45
9.73974446069791127e-43
5.83967630639031446e-45
1.15805347570134491e-46
9.68850260320175856e-45
5.37191431204614274e-47
5.46126261098882332e-47
3.02133969233997649e-49
1.08111385304277175e-25
4.45521456425260638e-25
1.82524403182589282e-26
7.79847708860830094e-27
3.56031663915666361e-26
1.25007065144663546e-27
5.10308843847895899e-28
2.60952200504082183e-27
7.83062188869805053e-29
3.01622012913506817e-29
1.75094282181502235e-28
4.47397340912828343e-30
1.6012251735453339e-30
1.07120914994234071e-29
2.32355492922504298e-31
7.57935636095260348e-32
5.9465489033305116e-31
1.09242480639393621e-32
3.16842035499485962e-33
2.97648278586506021e-32
4.62405842344702541e-34
1.15508734247805091e-34
1.33238916633305303e-33
1.74975723276092203e-35
3.61127486365092479e-36
5.27737723581901715e-35
5.86574831845030385e-37
9.4627933871002633e-38
1.82371779797741843e-36
1.72163549198964443e-38
2.01163061316335966e-39
5.39512686195927184e-38
4.35467512006689124e-40
3.30370277086512992e-41
1.33046243525876372e-39
9.28250123863715064e-42
3.86903534657710283e-43
2.62966976886345445e-41
1.61197352025717859e-43
2.77811293627342907e-45
3.91125908242681467e-43
2.1547806571470843e-45
3.98841847453609883e-47
3.89579437634307583e-45
1.98623849401804057e-47
2.17229204971726072e-47
1.09185258380639985e-49
3.85946751620098813e-26
1.71254164616661282e-25
6.37188672609195351e-27
2.78890207219446515e-27
1.36982739907592322e-26
4.37775086738298529e-28
1.82789398163556257e-28
1.00540680063234988e-27
2.74910386642513384e-29
1.08195423518833234e-29
6.75349963216271518e-29
1.57441858629680702e-30
5.75181796862701619e-31
4.13593554351347127e-30
8.19609436730006458e-32
2.72627155290738876e-32
2.29820755009679334e-31
3.86217261407841571e-33
1.14113686458494674e-33
1.15141883041306847e-32
1.63836216125552969e-34
4.16528817566951416e-35
5.15880464571201947e-34
6.21267456137329458e-36
1.30378866671910027e-36
2.0450736076048267e-35
2.08695345895342548e-37
3.4203331991988714e-38
7.07309101099162138e-37
6.13760707377515136e-39
7.27932379011653087e-40
2.09414194780186977e-38
1.55548213222944215e-40
1.19683634815659358e-41
5.16840659428410429e-40
3.32205817902918535e-42
1.40324104389922795e-43
1.02236781558747084e-41
5.77974435519532153e-44
1.00877897621964326e-45
1.52189313768882933e-43
7.73974528777005309e-46
1.32811842073726323e-47
1.51725452271180645e-45
7.14643024085133629e-48
8.36261687605851275e-48
3.83678781413280415e-50
2.03937679784170851e-23
7.59183355981544829e-23
3.94347257794586812e-24
1.95063855710414972e-24
7.81788578571746288e-24
3.53787186725428034e-25
1.70178159570612894e-25
7.39937051878603506e-25
2.90485007104018602e-26
1.35319510350468159e-26
6.44316196274288547e-26
2.18463841398157265e-27
9.78792813786516314e-28
5.15526031258971831e-27
1.50377820807685866e-28
6.42013046151134856e-29
3.7853500353773194e-28
9.45999562122176801e-30
3.80309301551024187e-30
2.54340981552687094e-29
5.42712817324519905e-31
2.02334720979354712e-31
1.55812817422723306e-30
2.83012242774621937e-32
9.59759377585769356e-33
8.66095056761495327e-32
1.33585602244228266e-33
4.02020558179960731e-34
4.34066108463477389e-33
5.67607153657800871e-35
1.46846479937219857e-35
1.94543216103702879e-34
2.15581541047367546e-36
4.5996665694426192e-37
7.7146947504478861e-36
7.25319935786547548e-38
1.20749101426944641e-38
2.66907859731462372e-37
2.13644535539348471e-39
2.57159523334864157e-40
7.90500818890553997e-39
5.4228403390847406e-41
4.23104401686905154e-42
1.95165072835068243e-40
1.15992109979846245e-42
4.96431146173314869e-44
3.86199454918725051e-42
2.02102356657764047e-44
3.57163573488090004e-46
5.75128326157495986e-44
2.71019247369744635e-46
4.27892275121084648e-48
5.73659366113824052e-46
2.50575942717341556e-48
3.12563489625738191e-48
1.31431891828654137e-50
7.03888714296603924e-24
2.7972195137234004e-23
1.32657230812776649e-24
6.73147015987123588e-25
2.87614489558394363e-24
1.19062523534536233e-25
5.86984104447415265e-26
2.72015501192018755e-25
9.78373642177089131e-27
4.66643917377632913e-27
2.36656302596338738e-26
7.36474834847285331e-28
3.37490122028405722e-28
1.89251657554922407e-27
5.07377997282905124e-29
2.21383982781167902e-29
1.38905543443171648e-28
3.19503131201652003e-30
1.31158887652165905e-30
9.3305252071105017e-30
1.83488847387158853e-31
6.97908728510267447e-32
5.71477581458311007e-31
9.57890694659134599e-33
3.3110263329016543e-33
3.17601822761487218e-32
4.52629543688697088e-34
1.3871561821465747e-34
1.59149368455575127e-33
1.92531987742766414e-35
5.06781975920236272e-36
7.13187538865885696e-35
7.3204850478623527e-37
1.58769961325159884e-37
2.82781054148921153e-36
2.4656675438485311e-38
4.16884340338625974e-39
9.78232094507583969e-38
7.27072685323236398e-40
8.88039124706746355e-41
2.89693071596913977e-39
1.84755672741247202e-41
1.46146198049733294e-42
7.15157831302681753e-41
3.95624676270809485e-43
1.71525961148050537e-44
1.41510431946246039e-42
6.9007962687400541e-45
1.23453947353520314e-46
2.10736388240788856e-44
9.26350057235606601e-47
1.3411723490936056e-48
2.10221111491137257e-46
8.57290889365250926e-49
1.14774078815549657e-48
4.40690234780461085e-51
1.96189921583678359e-22
4.11677380660881104e-23
9.36772277425523467e-22
2.26110480455158031e-23
4.42314104497326356e-24
1.14103258248571178e-22
2.36538716242681962e-24
4.33867898547332788e-25
1.27621641665461241e-23
2.2589206017779309e-25
3.89412359234586535e-26
1.31153278312587009e-24
1.96837793414426582e-26
3.2012333129376822e-27
1.24012390593600757e-25
1.56390611827005707e-27
2.41073301591607913e-28
1.07847876364672846e-26
1.13059029631008937e-28
1.66192237751175728e-29
8.62318265922180686e-28
7.41401580753876201e-30
1.04732078048244729e-30
6.32797386254335027e-29
4.39139128421904565e-31
6.01935118194395339e-32
4.24977700977404974e-30
2.33622483340803236e-32
3.14484800518670621e-33
2.60235711100515982e-31
1.10814528578775909e-33
1.48720784165834261e-34
1.44594317758069564e-32
4.64172998763295937e-35
6.33105062770243753e-36
7.24379242532362569e-34
1.69549327248008824e-36
2.40911074142214501e-37
3.24526127684808305e-35
5.31083698434371889e-38
8.12074956258587313e-39
1.2863923036935573e-36
1.39421635225165392e-39
2.39654008781597263e-40
4.44872498920567495e-38
2.96940407228196638e-41
6.09464654015221332e-42
1.3170343700370057e-39
4.88601093313265753e-43
1.30608302915093809e-43
3.25029632632074665e-41
5.73380483572377997e-45
2.27984245889085906e-45
6.42940364603504921e-43
4.12677652333967498e-47
3.06242191139253659e-47
9.57163996890003578e-45
4.80282005668571292e-49
2.83558556322796713e-49
9.54563455672853618e-47
1.49419545041712254e-51
4.96101428120632272e-49
1.02300030104056549e-25
3.65354029663039458e-25
1.2858009209213071e-26
7.27009660824424754e-27
2.87723093041193327e-26
8.65297595747478441e-28
4.69118515959091622e-28