/*--------------------------------*- C++ -*----------------------------------*\
| =========                 |                                                 |
| \\      /  F ield         | OpenFOAM: The Open Source CFD Toolbox           |
|  \\    /   O peration     | Version:  2206                                  |
|   \\  /    A nd           | Website:  www.openfoam.com                      |
|    \\/     M anipulation  |                                                 |
\*---------------------------------------------------------------------------*/
FoamFile
{
    version     2.0;
    format      ascii;
    arch        "LSB;label=32;scalar=64";
    class       volScalarField;
    location    "0.540000000000000258";
    object      p_rgh;
}
// * * * * * * * * * * * * * * * * * * * * * * * * * * * * * * * * * * * * * //

dimensions      [1 -1 -2 0 0 0 0];

internalField   nonuniform List<scalar> 
7248
(
549.882330015513162
1869.27458689621199
-1.2654578137452861
342.001562789223499
0.224442658504566267
-0.562839037597808733
-0.278803343740515519
-0.852956056212142322
-0.912383187656714445
0.347485708964552886
0.0664468329836003097
2.52683362631103492
-0.787425960892684684
-1.0181599717569918
-0.529953680074033762
-0.347407468250528761
-0.753247628302515237
-0.889136830111876497
-0.973681324802122883
-0.466345785937025026
-0.600630852482637589
-0.745627244369681752
-0.842285148782751958
-0.90268959381154501
-0.412008241519586926
-0.518543472229654689
-0.626561020232232146
-0.709830320881293497
-0.774708176055931341
-0.381106579597196182
-0.456160085940360949
-0.53802053311569964
-0.611976326998721953
-0.676364118509852341
-0.361765640688311796
-0.420183931460619553
-0.483855688073445034
-0.5458632305959219
-0.605516733408847374
-0.338339872466745128
-0.385974667444796082
-0.437883581843882375
-0.491556911916118278
-0.547057947554094315
-0.313630376266926691
-0.353915606625534673
-0.397877571458565615
-0.444448831067901673
-0.49330107094700909
-0.286864794901354914
-0.321290003822409298
-0.359059028983924777
-0.399878863098032389
-0.441544331925077749
-0.207984632790076313
-0.231575674337698961
-0.258002801025274675
-0.287404497925099589
-0.319859045558148869
-0.355433331930220253
-0.394280729414135056
-0.185026151472320627
-0.204899262571388158
-0.227267348085840676
-0.252271564635716594
-0.280020919237445987
-0.310606394213563008
-0.344077967771187709
-0.159995946016007529
-0.176484952361081998
-0.19526291559728709
-0.216493044509205895
-0.240329491415177954
-0.26688999971658306
-0.296234063838594797
-0.133022032327860751
-0.146424304448743936
-0.162025590460648572
-0.180057136552100622
-0.200776203239526219
-0.224465753206405605
-0.251441378387936232
667.335854913017556
1970.18589244135478
5.60668688849335606
451.868345432287583
-0.340876794121082183
-0.758376736688722408
-0.547535061197222173
0.96816493643715773
-0.397504023679154495
-0.351162247697231478
-0.543560310696581062
1.20428890068439154
-0.842830586897498124
-1.03500932566499593
-0.565162227420445418
-0.670964721240817408
-0.745976796972287692
-0.854634153401257701
-0.962392979655421255
-0.451558613519729757
-0.561044686665644332
-0.676841224207239689
-0.779225364602231574
-0.863328141287712181
-0.405922993719628367
-0.497048112685352539
-0.592445915816875335
-0.677400661471940557
-0.749144192997524994
-0.381034924663487928
-0.451006213431988212
-0.525925030360177126
-0.5957082960659702
-0.659739131691040925
-0.359400707490927007
-0.415804916834730698
-0.476557865671938974
-0.536686043929593515
-0.597406298126408886
-0.336425056551498236
-0.383374102266831218
-0.434139866864595936
-0.487165829594433553
-0.542061100798873818
-0.312531178492434336
-0.352534771606289821
-0.396165135873324081
-0.442629582823344025
-0.490967572468414715
-0.286641565552371136
-0.321060597324729913
-0.358904378328816387
-0.399868852034963196
-0.442135062870179285
-0.258624045237967004
-0.288286637849389626
-0.321182712487591782
-0.357445633418450426
-0.397252217568972554
-0.228654928682006126
-0.254146473262880368
-0.282661645669188943
-0.314409345372409443
-0.349574436308803305
-0.197283669178284132
-0.21916270882739719
-0.243970238349475205
-0.271966637536519784
-0.303408904013960035
-0.164588669273410815
-0.183360484863622164
-0.205149170035177353
-0.230395324373996652
-0.259653699570514374
696.091769617584305
2023.44214520576338
0.0468160418063975278
599.038614085120003
-0.566080838981772194
-0.728459634444691639
-0.364651820911210345
19.4100388242506448
12.9475035482701628
-0.528489912013385021
-0.737075346206172433
-0.805347600888286275
-0.769885727694797017
-1.10097794240909441
-0.511576045088218079
-0.610593713100749613
-0.693339259682480447
-0.825723412692360825
-0.97220884924581219
-0.440007867312285472
-0.541119372162784606
-0.645027461663582824
-0.744695822374491501
-0.832008534327887683
-0.407742537916227277
-0.491888470577464487
-0.57866188596373358
-0.659462998508963616
-0.73025505715840644
-0.381000670759338966
-0.448467916940575251
-0.519097039192339516
-0.58511957176567464
-0.649263587844721046
-0.35823866934456311
-0.413594601573253562
-0.472276465033434234
-0.532180829789725585
-0.592727613030418432
-0.335680425707835683
-0.382165261712855919
-0.432267322016078703
-0.484654301395203935
-0.53935030807024642
-0.312197567951379928
-0.352009975952267573
-0.395437993782966235
-0.441896699562591533
-0.490669759529576199
-0.286860544216367364
-0.321304786687739818
-0.35926060858010872
-0.4005539106680443
-0.443270087355813136
-0.259451829766598363
-0.289362290365331065
-0.322671205334492228
-0.359522113986255998
-0.400205746407690688
-0.230079831393937256
-0.256021887381913726
-0.285237354251623221
-0.318031383834235792
-0.354693702029779678
-0.199225425004308315
-0.221694384689202717
-0.247384584702408289
-0.276684278379493998
-0.310029902937469681
-0.166974201216688489
-0.186408500715282893
-0.20915968622803599
-0.235814006626672179
-0.267151647903982381
676.299431454465207
2020.31898192314611
-0.0269748160511485008
597.743890895884078
-0.650428683524309603
-0.7723551200986426
-0.729587807545104661
-0.589876972143679845
52.9551030655230761
-0.584046995163541749
-0.701843314474233759
-0.797823774952971188
-0.738061241203346485
-1.36127305441850166
-0.489340837890143154
-0.591085925663200396
-0.681013350325013533
-0.795599654193804073
-0.947030628978242084
-0.445066173095349848
-0.541440040118029819
-0.636033689863370055
-0.726264576017890406
-0.796307577388891907
-0.409452707954220674
-0.492488852377730046
-0.57335080310996156
-0.652677515479985315
-0.722838087742267876
-0.381474375707583246
-0.447564140345295736
-0.515500752910616589
-0.5805657197506634
-0.643423282445304556
-0.358725321946945064
-0.413243072097203179
-0.470834644242481504
-0.528282035921304072
-0.591265197595293723
-0.33594638967325946
-0.382025379940129695
-0.431414609036012253
-0.483908819710577642
-0.539047861735737155
-0.31250719888711681
-0.352167926223813044
-0.395474093058249543
-0.442101024328510839
-0.4919401758971646
-0.287417951373198588
-0.321887982348552815
-0.359960837881773466
-0.401491853516455666
-0.444535826979873094
-0.260400650989462135
-0.290524283765947133
-0.324189967330728801
-0.361549288956933501
-0.402923031287569344
-0.231459003774075606
-0.257792988613634089
-0.287614793836071525
-0.3212998294051852
-0.359230024840069218
-0.201005834834468378
-0.223984933925192364
-0.250440580795255274
-0.280871818792081673
-0.315866077191381323
-0.169101428638147838
-0.189108012393811892
-0.212694123865264401
-0.240573819480729145
-0.273729195267044312
767.599497027999178
2054.76443443445169
0.21932919521962943
768.599946441012889
-0.431128579004670109
-0.785703602073121732
-0.859855463766083239
-0.832327139639788549
26.6072058827609617
-0.596610469608466198
-0.688085246314152577
-0.750194950484739054
5.71670066509909347
0.755767581504843577
-0.514018806849012688
-0.617221831315499125
-0.631168027471528004
-0.864277608768242667
-0.99430108743354173
-0.454248299339140682
-0.548929033618468454
-0.637123842800875084
-0.729786593415447049
-0.814780131403242791
-0.416292972305444708
-0.49392546479428695
-0.573003887404990087
-0.654948253868412933
-0.732798401948002054
-0.385814977897835643
-0.449762067711737101
-0.515182699066813243
-0.578047716961325286
-0.642459130681260038
-0.360989244532459841
-0.414517948267672132
-0.471019636211649662
-0.528569994190336123
-0.591583631843320856
-0.337242537173531032
-0.382887202742686505
-0.43179339292541763
-0.484287901399851395
-0.540135734011146673
-0.313349454422279294
-0.352822789884906896
-0.3960657230462723
-0.442906426334034209
-0.493221842937072219
-0.288201229911702272
-0.322671289979640452
-0.360842169272338642
-0.402602771139241811
-0.446122918313861361
-0.261364455310775845
-0.291654821309052403
-0.32561259880600435
-0.363326947998987959
-0.405262876203159705
-0.232708536892022616
-0.259361095005489484
-0.289678633481703474
-0.324085749989143135
-0.363061434942119232
-0.202547273497751146
-0.225941836740371577
-0.253022432041378864
-0.284376557649543171
-0.320715264506298281
-0.170899338092837111
-0.191375319588956733
-0.215648388876655328
-0.244538851889285258
-0.279188373240416454
920.287533545117867
2094.36279905328684
5.24388210919116204
941.829586376082716
-0.721591281723658273
-0.728158472242753319
-0.753003008427065912
-1.00773783236016734
31.5506450417475186
-0.632647896337195981
-0.664289665105848304
1.14404509679131539
4.64840954496085335
-1.28177232856560264
-0.541172663066807447
-0.638364895856486259
-0.629093146154840355
-0.958432416281478461
-1.11754712295650349
-0.475101147940712232
-0.554388106777694567
-0.644067074117848359
-0.739627244076787038
-0.814124865480576498
-0.426762220955836158
-0.501595988790609848
-0.577125581463768023
-0.659201559055235364
-0.737777485612714834
-0.391872050387869542
-0.453838606219161611
-0.517675229910045775
-0.582205978086949072
-0.649991475152157938
-0.364060013957346273
-0.416571493870670329
-0.472027205883693513
-0.530297571959990055
-0.591487283747240689
-0.339018654830726629
-0.384160188984616346
-0.432657469946665818
-0.484934236498176519
-0.540668452440367875
-0.314451334569992358
-0.353676980690266485
-0.396911430021068601
-0.443969996688424851
-0.495184899545507484
-0.289050462309836664
-0.323479291865560736
-0.361721691521370015
-0.403665320705600739
-0.449694084903126012
-0.262235891480393446
-0.292632892719058568
-0.326798090265935981
-0.364812097643914923
-0.40716620652996055
-0.233745407553578005
-0.260631270247916602
-0.291315810380315732
-0.326252495622346206
-0.365982075999241818
-0.203778323105571507
-0.22748528763716358
-0.255036167713775574
-0.287077932631632726
-0.324390075037642056
-0.172306186422091639
-0.193138712616052949
-0.217933752044776607
-0.247586871656969409
-0.283344605794286997
942.312497803939209
2097.92674905311833
9.06020840245765768
956.733148681833541
-0.74676783266349156
-0.79645029559536018
-0.761497204174938047
-0.770693516410160262
56.3130876845391555
-0.651659003512882862
-0.709090528235815976
-0.341748253563862125
-0.741161488790536449
-1.32386398672532857
-0.566322080320704746
-0.666222621387218106
-0.372374860789020379
-0.661783550211788918
-1.16204791433897103
-0.486416250907017511
-0.535746858715287932
-0.64288544793484026
-0.759153459664416386
-0.833733196116142938
-0.436803203653084449
-0.507550426546464983
-0.581346467922715271
-0.663946986891853497
-0.742229977922640893
-0.397597865653121829
-0.457868377588058428
-0.520443654439291414
-0.586176673383138835
-0.653521899189459021
-0.36701760942698719
-0.418578998445318595
-0.473309685580465156
-0.531268241071109815
-0.591867579587032511
-0.340677579450215762
-0.385321268699558683
-0.433511866782113231
-0.486086325582417822
-0.540391943065040459
-0.315432960782725202
-0.354433455415019194
-0.397616509317467004
-0.444612337368952448
-0.496117493196894521
-0.289755778119310137
-0.32412125622491611
-0.362364315412848248
-0.404308775302173351
-0.450668325184567897
-0.262901892622760702
-0.293356354984693091
-0.32762839930047194
-0.365823964476943486
-0.408247142016435249
-0.234492192343908945
-0.261529011739540185
-0.292456601788289416
-0.327755615261621946
-0.367969219087880828
-0.204637849502123326
-0.228551042893047562
-0.256413065633039783
-0.288908743893926623
-0.326862198591030828
-0.173273319359233929
-0.194343670173206168
-0.21948722858831865
-0.24964308601034399
-0.286118183518970948
888.547660081253753
2069.8148373494646
1.67222357691026335
791.410235279981748
-0.657866014128262067
-0.766767604464292818
-0.575160094099644637
-0.559325330460233472
119.717868433754177
-0.632621811715775251
-0.717467810805005435
-0.485995240421778496
-0.34940629421353725
-0.870525006234682097
-0.576860821761295495
-0.676662381657836098
-0.259686520835244239
0.187397237440364656
-0.859622038087534346
-0.498497097408510725
-0.582652262759369766
-0.672927037508028514
-0.777983199764960998
-0.867046942316061942
-0.443443709444970191
-0.513108510623016989
-0.583337603697650309
-0.666607992310657704
-0.748778635647843416
-0.401987063345824847
-0.460374649910024858
-0.521886880584763069
-0.588127224698466677
-0.654475941536038941
-0.368902498837247517
-0.41978484043222658
-0.474187950081093712
-0.532215046019719473
-0.591612182845750234
-0.341689620673218064
-0.38601257043171705
-0.434183609042267604
-0.486478995641609124
-0.540651994903585509
-0.316023458028619419
-0.354890060153802145
-0.398038480924325033
-0.445001301175439901
-0.49717499962190026
-0.290156438425128782
-0.324486644347392883
-0.36273978943784968
-0.404670183118180538
-0.451640109504947873
-0.263264495317020231
-0.293737831322021137
-0.328065288730441829
-0.366374493743736929
-0.409021134631526118
-0.234883275701476907
-0.261989293590442429
-0.293026965831988229
-0.32846878588693762
-0.368912978186755725
-0.205080439952771032
-0.229093977631103618
-0.257104498461233233
-0.289805331890322482
-0.328029739044957747
-0.173765890262250672
-0.194954609428594272
-0.220269303172598629
-0.250662910025388652
-0.287460975978911848
234.175998434225534
362.021520486906695
5.1865453886971018
19.6099616273710815
-0.00306754818861990075
0.450731414547845877
3.23874393247086889
4.01702908529111546
3.95534334347201577
-0.549799423950797728
-0.437650077614290034
0.201923189840110706
1.57115518473325233
3.44030038973907093
-0.531741272146386112
-0.20834007241293187
-0.264050746257343594
0.534195272816323841
1.06152472935726072
-0.484737912921204384
-0.150861678536398786
-0.161927363360865328
-0.305736841262429226
-0.253037574485417582
-0.446875118062112553
-0.52077366320339824
-0.493784659126068337
-0.545527319479021555
-0.337891663964552669
-0.422352244425764245
-0.482760828338553494
-0.53409884152817777
-0.435665710400529704
-0.430962295117089389
-0.395337997010653419
-0.449437658545653707
-0.503732315288982768
-0.559939557776067964
-0.641886749595890649
-0.364506292731085146
-0.413650530715280962
-0.465706072391357917
-0.526838503732428354
-0.603355817815350082
-0.331296424369360853
-0.373826356269769899
-0.419829774758961105
-0.470135476666418584
-0.530610122418071484
-0.296069665845279384
-0.331232127626299278
-0.369033125060693912
-0.410397797931751906
-0.455689870109133699
-0.208584187041593844
-0.232805743929726305
-0.259125419884199293
-0.287312240647074613
-0.317141361387449749
-0.348437665504055805
-0.381702152847572473
-0.181385753549082873
-0.200637971493286188
-0.221463396600246054
-0.243669654059676583
-0.266823356812463497
-0.290243528802010542
-0.31303929874497427
-0.152775671850302386
-0.167640967300052735
-0.183753170844180358
-0.200812447234836433
-0.218306014989642805
-0.235417315432743107
-0.250933727511381488
-0.122092010405576781
-0.132968985936055412
-0.144870638009359953
-0.157518818378714481
-0.170400376329629788
-0.182643390617791196
-0.192861720089505029
13.3224378927857803
38.2108646099567011
3.59355901438401659
4.04025898899073166
1.67636966871704929
1.94359047597913892
4.58935941081155541
6.55044802603903076
5.16932335671856436
2.38757771327466939
4.90971295122525575
8.22016564231460123
8.78072242817527027
8.30057684091772074
-0.695276563138967685
-0.749303207662958326
1.40112067967983478
4.36879786500843714
-0.29628056916419121
-0.553069504357750596
-0.658938842863903029
-0.704541030704353699
-0.754637920165655673
-0.898670469374942327
-0.472989833814726979
-0.552686336708952952
-0.617632921425075754
-0.716460560636302812
-0.609113281723470568
-0.437576762618055892
-0.50594717288895541
-0.572226170180637261
-0.582526088395031505
-0.206249460598827039
-0.401025748336411247
-0.460883739347729859
-0.5225160471385637
-0.583320905016359692
-0.746732531726665427
-0.366226886102768379
-0.417657604506828595
-0.47514541452669623
-0.543392114502164625
-0.631336182950541835
-0.331469948348135424
-0.374792433781359013
-0.422648637694318374
-0.477011753369857572
-0.541664234089801688
-0.295883783372590969
-0.331474412222350912
-0.370260305720923
-0.412849542204479669
-0.460627609432852969
-0.208498080613334108
-0.232763662546532302
-0.259203276916773695
-0.28770195919584346
-0.318126320841044419
-0.350424722758209461
-0.384707536416413642
-0.181598545851245935
-0.20092574119230211
-0.221906874912938729
-0.244320424054478957
-0.267785963493637147
-0.29171930294773718
-0.315343307981531484
-0.153194905776023099
-0.168152220399835794
-0.18440422354107483
-0.20167443844000818
-0.219484469997074633
-0.23706703681239602
-0.25325689669125051
-0.123013448756503233
-0.13404041054031407
-0.146145016161483093
-0.15907179423883
-0.172342334443102152
-0.185140734249441358
-0.19615527457638321
21.9964964574391182
18.4728067395516327
2.54018095945190758
1.86545952421058403
1.74546278589157366
1.92130600409108387
2.40867401864600605
2.55653472317286656
2.13022101413010212
3.86299391370006528
6.11192701843329456
8.07822398366353234
8.35259564560904089
5.02786925053415956
-0.638660847595334813
3.01096155776542407
3.76314993478760229
3.68044488347163856
1.27275812768032304
-0.630876812419649768
-0.763688844072776374
-0.868021585669188189
-0.937376340473692671
-1.01872809000418041
-0.508849013526334271
-0.603392117345123102
-0.701768525215970107
-0.821086174054620921
-0.979981404906638542
-0.445557036462614464
-0.519205698451770337
-0.604667764306081157
-0.687087025763474801
-0.805580935232354522
-0.404224397757629028
-0.466689864103423779
-0.536640426704560358
-0.609355312088401546
-0.720676430716401195
-0.366240236720243473
-0.418746254122149553
-0.477429570230069655
-0.544241119183876854
-0.623556236170713762
-0.330481849641280856
-0.374017226914546308
-0.422334500782370614
-0.476637555389363698
-0.538870688597934189
-0.295080791898659212
-0.330747976105219499
-0.369751201119523087
-0.412544453437044767
-0.460213710438894585
-0.208274908051691549
-0.232481800275643635
-0.258934463602858211
-0.287582251151318469
-0.318342624215786574
-0.351117874430463828
-0.385910294103547824
-0.181749946319997219
-0.20111701564370088
-0.222217148446353263
-0.244862933877215944
-0.268735438952895478
-0.293324818717900559
-0.317923890086771743
-0.153699561745302055
-0.168782792566349288
-0.185244762885188236
-0.202848912004795656
-0.221176685803611994
-0.239542283603020711
-0.25689419437068739
-0.123929881299431915
-0.135173797492550873
-0.14759697187863674
-0.160992333521908004
-0.174955824957899769
-0.188784172451395726
-0.20133891654919378
4.73743158585573187
2.62141923315290359
1.78161687122807733
0.93845519774243491
1.39972464302948518
1.70874335522333332
1.69946448594769395
1.43647759292693733
0.868202681933759823
3.17252748654088856
2.72770939270439161
2.9375356155163046
3.42595834644203823
2.90494431511581652
2.10995795086087679
5.96485373047869771
5.52175471128387585
5.12116709741265197
3.89630251151342488
-0.644513323223921408
-0.53093111300045126
0.21326202030564087
-0.0103607901853796803
-0.570105296555434071
-0.537277051259451355
-0.611817713124511386
-0.750538099814149762
-0.845020070564486248
-0.937753666769699845
-0.430113059433929135
-0.517590813493592594
-0.617497130698670849
-0.709073788357231227
-0.808048120604613063
-0.401515503589130296
-0.46412960218349969
-0.535618693372672094
-0.611909706541046372
-0.693212774439298407
-0.363430317497249633
-0.415735235142943416
-0.473506834881235072
-0.535942760522675643
-0.603146355759796138
-0.328244857127051204
-0.371385743372412425
-0.419016874803821437
-0.471198999699078303
-0.528203276845094161
-0.29378093762700358
-0.329268179602304978
-0.368027703353050295
-0.410177231329610481
-0.45611528337776247
-0.208035404145833241
-0.232137637182251971
-0.258553584427962335
-0.287260943658744938
-0.318185914349100263
-0.351166010047298083
-0.386040298765087053
-0.182011991128373241
-0.201422250465823016
-0.222656531489438897
-0.245569132575384125
-0.26989300736384525
-0.295178625981836362
-0.320780132962850739
-0.154412221590965043
-0.16966511131445286
-0.18640843772315932
-0.204459480638844282
-0.223472845123202812
-0.242864133549071132
-0.261728220778717491
-0.125069562992696809
-0.136601395449260088
-0.149450382212133415
-0.163474335700271034
-0.178365278280963685
-0.193562882809454384
-0.20813346688012288
6.24154607772637871
0.784593650501516193
1.0359268085977047
0.392210213149396358
0.852690094300204371
1.28842999445709117
1.38819052879720228
0.803874294579699833
0.240802382598205716
0.885742915902834715
1.11089797875271357
1.78265306719485994
2.34985641335048978
0.858241136933605486
5.10049387177821067
5.99629243604302165
5.84665864961212911
5.50529709056967054
3.4786696812891007
-0.521147199509718106
2.04181838034940233
4.51091845913880274
2.04329761290324008
0.406594680989711355
-0.497798909216750518
-0.365251197316651233
-0.785539861411475582
-0.850222482560173298
-0.906425456053318479
-0.401065439399870438
-0.527563669801758284
-0.621501014353424419
-0.704449929476707148
-0.778919956885184672
-0.393857304043282952
-0.457868081299113217
-0.530361711690646609
-0.601181051789826171
-0.669889880377841029
-0.358276166904058224
-0.410164691736669751
-0.467158232376075344
-0.526477428400105696
-0.585002901494981575
-0.325038240512066035
-0.367596155185166418
-0.414350219345542892
-0.464565780668292683
-0.517674456455438525
-0.292099677388674261
-0.32729881009255124
-0.365707856581297008
-0.40718200748421729
-0.451769693004700768
-0.20778258646008721
-0.231750913901441757
-0.258105682056741892
-0.28685405760557392
-0.317929158343967844
-0.351144077408013844
-0.386285911582503361
-0.182362407675266514
-0.201826187741808188
-0.223220057522753118
-0.246446929976867679
-0.271297513987951489
-0.297392823308159526
-0.324171847989257633
-0.155282950294251182
-0.170740958317367991
-0.187825309156303827
-0.206415663722665316
-0.22625347606397811
-0.246872467363434822
-0.267522868093329202
-0.126413164332379313
-0.138285285723134865
-0.151637955684365722
-0.166402076997442694
-0.182379250753856775
-0.199170907590500879
-0.216075906368219439
25.9468198605677038
631.75768759777111
4.65343451746948844
-0.0816143119715547621
0.225805527276131429
4.48474075366862124
8.64010876700472963
2.54586177631777444
-0.432302177421185818
-0.101301410800418226
1.09569462964001518
0.721237557481213432
0.541336360982691445
-0.584942329809300388
1.74382965881919905
4.66280041292781
3.95078890040407771
2.98639239555929237
0.383161675908709698
0.14176862596574008
4.16658606591853431
3.73232566592562431
2.31357420744743125
0.285100717604764853
-0.352497033499626022
0.645883047292001411
-0.270261901845632591
-0.845667206644863945
-0.882513231234083873
-0.394598135002839745
-0.52182229057125018
-0.618468168881263547
-0.693509451196388071
-0.755219078537465949
-0.384610938326662044
-0.45087381174297686
-0.52357804071407632
-0.5902204767980197
-0.652921465952023494
-0.352207886266285575
-0.403610478834211472
-0.459903626575422941
-0.517195256012367821
-0.574010345820056167
-0.321520552342913712
-0.363511753574209395
-0.409525269615843235
-0.457710226072629178
-0.508125672582239174
-0.290328603781906114
-0.325249608144780267
-0.363369769626158967
-0.404400497277949023
-0.448098755378575742
-0.207587020596057381
-0.23141846123728696
-0.25772758047825628
-0.286554046562891407
-0.317854419168386526
-0.351469187539259931
-0.387257528706050791
-0.182826840362037252
-0.202360117594691802
-0.223947705393933244
-0.247547509693042345
-0.273019230475462338
-0.300080250553509731
-0.328284416610220953
-0.156297950766007138
-0.171989853837918177
-0.189462488599744794
-0.20866466665330799
-0.229434989237573272
-0.251443101852108941
-0.274123142796407759
-0.12792758882040392
-0.140174187858706001
-0.154078702033584092
-0.16964950475013349
-0.186803785918793708
-0.205314974356447161
-0.224734198245657046
65.070222398628573
1406.10444354709216
5.0637206750558601
0.269918285943472946
0.32858710389831608
5.3245220304712495
9.40290296207156473
3.95045792112023886
-0.724066368821701389
-0.188783540246734077
4.214175355909064
0.168747288976299786
-0.577355416296242208
-0.800379444439929033
-0.485910042387611152
0.0920060540921061598
0.0470750352941096059
-0.498104371648679267
-0.940694821816473792
-0.28734282255463417
3.22188490951918149
2.87323795449026864
0.606385844455668899
-0.970593884490574599
-0.130773594336487498
0.273771654779712714
-0.570041051455615899
-0.813820300638289806
-0.848603569960563187
-0.403938342471237111
-0.500835607062053323
-0.593864263219788358
-0.666348956991943742
-0.727779679723067896
-0.375192259923922911
-0.440534252414406413
-0.510633949265546616
-0.575280028550129163
-0.633275639745113361
-0.346336797847195399
-0.396676642549228298
-0.451707752306853116
-0.507517472593083774
-0.554507272543460439
-0.318230456200908784
-0.359615756759013028
-0.404811896307941788
-0.451738802546316043
-0.500920261376620712
-0.28874776808198499
-0.323437025104125753
-0.361350218000675572
-0.402108211665918258
-0.445160932570806134
-0.207524242852064111
-0.231239856367892599
-0.25754457621423188
-0.286510663863456305
-0.318133349718527914
-0.352311013958803376
-0.389029712495803981
-0.183424306664690673
-0.203049094085477666
-0.224868798742772824
-0.248901013732050952
-0.275085048223757511
-0.303255012725628492
-0.333113553989643707
-0.157439682206609477
-0.173387730924353112
-0.191282963203019823
-0.211147096191844463
-0.232922740108258197
-0.256428818177281415
-0.281299344125784556
-0.129568155181279454
-0.142205678178495526
-0.156683759369411008
-0.173089246534075619
-0.191455976922521587
-0.211732185967979158
-0.233726174728005082
272.943716052627735
1692.44981511233254
-0.427803587191866341
154.232951586709959
1.34452820434075249
0.248198160249570171
0.775459650915745202
0.114209139863859749
-0.813420160578900431
0.402804292207100179
4.01498965308278688
3.06781258808596258
-0.79648830869125764
-0.935509838590496523
-0.493646374757340356
-0.317254791357782229
-0.710362204341611458
-0.896049412141082913
-0.995022432011634317
-0.482143812989514309
0.321859751547811546
-0.0623391817781460827
-0.882557017565332336
-0.944875936873537881
-0.319252025328154332
-0.520669177999646404
-0.691034767702104591
-0.760074462102949822
-0.804965045192561179
-0.387775082582335673
-0.471695631986291608
-0.560581968581482015
-0.635270956824420474
-0.698765090187785765
-0.366877235753419628
-0.42844530556988647
-0.495346047787664445
-0.5591245829280862
-0.617639884649866855
-0.341461482597993971
-0.390337269420967636
-0.443748506498357509
-0.49842464806522313
-0.549236457377405896
-0.315511802510771322
-0.356288005508926364
-0.400746517842784145
-0.447411376009222039
-0.495898416447277446
-0.287561012184961273
-0.322074922951126885
-0.359859884063749524
-0.400538502167405053
-0.443428615958610606
-0.2076536718147039
-0.231287946179640713
-0.257633003114344394
-0.28679412256647413
-0.318813190484675268
-0.35366682947960143
-0.391400958314825576
-0.184161464126054747
-0.203901530211040682
-0.225986363423230086
-0.250495508676993606
-0.277453209232551623
-0.306820607457488681
-0.338478139795178212
-0.15868267396429997
-0.174900991686530977
-0.19323740446757523
-0.213787576982597732
-0.236599312095964798
-0.261644314496016717
-0.288769795064179158
-0.131284190676739854
-0.14431239645951438
-0.159362579150041705
-0.176597715939046745
-0.196165288607222377
-0.218185261650276185
-0.242722665244241742
605.270491471819469
585.130085511917287
594.832858406444984
570.660031513630997
503.922224729320931
591.257198693421742
581.670888718296624
472.112985898706654
520.484099643365084
588.88937228193447
574.995232481866537
609.719409111450318
578.337254185657685
764.41005609615604
869.106112315249902
1015.62304520163639
963.376990840263602
838.515402505190764
496.820779954066325
780.773963342015691
847.217604055058928
763.522367121353
1136.18784037147566
1161.95443298692862
1141.7326033670106
729.678926051003941
1128.17935039166696
1021.38506323385559
697.384781413516748
260.51176854904304
953.203304804433742
897.632303088100457
580.74499444684966
1508.9261473662184
716.517339331288667
1125.93735202562448
369.382921512703433
1244.28840868460497
695.85270257333093
175.891031091038514
478.96987095374169
1100.5897016198187
718.000005857697261
152.791329870531797
1161.20825522336372
446.983374677473932
380.337049529831972
139.083572255128473
1367.62886943840454
244.249591859256071
99.9632596895170025
1395.84677108481696
1204.20110764156902
320.30597654023245
93.9369654806861263
278.065752422536207
75.132809308694263
396.177631171309031
73.3302571542243555
755.519665686536086
220.220257637181248
73.2849470409403807
1560.59419032067899
967.907605540521672
145.122236596569877
74.2574505458546383
78.6761818582038899
39.8324081981466307
87.3510155614162329
40.155958961522586
432.139210380349652
95.5046242729238486
44.7708305508390154
1618.34478512016813
846.594286103085551
106.481406021489803
51.1695041729190692
34.3790537605388451
18.7971283165444376
43.3551624613987272
26.8555458409686523
83.7964217716974957
47.0537968978862793
38.7971421518309043
1295.57587735455149
708.908501340147836
40.4612717953490773
37.8161597778147822
450.297462172011308
479.748872895828583
650.681127500675757
624.281944995395293
192.537586043849217
350.659669945885355
450.428212717455892
566.537938501295571