/*--------------------------------*- C++ -*----------------------------------*\
| =========                 |                                                 |
| \\      /  F ield         | OpenFOAM: The Open Source CFD Toolbox           |
|  \\    /   O peration     | Version:  2206                                  |
|   \\  /    A nd           | Website:  www.openfoam.com                      |
|    \\/     M anipulation  |                                                 |
\*---------------------------------------------------------------------------*/
FoamFile
{
    version     2.0;
    format      ascii;
    arch        "LSB;label=32;scalar=64";
    class       volScalarField;
    location    "0.510000000000000231";
    object      p;
}
// * * * * * * * * * * * * * * * * * * * * * * * * * * * * * * * * * * * * * //

dimensions      [1 -1 -2 0 0 0 0];

internalField   nonuniform List<scalar> 
7236
(
33.5987253687624801
108.783631707167743
166.367491448504751
176.06329250809975
177.448873697473118
184.2594598138013
193.667196783293548
202.879582779859845
212.098768638090291
220.936407973620845
227.040225834548721
232.546587033709898
236.252644328274869
239.239769313611987
238.77660784488188
234.336478719779194
229.192848800291245
222.259448790942827
217.117772438345241
212.829590198532912
211.507130799146353
206.203410996609534
191.042961736418533
180.950243464188276
177.678265842277369
174.621235959798071
167.183642626323717
160.57178935507153
148.184095064373281
129.97014447968715
132.436051228316273
135.841097636574119
115.248173429121493
101.770153014945237
132.346366635720898
317.644273595737104
949.086458532275628
1931.64847629980841
2.64120328761705991
33.6126043810921402
63.4208303179331097
66.0722204967802611
65.2084288024493617
68.5804093526091378
75.8653648487090635
84.4774564160110941
93.3133128002587284
100.077173378728077
104.738215064608028
110.859737991530636
113.449358349023072
116.527017446344729
116.074782592142412
110.650531810669861
107.322858324323079
98.6073823530773836
91.8911573186488226
90.0107756252988054
92.0775349942098842
83.7506892365852025
66.4223430975719111
59.8407560320066523
60.281299464931692
59.9580275737152419
54.0322527883572548
50.9641215450678828
45.1562757515918349
34.0525444555182304
38.4509338304369805
42.2571721834841725
27.6042647862458779
18.0673062421195141
20.0362935559560356
73.9906874859208727
468.260325445189665
1584.61462296981222
2.6324829649041277
10.0109018509838528
22.5433507907202682
23.0133234767536194
20.1858932254984538
19.3175890917667985
20.1241783868576221
21.7451845542547915
23.7942680069459129
24.8122924039299875
25.2735554180070636
27.2913594370550641
27.349832913861519
28.4450458104349053
28.0283311410693727
24.8238428198054919
23.5677611314929294
18.9866898655833154
15.1147859216169564
15.1496587133042837
16.9093859297967981
11.6178512044814539
5.07572204270000071
3.61150581053669395
3.67293049585096831
2.68634104958049624
1.76700329320977145
0.726271578906533266
0.575364463799109105
0.717240023495005263
0.583565198332245738
0.497277307810790048
0.655018635359892687
0.727021542204240756
1.05652273715338496
12.2744920309159582
145.366706572696785
935.471994665207717
2.56071158022758816
5.13907805717125932
10.1725456000340575
10.8252448776559653
9.42375225604450684
8.09513882031323462
6.85984575242179151
6.13556319183804266
5.6687237139079194
5.46647413671303628
5.1944199427192963
4.61014888051141014
4.26969430969143193
3.73143948847076867
3.08892035232976792
2.6485985017632192
2.06335389737378083
2.12287320980728422
2.11831090522840393
1.80986249379882391
1.56494513487211639
1.66676901662258503
1.8185986993703247
1.38832217430681615
1.11509362277400159
0.952481093709561577
0.825819256995853346
0.6509207382555664
0.571968692496472086
0.564327887524973981
0.519210388848329041
0.467591009900945376
0.432122550391677462
0.513548798989669208
0.808742053082753154
3.35088430896188028
34.2375728279882452
449.597584967850025
2.87856162308823649
4.20313929230213823
5.64009716324763755
5.72156410390773118
4.89953849074301928
4.2090887026975139
3.75260383376962681
3.50657216484598377
3.32238815044506275
3.13294426771920875
2.85626120781043191
2.52390459059108085
2.18810391989015862
1.84942750144697943
1.5194643360574025
1.28206233276501247
1.10720317347770991
1.08406421589280955
1.10147677478367001
1.07778485413527481
0.996793365534791365
0.955970621716401903
0.903850852127392246
0.74714045026769127
0.61887951166663846
0.532749698855041198
0.475827410417280383
0.441322911031189147
0.41284889340792863
0.40767753052342226
0.381227733292041404
0.339509853081940705
0.287463844142924918
0.31653413987092871
0.49109162911849924
1.47198904644259798
7.73813334073226144
227.561449794806691
3.17943689111614924
3.84059453545686047
4.05382476241002099
3.86881156613789834
3.46247938869414051
3.08707479648145311
2.7985007544634799
2.58184090712820602
2.38413756601696969
2.17815847014294039
1.90729767751011048
1.6525173397424
1.43306207379236361
1.23744645954131327
1.07982515172225191
0.946561095611618164
0.840885938599785665
0.783563022955654942
0.762461282594786294
0.738125303633575758
0.672694212505033917
0.597636579525330447
0.510976863336791709
0.424152508620505797
0.357625943786436529
0.313754329476251037
0.28606597415689794
0.278019784690599625
0.271407962432067773
0.269869005051476818
0.248817452393449878
0.206363190545126529
0.146024265148682719
0.137320585828590302
0.197681582086222885
0.746272148686363934
1.36915284632248735
101.929996463636087
3.3413741216346402
3.52466351447253023
3.56368218243482726
3.45501982088008397
3.14138247924781489
2.79161066582243889
2.48923870158201233
2.22141030155350006
1.98726273136497933
1.74919231460590874
1.51673204318667709
1.31985848483116452
1.15179597607916984
1.01332495470928996
0.895643811067556639
0.78509299484292927
0.684845098235095207
0.607769612252375024
0.555456970654250148
0.510956711509916062
0.443864843044580626
0.354756084607638522
0.278795292709970166
0.218982933405528435
0.181104119639028061
0.161529904598897822
0.150649053732188176
0.148951477583675995
0.150973422688649328
0.151260921045167862
0.13576465179065389
0.0910561023550435777
0.0246597100478401776
-0.0115252267177333723
-0.0502699526065825131
0.391117165799355182
-0.356429637792513354
37.1305811329404492
3.30125090638073937
3.29835365697698046
3.39991321613963304
3.31958889173079008
3.00133492778942657
2.63710882784240219
2.31570566109227682
2.024238228828799
1.76714816235885674
1.52824764818287462
1.32475965667543827
1.15189059406863947
1.00184563307499319
0.869182098318914687
0.750383765954535709
0.644464963801606339
0.548134536630944136
0.468382436776031086
0.403575692724520207
0.338937589963351549
0.261919721344620271
0.179966578072428884
0.117756823647068742
0.0790528999146880018
0.0557846623329831814
0.0439642674477789264
0.0395032674887391133
0.0400791426508827486
0.0432157281021815498
0.0452026296122687299
0.0327179889059594498
-0.0106899322438975819
-0.0856819102458074022
-0.133682609435855415
-0.245598275818216361
0.179537743822676954
-0.638548200269719146
16.5516682436141593
3.17176215829215025
3.15333394698005076
3.28751710313165191
3.20941212095428829
2.85401298718394836
2.46742240599909968
2.14024878753378722
1.84374333287518732
1.58103625575385043
1.35216752497110204
1.15851866333391218
0.995204603096428553
0.85499299451070554
0.729947391925106936
0.615179045155890725
0.510671927841459983
0.415583357435019396
0.333524209804424654
0.259657896656799059
0.184239379806207637
0.107721997600216168
0.0416199790405034076
-0.00658423371441818617
-0.0351191898790232937
-0.0521178387054548331
-0.0614844593039842735
-0.0653262922583064398
-0.0648335960075391293
-0.0613635880573744075
-0.0587275975909863357
-0.0684748459501026696
-0.111526356784654279
-0.190670127032466663
-0.245231923737248003
-0.391812418338783885
0.025603041644525204
-0.886740039789362555
14.1754788355078176
2.98248322892837381
3.0054765919135642
3.1494556883252951
3.06701911101919489
2.65582419513139989
2.2483360996363535
1.92285110149133387
1.64016003542208288
1.3908966151214035
1.1784391508316745
0.998714429068124021
0.843736935714808789
0.707533839702138678
0.585345096468494308
0.474461067225490529
0.37313667573190612
0.281085423048420768
0.198271395662400707
0.119707430159320172
0.0454640116583091558
-0.0205746459563558304
-0.0731582669468806568
2.7466931792791458
2.84455083019160382
2.98371655731187246
2.86842645865261225
2.37368072557302101
1.97267287149655801
1.67760163178757726
1.42240686907304492
1.19604109314174023
1.00201259707689183
0.834697588305709282
0.687047423968840665
0.555671723950696306
0.437598842182236547
0.330785723444720903
0.233411629651220975
0.144919824357479854
0.0642178730624178851
-0.0103869457813960953
-0.0778421612385846728
-0.135507745762944998
-0.182399237673490644
2.48400130323320045
2.6624269606971418
2.81307736438873723
2.49975525179961622
1.96527348567730176
1.64218434073503006
1.41677221141425869
1.19913571499976523
0.998108669565780371
0.82124682078071598
0.665041125951990608
0.525810299045012419
0.400924599814562965
0.28822706191802383
0.186001232679696482
0.0929944685200969623
0.00850538644672216293
-0.0678844648469043577
-0.137042458726382099
-0.198337571412370073
-0.251419095774631174
-0.295717600928886881
2.23772695263735422
2.46135248440860366
2.55075789244260243
1.86577917894265433
1.47112663901421481
1.29201285257068998
1.14583137884912234
0.969474016556762797
0.795152045942368213
0.635956243140991528
0.492140486924569576
0.362191370596657736
0.244378544423985433
0.137334400422684411
0.0399930803844761318
-0.0484096500467678936
-0.128338020703564704
-0.20036552245392758
-0.265114282450730654
-0.322521625595905359
-0.37235066629016278
-0.41417534581427784
0.448158519309548753
0.317207713688281157
0.196730623802899629
0.0861699596451570571
-0.01503636312328549
-0.107287784298567335
-0.191055203377084037
-0.266675203597805277
-0.334783533568490554
-0.395826267200348081
0.0298447406558532968
-0.073352247000236126
-0.168546673577894435
-0.255656449236322247
-0.334827662090743328
-0.406356744212645449
-0.470752038503739367
-0.528324090799826562
-0.322878383688804727
-0.404867104203606942
-0.479549789437529794
-0.547124567644333704
18.9498312031402705
44.7502111032649381
77.9099193282735882
90.9984855062663627
91.2698493022732009
94.0163322052535051
104.531132507593227
119.363814855176884
130.356772932892056
147.037862089470167
158.886834801257862
166.885769558739412
172.277390465865324
176.61849097401398
181.43228434126604
183.125897632306419
179.940922243713203
176.221425654305676
176.2735629821982
173.771504667775218
173.18329224795994
168.083637093633712
160.361586131737198
158.679762851938477
157.357359139161275
144.309016918788188
145.781521621382751
149.802248506797639
135.092551785260866
125.987901663269568
116.481127150543642
110.50987243310459
108.342047695257804
102.598580705722469
111.986916368104545
258.531179380801348
838.68333917145776
1778.59753133257641
3.46485358934993393
4.44200053662997529
19.6410250561283064
21.0034102200344073
20.0073969435009076
20.9542283765051707
25.2951186695300123
31.8576631554200986
36.0495114059630737
44.1897971266428726
49.9074606435064396
53.9797354804825602
56.285543228826441
58.3797120418489044
61.7123882038098941
62.7697476661423934
60.2252767593595877
57.3351310634984372
58.2370112531881148
56.8909556291063154
57.5363442959510962
53.8805059676417386
48.4156485548942896
48.9383240398575481
50.2139165608838596
39.7592534157504076
43.5401593793072692
49.0146744391363995
37.9354083478308155
35.2422033508344583
29.5522798041206585
26.3498862856751401
27.6949436599772696
22.6208686599427011
14.6663591934837498
51.5331854610463722
385.497600079633457
1423.31015658298952
3.53266617264986493
3.43666642241246922
8.98352986337530446
10.1032440318454526
9.38256373059689963
8.53398222697008357
7.53030708329969922
6.74324922760445222
6.80796332363532652
6.31601485267306906
6.31463950844411848
6.24675343029287689
5.71146306750493249
5.41578561932639335
5.05890805813176225
4.30603759338717751
3.72914335925615514
2.80317435753887079
2.13291062236707862
2.20928697669280538
2.43221202351237764
2.20880749414583155
1.5292167500119962
1.26184621321070933
1.01356441829986088
1.22786960417699098
0.912448069471009648
0.734756987863465882
1.04779972214221218
0.810981806293901264
0.802214749941806415
0.763229433040335636
0.580555960045867625
0.67585310061887327
1.08894656998056605
9.15479797079927238
113.623763542325037
812.837767094419632
3.49304798545656592
3.58172147751643299
4.98830383812123568
5.30208985901618135
4.83782801351296854
4.32922414029708058
3.91834841931024602
3.67558107269855228
3.60048172045744463
3.46412861968319508
3.29953159195779122
3.0948926518362363
2.81495265751028789
2.56529943033769614
2.29358661207760361
1.96902268003548331
1.70851875051806723
1.46168148809524756
1.31065067478937403
1.30925328988549494
1.35871334662354504
1.32520004334364772
1.14677108101546543
0.952366434665270933
0.787163126953537073
0.74145905827496339
0.708004442085689467
0.669607229896421297
0.690355673902671052
0.640672779390731639
0.594234684181717321
0.532341169494605304
0.438613129287943271
0.494907055505746984
0.815358049785896988
3.01680470659645206
26.059741485662407
384.973888759638612
3.49267776077038761
3.57633366882426662
3.82753458517332801
3.7992384118314888
3.50756424903297725
3.18270504949288036
2.90746301836656196
2.71621300508756391
2.55543000311822288
2.37672112288460546
2.16852053415261858
1.94717619771095141
1.72497217822318349
1.53084958298861373
1.36503034940673529
1.21456711314989185
1.08632051943711638
0.990411329232145032
0.938794059973606543
0.921854437647840363
0.910108895717722355
0.888073218221983485
0.829015452173360368
0.722330314699490827
0.623093591920227841
0.573994345949414897
0.542167225086318982
0.506799747391558753
0.489956719615712744
0.474172593247217389
0.437146224822924645
0.379447305579580618
0.289944302327584613
0.289353605992874408
0.473159128968669296
1.41511369938654941
5.8820364827317162
191.523401375826694
3.4596435000698289
3.48792480516967407
3.52933865994100726
3.47458132745896187
3.24023759072062623
2.9375692623521692
2.64198039921645211
2.39100594215833473
2.1611390838234974
1.94865562863923958
1.73178266477317666
1.52602754459097678
1.34908485279031254
1.1987544118045188
1.07069568140594873
0.961978701393823021
0.865357050006619444
0.786115864759069694
0.730916811650688447
0.693937313604518491
0.662015760591628144
0.628341042882908596
0.572420523667074299
0.498020416320036574
0.429415901417181889
0.384309469304348728
0.359600738734902392
0.342656914310791483
0.333146807713275761
0.327292675554723744
0.299125224016759228
0.238390352895734736
0.151543261758348424
0.114001949386475898
0.167949625007034919
0.701274271121053117
0.846257927721675962
88.0121618201163187
3.37787685442937491
3.38367647682553274
3.40792020379568505
3.34703980104838594
3.10670669519605669
2.7943418505044102
2.48744809367926711
2.20887919007655587
1.95426944977045736
1.72392376561785143
1.51400210489567022
1.33049805541598487
1.17262475980154912
1.03641565453052165
0.91648965582525066
0.808804818685798566
0.712765077121064294
0.63225443530089398
0.569957173842336462
0.52228694143755694
0.475938190513012116
0.424896473724224677
0.363677708552103685
0.300769344800414951
0.252449646554388174
0.22399172590150318
0.21072975141931416
0.207147332869591194
0.209274451919975846
0.208144559129622264
0.189365265518870118
0.131691350960053688
0.0337081433453650936
-0.0322809879266288124
-0.0817634684972996517
0.368446593897008179
-0.474625480835493718
36.9761618454721201
3.24369047533438692
3.25049360437832302
3.30310937705913599
3.24868484571539851
2.97894599620744849
2.63808514577736686
2.3215249765726651
2.03693145529582642
1.78496475602911975
1.55413332435351625
1.35005975084104213
1.17425380787536859
1.02329694623954448
0.893983263675129258
0.780727298139741177
0.67705133499400949
0.582367703756068722
0.500668651551806509
0.433113171481197767
0.375003393726706102
0.316732020267195713
0.252334658502109344
0.193302083008854542
0.145695169613131448
0.113258301007718387
0.0961867409960889264
0.0897735937808279427
0.0925298454397358583
0.100191575320685122
0.107260033470910288
0.0978579544587225847
0.0390830698594429871
-0.0758898810865307194
-0.151259799544839812
-0.275912900730118649
0.168638645184980618
-0.732965554500736971
17.0167957285904095
3.06883649450189555
3.09046431015698886
3.19641335803182747
3.15264900479530263
2.84019350360627021
2.46327552456130583
2.1344249128201831
1.85417642221243284
1.60743460225250923
1.38605095353350061
1.19376840212213398
1.02736560472666771
0.882912947310399598
0.757059811240064162
0.644554862314920873
0.542369931940765104
0.450342399549303662
0.369639034516050957
0.298820688860595096
0.231853552727402379
0.167514354331828486
0.106836383115644473
0.0577421176618688747
0.0220541212402896036
-0.000555371062239684576
-0.013132717043505604
-0.0173242631356314014
-0.0146816874588224788
-0.00576977808483980503
0.00720684891396272675
0.00821390689323830969
-0.0513656663613257791
-0.182403619561132935
-0.264733931482307838
-0.426609395669994451
0.0133559604941539956
-1.10424563053830482
17.3250420771068434
2.86625899242844273
2.91225299854334985
3.0760305934695511
3.04296154967838595
2.66754996495595531
2.25459083408567995
1.92623083296901454
1.65921184598532157
1.42361140017352916
1.21555934428599488
1.03552122989869089
0.87762619323106339
0.738363429238061197
0.615197698884331512
0.504915691253214449
0.405123210624468433
0.315392132569696448
0.236012148391415932
0.164725855698662604
0.0980945140595661513
0.0370155208463227581
-0.0155770397930639071
-0.0574381891905151321
2.63657440602837756
2.72009999339335984
2.92229505109287491
2.89764195789664836
2.42106933017045289
1.99083601107679797
1.69360835010941435
1.45082847411548199
1.23232980658261027
1.03974273791862193
0.870983218894532563
0.721208135805880168
0.588014052711053781
0.46927938343855069
0.36276350440420102
0.266475338868641831
0.179671140810975682
0.101890547351932037
0.0322753453189499329
-0.0307878681324065262
-0.0869205789076095137
-0.134177555901916046
2.38218635707687243
2.52399692167962719
2.74461830535513673
2.59287472444258871
2.02520163631548655
1.65801848999713397
1.43657896003586782
1.2312454828965651
1.03452552300002565
0.858265057774611817
0.701372754585045444
0.560727881555411534
0.434527539594966594
0.321130590736633303
0.218903236717102434
0.126443062544444151
0.0430778154561592963
-0.0316327260394468901
-0.0982304157824283042
-0.157829756421257406
-0.209869096580147518
-0.253926394661188048
2.13836894345166462
2.33557387456155352
2.42233093500959029
1.94869072503519991
1.4752427114071005
1.29105934242555564
1.16369118798715054
1.00149649176681876
0.831079998513754914
0.672659582601519146
0.528559593995374
0.397564048961609684
0.2787083683864644
0.170981203309337193
0.0733794104010778714
-0.0150132798426885206
-0.0946909225644991803
-0.16602019126803591
-0.229545995904202105
-0.28594992478200032
-0.335016606898077773
-0.376610773043338343
0.484195605257184303
0.353256073963398087
0.232082645623679973
0.120770909562885498
0.0189974062699644897
-0.0736924536605212399
-0.15779545390826244
-0.233681873428670306
-0.301690740223416798
-0.362238430092991948
0.0648706901996902729
-0.0388127007061853657
-0.134469053116907045
-0.222074918644659558
-0.301789912741278421
-0.373846177638698096
-0.438512100159968776
-0.496045119833329995
-0.289049592583865422
-0.371545576157231494
-0.446873876195609476
-0.515119552279634352
5.76113268069008555
11.0052347871823297
21.7061920798684582
31.8867187078490453
45.8621033439059502
56.0486633146203488
63.6885602146419032
68.2678672798609796
72.0424027738429515
77.8762320417924485
86.4092300533170601
93.85070287605609
107.36593263438894
121.973013932197333
133.480488371736442
137.293334144309256
138.231188345522867
144.429398755974205
146.919708945221089
144.013510937462456
140.635976320549531
140.894401287228703
140.574954622693866
142.496367518146087
130.083049106570627
126.852262461516375
131.026214731303071
123.465970756957631
121.968273634531897
109.800229155191971
98.6615398334237028
96.2538113187025317
98.725013782142824
90.5920673009685089
95.4635473796622875
207.917433568042327
731.624384419588068
1617.80850449423633
3.59685731365163486
5.25242700702977761
8.31653299441208205
8.79335635412066097
8.26633220618671771
7.90504539185997679
7.8793279057961092
8.37203735706588326
8.98808052168917904
11.2545939805215962
15.0086459262532443
17.148534583301668
22.7384054113066227
29.8744612663145261
35.8750798281869976
37.0369689316875395
36.6104021425349657
41.0384004698698703
42.6822098762550866
40.7176714833409221
38.596726160920781
39.6472100318660949
40.4819954608021391
43.3330390553317955
33.4421798950508133
33.6225652219181228
38.3513152805049344
32.1367318888828919
34.122384626218107
26.5022643083353273
20.6056783452434331
20.9926130983186496
24.2191524532660338
17.866412791341709
11.8036313442792462
36.920557061274863
312.72511143955046
1265.27382665960249
3.53607518149959743
3.94078029573640709
4.74564946108048424
5.06504136833017959
4.87183415268710718
4.57901489240872728
4.34641532270509323
4.2154150548859608
4.12439495552080793
4.09562896735717352
3.99014949906244887
3.98311543106729538
3.48636921698278313
3.02000731416588986
2.64282524102945704
2.41605479870828521
2.14219972359606192
1.68713065583484179
1.49576018344598527
1.45307022896184024
1.52756345151515438
1.48040937273772277
1.46331167399462281
1.23041907296689268
1.39404557909947835
1.07613832754040328
0.907774354666428196
1.17772005999965668
0.917914703901018703
0.93126160150982995
0.846978663341057869
0.749416293747443119
0.640660087783818333
0.799187396603170175
1.11816821278676648
7.1030801612773633
88.0570170065860793
703.004400642759265
3.53987587835367368
3.65154490531556286
3.83256316928295027
3.82667350261454953
3.60648195098214241
3.32417334711482582
3.07334372812197287
2.89551203228093357
2.76805045120789428
2.64025861392539074
2.48247433327719591
2.31272842712686622
2.05904708847155771
1.80541137962228326
1.58217799295834305
1.40487532892140776
1.26369255446426187
1.13620696889451334
1.06435918102475058
1.03331340400298854
1.03081283518697431
1.02479255772960975
0.995748424144924704
0.922000865208649545
0.885104647484769913
0.809787985941606947
0.760921295923629004
0.783359943976608353
0.737170104759731215
0.708148680957648824
0.652250159291688947
0.579874495107687293
0.468277444653423247
0.526238002430574392
0.885837073232062955
2.82593799237199228
19.6748087394463766
327.689085108865527
3.50227224401808401
3.54798044856265093
3.57924271111744119
3.52690595323396128
3.33596954860034822
3.07566809800222885
2.81134578358054688
2.57639688344720774
2.36643752144422814
2.16592859855224162
1.96868562576401329
1.77576032678599938
1.58065100513475465
1.39964668878285181
1.25240528750272562
1.13244887116033288
1.03001752810574887
0.940927325242728041
0.874155592935711434
0.834219056179516749
0.810194156255782616
0.790027004683887202
0.764482592022409202
0.72216384400636191
0.686842408378335101
0.649247568030168809
0.608116415526367859
0.586590514007516717
0.566965042101411743
0.542390977964767207
0.497043096168530374
0.412701689280271178
0.285148763332763178
0.27528760496562632
0.512691471938728993
1.41585333097598642
4.45365819430926901
161.36079638068162
3.41962246692002481
3.45251957214331417
3.4573709587241015
3.39747318527837816
3.20063843835525663
2.92917484256644389
2.65054382236599029
2.39301334748173744
2.15333211663588697
1.92744635157146593
1.71646836847484741
1.52471098706541719
1.3517377394722514
1.203891649201561
1.08048905261571848
0.974696550790416949
0.879009053031346355
0.793634143846595586
0.724734307751312201
0.675154956868803779
0.639960529951299151
0.610100767729971682
0.580519854916198064
0.541077817597548805
0.498854597924564214
0.460575206760343137
0.426336079554233915
0.406486205355966579
0.398678965123061335
0.389240438672785682
0.35726401653248574
0.274191809127038888
0.137172722949925552
0.0709383539414031317
0.172729471816576718
0.723388272876553717
0.275952843799620595
84.9473000043610398
3.29051389890498847
3.31890526638053629
3.34912810692369955
3.29622658906611932
3.08314925580148813
2.78922874748206118
2.49479809849786127
2.22531846786918841
1.97549214166278464
1.74690329956084578
1.53983546308887997
1.35641198755643311
1.19507187096769174
1.05551824804108896
0.936148283764559386
0.833158343347942143
0.741737673067131786
0.660465316738052644
0.591749736705915241
0.536442935919005826
0.491539390667074638
0.450783251230239879
0.407799896423711283
0.362369223583646427
0.322943697848764755
0.294564589913600683
0.276756686867460133
0.268116336568135494
0.26766395227446993
0.270664109611164938
0.252399075141359841
0.173401034807058374
0.0134675472536548435
-0.0955234782629416079
-0.0952126576831413551
0.391282712262360888
-0.906257647247786124
55.3127085461523507
3.13829683580297969
3.17336233166508475
3.241310932764498
3.2052770686005192
2.96546943486963954
2.63938496360272934
2.32764394797641216
2.05314193545569657
1.80446760313092813
1.58104882556323645
1.38179951753002728
1.20740827428758579
1.05514020080987736
0.921615759003982848
0.804861896197139881
0.701967459221763734
0.610971390804328829
0.530788215385755269
0.461844725478034679
0.403493993586375388
0.35189415327751028
0.302003005396057622
0.252625764744088377
0.209066164381799813
0.177396924699087744
0.15864883497777138
0.151628566984653212
0.151676097137753207
0.158552793542864334
0.17032414002418983
0.163902027123914551
0.0838842683548772783
-0.0958651397981870046
-0.222127835210706892
-0.281166248746709591
0.169794212362675001
-1.08634217504765473
46.120086618830328
2.96360734423025374
3.01329939007791126
3.1382436209498783
3.12247250616393579
2.83962580965816702
2.47266857149590447
2.14554020117876476
1.87314766706425351
1.63259426928673723
1.41701035793427921
1.22680686494894742
1.06023115285709224
0.913655117435285602
0.78446100672042185
0.67019728769851783
0.568780126913678075
0.478381499161853574
0.399133923430296411
0.330812708977562542
0.270473042130801922
0.215476913566658101
0.164884779640488643
0.119341191428311788
0.0829117180491065753
0.0574891449614549632
0.0422936082974638694
0.0366286284834549392
0.0387193002791881291
0.0500040914459669583
0.0711698813776606709
0.0790749822213590026
-0.00279613093202391028
-0.190791310490189714
-0.32768647730289302
-0.383591779440090708
0.0157743513631138921
-3.23665483773542206
41.0483961545673992
2.76292950297313666
2.83292190131563748
3.01701280780468384
3.02921555786480479
2.68463306095395193
2.27353688055755132
1.94354195135075702
1.68154117424982186
1.45133910942375444
1.24675108762483466
1.06728270102746325
0.908482104330215146
0.767494696189917169
0.642494879195527169
0.531403333427308944
0.43245251918098937
0.34408992868768018
0.266164820324872542
0.197921187706281421
0.137512100066553566
0.0832756017476352639
0.0353793926263443748
-0.00573394773023405691
2.52957791467129489
2.63232376531854939
2.86342385935174981
2.88423881103487556
2.46399007594459896
2.02056640490413564
1.71473200767357059
1.47651435786062279
1.26136323915244075
1.07008162199928147
0.901520148409634459
0.751278404870076244
0.617021211781227263
0.497150520338904833
0.39003410016857698
0.294228289231986517
0.208595324399822646
0.132636502749252205
0.0654696673217052272
0.00634790101530269268
-0.0455209079228779956
-0.0905636925943600346
2.25751759083207748
2.43374862897348532
2.68254410193337289
2.60558765728011155
2.08474360418157012
1.68894134991900957
1.45650227094288742
1.25797395123404643
1.06392109287014369
0.888403855970772982
0.731773476851100613
0.590782066000464123
0.463763459956724411
0.349496477644800185
0.246769456360824702
0.154505144267076844
0.0718787674768106566
-0.00161242431370789419
-0.0666100931846127509
-0.123665815147739444
-0.173279204831232381
-0.215916807544486167
1.97415635890383689
2.23400543291631504
2.39437473114621024
2.00251692362469313
1.48949299244919553
1.29682594432370402
1.17592274643887595
1.02711365656955089
0.859708595002405707
0.702370862351555214
0.55875380690611931
0.427536561743413479
0.308071263763484593
0.199704660217500773
0.101688390724588684
0.0133052795061456841
-0.066033952628071102
-0.136731038334500621
-0.199253335001631005
-0.254071454615622416
-0.30157050213257075
-0.342039839736232976
0.513059874895174461
0.382975704794826344
0.261841152029936408
0.150181582833586402
0.0479764175628945022
-0.0450590048818304556
-0.129294051723356285
-0.205107035351362432
-0.272801817307709804
-0.332725647890699916
0.0942999353814779617
-0.00949667112300489613
-0.105420989733426396
-0.193316320330326308
-0.273242811441319899
-0.345384759922555462
-0.409933721877520085
-0.467117875330161914
-0.260144299526212874
-0.342871305300100682
-0.418441900692155366
-0.486859138119169366
5.39747455115563657
4.935589755798377
7.22474679724810098
9.63981110456153623
14.8164415131626495
22.8185055585733174
31.1583804697070725
42.6059440444887869
49.4603696847061087
55.9220902538042992
59.9977399425517248
60.2180786085913411
61.7710119913144524
69.6498310965583016
76.669130316452609
81.6504054290955708
91.0340341210185784
98.0890484587954035
99.2140039046021514
100.106823222233658
106.516354387783338
110.866248083773655
109.595967957897912
103.953490098795939
103.367331599048853
104.072922354943188
97.713638548903532
95.9235152021752526
95.3416972345878833
88.054327556587225
84.3405572407972386
80.9251703375383329
76.9308152028610976
74.7448332246981693
79.724161655082213
168.153134033048445
645.724913374455127
1468.86788681824601
4.0433157236682149
4.04788635457310519
4.61828257783480112
5.25569310350140206
5.0491549002160756
4.73898139367743632
4.52106166829606959
4.13496212424609411
4.05257123897377092
4.05118669003756438
4.29475529293091007
4.54311245727572377
5.20542809404672457
6.81823780056862283
9.36684595979011903
11.6047693419213509
16.2047415078461086
18.3960700305485076
18.0412251597116295
18.3100305701198494
22.2253552053039414