/*--------------------------------*- C++ -*----------------------------------*\
| =========                 |                                                 |
| \\      /  F ield         | OpenFOAM: The Open Source CFD Toolbox           |
|  \\    /   O peration     | Version:  2206                                  |
|   \\  /    A nd           | Website:  www.openfoam.com                      |
|    \\/     M anipulation  |                                                 |
\*---------------------------------------------------------------------------*/
FoamFile
{
    version     2.0;
    format      ascii;
    arch        "LSB;label=32;scalar=64";
    class       volScalarField;
    location    "0.540000000000000258";
    object      p_rgh;
}
// * * * * * * * * * * * * * * * * * * * * * * * * * * * * * * * * * * * * * //

dimensions      [1 -1 -2 0 0 0 0];

internalField   nonuniform List<scalar> 
7340
(
1.29858190724404365
1.27384122515967557
1.25820992305011936
1.24995170490031793
1.2467994159463851
1.24918997862896042
1.26066754260416181
1.32103517666228787
1.29553669861022991
1.07380272576120772
0.912664654172016032
0.849083597964716774
0.694553663968398904
1.09920832154177184
40.1262306665346244
296.034826492445973
1.30451994316704067
1.28212616461057349
1.2676718861089018
1.25966394334950227
1.2581737392351604
1.26353934618334862
1.30151963651927627
1.51328697121737332
1.50553955429593045
1.15998283845180006
0.94193911078892778
0.860485098892666889
0.715089776477863537
1.06471025838555633
62.5223942204955705
528.046194679918472
1.308789916593875
1.28702757380944388
1.2730820998548289
1.26613822343919469
1.26598959440405645
1.27551805540087271
1.34257775950268776
1.69284120976373198
1.67851781778517806
1.28225885608518642
0.987004579843219654
0.871241307213299732
0.771967951467658509
1.95010641148459674
68.9827778057745178
566.33002183445592
1.30821082575152925
1.28797150932473037
1.2752083015464033
1.26953198994194461
1.27115720744190241
1.28502205736863839
1.36319054728600042
1.71733041068206238
1.568625466521683
1.40422856963191056
1.04838976581467591
0.8906053689340373
0.818986945337592642
1.68526543104153337
51.2412467551545632
583.048973629174384
1.40597905049657901
1.36402363289928852
1.33029042445211454
1.30442865227770333
1.28595476789287555
1.27458762307258233
1.27014169643164521
1.2734956509518649
1.2930904526973781
1.38335875122111829
1.66657047592972929
1.53743960012216929
1.44455520700128548
1.06325991844101031
0.894482294249300813
0.877172936573840101
1.29852737661614359
27.9949932657546867
451.534992907790581
1.39006270602341808
1.35220817294191953
1.32159530466536634
1.29800795147013126
1.2812425601234072
1.27124757410094458
1.26804139836422913
1.27268118807322095
1.29087240314939411
1.35749272277170463
1.52743288641550357
1.50436472960401901
1.39130283867918414
1.02758360812025318
0.895302291094041469
0.916845426237919758
1.5611057743803296
78.3652463172398512
596.51207460832893
1.45969085634411466
1.41309411834112875
1.37256207354383353
1.33836387055687522
1.31054164218250158
1.28905985713415117
1.27390063126071484
1.2651527642928202
1.2630829912306536
1.2689997615443831
1.28833950889276383
1.34355995966133968
1.50584115211420211
1.51159646147119631
1.38142722422559561
0.987238849242761063
0.875994857688253359
1.06017211304678249
3.5647909410385088
83.7301611026358756
644.911621386105367
1.32528838359281353
1.30799755832028031
1.2996138968281048
1.29890961605409561
1.30791660778566277
1.32547241731145204
1.43063222443139448
1.76232235434202766
1.72394647584392291
0.963376100966513826
0.844124458635746366
0.716433409723691406
1.26676316826667912
30.4598222353125649
445.616511076828033
1.35550735599366079
1.33102256719312795
1.3157520047130109
1.30876819557313384
1.3125460765950403
1.32721833825634894
1.36401825303090574
1.80152014775547187
2.70863665246926821
2.48304660400621424
1.09303823603537387
0.876644257074171485
0.764337976512314943
1.1637737110138795
54.3359100835996145
520.848078429609245
1.35567398801082106
1.3331560210711777
1.31963664655732726
1.31560761146598293
1.32205215183916347
1.34554080231521267
1.41054666935117567
2.22306384065790263
4.19852290993753208
2.75466833797659838
1.32564965514683464
0.922924132329799196
0.794943982830820128
1.46376981551570506
60.1151617399539333
588.971818016467978
1.35229262846924847
1.33212136608735565
1.3209804913829386
1.31957939751570419
1.32968705446696678
1.36322743642978916
1.45790939925426888
2.18608418766182444
5.36849471929058186
4.19325979730563692
2.28989147201973609
0.916568572211305055
0.801340535615125638
1.2324121890149331
61.1644449672954877
622.563518861048465
1.44986952752120613
1.40700112524203313
1.37256631451701727
1.34654333679857685
1.32896285381214274
1.32022559929751027
1.32112001112162858
1.33496457844826666
1.37624174049969494
1.50660795581053319
2.16699501558182339
5.01094604469076987
3.95796691799288158
2.49561413137846833
0.941686894937517116
0.787826347100475277
1.22635666406213106
39.0650942550537934
613.12055564570835
1.43193140243543504
1.39313617486661201
1.36207603624312901
1.33888095301360432
1.32372948989597528
1.31725432648778717
1.32044772299991098
1.33733768073309278
1.38206855683561525
1.51808924932159273
2.05698084486235455
3.42559894707790447
3.15954711019483447
1.58187477519885356
0.918224252317020873
0.852331681130506613
1.28314843492862285
33.734535103660015
631.927357922779493
1.50298333317824073
1.45455013236032271
1.41267525608405831
1.37769612653435836
1.34980798208506991
1.32921955774271172
1.31629425010559054
1.31181439397924926
1.31724978250007196
1.33739265082065883
1.38832089686662807
1.53043934004624482
2.13282733349525078
3.69217388664566659
2.09697063471718748
1.40799421289135318
0.873421833701151229
1.03464206892432831
1.72392730544160533
87.0347774689105478
649.877125850669927
1.38285816979268406
1.36266398651090626
1.35178788722257637
1.34995121988714373
1.35956635582148722
1.37121068311383709
1.42630341371839697
1.88951892427169654
1.93664126317189811
1.3630070413779527
0.938510331623968352
0.683328683259576408
1.58458742270197783
24.605391668750233
548.663630421828884
1.40741715275401469
1.38163356179488672
1.36444041648212688
1.35727521907948345
1.36288812698224904
1.37954144449936411
1.41207006550480152
1.51407549111090889
3.12278682132420249
3.38659392880400123
2.28557642623758372
1.14343069375362827
0.859453820780793354
1.56085134104861711
48.8560445310412561
522.705646235362224
1.40143115229776405
1.37869378769651241
1.36495911066312825
1.3623162432239817
1.37227295334460653
1.40012818882504142
1.46999486923561218
1.65726506113853533
4.9887040987925042
9.74084145576453686
4.0421422033715606
1.39985222077954896
0.938920486544346011
1.75941784089518061
60.4760667122784952
608.047070052914364
1.39431987845926586
1.37453652846872454
1.36431462524382807
1.36583925226534753
1.38083619549117875
1.42371723158713381
1.54605596927717404
1.8834867079034201
5.33540977205445799
14.4280582150530385
14.0896979034747112
3.49215931439371108
0.891734924215468072
1.97235840433869236
88.7489315081319319
649.693448249092853
1.48865070883807227
1.44590263530552998
1.41177743530162259
1.38628137190613487
1.3696400339256618
1.36274125396646184
1.36742994965790987
1.38854764633271288
1.44555090439737088
1.60477545657933995
2.03271867815750795
6.06637013705332517
16.6360631621887478
15.5592427597852581
3.15650666667825863
0.879346659789523089
1.94888738390204286
55.0132154155078226
666.631591842998318
1.46923926407122019
1.43044720437842843
1.39976381371219749
1.3774106549158851
1.3637676953728266
1.3600671857346176
1.36838963486355225
1.39521879171932417
1.46116867042424903
1.63060549569471513
2.06084624244570147
6.54983494931063426
11.2029744213276992
11.5251961939112046
1.32138706561456232
1.09601918174399282
1.9791586790910809
36.3518635277265858
582.758165337463652
1.54042796555220951
1.49125028633302059
1.44901469588878706
1.41409549879677177
1.38678761098717818
1.3674261084169157
1.35667031335967203
1.35611325922063664
1.36831302752654893
1.40153688220635875
1.48130926675511043
1.68292201623932547
2.61073593441179863
6.11294863195833749
8.98580100306418394
4.79234649384529376
1.26927606305300666
1.2777904605796051
2.06187953205664742
66.6857525716482797
648.391376669713395
1.47154009338397329
1.44096746209906756
1.41767166897383934
1.40255047766609819
1.39523858759980057
1.39888185691690259
1.40557303299087177
1.39650766953199024
1.41366520761196734
2.23179726737381268
2.51146631386634445
1.89747702566109155
3.02573847707092769
2.66694992511017048
39.4126881061441168
561.456303569416377
1.45356756263411602
1.4277252325531602
1.40979858107123857
1.40116313115037117
1.40381083975868215
1.42108419608257819
1.43919476613644792
1.46019979066229322
1.64976431253030231
2.75296962284690538
6.39897918744518712
2.58934886344391835
1.65420990407040747
3.74282477020936977
88.6380981715871741
575.779981439916355
1.4402725866897208
1.41821339673823577
1.40445333791900895
1.4011287565320929
1.41284191606612741
1.43404509594272822
1.4691857122608083
1.58634002073081559
2.05927764453842066
7.03669934833643396
18.1688935498516777
10.6197213264541421
5.4561628027514395
5.38972573407716649
61.1999911031707597
620.583018518739777
1.42994872310666055
1.41087514089683963
1.40076331863140724
1.40274123014489005
1.41650218797565652
1.4479572188001284
1.52679763237192501
1.78952711631894301
3.10047686204168294
16.85202765300102
33.3677003646335351
38.8920618411145256
6.47593758463625946
4.69943024188425085
43.4089227038978933
653.915890054352758
1.52028889997294203
1.47824042837913483
1.44504214448238466
1.42052368790413786
1.40460402387179384
1.39802666385612206
1.40453414669316734
1.4250765981539204
1.47104919965524483
1.59217790386336544
1.96851690091749654
4.03773965851716277
20.301054702764386
33.4610659288549783
48.2064777237097815
11.6556486530677272
3.9123529054426327
21.5432847000400436
564.71687460420037
1.5008143522161721
1.46254355550408155
1.43275013166783016
1.4114143471430538
1.39878349331195273
1.39609744571970928
1.4077813698952395
1.43667903609567005
1.49590374588097719
1.64043394699987277
2.06581788449810411
3.24137906874540116
14.8279911757925706
17.9758523613138017
21.1291841424466824
0.947266767605658089
3.3035340539850675
15.1000570754179648
621.507442604598282
1.57198847023455501
1.52281010512599591
1.48084805051327706
1.44648506512896136
1.42012467408894949
1.40207656306876371
1.39289110610566014
1.39455693816641091
1.41172788775847202
1.44949201412978979
1.52739103854327318
1.71824503049658128
2.2534541954872469
3.62690088640590469
13.4705372417586222
18.1708288456643174
5.2133065576783979
1.33709617634011879
3.5183326583293284
31.7525485014100077
643.277838615056908
1.52317216315120896
1.49636924653705372
1.47259091735643333
1.4560840147446219
1.44690550630468717
1.44457231733014702
1.45845107104117555
1.48746630405301983
1.53646263479861611
1.97550026810891666
3.80388752505684424
5.93929275999747031
5.13767634648181648
23.0349269924210915
258.743095472868845
605.800120799733236
1.49906495105017079
1.47514532829043699
1.45787544056560514
1.44881448429320869
1.44872218875022152
1.46384450964150981
1.49417270092909438
1.51283369006220703
1.56845225071026051
2.41228914139653705
5.26702930849445927
10.8557985008218818
8.82000450542983572
24.0795058122322843
329.518764748404237
630.677159245238272
1.47728705868354182
1.45631597719319017
1.44268357334201713
1.43739959702099296
1.44675023876871944
1.46723305945218452
1.48157940695976031
1.48316369589982955
1.48507417709063549
2.80965291246693649
8.44833118668855931
45.0713069465477574
63.3690976856387351
20.1479243345641592
148.805234208181133
628.904324614493589
1.46267426534702216
1.44438508702737356
1.43380969152178106
1.43308862931542569
1.44752994371071186
1.46731464634046138
1.48155837194955176
1.51646019372106489
1.77201182415846392
3.60393723084791429
27.7669264121766872
69.5045729353928436
81.2054043086013593
6.15068217786207949
16.0048151833622363
489.307597603320573
1.55016689375596406
1.50857375630931601
1.47592982160197983
1.45203140504809824
1.4364347270131006
1.42919408433133932
1.43417321718419766
1.45806415607470075
1.48945258331518393
1.52135295929902559
1.61556309627072081
2.1784480223937801
4.44366906489625713
33.8265876236600178
67.0103799698826208
76.6827418671258556
3.32061529353095697
21.1051445800773791
523.435658968954385
1.53098980833464404
1.49315018879294525
1.46365236854819214
1.44301732264953619
1.43092317823276538
1.42815866864694496
1.43975066421241293
1.4747922841796639
1.52200640101965057
1.57033227511023887
1.70286461058905481
2.42273947972443482
5.08616323341387222
10.3473843434535464
33.5037636270083112
10.8972850031346589
4.16321278693862684
32.6716077090853148
630.352358787621142
1.60173250058913941
1.55288000313283336
1.51135884302768964
1.47744063206313614
1.45181348719010406
1.43464273058908987
1.42654064000194314
1.42894750583241326
1.44782289969722666
1.49243707828819883
1.54936801117137257
1.61777735715366089
1.85270128709158
2.88758537179729702
6.11420790526385893
17.942757735675908
39.2463512190345938
21.3831901623215899
3.86504549892925331
17.7868305660945794
631.285957235306341
1.82749358024333031
1.76778229633483175
1.71750200038683376
1.75361402162014191
1.80805781537644417
1.79198217375534274
1.79131673346982612
1.77720795577143575
1.71790766054864319
2.1294074068310298
3.31815794557840249
4.92939864499726799
14.6392051096119769
112.414856636974548
485.596609690290791
673.275219648070561
1.74253868441951654
1.75197844278651704
1.77496709550339116
1.8070339147783816
1.83929017668096417
1.82771872244863109
1.7817862691617441
1.75586916612819133
1.7351947471227267
1.81823152228509821
3.39015093107357091
5.59841346156765418
20.036448762421653
343.191606733238984
507.665734954510128
704.844330516073455
1.62848097548965765
1.62602680245595077
1.63001647161831187
1.63486767292881918
1.63086357453466246
1.60869420780285033
1.5613447184796001
1.55645321706284201
1.5639575464088793
1.59410123042216534
3.43304630764911156
6.25055354760597748
26.7055212645363227
294.289708822672196
321.808447392250173
717.552900348982803
1.54987109254026212
1.53479693099250847
1.52817395644095022
1.52209764222142874
1.51415407675590696
1.50671066097959327
1.53012517651306523
1.49622711688365917
1.49383028108720861
1.80634410012100299
3.24677052354988538
9.23271727976886325
36.2600210882897613
60.6641222767082411
311.081392268130969
719.793845184225802
1.62774341234722941
1.58957940879808124
1.55782796833207526
1.53493576843756352
1.51645580321488516
1.49714895922811331
1.49608937641244188
1.50062843644255284
1.51504934722704698
1.53187512235915801
1.51645301876946159
1.61134024786727714
2.25705988414529868
4.16550690236349386
12.3491207894513995
37.222590312915905
46.4794072639313569
380.663640289589011
717.14430050640874
1.60425036974675428
1.57135834104774053
1.54304562259231015
1.52425510616312798
1.51680805394462803
1.51540591528184088
1.5207801493180122
1.52663866020673922
1.54849633214984994
1.61718235222830153
1.65021480820641031
1.79237249060903725
2.73626939166744876
5.62090849130829717
16.7501688106466879
47.7598453642905554
260.504259605428842
531.278213391889039
691.311028319321508
1.65460145800173986
1.6106172720792058
1.57429596981051834
1.54530881090351224
1.52448041838879056
1.51378648045851705
1.51083185686975674
1.51916763074076422
1.52953891911643658
1.53562592742523529
1.56995073462025192
1.65013784870537683
1.7166645862739387
1.90170041255345601
3.4220815182445703
8.8511908288323049
23.1097520791691267
91.8220220732098369
274.445118744116428
420.949381802253981
595.059731026770464
4.59731741594169208
4.88348788514704335
4.96926954016675548
5.07896353978446058
5.46689867189291157
5.9364217435577773
6.19404479944649466
6.10226205452679693
6.01055025730675663
4.83007747071568083
4.92315168064440467
7.75026744911418231
11.8795330457258963
79.1963270959286376
468.571224196592084
678.14280541954065
4.05132848840564908
4.33125069911816674
4.62732473524217625
4.9971781676368856
5.314946406545074
5.54449498008677999
5.44677672234469057
5.32299334797179657
4.83829516280318472
4.06113041405082775
5.16112825216733384
7.84151910311991074
12.3578862805156948
105.657562289354644
478.874936964409756
673.546847533530809
2.67120371499557274
2.7438018045135335
2.79399728610749154
2.87477846503297307
2.96615725218913218
3.00575527928528397
2.96907738381554775
2.67189587195774259
2.01273528685538716
2.40518453549592293
4.53236780214689716
7.03464524993344664
12.3020082798632195
49.1917154719652316
338.966894341373177
631.116497154603849
2.27514792075720651
2.26003138588396268
2.20013029143186056
2.12017035925555808
2.12361359359596902
2.15881996845267743
1.94380985827662767
1.68559361438503763
1.57621302117762174
2.56099424555030319
4.57782412689237628
6.12985307798554135
10.3483104799894789
58.9174354265553077
477.47922749030073
721.755505554922706
2.1952718541230638
2.2080231069439793
2.22020101113516377
2.26400523707677692
2.2274356424805779
2.15496316506599062
2.10712059497480375
2.06440098613193834
2.06078182013050437
2.22988757278850303
1.9105562377950851
1.97978481472911749
3.08637990643204185
4.77332182498550583
6.705859240426153
11.1467252826289833
77.3628460221680996
593.688526131913136
745.919577573994729
2.12107944638476154
2.14750137440318545
2.18483572254490488
2.24910533347034436
2.34373031464411596
2.50835053704742261
2.67548782671107155
2.74917823837586717
2.7782823384680877
2.59930669234309386
2.23228584743012393
2.8454736735797912
3.5778791518606905
4.85901792593734427
7.09111490074147977
26.1184774213847852
137.963443208991521
565.511275771849796
733.19125658779285
1.9414304934032971
1.94316212286959633
1.95806952107773191
1.97944011074862614
2.02468819281926082
2.08711367191421004
2.17542553877387679
2.30668897658693606
2.42566231236054852
2.48282583464928219
2.41914775923814851
2.0721050899572413
1.93647723797769733
2.58239291103007584
3.65792771453627319
5.03125526502409937
10.7445259426383615
35.620409289381918
359.40978953687403
548.741639944771919
691.448407223796153
5.6346858609007997
6.90444822458970275
7.70490540187186657
7.77096319403582925
8.34260727485285081
9.53785049355887793
10.4205592117854433
10.8950972197407712
12.7666377808207958
4.57835657341615843
1.2809928083590183
12.3543181747353259
41.9893063928575216
68.9220962985797172
201.238122023143006
653.531569919221965
3.5124011159178461
4.1495379231561369
5.34830726887857821
6.03339141487184971
6.72369293866740758
4.70319556518425141
3.52511434323244277
1.74553126880285925
1.9310395590535534
-0.371308081694629033
7.14703650068034779
13.1194653835439166
33.5527358942508229
43.7903180027824135
377.364600547071404
548.604553998315055
2.02372535156700817
1.9102789322767153
0.719544576007909109
1.42057137119143118
0.736110745274392353
1.45311083245306905
-0.132281895651332637
-0.398419114980312017
-1.51715093693604275
3.32331487085198818
7.67972303831453385
15.3946595341595689
28.7761040505623313
48.2196116689881222
475.8525654631365
674.451379841464927
2.30630315419364651
1.88059985156241272
2.03178584731058498
1.80275890691346508
1.42135628343548537
1.45149585250491975
2.19238416840813866
1.57958282648768056
0.800107837990025161
4.05017778949265406
7.8473422043340042
23.4080916878989385
24.5290595909219427
47.831158067827559
385.962432559788681
700.686312586616737
2.6136294003123175
2.64326094821261126
3.09994022875211872
3.17220259204258381
2.8540014088327168
2.59764264602460004
2.56519553032243142
2.47536196054860769
2.61418030126029022
2.99589604490016503
2.50725459648825799
2.95221055834133406
4.76563348938051234
8.27448638513404333
17.8789943473835109
23.6515789089886361
40.6457765739914194
215.192810807871382
732.126162484442375
2.42028775380957573
2.49193411561619671
2.51790111199561695
3.1097977678552291
3.12117670060421837
3.14499739625926011
3.13607862895036904
3.19573598634393496
3.2168397061062759
3.4883055544991497
3.88917584804383676
3.93799992389974207
5.03850202157312932
9.2676471465908854
15.0888780158158511
23.5741327971074845
67.6641192092615142
512.27183060087998
702.489646290039104
2.10899856323772417
2.11934223751054951
2.13639033837226977
2.16551905810729428
2.19965532038631162
2.29656917789230164
2.62455198730539196
2.9517536417218202
3.10162027560956544
3.12655160058009152
3.1623704062894844
3.48014387903687838
2.70014195830328063
3.62948093802776617
5.20444727845306687
9.71207790306051066
15.1762503306789096
28.192234148876949
135.111564350270612
549.454403331610365
659.318888260767153
1.94741285380456208
1.48389899285178584
1.22431478599029075
1.08939507797611279
1.02035690515303346
0.987424371317230265
0.964768865529228137
0.951644121049951108
0.942687671407731131
0.928999954502739866
0.934064010467301253
0.896979245219547749
1.10908372600600669
54.4940910201374464
625.287854328478147
1.68785919715195121
1.31294247711329026
1.12517900686862538
1.04282412605975972
1.00454716150051593
0.991064362215896555
0.982322081150638127
0.971206937505366685
0.961348250676933191
0.950476191131005899
0.924119156533332209
0.936659410083766519
0.848795465727850806
0.989797817962639992
70.1489638092264016
601.016651733878916
1.13885321768235714
1.04244368349521732
1.01949843047395339
1.00613072535991188
0.998835594924805448
0.995909965523810614
0.990253000743589351
0.979707297227312424
0.964103580669557814
0.949996139597047318
0.92169751383020726
0.941214845115533549
0.808070340093913431
0.916845140917852075
59.6043386624267981
661.787999544128638
0.96644628020714396
0.996547468086818267
1.01673681588581832
1.01814930144458793
1.01200347327553808
1.00514546796008042
0.995562443797856078
0.981183832863226746
0.964355714575276135
0.948607924535180724
0.920413723066859202
0.950565324119846733
0.794549509486494165
0.939671595044576868
41.1394172063084369
703.076276796608227
0.920158367038363401
0.864064627106831185
0.890163268583596512
0.975562368644806943
1.02551687091933763
1.03647990885172114
1.03040325798448373
1.0207438348996225
1.00975968550218043
0.99663112744739113
0.980096831679747371
0.962814619626272572
0.947083753580476917
0.917960689743477221
0.955371993526535568
0.824737430118053227
0.995446167853348274
34.8922211640993396
733.479933867823888
0.859209004682497834
0.828310826912826537
0.934063854509187164
1.02058209709698744
1.04813152124913622
1.04529879717318175
1.03577075822397813
1.02334534291126444
1.00994730675546429
0.994545253520428663
0.977140806904213344
0.959721052442564004
0.944254816254444407
0.913506659967494583
0.94859863621970153
0.816852838955017924
1.01671002551371248
71.8250145717785102
710.320061490480725
1.40643765940213061
0.873072354351823621
0.846588605899675106
0.927836445162729562
1.00558770399770969
1.04837620582879687
1.05576311681198454
1.04790492204087093
1.0356007096683566
1.0217146197670568
1.0065993024308606
0.990078235335099421
0.972300718995021018
0.954406107357578137
0.939190862925809777
0.906645330548124684
0.939162284478592846
0.817800021426951962
1.00592306172708934
68.2008317788982055
752.693596047742631
1.31257431831212634
1.12826365464205103
1.05090841156488457
1.01749168351147556
0.999798316955814226
0.987316574284800019
0.973093617651450304
0.958936579095854169
0.945356802731546098
0.929881534918913011
0.94333094554582364
0.895933328446042121
1.1467757922272912
8.76563579528211534
498.53754488948789
1.19625010280118094
1.0846558589155042
1.04745589474585743
1.02975034543589739
1.01595331092674979
1.00538620845534887
0.995352418160704966
0.9823094193531553
0.967495317639919361
0.953477639996402893
0.925225057986991173
0.953253345107455408
0.844099932464897784
1.0337177379949849
10.6919612793997185
238.391830931301399
1.07053210817412059
1.05534224852551484
1.04413288268578452
1.03531492973180383
1.02462110415438978
1.01348058646514216
1.00312506947855407
0.986603579565338951
0.968517897774438752
0.953833045053584239
0.925408794560513726
0.955589267852142266
0.803625054465850197
0.99084017793778012
12.276200683291723
620.479259076901826
1.06252673570473855
1.0592127375955267
1.05260683247289788
1.04308369160722281
1.03195735006699607
1.01903191841953444
1.00429814225030722
0.986918406443082374
0.967816577247629928
0.951889879690681173
0.923773122931829227
0.953805793840531546
0.785774537040496601
0.985784020094242042
19.3832109813127182
665.022879520241304
0.940291712757893028
1.04099254341217495
1.06498849280818986
1.0701721298175535
1.06620774698876652
1.0581185333465879
1.04761442787733317
1.03394895258441566
1.01960585854155883
1.00333418111269501
0.985062674220468226
0.966097289935447856
0.950094363736864511
0.919151204365043273
0.95642321818719811
0.783064136805312949
0.999336527442643341
38.1413164535449809
672.62402792587261
0.976857815590893241
1.05426994606887958
1.07251172064275857
1.07423325770373301
1.069310289498419
1.05993020436040886
1.04712549252764964
1.03296180020322903
1.01749985890798444
1.00045783251467602
0.981732826572406014
0.962809494344386452
0.946881126247403393
0.91278296789197122
0.952300970623694898
0.781934852991067686
1.0015689446503917
58.5537749852297225
647.62648322706616
0.884103036797821873
0.949816248469997571
1.03034443238455187
1.06737402654174152
1.0764805503354784
1.07516688935356552
1.06893814136330412
1.05784121736332026
1.04423901859143808
1.02929537056485332
1.01316225579881025
0.995670407664288604
0.976621489562495726
0.957303384280768443
0.941460776979021197
0.905112059239685074
0.943620013208624209
0.78844473041180585
0.990849483787421326
53.4662983572446464
668.46179902881272
1.2570113018894673
1.13929887855746981
1.09461244609314257
1.06759218265869182
1.04877588890017681
1.03029966331542955
1.01399185651626311
0.993833490411019871
0.975600878975966257
0.954686978528769936
0.932225827481827807
0.936007952738017179
0.886780020235370059
1.10958088974874891
8.8626133934942839
453.628293105655018
1.13890077833040082
1.10772433634265699
1.08589028683601785
1.06527626786757112
1.04982005710680038
1.03414468621184819
1.01894565806812132
0.996808941029770468
0.973099641347687672
0.954489140264697777
0.920390413001161423
0.934686683735908352
0.835605786156557562
1.02478856959334297
9.8912197867421856
262.811574815014922
1.11957487769974851
1.10053794709291086
1.08339644105484334
1.06622572700653717
1.05265433890411853
1.03610011204130381
1.01697155583106436
0.996774098974312794
0.974181914885054678
0.954908597328491981
0.915744145867702475
0.937527280063883195
0.797562575366489335
0.938759193702787265
14.3531845456502865
592.06804829354985
1.1126582293513132
1.09721255383707939
1.082952497004529
1.06763069678936406
1.05165118171371885
1.03511340739628666
1.01684478865368133
0.996254845159469049
0.974053250693325823
0.95336808400441253
0.9148073995831002
0.939568634415436699
0.777144952330962813
0.925375227839914105
22.6752969065312939
623.241738955092273
1.11371546541111188
1.13356340573663483
1.12452088121157412
1.10817692698776904
1.09560944432553087
1.08108119611147369
1.06598528246944602
1.05041868246523862
1.03372997117520748
1.01542000207151117
0.994566338157531038
0.972507558166902486
0.951332168867181416
0.91328042426283762
0.94454028749923713
0.774549900301726879
0.958293633037974102
25.6530566025161413
652.084817480672427
1.11718920929355292
1.13011750679314193
1.11905455904261508
1.10443787639960678
1.09157174710916327
1.07772686211791124
1.0632262840070219
1.04756013007639681
1.03066828061975579
1.01197653442042279
0.991093338186423201
0.968807796544931543
0.948204647172216197
0.90927129438942178
0.946686023602806292
0.772406051575024177
0.959021390078807157
25.5330510987413568
679.086909823012661
1.0404488721159717
1.09226465275076134
1.12009644503731831
1.12522669579215906
1.11308897523876915
1.09981095612570345
1.08716018011792404
1.07347705049920306
1.05862395375221907
1.04274449137472058
1.02561024877319973
1.00673540072500289
0.98560500248015781
0.96293683805225716
0.943230806080907591
0.902913576771657733
0.937241358436242233
0.765693997019525341
0.943646569743938679
42.7680345501211647
683.928141795823194
1.15914510070688537
1.13093957531172995
1.11127319844629113
1.0960592097237134
1.08095529721923289
1.06524837225370583
1.04625473318415585
1.01873219231431156
0.985439724435412612
0.956924011776547068
0.922564336506409455
0.92331794641418552
0.873436091254097491
0.978672551139752378
21.2400492567424237
547.287441506510277
1.14310599693626735
1.1265655959165346
1.11044636892283166
1.09740106011327976
1.08113926646611658
1.05990254404625772
1.03673918482088601
1.01150217025170464
0.983616160688270846
0.957302131067172657
0.913673034657127014
0.921202423476887744
0.823235758133936568
0.703959647455657644
37.9356291866464801
575.281897576345841
1.14108417104405713
1.12512184031790796
1.11024536482268354
1.09343472590341562
1.07488303204851876
1.0560882814734478
1.03538161348391267
1.01208500235175114
0.985479239645755234
0.958120359586272397
0.909321278080998607
0.922077019712211454
0.783942187463723128
1.03368775259225254
17.4543602444575399
542.327919433890429
1.13917169274596697
1.12403800476306093
1.10608569015758285
1.08942063221748575
1.07295661763995587
1.05532941705810823
1.03524407749597214
1.01213664330782094
0.985449824576667632
0.957301773184814797
0.908102883378061776
0.926649890349077077
0.765001697716876983
0.92380675053229655
15.7293490355807997
549.966489190196285
1.18398445350056014
1.17090365512848016
1.15233052344917919
1.13696393578008115
1.11888436646346312
1.10295253761893486
1.08715299971688872
1.07087023217936461
1.05332395554603653
1.03349515231222933
1.0101985450569777
0.983357504710355212
0.955038292917297582
0.908223897749747766
0.932192366211459844
0.769148359223045586
0.894593376502145654
24.4833498789673989
643.402729258918839
1.17565882936655552
1.16414456630985885
1.1469499303015267
1.13045517923360506
1.11430426547612771
1.09895171996189012
1.08335757625378681
1.06713817807153033
1.04956780166825858
1.0296005298612132
1.00607100401311644
0.979102940180882508
0.95166763976256763
0.905073975200961778
0.938140397675596649
0.764251835506175925
0.917871036094602077
32.0168384542148772