/*--------------------------------*- C++ -*----------------------------------*\
| =========                 |                                                 |
| \\      /  F ield         | OpenFOAM: The Open Source CFD Toolbox           |
|  \\    /   O peration     | Version:  2206                                  |
|   \\  /    A nd           | Website:  www.openfoam.com                      |
|    \\/     M anipulation  |                                                 |
\*---------------------------------------------------------------------------*/
FoamFile
{
    version     2.0;
    format      ascii;
    arch        "LSB;label=32;scalar=64";
    class       surfaceScalarField;
    location    "0.209999999999999992";
    object      alphaPhi0.water;
}
// * * * * * * * * * * * * * * * * * * * * * * * * * * * * * * * * * * * * * //

dimensions      [0 3 -1 0 0 0 0];

oriented        oriented;

internalField   nonuniform List<scalar> 
20856
(
-5.36644248455612572e-11
2.53541822731512899e-13
-1.81264913990455728e-11
-5.67798812443288926e-11
-7.41905185087720468e-13
6.18404587214318487e-12
-2.05117761540905195e-11
-6.24459919279233731e-11
1.95184236644247249e-12
9.28018396532742936e-12
-2.70096327126005459e-11
-6.9770617201455065e-11
8.72307410169584693e-12
1.39726668596190938e-11
-3.75801879382752589e-11
-7.59192710962204992e-11
1.98094639356703332e-11
2.04620471444179982e-11
-5.17828178214171916e-11
-7.42333738281843321e-11
3.74002225868382323e-11
2.82185680385050098e-11
-6.67743353550056731e-11
-7.26681381324305343e-11
6.62401305348429443e-11
3.79655030354116225e-11
-8.56340300923054004e-11
-6.82689756008366193e-11
9.13554063816425288e-11
4.68531057156775328e-11
-1.01148359231911236e-10
-5.95512979236694825e-11
1.10046955568358168e-10
5.46586354983110903e-11
-1.14151269500683911e-10
-4.34576467516423458e-11
1.20845790156908008e-10
5.6800345007772563e-11
-1.2473359818649251e-10
-2.19559935862900841e-11
1.0820441679955357e-10
4.7183183061989627e-11
-1.1603010822598322e-10
-5.90896983918728762e-12
6.82651024079343461e-11
2.7815455625536262e-11
-7.94471393513852423e-11
-3.7543111424008517e-13
2.68239307735257307e-11
1.11514388193337556e-11
-3.4042007970045905e-11
2.47342523164419126e-14
6.12110812518231869e-12
2.78400510957081166e-12
-9.20047983206276805e-12
-5.01140995660194844e-16
1.35805448508917364e-12
6.23640024340655536e-13
-2.15866273845979808e-12
4.17082307118932882e-13
1.13895166753361608e-13
-3.63164577308909592e-13
-2.22262091432123897e-11
5.88758805768491547e-13
1.67594033106043873e-12
-6.99964422214428401e-12
-2.35810500027105056e-11
2.61668573444377422e-13
2.25860082940289071e-12
-8.07630590930263109e-12
-2.62056727882549099e-11
2.25889945842837599e-12
3.58942636645185811e-12
-1.12479661863118883e-11
-2.91479399661308805e-11
5.1713704780243487e-12
5.45232490160753498e-12
-1.5897517201460571e-11
-3.10921965091400912e-11
9.78937171833080229e-12
7.86955397033196737e-12
-2.16649411122749938e-11
-3.02165916773861167e-11
1.64068678909665152e-11
1.06809214126357195e-11
-2.74180133544425602e-11
-2.94814379841284083e-11
2.81127506118509279e-11
1.44368634531027217e-11
-3.49346052001957946e-11
-2.76023621156800522e-11
3.83362464744509386e-11
1.77192533542774979e-11
-4.07185227189170257e-11
-2.43350398195927482e-11
4.54524938088829703e-11
2.06692188615549486e-11
-4.5496923374912755e-11
-1.82354650896415234e-11
4.97673461117347486e-11
2.15670902034626524e-11
-4.9599023765842036e-11
-9.87204786152893167e-12
4.48884238093677825e-11
1.81922087285448164e-11
-4.61728757345716871e-11
-3.20438435682151316e-12
2.89824769405378904e-11
1.09794421802575882e-11
-3.19021580880530074e-11
-5.25995277577973284e-13
1.20420235346901967e-11
4.49650946178680056e-12
-1.39501686533634357e-11
-1.8889073592337742e-14
2.90285280007193391e-12
1.15289283913475281e-12
-3.80871504444325017e-12
1.7279581006329902e-16
6.97633039382700297e-13
2.61060343347489892e-13
-8.71021482523632673e-13
2.20411026111796203e-13
5.26069098137709401e-14
-1.57444048929713559e-13
-9.09565477383253903e-12
4.93308248679222222e-13
6.21441826924217055e-13
-2.73050581903618152e-12
-9.67932967026538208e-12
6.12605323958190534e-13
8.6848419710541529e-13
-3.13682748878920969e-12
-1.08122783283508201e-11
1.52040097903430002e-12
1.39668504719626137e-12
-4.69010150433790642e-12
-1.19672330040167929e-11
2.78608056210923441e-12
2.11698950397134255e-12
-6.63572920252514732e-12
-1.25443224882964819e-11
4.66812841416992671e-12
3.01498176641725066e-12
-8.92018961055825567e-12
-1.21265831085033581e-11
7.18472850692364932e-12
4.03455716938358269e-12
-1.10561644906870944e-11
-1.17336041514773276e-11
1.13762921844778191e-11
5.38625284293286816e-12
-1.38619502810427386e-11
-1.09995712621287834e-11
1.54894967003438162e-11
6.59889129723829991e-12
-1.60493910267366547e-11
-9.79356270041115649e-12
1.81102953936209045e-11
7.68319760782125648e-12
-1.77692200702747115e-11
-7.50210648375951009e-12
1.97172159323796195e-11
8.03525682982276349e-12
-1.92967533817463959e-11
-4.2772440276434099e-12
1.79766626768837283e-11
6.86827110669593659e-12
-1.79722197638137391e-11
-1.55396624246694305e-12
1.18950446645306905e-11
4.22762050478942987e-12
-1.25090648794811359e-11
-3.35429097612596507e-13
5.24848732351216265e-12
1.76390140288351929e-12
-5.58017635574453355e-12
-3.84994817278587699e-14
1.37595752628670318e-12
4.68574612489859291e-13
-1.53405238953135795e-12
-1.52436339511905406e-15
3.86748031295737239e-13
1.1352351253329869e-13
-3.45727280397929377e-13
1.16196313293107265e-13
2.42024758111189341e-14
-6.90260386622354807e-14
-3.6831114143055976e-12
3.810272371107819e-13
2.46913238240397387e-13
-1.07107353672299934e-12
-3.9442711473705786e-12
5.48381902357367021e-13
3.41197302862235767e-13
-1.26837702428128e-12
-4.393774383580846e-12
9.10475772822942577e-13
5.47687991051104354e-13
-1.93666306429484753e-12
-4.82690234993822207e-12
1.43072472195542856e-12
8.20940971093393676e-13
-2.7195984716610933e-12
-5.00459330463920134e-12
2.15595124654917882e-12
1.15083616754752938e-12
-3.5927575790300873e-12
-4.75260919038403368e-12
3.07129360870370789e-12
1.49961619099891446e-12
-4.37221813937428369e-12
-4.58731401686794062e-12
4.40773765759423314e-12
1.97187017538524428e-12
-5.33656859790650376e-12
-4.30700792766613141e-12
5.81185126107966227e-12
2.40240576431605488e-12
-6.14820880932104699e-12
-3.87187250754212172e-12
6.72305501250660955e-12
2.78943282962895014e-12
-6.75532318293187867e-12
-3.01937997358304081e-12
7.28394979488593179e-12
2.92815786073792707e-12
-7.29800103537466604e-12
-1.79380671395241781e-12
6.75679439473746366e-12
2.53385218646216319e-12
-6.81140302583300639e-12
-7.01836726687202066e-13
4.62972725730795687e-12
1.58691613612099587e-12
-4.77348355913212364e-12
-1.71782373827124064e-13
2.2071889383649694e-12
6.73951441118273482e-13
-2.17591107505763767e-12
-2.44970679605821264e-14
6.58043150700075498e-13
1.87836387436954534e-13
-6.10910443144153333e-13
-1.27647825136713826e-15
2.19741022362116702e-13
5.1696018096685917e-14
-1.43335973194009078e-13
5.82198935053066741e-14
1.08696398336287433e-14
-3.01921705065063977e-14
-1.4123976922165784e-12
3.50450496726172689e-13
3.42148916221380464e-14
-5.86708129577748533e-14
-1.48180778003876853e-12
3.23510139269734624e-13
6.43771393689250429e-14
-2.40789836697811696e-13
-1.47088938741212484e-12
3.03130924953187828e-13
9.01006234326955177e-14
-3.76034108855781156e-13
-1.47567215970020522e-12
2.96149191992299505e-13
1.11235145513435912e-13
-4.15519845190990068e-13
-1.5862957859453922e-12
3.74708722225465626e-13
1.43987868447589813e-13
-5.30960424216147046e-13
-1.75759219818681085e-12
5.1945484711225992e-13
2.19984618201091905e-13
-7.94239912709480972e-13
-1.91450838296641932e-12
7.11158723011960903e-13
3.20553721248893858e-13
-1.09600393338267521e-12
-1.96435792140973235e-12
9.57099576979447233e-13
4.38055810047102986e-13
-1.42540736267635565e-12
-1.84170105568128235e-12
1.24416347879342142e-12
5.55069290538396826e-13
-1.69181994944990987e-12
-1.76056625154461711e-12
1.49241811522355168e-12
7.02133511548006765e-13
-1.98842485214518356e-12
-1.63933070752922133e-12
1.78636191766733263e-12
8.43876739760245851e-13
-2.24545364101620662e-12
-1.48921185519076749e-12
2.02368100443940998e-12
9.7846956832576007e-13
-2.45751434352287185e-12
-1.1807908433690035e-12
2.20599957380325933e-12
1.03186853197260455e-12
-2.64577700503152999e-12
-7.26379638936845211e-13
2.13206023931392614e-12
9.04293994462713397e-13
-2.4818496577025469e-12
-2.99064257319045188e-13
1.58129308203527469e-12
5.75737044493783841e-13
-1.75367731415226371e-12
-7.73173040071112955e-14
8.64078554532777859e-13
2.50827613295831141e-13
-8.17965974247563815e-13
-1.21286290112063389e-14
3.17191288593996515e-13
7.66317551138453675e-14
-2.40409075048631246e-13
-6.18271014616035859e-16
1.22252515408583063e-13
2.38644979532659456e-14
-6.14016605759501867e-14
2.69651560914133142e-14
4.52700719144287145e-15
-1.32323917640976237e-14
-5.83933471290572968e-13
2.05983005552570841e-13
3.12402990828396636e-14
-5.18200550174082889e-14
-5.97384565928591375e-13
2.01421270970786013e-13
4.28437484283744976e-14
-1.29648109030699577e-13
-5.88933506867877867e-13
2.00570607429865929e-13
5.25888175851557248e-14
-1.72356843527851549e-13
-5.89208849795323804e-13
2.07653856834190056e-13
5.93958794633128987e-14
-1.89886518705312983e-13
-6.26449685327478625e-13
2.12498575101815956e-13
6.86710838799174659e-14
-2.42189722653394972e-13
-6.85966819732095462e-13
2.22067035356566156e-13
9.3841360360932505e-14
-3.36571840751980909e-13
-7.39439079824299085e-13
2.56730141469538772e-13
1.28796667395366703e-13
-4.5162306591055533e-13
-7.52291427759451131e-13
3.00849943575877818e-13
1.69181811553373758e-13
-5.58277440373768685e-13
-7.01842173180873939e-13
3.54750601161897168e-13
2.07181577125978254e-13
-6.3793930445395149e-13
-6.38449377368722877e-13
3.97252396430438453e-13
2.38832529568078171e-13
-6.84950210538912031e-13
-5.83315036525280381e-13
4.29333420858823062e-13
2.74730494870921479e-13
-7.408569241414485e-13
-5.33516923319283171e-13
4.5418372963013229e-13
3.16534353036647381e-13
-8.07061351339956627e-13
-4.32734198899196095e-13
4.84374248309770736e-13
3.39166048598996512e-13
-8.74132618014514488e-13
-2.76154730669845886e-13
4.91548919975991975e-13
3.0429504686034879e-13
-8.32415441041361437e-13
-1.17854667972476192e-13
4.43854367989795591e-13
1.99672232070575559e-13
-5.97968853845694003e-13
-3.07735216534189481e-14
3.10504834006524362e-13
9.39966951465805661e-14
-2.89288361778270513e-13
-5.34586286646375501e-15
1.56430496562882303e-13
3.2305406079866623e-14
-9.33063809534085469e-14
-2.64036918178874328e-16
6.17822720602036027e-14
1.04978035277454376e-14
-2.77706669205398974e-14
1.15488481325323597e-14
1.76889974305385042e-15
-5.63169993033539565e-15
-2.30436594658517577e-13
9.22681870633637746e-15
3.50961688311410024e-14
1.49072715748125705e-13
-2.11526832740470005e-13
1.72038508772287438e-14
1.98507721083698222e-16
1.35083689566882289e-13
-2.05851873601118155e-13
2.28423720198191608e-14
-4.14213504755788243e-14
1.34017000031502185e-13
-2.03656559916464099e-13
2.62282108652392348e-14
-6.71532022353227118e-14
1.37107793387709278e-13
-2.01034306022617031e-13
2.87522443882215529e-14
-8.00772762728957484e-14
1.42747036068312604e-13
-1.99543411521276938e-13
3.08460844031495497e-14
-8.57303608429383957e-14
1.5242925471176709e-13
-2.07485500426920601e-13
3.34857590062130032e-14
-9.37550908182295372e-14
1.60656893509417864e-13
-2.20978935992908984e-13
3.8376760945022383e-14
-1.12042005717005831e-13
1.68235563271668495e-13
-2.3441663918336763e-13
4.52353281038536835e-14
-1.38214417481059477e-13
1.77125661246292766e-13
-2.37743129185620779e-13
5.37733573198041628e-14
-1.63251323070187498e-13
1.85581987168086801e-13
-2.22719363908757038e-13
6.25607774174727068e-14
-1.82691184277928385e-13
1.95563292466946677e-13
-2.02367066443908173e-13
6.86913614088127467e-14
-1.93357787033095829e-13
2.0562871346543566e-13
-1.82700345987073329e-13
7.66803430665341342e-14
-2.02706067216147544e-13
2.11543314048823545e-13
-1.6564729731706393e-13
8.70883587110890556e-14
-2.17321998836291371e-13
2.15318609557954984e-13
-1.36506204758629299e-13
9.41468609366765308e-14
-2.35692858877074645e-13
2.17854891962195694e-13
-9.04436062087416311e-14
8.67950643305419825e-14
-2.2517500867083855e-13
2.21873346202573784e-13
-4.01223630814586173e-14
6.08501959100137437e-14
-1.66287418014558499e-13
2.1873734210972863e-13
-1.17208683272411982e-14
3.10200025877473015e-14
-8.75242612311574106e-14
1.70792452248377852e-13
-2.18823590929816128e-15
1.32712858496643463e-14
-3.44893186093900034e-14
9.14117629390396597e-14
-1.05355163000671487e-16
4.0648334660125357e-15
-1.17338610857406228e-14
3.15231062515678156e-14
6.44343115904282068e-16
-2.12123479475959334e-15
5.4872621063869614e-15
-2.03900852514124651e-11
-4.22161119849770481e-13
2.29410549706465189e-12
-2.38085337376358711e-11
9.64675370264933064e-13
3.50969040036883611e-12
-2.76215816360104348e-11
3.58073986228577544e-12
5.27063132511538613e-12
-3.05485499052337206e-11
8.45887975805117858e-12
7.63857009600447762e-12
-3.11975292155718121e-11
1.61171914880551266e-11
1.08081883553640389e-11
-3.23841746733242444e-11
2.83993832628044307e-11
1.47793044584122043e-11
-3.18657048978443554e-11
3.84611155449525389e-11
1.85925319673315148e-11
-2.63580659367640793e-11
4.5488376193478659e-11
2.07977140339930104e-11
-1.81081934159088999e-11
4.38214050825881813e-11
1.93513257685946075e-11
-8.37648296395495532e-12
3.36360843189237512e-11
1.36503876605989094e-11
-2.24369969903546222e-12
1.93785015916710695e-11
6.82937747088149023e-12
-2.62128901455167092e-13
7.93082707076915087e-12
2.39436713057354699e-12
2.10108582423354743e-15
2.06613977569047548e-12
6.11524488347650171e-13
2.94382071473416832e-16
5.6197772773627923e-13
1.4386205874109794e-13
1.52887379817895042e-13
3.29365703949701552e-14
-7.12429430480270938e-12
3.08149932634564854e-13
4.17256829772994669e-13
-8.06550872530597171e-12
2.56079465263643898e-13
7.59592767893895107e-13
-9.46890974225576844e-12
8.65372059840498772e-13
1.20627661469767273e-12
-1.09108515606546321e-11
1.9542823812463314e-12
1.8464594343972983e-12
-1.18442835653264133e-11
3.80449432729529912e-12
2.70219022835987068e-12
-1.20256957994920412e-11
6.55719551304798111e-12
3.82207464961437869e-12
-1.24243263220129132e-11
1.11483590516586791e-11
5.23003232848049835e-12
-1.2277562790819601e-11
1.522045768149784e-11
6.58218856390660713e-12
-1.04340233593347566e-11
1.79626571846012196e-11
7.45703249627603653e-12
-7.45252389089182427e-12
1.74881358563344496e-11
7.05608075717358047e-12
-3.73883206459276747e-12
1.38662988714284988e-11
5.14201956619466853e-12
-1.17790072548752995e-12
8.30088049910492671e-12
2.66848906137602345e-12
-2.17052681798865085e-13
3.53841919245271051e-12
9.62576209066214706e-13
-1.92909573764608989e-14
1.00584976997429503e-12
2.61488826769449703e-13
-4.06982474672264687e-16
3.0547212728598847e-13
6.93549907091425602e-14
7.96797921988815851e-14
1.56233731630054898e-14
-2.80274565474990479e-12
3.07875930845498856e-13
1.4145375779821709e-13
-3.18336889027069776e-12
3.45572924482079906e-13
2.64202482539651359e-13
-3.73565472848259077e-12
6.00123866997558987e-13
4.22516266546859336e-13
-4.27826700963950241e-12
1.04775086691465076e-12
6.52615762318317813e-13
-4.58269050571346253e-12
1.7631394041265417e-12
9.56556181247211832e-13
-4.60972445469555054e-12
2.75452884641585803e-12
1.34113412957884931e-12
-4.73263382816685571e-12
4.34800162269080151e-12
1.82297362404088078e-12
-4.69458975044243374e-12
5.85863293067209512e-12
2.29972029623157919e-12
-4.07611582813644413e-12
6.88127264343863954e-12
2.63418208308728949e-12
-3.00195102183196927e-12
6.82914735841408959e-12
2.52589456360765589e-12
-1.59907310455157681e-12
5.5929673766612257e-12
1.89281595068782379e-12
-5.56196563393882781e-13
3.48567776189965112e-12
1.01422492490977038e-12
-1.2158699093895939e-13
1.56109887758593466e-12
3.76843784553463007e-13
-1.54253476080875299e-14
4.92356523141679429e-13
1.10979993661515221e-13
-6.75370645908098858e-16
1.71965730570279965e-13
3.42578336483793019e-14
3.92425595331558697e-14
6.96217885273615308e-15
-1.0996302667643812e-12
2.55965000249787654e-13
6.52817892523867573e-14
-1.24899494810481809e-12
2.84973651622231724e-13
9.88425034147800558e-14
-1.46043728492993674e-12
3.89930132898867078e-13
1.55225523830465445e-13
-1.66116808883109172e-12
5.70780607114222657e-13
2.36886807908883544e-13
-1.76065204197290458e-12
8.41404908627420412e-13
3.43902981797744051e-13
-1.74447749357113655e-12
1.19099029416175795e-12
4.68525431313752494e-13
-1.78474613371631112e-12
1.69635453829188138e-12
6.27374691818755075e-13
-1.76941385430354611e-12
2.17681219591062983e-12
7.89649793642127605e-13
-1.56316262796812748e-12
2.54464558741829405e-12
9.11681115398200997e-13
-1.18122693211196203e-12
2.58136164221065824e-12
8.87440054501166646e-13
-6.58593536989408576e-13
2.19481074015285348e-12
6.80962709176525532e-13
-2.44099120575194808e-13
1.43912123578679297e-12
3.75674875375520804e-13
-5.73750339567967533e-14
6.89773039219586956e-13
1.48075077960208645e-13
-8.22393833559032235e-15
2.48783859080623548e-13
4.82038277650342241e-14
-3.71705971252645065e-16
9.32066029823672302e-14
1.64260083275421239e-14
1.80630055147992286e-14
2.88568942699570436e-15
-3.63894763135474538e-13
1.55648295306325654e-13
2.12825885972748986e-14
-4.01488723336755681e-13
1.70328274721395337e-13
2.53745920012335355e-14
-4.15725107054733684e-13
1.83591063033375046e-13
3.02933922809295347e-14
-4.32858089043861116e-13
1.94694253999863993e-13
3.64426508875948653e-14
-4.87928819236599443e-13
2.03743245686305215e-13
4.47710698966080949e-14
-5.66099473902346959e-13
2.43162967864275501e-13
6.06748758483490651e-14
-6.38419746840204974e-13
3.12833825839480661e-13
8.84806379420155593e-14
-6.70149644593974664e-13
4.06602350942223793e-13
1.25826454254295055e-13
-6.54808507140245521e-13
5.22524022066011047e-13
1.67253276465788927e-13
-6.59475663125007001e-13
6.37520553144578604e-13
2.13029161895141417e-13
-6.52089167486681166e-13
7.46751883016090485e-13
2.64594651788008293e-13
-5.84268879370202426e-13
8.52882544540207751e-13
3.08071285968361505e-13
-4.5082452404132168e-13
8.94818729829095349e-13
3.04552601032942937e-13
-2.60210317113367765e-13
8.09488963774475019e-13
2.38855059494056887e-13
-1.0029745681550555e-13
5.78399320799995037e-13
1.38331031558933548e-13
-2.40581990839879093e-14
3.13837817840776093e-13
5.86984563895846051e-14
-3.86175781884415416e-15
1.30896246219777213e-13
2.26035126528793075e-14
-1.68533996586976943e-16
4.62160737894530284e-14
7.27264475673930075e-15
7.84826427222111151e-15
1.13192182678541166e-15
-1.53292910980619627e-13
9.60414552671768862e-14
1.53264927254528115e-14
-1.65215141950263424e-13
1.05276927658841695e-13
1.69925227240013949e-14
-1.7044777083091939e-13
1.16221336294844218e-13
1.90599424440782221e-14
-1.76198059590350103e-13
1.27214238174588956e-13
2.14266741441911635e-14
-1.91367787270455569e-13
1.36434789062211863e-13
2.44578132287328574e-14
-2.17400224942446568e-13
1.46176798916547544e-13
2.94845097970618402e-14
-2.42223306610792254e-13
1.58549336503286653e-13
3.59290170735861364e-14
-2.52144281382339378e-13
1.76070432081714503e-13
4.78911666001051802e-14
-2.44916548976286149e-13
2.038694289179502e-13
6.11960075091769229e-14
-2.34164218485672422e-13
2.24470012346942414e-13
7.43792210641542227e-14
-2.26410061199486968e-13
2.44530252523430995e-13
8.89159223089429503e-14
-2.04230313471589573e-13
2.66936752299505268e-13
1.03094314946518088e-13
-1.61645747933427492e-13
2.85537491481495116e-13
1.03752149310386585e-13
-9.64245773479757438e-14
2.79727104037066089e-13
8.50695273150095529e-14
-3.82136345769951413e-14
2.25277006887320588e-13
5.25540217135605245e-14
-9.93043058859967232e-15
1.39138104165527872e-13
2.50079518274250035e-14
-1.6849270732995469e-15
6.71728379000584541e-14
1.01945182207640112e-14
-7.30549637887930534e-17
2.05387327463838201e-14
2.91601210291924471e-15
3.2484599993533245e-15
4.30380111120078143e-16
-5.89930451493312153e-14
7.56854924921525264e-15
4.79933761102088829e-14
-5.91879667168229083e-14
8.53622427920800782e-15
5.29868691559734004e-14
-6.03786565292052363e-14
9.11422781782036883e-15
5.88753259366511179e-14
-6.19206008364082613e-14
9.65630346847923839e-15
6.49210841897809726e-14
-6.29023747427497551e-14
1.0312392966934465e-14
7.14639684536361402e-14
-6.509278861456578e-14
1.10832942852887226e-14
7.8784150588935472e-14
-6.95968526230030893e-14
1.24454609250613899e-14
8.84257141734250591e-14
-7.49594119119442741e-14
1.42580615654047189e-14
9.88804559057971942e-14
-7.98685685692141197e-14
1.63064452935099891e-14
1.0902411964803113e-13
-8.17123990410076058e-14
1.86068208039337215e-14
1.19458728529695212e-13
-7.89907776517431776e-14
2.09187727661112337e-14
1.29841179805178412e-13
-7.47362457786026902e-14
2.33828845551248792e-14
1.38200137883627108e-13
-7.15114017825553031e-14
2.65456194034472537e-14
1.45903478967223827e-13
-6.52487990156828401e-14
2.98918678562235532e-14
1.54318067564049223e-13
-5.26566992737410396e-14
3.10937835874462982e-14
1.60738673700180101e-13
-3.29594760394450762e-14
2.75977608960815193e-14
1.5672165634612757e-13
-1.39929071045862032e-14
1.96765709764570742e-14
1.29578121705920542e-13
-3.9237923991715203e-15
1.04612115818240893e-14
8.06648516277021107e-14
-6.7972967371338459e-16
4.26191243284992669e-15
3.5734322822804133e-14
-2.99121621919099613e-17
1.05873267621192766e-15
9.84564403281393197e-15
1.54823229033496473e-16
1.53084403912823761e-15
-7.08813304189527765e-12
3.90631663981192572e-13
9.21882453964019845e-13
-8.60350547755118957e-12
9.60522261649731157e-13
1.29105791987303901e-12
-1.01926698776304424e-11
2.01619785713660878e-12
1.81834307674229022e-12
-1.14549836854319853e-11
3.78799647125374182e-12
2.53176173105117585e-12
-1.24375208919831753e-11
6.48922443674856642e-12
3.5009776926718068e-12
-1.30413749356708826e-11
9.89287108895936577e-12
4.62149763373821673e-12
-1.21462724855867865e-11
1.24407295999409525e-11
5.4709977071048327e-12
-9.58180985284564697e-12
1.32072738503453159e-11
5.44604194698524171e-12
-5.97421772453362267e-12
1.16566772326256282e-11
4.33513375298807129e-12
-2.62581134168290621e-12
8.66008067875786656e-12
2.60738540158783299e-12
-7.24499424062063785e-13
4.9340368846703925e-12
1.10437233813304743e-12
-1.13471982464948324e-13
2.03254905105805742e-12
3.34326635903463342e-13
-8.12888833833555451e-15
6.49613380170090496e-13
9.43086423946463442e-14
-5.96607895260943359e-17
2.0265813427411706e-13
3.31854984398744303e-14
4.4148487519524627e-14
7.63788179762254269e-15
-2.14860839896077434e-12
1.72422917667742721e-13
1.8398849783948002e-13
-2.61663740985923172e-12
2.74711243743994013e-13
2.84300755510501636e-13
-3.18419056085906421e-12
4.90072550373697531e-13
4.06400871456135674e-13
-3.75813431304767064e-12
8.8703340425308791e-13
5.84856973819401992e-13
-4.18985711423355814e-12
1.54620302723876225e-12
8.26469232382101451e-13
-4.50744875853577027e-12
2.51122536144888946e-12
1.13974226101349085e-12
-4.76740961047035925e-12
3.75753328413786939e-12
1.50992514767819009e-12
-4.55910511155249364e-12
4.72548832469451442e-12
1.82940762969135547e-12
-3.69828956503884524e-12
5.15956638386126109e-12
1.87104466567665985e-12
-2.44344199728650295e-12
4.69818743335727586e-12
1.5469293890619242e-12
-1.16058068533187023e-12
3.62440729522452068e-12
9.70294366909803841e-13
-3.5960047099262954e-13
2.14338536283938151e-12
4.30235583302741451e-13
-6.91987286948429982e-14
9.29536984737951011e-13
1.42807117162679938e-13
-7.95938770222289463e-15
3.26914347638316405e-13
4.69367169551023706e-14
-2.99547370765394646e-16
1.11861851664355447e-13
1.80783385980859171e-14
2.14733023190457316e-14
3.41020068297165792e-15
-8.02879172781128837e-13
1.92128730422792311e-13
5.47316072182020614e-14
-9.75106732693719968e-13
2.15253710584132485e-13
8.7350990479886063e-14
-1.18529654325399277e-12
3.03080945862922002e-13
1.30075194963829327e-13
-1.39178337837263516e-12
4.5889144100789718e-13
1.90982731293373563e-13
-1.53822691053513326e-12
7.0933402166006488e-13
2.7302319808544555e-13
-1.63621555658684964e-12
1.0377174212669372e-12
3.72628389832592607e-13
-1.73126460711504318e-12
1.4602400308112684e-12
4.934818196481607e-13
-1.69182771379671786e-12
1.81629454828647207e-12
6.02395514060425307e-13
-1.40190744850394488e-12
2.01355902672774281e-12
6.31319648318534655e-13
-9.70360154523727383e-13
1.89084157245984522e-12
5.40394355127362401e-13
-4.87943103820721108e-13
1.51405660440414401e-12
3.52862234554986101e-13
-1.62199575526258841e-13
9.3340142897665106e-13
1.66999757670874029e-13
-3.39463937077840305e-14
4.35579162493539034e-13
6.22859037874792924e-14
-4.5511087141560302e-15
1.68551416384724229e-13
2.5884603864013428e-14
-1.81564150044665702e-16
5.8797529556100827e-14
8.93763201862220047e-15
9.8651828360365287e-15
1.41732099410700171e-15
-3.0805680220612116e-13
1.51602537554980228e-13
2.32870773742265576e-14
-3.66854218415402472e-13
1.60120787438015378e-13
3.02854906512593995e-14
-4.43163267903135751e-13
1.86301726487198959e-13
4.44695376095435067e-14
-5.16643328380335984e-13
2.47501029228942193e-13
6.4784556693408221e-14
-5.65327503387638981e-13
3.45903771572340477e-13
9.28092086601789624e-14
-5.89450993639506205e-13
4.65093274235010872e-13
1.26719039826752878e-13
-6.21026595565973842e-13
5.93373373379599279e-13
1.63459587959528447e-13
-6.18029951942348734e-13
7.11980652039199465e-13
1.96654154063779792e-13
-5.20324120658163e-13
7.96874033821297014e-13
2.10896710604270194e-13
-3.73675085195397791e-13
7.70688832257672142e-13
1.86890004411711276e-13
-1.95697708918692489e-13
6.40094346031934871e-13
1.30000471693687524e-13
-6.76434447146142771e-14
4.17131745214580636e-13
6.72032611444483393e-14
-1.50398528563264541e-14
2.08794678993404576e-13
2.96876848468206156e-14
-2.2136501693893025e-15
9.12604789207672173e-14
1.2960656700490778e-14
-8.82419602469636889e-17
2.82658661859172159e-14
3.92860863800405412e-15
4.32344946191888657e-15
5.60580679809005046e-16
-9.40968625204720933e-14
6.64682767703346655e-14
9.02449800750251072e-15
-1.0410783696246937e-13
7.57314415207415312e-14
9.92242783735933721e-15
-1.13104125732175002e-13
8.61105048396923845e-14
1.13088003035376777e-14
-1.23776924759498015e-13
9.77526564968883016e-14
1.34625128012841715e-14
-1.41036435643943814e-13
1.10092486361860325e-13
1.61741186905580691e-14
-1.66114281017180877e-13
1.23485839363098447e-13
1.94439006940668432e-14
-1.91558672579065309e-13
1.38291739791511685e-13
2.42566283634588113e-14
-2.07974822007370308e-13
1.74990072884012406e-13
3.30329803439835351e-14
-2.13956473708445108e-13
2.18607135239729206e-13
4.39986322215426258e-14
-2.1953129921084081e-13
2.57732126057218832e-13
5.62158034402396093e-14
-2.20277956147856476e-13
2.93390161596425257e-13
6.79581720658515044e-14
-1.8770241976645589e-13
3.24383762646136044e-13
7.4368888470652037e-14
-1.38686981546780794e-13
3.22444590698986532e-13
6.77549247859980834e-14
-7.47178780994349195e-14
2.81768246206900262e-13
4.93305844763145604e-14
-2.65836043689595444e-14
1.94786141657883543e-13
2.82941671200498869e-14
-6.50524438446206468e-15
1.06206818264497755e-13
1.48308792403213199e-14
-1.00616281587352585e-15
4.69481736362754519e-14
6.19356207970836525e-15
-4.0326855765529302e-17
1.25046866075281681e-14
1.56317153646528412e-15
1.83554371847432996e-15
2.15603642486262557e-16
-4.33100136826085843e-14
3.74444449976252042e-14
5.31209897868959067e-15
-4.58526515015675177e-14
4.2863388590901072e-14
5.77120918602227489e-15
-4.80561659899838788e-14
4.83668618123548019e-14
6.34265354408988406e-15
-5.1785978728072424e-14
5.43935379065161673e-14
7.12877112119652595e-15
-5.83016160191330332e-14
6.33249941935366847e-14
8.41034585978232472e-15
-6.47274380743304248e-14
7.36321476909328446e-14
9.97914826290421112e-15
-7.14960973100762059e-14
8.22493966353484702e-14
1.17537323709505101e-14
-7.64263520843524386e-14
9.32293715990875438e-14
1.41973887732108062e-14
-7.80825774800242496e-14
1.02580563506109412e-13
1.70051422120698232e-14
-7.86086952271356417e-14
1.11039122772131191e-13
2.02944584997697535e-14
-7.80253913033364301e-14
1.19372295959038193e-13
2.37481436632057409e-14
-6.64464739156037232e-14
1.26616612514751404e-13
2.62499515129715028e-14
-5.04487071957701544e-14
1.30443801096962379e-13
2.50904775513226116e-14
-2.81397171633240841e-14
1.22430315367227514e-13
2.04517945840715755e-14
-1.0772561569772949e-14
9.49312996236108832e-14
1.33785336118813727e-14
-2.76926826917164127e-15
5.38660691047159172e-14
6.76628195438752407e-15
-4.36622073647641062e-16
2.09425163235274594e-14
2.56538528203038807e-15
-1.7813476101496888e-17
5.18316451259330407e-15
5.89949828424760028e-16
7.52066898786264111e-16
8.12762748868979222e-17
-1.83335392584135749e-14
2.42882633924598617e-15
1.61656852620957694e-14
-1.87265098781019658e-14
2.53180486384205292e-15
1.83893706089453647e-14
-1.94828485935256585e-14
2.70959734905666097e-15
2.11441430911657336e-14
-2.0116090999671705e-14
2.96839249292150381e-15
2.44339487762639157e-14
-2.0506158074512087e-14
3.21509156606046617e-15
2.77024962963061997e-14
-2.14326293759277547e-14
3.48943074300424369e-15
3.10976244254168647e-14
-2.3176942576787077e-14
3.95685994944679411e-15
3.58681277103845229e-14
-2.54807926356251841e-14
4.66120202143632059e-15
4.21666326094171238e-14
-2.73824220002333373e-14
5.61308754394367296e-15
4.98322142130691656e-14
-2.78997791539775851e-14
6.57208345175956792e-15
5.67921178692345611e-14
-2.72723374576821363e-14
7.34339051217755301e-15
6.21844641255022772e-14
-2.64068908655754536e-14
8.23738863280623835e-15
6.70310467181535293e-14
-2.54280515082761977e-14
9.31102410959817361e-15
7.24317601783754977e-14
-2.20181920713281003e-14
1.02185421541717254e-14
7.72441891570413464e-14
-1.7415864727705003e-14
1.00779834010941058e-14
7.95268603863529716e-14
-1.04835323111876646e-14
8.42671703789470018e-15
7.2579340849054549e-14
-4.31218010992443006e-15
5.79406934674829643e-15
5.37414600103161066e-14
-1.10571081801174967e-15
2.88082690454054579e-15
2.83772968096743839e-14
-1.77729636519435291e-16