/*--------------------------------*- C++ -*----------------------------------*\
| =========                 |                                                 |
| \\      /  F ield         | OpenFOAM: The Open Source CFD Toolbox           |
|  \\    /   O peration     | Version:  2206                                  |
|   \\  /    A nd           | Website:  www.openfoam.com                      |
|    \\/     M anipulation  |                                                 |
\*---------------------------------------------------------------------------*/
FoamFile
{
    version     2.0;
    format      ascii;
    arch        "LSB;label=32;scalar=64";
    class       volScalarField;
    location    "0.690000000000000391";
    object      alpha.water;
}
// * * * * * * * * * * * * * * * * * * * * * * * * * * * * * * * * * * * * * //

dimensions      [0 0 0 0 0 0 0];

internalField   nonuniform List<scalar> 
29184
(
0.999999979845299425
0.999999979602306244
0.999999968887879231
0.999999943017152448
0.999999948677790629
0.999999967368475184
0.99999997762402959
0.999999981801486637
0.999999986368358629
0.99999999171576559
0.999999991980850211
0.999999991805353705
0.999999991602661176
0.999999988638324844
0.999999980507156994
0.975973122794673964
0.999999979603062972
0.999999974281399195
0.999999958114938803
0.999999934553308711
0.999999944061099821
0.999999962370732964
0.999999974139536896
0.999999979845327847
0.999999984380371632
0.999999990193529698
0.999999991826724166
0.999999991602620764
0.99999999120486649
0.999999983075610777
0.999999948297037977
0.976490544559069029
0.999999963159663885
0.999999822680303074
0.999999743484478953
0.99999974817407622
0.999999812073565919
0.999999884975918518
0.999999929468582294
0.999999952004145043
0.999999958453945847
0.999999969265168431
0.999999990880273804
0.99999999125992689
0.999999983497018796
0.99999996854785711
0.999999907587370451
0.986120662358423772
0.999999514908058384
0.999997668316996324
0.999997008146478961
0.999997337192022773
0.999998147469775889
0.999998906338262827
0.999999326851646053
0.999999500218405335
0.999999599595297717
0.999999660594339979
0.999999752715624135
0.999999941657322755
0.999999969878719419
0.999999852847547666
0.999999776301758181
0.998656728630787249
0.999993207370673209
0.999978517526223687
0.999974503603462184
0.999977679270851683
0.999984420684252417
0.999990553884721467
0.999993967351287649
0.999995281852461004
0.999996095006004282
0.999996876041853389
0.999997448811982492
0.999998633890941013
0.999999842108953763
0.999999612715644304
0.999998751345367753
0.981608001932853247
0.999933674353318036
0.999851882658740809
0.999836713576801817
0.999857885995615314
0.999899072420412649
0.999936489600168121
0.999958246747014945
0.999966822768169727
0.999972344047883155
0.999977392927737241
0.999982549002066179
0.999988703981748439
0.999997249736315208
0.999998153790411459
0.999993142809869173
0.971719616727403368
0.999519784217424823
0.999181295758973853
0.99914731561076553
0.999266396837061643
0.999463837596788585
0.999647508373634031
0.999769155872412218
0.999816211029738611
0.999844252640034847
0.999870966656083549
0.999898962104477151
0.999935963334375622
0.999976385474152352
0.999989409951539177
0.999967657661634757
0.968170659368463582
0.997417668286392556
0.996527094244142875
0.996593585301196905
0.997042929788883203
0.997722321266844347
0.998407499195413828
0.999004403662873464
0.999178047040806261
0.999273183058609682
0.99938315562633806
0.999511071337528922
0.999685580981922728
0.999849100532289592
0.999945684790311429
0.999866899001579323
0.964312827390854554
0.987290906345910213
0.985236569621794622
0.986441731179711234
0.988853803991290414
0.991727099278323143
0.994545603364162978
0.996922001706769811
0.997674684495988617
0.99738239098047643
0.997515874521630708
0.997968284776329151
0.998652893478193637
0.999121425811442365
0.999760186428707898
0.999497643911979594
0.967920179436594252
0.707971705426105213
0.692576476626454607
0.719735444580148487
0.764811904531412123
0.818466242243304887
0.873596014402149068
0.924881261714991743
0.964084493945768006
0.984951783868107444
0.990248476257159838
0.992227082508715386
0.994619706779994228
0.995854181871324906
0.998885278907161389
0.998320386375600943
0.984724238901594884
0.127418387509755954
0.121172269789370735
0.138681801285722384
0.168025587299873325
0.210816713940533862
0.272686035761931123
0.364827982153486663
0.506031894676590155
0.693467007123941381
0.871365371363762797
0.955530262281903742
0.974395369684034951
0.985705146035665392
0.996431288645558411
0.994766378335145474
0.984022620809696935
0.00681352337790164849
0.00744949240013333645
0.00808994482221549009
0.0088500825667921449
0.0102768856769710256
0.012544246548247609
0.0186397585133299196
0.0528048000669137652
0.152334245096984899
0.343065992743365411
0.65503127650661308
0.875024920753716295
0.969878143392795655
0.988779402060530499
0.984382974918672438
0.974112035398112308
0.00563465872056432074
0.00583343537287088487
0.00654663403773888923
0.00673868787924833228
0.00841846938582132415
0.010436833412233143
0.013569935683461324
0.0166832386917922827
0.0293146552501953282
0.153061753709306303
0.394751948100140582
0.688261666854977472
0.884295090679390716
0.965409062412366126
0.957601272178324137
0.960497341420158746
0.00233140315895419541
0.00252689975450695256
0.00364867161070685144
0.00559044006860057868
0.00681646960525217425
0.0087612035217753681
0.0102557181696802894
0.0141651512364771651
0.0226774161463330244
0.0612895610626666143
0.165162488930066048
0.276716234131527794
0.438515381341717136
0.619733080006639403
0.760352562659104114
0.921998389781026662
0.00113007571358911805
0.00144669026780754831
0.00243012747813208321
0.00356873026283493437
0.00511470381620401753
0.00661355221960190087
0.00878567399545609161
0.0166737102625528766
0.0288148431046545764
0.020651568634029234
0.00454842501799158135
0.00265017254273745015
0.00631559825628990722
0.0195135547887135517
0.311392935862696341
0.692192302899070633
0.000736582304711915045
0.0010046091357794613
0.00144132765616019742
0.00222644028414569753
0.00385752930944241543
0.00540859534574470585
0.00655404816724298751
0.0163566976978676872
0.0258675712186301754
0.0160948745852011188
0.00209723172902505405
0.000644104360713357131
0.000900620346260669097
0.00329053550909987925
0.0350916245552041345
0.190055414573147397
0.999999979480908574
0.999999979088023627
0.999999968470700162
0.999999949575869573
0.999999955874733226
0.999999971360258422
0.999999980160787283
0.999999984758214389
0.99999999052412436
0.999999991980841552
0.999999992036611829
0.999999991980844216
0.99999996121275192
0.999999980506440345
0.999999961501206514
0.973626553387951565
0.999999979090444358
0.999999973932899078
0.99999995884228543
0.999999942541625275
0.99999995143617737
0.999999967305338466
0.999999977532588069
0.999999983056227615
0.999999989050896376
0.99999999171301257
0.999999991982123415
0.999999991652828601
0.999999922974133759
0.999999335936938349
0.999999900942259767
0.974348300800209177
0.999999962101216333
0.999999834055537051
0.999999771327051645
0.999999781201228455
0.999999840862213718
0.999999903080500907
0.999999941650608459
0.999999958409771628
0.999999969682027756
0.999999987157397574
0.999999991688223622
0.999999991303985869
0.999999985625067422
0.999999170965514717
0.999999801204082939
0.985978456914609502
0.99999952443781881
0.999997845662622953
0.99999734334778001
0.999997675095852911
0.999998419777396452
0.999999071818940322
0.999999425203338843
0.999999593161908229
0.999999691649327671
0.999999754846971012
0.999999902385197093
0.999999985785898104
0.999999964548416553
0.999999821423038004
0.999999572522615066
0.980558110357431234
0.999993348343668265
0.999979854460747108
0.999976985681735431
0.999980175896854395
0.999986437039828147
0.999991778891196059
0.999994664647974929
0.999996063571537253
0.999996944009619471
0.999997643417522841
0.999998110652103755
0.999999447752059956
0.99999982251535513
0.999999468649542589
0.999998570986743496
0.979462937343492657
0.999934843509564186
0.999859260031614072
0.999849371700779477
0.999871507988684072
0.999910007406502821
0.999943000964715445
0.999962208757617543
0.999971921315689238
0.999977605779391432
0.999981927608472043
0.999986897718873946
0.999992679667686568
0.999997653530490638
0.999997951120748962
0.999993525439769715
0.969478306647613808
0.999524506677176738
0.999211601540117345
0.999196180429506864
0.99932424894666938
0.9995092161791721
0.999673107116402448
0.999786850158982832
0.999834399896753823
0.999865459945523782
0.999892862978132402
0.99991859752402279
0.999957171213122109
0.999980064220423959
0.999989355254333412
0.999970504479682387
0.964886069436510896
0.997385255973916918
0.996560953233177838
0.996731201166321634
0.997212897352698247
0.997856636827507915
0.99847684706871187
0.999012318001692989
0.999224308279872631
0.99934165474597525
0.999455497583991104
0.999585826470699268
0.999786984505338205
0.999878408334342272
0.99994906819674978
0.999878817383668794
0.961175962151210594
0.987191785528426458
0.985324750785415926
0.986689466042099617
0.989139712846405228
0.991956610085419133
0.994681650422909902
0.996952990064342237
0.997633576404736822
0.997478721002183599
0.997745291864665873
0.998285418516679846
0.999024602511888848
0.999361958047156218
0.999774193760407437
0.999532437011241059
0.958488938834006099
0.716511717528831582
0.702997258494066024
0.730035928706055937
0.772067050001196131
0.821831085563387687
0.875583912941351183
0.927397941364939804
0.96647549530283805
0.986828893805498319
0.991731297088206398
0.993815665637482248
0.995816987530176667
0.996930105108257747
0.999127088600372026
0.998494160498029748
0.95715967174683525
0.133139591755043279
0.127745324687361661
0.14484956727099127
0.171975222835879848
0.21224029505955827
0.275085244054051548
0.375215687589861235
0.530649106710284535
0.728310892147596811
0.89105644742729595
0.960862041100292497
0.980766242712989289
0.989474031039926816
0.997154172865240551
0.995521258784153873
0.969208826137531454
0.00706879064197079091
0.00739630344109568159
0.00737145367714085297
0.0076946595612811617
0.00918952719685423719
0.0126188914154596148
0.0226462777107552179
0.072376391992211353
0.201681109049052565
0.424533459114791178
0.719013487247516347
0.911835020291851817
0.977286790679413375
0.991262217653619548
0.987485610422707549
0.969201475485468977
0.00558750420669683681
0.00569479004420355393
0.00612752036633782901
0.00602476664626427991
0.00703227824413221736
0.00932464306778223867
0.0135287830541138202
0.0187725194422879681
0.0398162348696401713
0.20814691807812935
0.475506919210046508
0.750687661202679379
0.938587085375236718
0.97332999930561459
0.966814582856635463
0.954176902582277275
0.00239775729734094259
0.00256008764009931595
0.00300042984637269392
0.0040940114103803155
0.00548094092400049256
0.00846152911461491193
0.0129086744143193811
0.013218475400736375
0.0212653463695543915
0.0361190143563884791
0.144696447428512565
0.3459094844041678
0.560690762982340107
0.717494484272754196
0.917351634967162433
0.932431765793087175
0.00120293050405558205
0.00126579652486710596
0.00180002410369322101
0.00249074907520865398
0.00444404589704669884
0.00884624789784818621
0.0112392829330778682
0.0177937593650105141
0.0191130810333810519
0.00686729520666026164
0.00256414482333238315
0.00374882408343632382
0.0110430396647669959
0.237899983911610657
0.437490008878261227
0.866082633577352046
0.0007459833421415785
0.000911770948653738795
0.00130518854396280783
0.00196880184944296004
0.00464427754669600318
0.00627703360766406013
0.00608011794761908336
0.0179179463807325537
0.0220431240970807296
0.0065891250939836294
0.000857769782065767703
0.000500222640091989865
0.00176191152594631396
0.00719926326581469146
0.0910959879185824911
0.325943044952484384
0.999999978490503927
0.999999978314676907
0.99999997072204283
0.999999955878915658
0.999999961209363741
0.999999974488358423
0.999999982660558451
0.999999988559294284
0.999999991955724088
0.999999992036611829
0.999999992050483844
0.999999988299346443
0.999999900575590184
0.999999961492731959
0.999999930197212006
0.97224334456151329
0.999999978268443779
0.999999974396700408
0.999999963280326254
0.999999949374580366
0.99999995706937983
0.999999971062945803
0.999999980496859009
0.999999986664096951
0.999999991276801947
0.999999991955783818
0.999999992036644914
0.999999991831217239
0.999999554516497136
0.999998918822488703
0.999999830437143133
0.973044957297182656
0.99999996598971197
0.99999986876899527
0.999999811281408801
0.999999814203896387
0.999999860423104625
0.99999991372018826
0.99999994956819882
0.99999996507954414
0.999999986116465567
0.999999991473514149
0.999999991833205315
0.999999991505573282
0.99999995912544859
0.999998180979759566
0.999999707244445313
0.972705550819230713
0.999999642461230742
0.999998319754395792
0.999997806006809542
0.999998022974210254
0.999998596438923637
0.999999150848204899
0.999999488017238591
0.999999649950042535
0.999999746099708209
0.999999831954275331
0.999999986845242494
0.999999986729540269
0.999999920322394598
0.99999950937110027
0.99999946108969584
0.968551046278110617
0.99999493961352881
0.999983979262835332
0.99998058939006973
0.999982778367684677
0.9999876704218853
0.999992279667919703
0.99999509805880904
0.999996546559223431
0.999997485605514491
0.999998108131377128
0.999998612228518269
0.99999968907905501
0.999999754668297713
0.999999200517893927
0.999998487891565535
0.968608401436570121
0.99994859582368123
0.999884102203041469
0.999869636957874786
0.999884984434706192
0.999916001854184167
0.999945106950407059
0.999964535505749263
0.999974270757134631
0.999980717185328327
0.999985146600027131
0.999990242750603331
0.999995079066724912
0.999997369565653882
0.99999751307311735
0.99999374847441902
0.972240295019862755
0.99960654617899114
0.999322891860545237
0.999285640164498057
0.999374138797032741
0.999529807140421278
0.999678016789474433
0.99979514667523639
0.999844276958207434
0.99987947040458014
0.999911140048981184
0.999938859690872706
0.999973471353668542
0.999981082496077089
0.999989133320889678
0.999972368120998212
0.967979687579512138
0.99767064824716345
0.996884675527605957
0.996997103897829695
0.997347593091346685
0.997901325105890136
0.9984658682483466
0.998994433781497104
0.999244765948778646
0.999395850077317016
0.999551008000488572
0.99970926910734681
0.999865347727272979
0.999890483067429114
0.999947839825691576
0.999887965187468253
0.961313835874437972
0.98806199793560312
0.986247308764354291
0.987295077092897655
0.989407305857609387
0.991979379690785645
0.994606544618485078
0.996781880364110195
0.997569646450996994
0.997705853710711854
0.998203213421963387
0.998842810233147249
0.999321557022564311
0.999474633280453162
0.999772931288900324
0.999593165332035016
0.957249798677758612
0.730309915717594849
0.717251678033302364
0.741551833472949506
0.779678579667743676
0.826170449888786296
0.879259096172974042
0.932734992266323948
0.971720894195356455
0.990152521327631652
0.993963474353623533
0.995912818690987578
0.997004625213732121
0.997442402951301821
0.999174061104691202
0.998617881940717655
0.956850790357503644
0.139654042900482112
0.134593523331658915
0.151195257860789328
0.177272203627779013
0.216951281531433865
0.282128693721149737
0.393135898416997365
0.567467659722161066
0.772889605838673166
0.917710226966131026
0.973680864907770394
0.985695610320713067
0.99117405958979099
0.997413343925905638
0.996024396348106578
0.959713854791949483
0.00681486368208344961
0.00686285273021173484
0.00687477640479195254
0.00728235728900184995
0.00897492656389198978
0.0128160946444622996
0.0287558056477119212
0.0922301195092598003
0.249075701058704635
0.506589253650652771
0.777086894325541788
0.933509271740614377
0.980528116314974274
0.99220462757507466
0.989016783941367716
0.965354633827164799
0.00549906850845733632
0.00566858423281480384
0.00603653231400989518
0.00589462005998186121
0.00656623085674837639
0.00870176352152873811
0.0134967424366752922
0.0192124836291722063
0.0481492814660699833
0.248046104052272454
0.532958918776463064
0.797565420793362234
0.961036473841373029
0.97658091840183936
0.971418680799982948
0.95541825058422658
0.00250863142786966189
0.00264659730346757539
0.0030094731068958068
0.00340934126083938024
0.00512272069638649435
0.00863881655671338081
0.0107470777952296016
0.0129925297866983341
0.0156121613983094178
0.0162806781839045928
0.14049768013698008
0.405062000429031066
0.615436077906765355
0.834971436065388484
0.929823234610841709
0.937472138831235813
0.00129719106327204218
0.00138300089411393058
0.00163288798829742889
0.00212943914017956794
0.00373058052303233516
0.00684234328553199114
0.0110473918351667623
0.0153461835674647933
0.00959235877372714707
0.00429326381707305534
0.00221590728644261532
0.00554999337918490789
0.0492421503209753142
0.337152683904993866
0.536684600805397261
0.883913579866834054
0.000825282808796479759
0.000896619267375977453
0.00117833700979685279
0.00184717079823041295
0.00267974371947994269
0.00442153559805660845
0.00908709719285767312
0.0144736799183844671
0.0131769536592016758
0.00278329858706278946
0.000592797720290161225
0.000719719294708368019
0.00298072485390844409
0.0107467704141206832
0.144000634090065693
0.452623089138103007
0.999999977896809833
0.999999977662525463
0.9999999709513685
0.99999995814986864
0.999999964476757874
0.99999997740490898
0.999999984989740076
0.999999990706399888
0.999999992015670025
0.999999992050483733
0.999999992053570708
0.999999981205945132
0.999999882580455912
0.999999930184816588
0.999999901000898084
0.970275956135626338
0.999999977662459405
0.999999974256105539
0.999999963787323587
0.999999951890578442
0.999999960125032006
0.999999973943905052
0.999999982950925959
0.99999998901259235
0.999999991790798792
0.999999992015660144
0.999999992050486175
0.999999991866180604
0.999999382017716654
0.99999891995968182
0.999999786047690131
0.970793991619510521
0.999999966661392792
0.99999987348584396
0.999999813871972121
0.999999817500582089
0.999999863760834939
0.999999917475149713
0.999999953790182805
0.999999970287754447
0.999999990525208826
0.999999991707155145
0.999999991869263805
0.999999991523486509
0.999999834215526295
0.999998152211552305
0.999999664151332013
0.968645932560700196
0.999999654568687557
0.999998383150212833
0.999997843575490375
0.999998041987518071
0.999998596530549566
0.999999160162247547
0.999999511495896387
0.999999680728552276
0.999999782391807535
0.999999851414279162
0.999999958569387948
0.999999986672518881
0.999999911467258307
0.999999606492843141
0.999999452321922666
0.96706824566554106
0.99999512809519453
0.999984640782824563
0.999980970765773636
0.999982898717030277
0.999987560871948067
0.999992290831566266
0.999995275528268834
0.999996786323754994
0.999997763954264873
0.999998239485913376
0.999998918489607203
0.999999696460979859
0.99999940541600485
0.999999377642942222
0.999998508844715195
0.965869566226559506
0.999950792421470336
0.99988927888360335
0.999872155664787154
0.999885326023525534
0.99991469226632812
0.999944962724163888
0.999965541150272363
0.999976089808450208
0.999983030021347918
0.999987209627038576
0.999991772778267451
0.999995977583891249
0.999996090250400371
0.999997779852728086
0.999993804990950141
0.966729922506648798
0.999624871687487815
0.999350696464761601
0.999299847764335336
0.999371447294053361
0.999521077345542297
0.99967796315569446
0.999801242812482505
0.999858916545360632
0.999899110987127027
0.999929390071082391
0.99995164451603602
0.999978272290530157
0.999979971654637145
0.999988816955314608
0.999972663443362553
0.965629280671529866
0.997781021677338842
0.996995520469968532
0.997042263263532069
0.997322597212142004
0.997861484708596924
0.998474168551353181
0.999057438131706554
0.999338939967629125
0.999514388329311831
0.999662456627953722
0.999790502194146002
0.999885169027419529
0.999891870125168669
0.999947136659594893
0.999889682038805905
0.961180792885659496
0.988528310869604132
0.986658696838029092
0.987480212915033739
0.989334878774211335
0.991902870265760406
0.994719812372076073
0.99690971012029761
0.997835931205098836
0.998167091201471068
0.998679632195459854
0.999186053766362492
0.999394556848734572
0.99949297355655442
0.99974277820680979
0.999599520586691437
0.956502280416259176
0.737275527109262807
0.725641012853593503
0.749843436120344986
0.785625433893710534
0.830677064330853754
0.885266863537040538
0.940968660248185262
0.978447149602227562
0.993343431187128312
0.995732324597008445
0.997069646426361644
0.997324923406860187
0.997587761163974962
0.999205540594643615
0.99857286497529929
0.956850795408582533
0.143043787448523196
0.13901788493280498
0.156738382923674452
0.182528165779154622
0.221891782245073305
0.290027735539053422
0.412355919536060156
0.601434382349981256
0.809130915432967557
0.93813230408005055
0.981006789059217787
0.987811766137193348
0.992405301374557069
0.99754596651221672
0.996076227641168321
0.961951444222989949
0.00629876581056612421
0.00633207722465350085
0.00676409346070609707
0.00685708163471723461
0.00855300815633499439
0.0132157642106257231
0.0316918158553905968
0.105452961366648779
0.283007150248519856
0.562301360180285981
0.819070301895505892
0.947595922782027866
0.983683687898133652
0.992562519025804502
0.989443482924149853
0.976990195891161095
0.00545788048759433125
0.00552988777385549513
0.00580270021609414002
0.00595623434054798687
0.00635408957014662809
0.0083675083424882106
0.0131956124040900104
0.0186050858191676056
0.0556622047969865322
0.274202640086896099
0.571042061165448533
0.829593194631280895
0.969078067868159865
0.977708606468638219
0.972718849265050256
0.964582146338894608
0.00246400842923204374
0.00256010056876216025
0.00286124391898104737
0.00311960012771819034
0.00451266510107968706
0.00778225946885408026
0.00942589380307267896
0.0104632330773543683
0.011500375340800114
0.0171673885636252424
0.168299414967804872
0.447287252832237914
0.6447331532822973
0.870401571485779346
0.933564036165855593
0.945182749643623588
0.00129682796418593158
0.0013514598619350541
0.00149386753681283319
0.00178250590924117019
0.00332665158268794468
0.0054758219987544772
0.00932159754829033071
0.012781856642546597
0.00837830356642758553
0.00453247379807258325
0.00226442178924749979
0.00595629042166494118
0.0919951654319143275
0.373564651059801855
0.574731105058607472
0.893741817815489559
0.00082469252897296398
0.000860825470085432452
0.00100244362010989355
0.00150787385004632376
0.00169406015018976736
0.00327406480422847302
0.00882894099644173161
0.0120810958099491564
0.0105108789266355595
0.00260281046773326369
0.000528951035847928844
0.000537388746454790203
0.0027772076428785623
0.0143802818690661176
0.17343125858135755
0.534236129833720264
0.999999977597833434
0.999999977454604227
0.999999971897803985
0.999999960891800765
0.999999966996050205
0.999999979204110767
0.999999986275470487
0.999999991385774667
0.999999992035774166
0.999999992053570375
0.999999992054063647
0.99999996794968804
0.999999877468497944
0.999999946928342709
0.999999921215329657
0.968756691057352071
0.999999977454487654
0.999999974735153452
0.99999996504384292
0.999999954484657505
0.999999962701587308
0.999999976018330128
0.999999984403798003
0.999999990061301469
0.999999991895521356
0.999999992035671914
0.999999992053570597
0.999999991845552438
0.999999340624254551
0.999999327791986525
0.999999824762071055
0.969516656987338799
0.999999970528925974
0.99999988366051884
0.999999819410167357
0.999999823259432263
0.999999868594744989
0.999999922973255462
0.999999956204055129
0.999999973971562595
0.999999991109554953
0.99999999178765564
0.999999991860202719
0.999999991451844483
0.999999944088283188
0.999998954495343151
0.999999724469204265
0.971680817323086865
0.999999738698036822
0.999998524325035554
0.999997903302714652
0.999998089874785778
0.999998634219055549
0.999999217099198479
0.999999544713156441
0.999999698017419725
0.999999801207638872
0.999999857567666073
0.999999885496584251
0.999999985300191074
0.999999901504176836
0.999999604837907174
0.999999516662634758
0.968214997231348073
0.999996352600554639
0.999985940079435087
0.999981473815743205
0.999983266843013308
0.999987921282317727
0.999992869890700575
0.99999566743929702
0.999996938027841731
0.99999784059488328
0.999998259101172904
0.999999227701119819
0.99999955979577293
0.999998156007975814
0.999999246045068402
0.999998531345297481
0.96512659283414115
0.999962487406803047
0.999898603497452854
0.999875418957790196
0.999887510616981334
0.999917468033955537
0.99994956294178694
0.999968686782251037
0.999977584936629693
0.99998417442995291
0.99998795762720083
0.999991981369127814
0.99999640553675595
0.999995072076928393
0.999997426182428928
0.999993638686505038
0.963275011237641476
0.999703226340075024
0.999402301655904268
0.999315936322293874
0.999382579636070023
0.99953833949096027
0.999707022324975547
0.999820454282747129
0.999873065811705652
0.999909611254069963
0.999935477386927785
0.999954416779335942
0.999977815665945124
0.999978644944038653
0.999987836859893231
0.999971989147295792
0.961841947996174174
0.998145173840335298
0.997174335344988227
0.997113760829943629
0.997352559564034236
0.997938745774405778
0.998621133776323111
0.999186588449751389
0.999420232878214465
0.999567543741925357
0.999694057190167795
0.999807815788394949
0.999871872487571145
0.999888598807777473
0.999937869437580118
0.999887220806987664
0.958344701198550974
0.989699836076926243
0.987195668598436882
0.987748575652513616
0.98956872600309187
0.99232360854685453
0.995279710873298917
0.997278033108111361
0.998104024697465397
0.998378236862790702
0.998810842966231904
0.999233188549481177
0.999372324486799135
0.999455429040311261
0.999771601526241227
0.999526218687459833
0.956077786261457119
0.745155042514842769
0.731381047191310807
0.756007836325387816
0.791237562724355525
0.837176976666172301
0.894192788498034963
0.949873391417259683
0.983528794608820034
0.994701680381893105
0.996190059006680229
0.997227234159747011
0.997281667812028871
0.997841182836111784
0.999255878419415655
0.99863183039005754
0.956484662793146256
0.145202974403069979
0.141324140068214921
0.160732821392811087
0.186819973678819473
0.227470347684192775
0.301190824189254247
0.434191059760026699
0.63215888797577513
0.836852438206246774
0.951027151250464775
0.984296168484738221
0.989183755826140598
0.9940887858709333
0.997606529426181443
0.996048678123987452
0.963708012724983298
0.00565204691805521083
0.00592873555447879369
0.00652296883717951026
0.00658285372983725622
0.0083447682064153629
0.0132683151206898237
0.0341388352074101925
0.117070707159782475
0.30995391601525768
0.603533218799118698
0.848883870540209307
0.959002440329344008
0.987172500509791551
0.992511327345506844
0.989256535696389605
0.978219826580461582
0.00526257434278013577
0.00537775864008404377
0.0055889359805142147
0.00563469642095068557
0.00604701895566184776
0.00836134096771535759
0.0128146880905775102
0.0186930473724663954
0.0639363083344647865
0.293362477823376877
0.60063661252150502
0.851618440744669636
0.97207764824597942
0.977336485001149002
0.972600877702489264
0.971097968887158158
0.00232599873425331019
0.00242405156026569667
0.00266782440570521601
0.00287297283658051851
0.00437165352995554438
0.0068341761099312958
0.00826287689912339959
0.0104482995812109937
0.0122301724260585748
0.0292209526781582601
0.204513253214732682
0.47255320284343133
0.660374749121058091
0.876308559772488893
0.933823658262587175
0.952877546232423933
0.00117703393896002959
0.00121607171299280346
0.00132162272062217364
0.00159855847157193702
0.0031467979581260427
0.00572027277867038792
0.00860935368176107482
0.0107899978722538065
0.00928084894651273057
0.00599696475336964838
0.00323357367058691499
0.00758072015944845704
0.115612375265302436
0.378512866852162788
0.604022610025478524
0.901275058097771975
0.000737402606019452026
0.000761500021068264345
0.000819480038525475054
0.00122432539796033099
0.00193874300809966042
0.00312476634690516276
0.00672943381645697662
0.0120938842709155808
0.0134412539864060578
0.00364324936673868401
0.000769751968930348007
0.000948819289559152965
0.00469693179082453054
0.0287767948869818158
0.173494030519762421
0.57783223692380159
0.999999977454429589
0.999999977258081429
0.999999965501356614
0.999999960067828653
0.999999966935141593
0.999999979260027594
0.999999986301059796
0.999999991359951101
0.999999992039227736
0.99999999205406287
0.999999992054553699
0.999999958303393832
0.999999937838915054
0.999999959120943194
0.999999946927869421
0.967874970165155224
0.999999977258060779
0.999999972011434979
0.999999955377571137
0.999999951819696697
0.999999961859495246
0.999999976100106602
0.999999984406694686
0.999999990161081875
0.999999991910311969
0.999999992039153907
0.99999999205406287
0.999999991822479117
0.999999391464473475
0.999999642388123555
0.999999891897795701
0.968720700697119574
0.999999960999966686
0.999999827636115279
0.999999763928979046
0.999999790784406484
0.999999861579397575
0.999999923710091942
0.999999956203916796
0.999999976624088238
0.999999991209935435
0.999999991782196007
0.999999991829968238
0.999999991373398123
0.999999434868989567
0.999999863564818847
0.999999806860597862
0.975383109063627018
0.999999512847629668
0.999997804006261815
0.999997351347698515
0.999997769817891902
0.999998595100969778
0.999999249081380936
0.999999565166876381
0.999999704372501741
0.999999815189608565
0.999999852144655366
0.999999886976300822
0.999999981446058728
0.999999787668991891
0.999999803645051588
0.999999621522997817
0.968903954374051857
0.999993300767394677
0.999980035712082271
0.999977619322703015
0.999981348309712859
0.99998801512949087
0.999993352457449136
0.999995902544021931
0.999997101270940991
0.999997962963358966
0.999998390928615422
0.999999448221995713
0.999999526816424678
0.999997860883390599
0.999999490618572184
0.999998564078786289
0.96404759087469083
0.99993599815540879
0.999864158117116597
0.999856418338136765
0.999880972090582576
0.999920782447924039
0.999953867005399899
0.999971199289477974
0.999979408619827814