/*--------------------------------*- C++ -*----------------------------------*\
| =========                 |                                                 |
| \\      /  F ield         | OpenFOAM: The Open Source CFD Toolbox           |
|  \\    /   O peration     | Version:  2206                                  |
|   \\  /    A nd           | Website:  www.openfoam.com                      |
|    \\/     M anipulation  |                                                 |
\*---------------------------------------------------------------------------*/
FoamFile
{
    version     2.0;
    format      ascii;
    arch        "LSB;label=32;scalar=64";
    class       surfaceScalarField;
    location    "0.300000000000000044";
    object      alphaPhi0.water;
}
// * * * * * * * * * * * * * * * * * * * * * * * * * * * * * * * * * * * * * //

dimensions      [0 3 -1 0 0 0 0];

oriented        oriented;

internalField   nonuniform List<scalar> 
20390
(
3.7338787824547936e-05
-1.19825763231746269e-05
3.97314471123486212e-06
-4.29088153793662832e-05
6.82536952295808804e-05
-1.50463405311772967e-05
7.86206678158214643e-06
-4.4270514571938141e-05
9.70799133121448218e-05
-2.10112763684678372e-05
8.21533009145193774e-06
-5.72477455132577244e-05
0.000103015955918527008
-2.12925894771777625e-05
7.870480830421102e-06
-7.11289836775568635e-05
0.000137695629343578894
-1.93999978719933843e-05
1.06106180711702008e-05
-6.73740550339995293e-05
0.000218551766969555183
-1.95798160676949059e-05
1.26374766321377797e-05
-9.50474941966253676e-05
0.000312557878348092484
-2.16864967000618606e-05
2.77668746322422603e-05
-0.000116933529496349883
0.000339694939167694166
-2.23022269886765097e-05
4.32459086164569187e-05
-0.000126720255038704436
0.00035415191385409551
-2.11041865757473037e-05
4.21891970412117826e-05
-0.000127102252940713598
0.000400794298755104801
-1.91970298257676552e-05
5.19803375115894303e-05
-0.000136203395867570546
0.000445344372034714745
-1.78142931490973625e-05
7.38349557356287386e-05
-0.000140100277443925788
0.000456719009460609883
-1.64157222717540239e-05
8.86974326301650991e-05
-0.000138538364614895413
0.000451912562616700359
-1.50672685352499209e-05
9.38757111824021313e-05
-0.000132379668238996866
0.000443943449537305846
-1.35432501734398837e-05
9.60519380251510492e-05
-0.000125943730448085803
0.000425086523222053441
-1.21583501532824908e-05
9.56584225318668469e-05
-0.000118201236716354677
0.000401379837252929957
-1.07623943184988681e-05
9.20573257319654513e-05
-0.000108640783295074287
0.000374618864613855511
-9.59164268554957481e-06
8.48338301737017203e-05
-9.75905787866735016e-05
0.00034651716365988205
-8.47155772967114634e-06
7.83311652478808418e-05
-8.79428488077095772e-05
0.000315098247612018872
-7.54390596705352066e-06
6.88176271904011519e-05
-7.87092357640201991e-05
0.000285147855215795722
-6.83536857263214804e-06
5.97102487740332433e-05
-6.9497904519538834e-05
0.000257395488532861298
-6.23881635858788717e-06
5.36371605902781715e-05
-6.13639182167140772e-05
0.000230726131286279103
-5.39667228806013065e-06
4.85427102901335239e-05
-5.49148893386415581e-05
0.00020384242628100342
-4.70650821591282666e-06
4.32820707843183447e-05
-4.97805429343479872e-05
0.000176975269024782247
-4.04829453809148649e-06
3.76909829603331851e-05
-4.42775014149416002e-05
0.000152191492368529446
-3.66757289032538978e-06
3.26953479979854065e-05
-3.76458639188768219e-05
0.000129620486837166631
-3.21144771942979157e-06
3.00433510824623779e-05
-3.13513245030151624e-05
0.000103796210592330704
-3.10967924182641662e-06
2.58008196233809828e-05
-2.64193979369660317e-05
7.89732002506114803e-05
-2.68718407048016974e-06
2.10730876962525185e-05
-2.03393308410175215e-05
6.49591609365047769e-05
-2.0944854935458092e-06
1.67430245688915096e-05
-1.64743861708003629e-05
5.66780613866854367e-05
-1.70469841644347843e-06
1.36794657762418749e-05
-1.39132163120865277e-05
4.57441236628225098e-05
-1.6077136588998307e-06
1.21229448720188767e-05
-1.18337394118652626e-05
3.39781915815463143e-05
-1.31941622572939056e-06
9.67356296696756376e-06
-9.29843298934404521e-06
2.67307359414893932e-05
-1.0682425038083874e-06
7.5798431419476405e-06
-7.34615998798931148e-06
2.32179231688213876e-05
-7.87172243285942505e-07
6.11636212054711745e-06
-5.89378734895911707e-06
2.0335595124504006e-05
-1.50038800039994858e-08
4.76173243417820578e-06
-4.60297982061400558e-06
1.41554007547631598e-05
9.69170833561094893e-07
4.75724975716074814e-06
-5.00837082159445123e-06
5.97959598052088939e-06
2.80022001155783785e-06
3.73280725841499102e-06
-3.99119492533264352e-06
1.88275966106055978e-06
4.26891510823529905e-06
-5.06124799440017496e-06
5.59899984556415556e-06
-6.2542935459920754e-08
-3.69929858922163094e-08
-1.92540016842659798e-05
1.54854966742270267e-05
-4.74026954270167278e-06
4.29474610970522398e-07
-2.09529157276008934e-05
2.60773729840622161e-05
-9.79474500506387401e-06
4.14261752972603715e-06
-2.7035188363676234e-05
3.19176024913577747e-05
-1.00341735611220826e-05
7.05070139524931163e-06
-2.57116371267063109e-05
3.71128538930341138e-05
-8.42339687550252802e-06
8.29226178697520288e-06
-2.60370952105810183e-05
4.16321048484880296e-05
-7.26870201933470865e-06
8.50340868305352065e-06
-2.66745319473302625e-05
4.56484904056155515e-05
-6.73292678750055012e-06
9.04190422345211607e-06
-2.95822176388804646e-05
4.89686136071549645e-05
-6.75186931029015998e-06
9.51278311550836678e-06
-3.01187449456834463e-05
5.17524714432621976e-05
-6.81582494303313041e-06
9.58841502254230356e-06
-2.87182382557297665e-05
5.35581143865066053e-05
-6.67390652394248404e-06
1.01132639475502004e-05
-2.68739559043959098e-05
5.37008369398506933e-05
-6.33273015541572098e-06
1.14425396604561539e-05
-2.61133342316921874e-05
5.26421140650708806e-05
-5.78265175869209817e-06
1.25110383184162274e-05
-2.5409607647716961e-05
5.039382601357519e-05
-5.01368353361742883e-06
1.31136625551264105e-05
-2.42274500149705734e-05
4.78353264404739415e-05
-4.29964961408469151e-06
1.2949043121932192e-05
-2.36284508987100741e-05
4.45776887696755616e-05
-3.61936587834205066e-06
1.25246911373296848e-05
-2.24194510652970689e-05
4.01269786585741375e-05
-2.8795634505476895e-06
1.19411179614907405e-05
-1.84156899887286341e-05
3.46129475813567643e-05
-2.39646140461563585e-06
1.11729339987277539e-05
-1.53268772137743084e-05
3.04147020550125106e-05
-1.90310681780194802e-06
1.01932452109535545e-05
-1.39071116726550582e-05
2.69123305705876532e-05
-1.5835348830573117e-06
9.2202651933363931e-06
-1.29048675718875271e-05
2.34889507612564497e-05
-1.37019288385190565e-06
8.20563308338246893e-06
-1.12295444918479922e-05
2.02446387943792141e-05
-1.22786154482144215e-06
7.21347197987090546e-06
-9.76542381432210113e-06
1.74271502303445771e-05
-1.07377460503127573e-06
6.4149802453769032e-06
-8.69560540503918569e-06
1.48175904051017685e-05
-9.21437106661610349e-07
5.66435146064825298e-06
-7.69704634153374386e-06
1.2687982263241628e-05
-7.42811995198818964e-07
4.98783860971464307e-06
-6.68322222441138353e-06
1.07320300636172433e-05
-5.92523412436726538e-07
4.35584336642048394e-06
-5.80227522336408094e-06
9.14547141000976225e-06
-4.83907518788758768e-07
3.82188764986098123e-06
-5.252441852975259e-06
7.51766520972357317e-06
-3.95943523091033918e-07
3.29530099951984693e-06
-4.38287430654834856e-06
6.27039650100652389e-06
-3.5311519097003351e-07
2.78508835564371457e-06
-3.65199701161757023e-06
5.75768746682533367e-06
-3.14929712505701052e-07
2.29019061391413431e-06
-3.32480892503927946e-06
5.40546442199695499e-06
-2.52004105140920337e-07
1.87112968586763382e-06
-2.8082987746890925e-06
4.78101363516378066e-06
-2.29735529865423911e-07
1.51788516112439946e-06
-2.35783153392882376e-06
4.44641503555400181e-06
-2.06052987644908603e-07
1.24556731111992683e-06
-2.11050811900826436e-06
4.22084866914683119e-06
-1.85385018049136779e-07
1.10236028477506983e-06
-1.83764585116614803e-06
3.9665225136704129e-06
-1.69652334300119321e-07
9.77035193446328552e-07
-1.63201488577056736e-06
4.34416639599802252e-06
-1.21466907836194279e-07
9.45063575928514729e-07
-1.66756300472444439e-06
5.06449604614519904e-06
3.41008255482108367e-07
8.30307760553429942e-07
-1.36045056992038058e-06
5.74669673042131945e-06
2.31270240071979179e-06
2.15710034527815921e-06
-2.52563153704422227e-06
4.27416480997324109e-06
4.53453428188135441e-06
-4.71340033263966275e-06
1.96101914770834324e-08
-3.53648911009556676e-08
-8.39422193871554785e-08
2.24101231565335975e-08
4.46677194472071496e-06
-3.09680541840293326e-06
-7.93227480349968478e-09
-6.00714721264547066e-06
9.1063398516680788e-06
-2.86791993290717397e-06
1.49927006595365272e-06
-1.33475476246949292e-05
9.39970280054620154e-06
-1.75022785130074192e-06
1.84445265323766809e-06
-1.05388641698079525e-05
8.81583667924802915e-06
-1.44842118791644715e-06
1.46297218130957233e-06
-8.04214394108487661e-06
9.00579809892833277e-06
-1.95280448499853488e-06
1.41020192994996246e-06
-7.5002838080872026e-06
1.0076995935252113e-05
-2.35175673041303447e-06
1.72586304506651448e-06
-7.81005688011524672e-06
1.13533123671896209e-05
-2.58160644559689519e-06
2.08350969581573228e-06
-8.34073849849510529e-06
1.21998808274922056e-05
-2.46700164322686505e-06
2.27625849537685387e-06
-8.35924199860908322e-06
1.22942381741582399e-05
-2.16313749135502394e-06
2.45055225246805929e-06
-7.8803596468632726e-06
1.1762119946411075e-05
-1.72134515862105817e-06
2.66247043086981476e-06
-7.56850309929350111e-06
1.03234113430472597e-05
-1.28807412162267535e-06
2.71851347700296585e-06
-6.62347003503981396e-06
8.53426875037357044e-06
-9.13936312846386402e-07
2.5863683687389193e-06
-5.65288094839213522e-06
6.77995700567006244e-06
-6.781618916696227e-07
2.35881502054623634e-06
-4.85171733935318391e-06
5.25351889564981341e-06
-6.18158918407676657e-07
2.1201630073707495e-06
-4.12116698846100163e-06
4.18172594583723501e-06
-6.29372619529572147e-07
1.92729607334200967e-06
-3.54950941793732478e-06
3.44209806610742201e-06
-6.58568308621593279e-07
1.76635246102159634e-06
-3.19047086472258006e-06
2.99123237576907761e-06
-6.37752525353624189e-07
1.63562557563888326e-06
-2.87669843461742429e-06
2.69641306878695258e-06
-5.645866268519839e-07
1.51672134180918247e-06
-2.58728826935109632e-06
2.42492630040044199e-06
-4.80575919136141169e-07
1.36455516970578632e-06
-2.29201621793600539e-06
2.13826872802392697e-06
-3.96670644249111302e-07
1.18521925174259776e-06
-1.99536311426779393e-06
1.85094068784992666e-06
-3.17186620003368297e-07
1.02456093376354573e-06
-1.70754876978165317e-06
1.56603384592864454e-06
-2.37464001556439519e-07
8.6630134639330353e-07
-1.43171317207143422e-06
1.33329673353486183e-06
-1.67615114728571656e-07
7.05966342311559344e-07
-1.15762548913517774e-06
1.14261119999744138e-06
-1.17179701902800467e-07
5.62981884871961637e-07
-9.35201475406467937e-07
9.58260809467177874e-07
-8.2382459949980273e-08
4.52816135106093322e-07
-7.69088226351007525e-07
7.9658986053692591e-07
-5.28420243659902429e-08
3.42804254152386837e-07
-6.10257397667252157e-07
6.60037743131848452e-07
-3.36850578407595054e-08
2.50924637014190302e-07
-5.1143121509943535e-07
5.35618455461047056e-07
-1.9680182586651426e-08
1.82453054209157803e-07
-4.18821427626013387e-07
4.37005683502554578e-07
-9.99584591432977533e-09
1.32426345347136129e-07
-3.25797394502069345e-07
3.5712393687103018e-07
-7.08532822887031959e-09
9.39022371878784082e-08
-2.60396086407831136e-07
3.04008745750004139e-07
-6.39856726186386121e-09
6.55324970677149343e-08
-2.06682600978996237e-07
2.85321926707420227e-07
-6.48201357040346274e-09
4.87639547683826866e-08
-1.65667314684816157e-07
2.77263405097174848e-07
-8.33293162599857346e-09
4.81051990134048723e-08
-1.61347742221571551e-07
2.95458457734095227e-07
-3.73193971035187642e-09
5.12079964598325643e-08
-1.6954531570826185e-07
8.88119812636080762e-07
8.56539080404145535e-08
1.96918527752905242e-07
-5.02702752308070964e-07
2.3146001262163632e-06
1.33337539892316292e-06
1.11298543704076471e-06
-1.57984066958857538e-06
5.80385889911163271e-06
3.73030379395925823e-06
-3.9294510908061192e-06
1.24579112112813585e-08
-1.05973981732075523e-10
-4.82039896296528444e-09
-4.22612048199946589e-08
9.99293414139589276e-07
-1.00028375152264258e-09
-1.74320889407276958e-09
-4.00464649355627676e-06
4.35000956170519635e-07
-5.60787290677362868e-09
-2.52471666218042778e-09
-2.28969419670506428e-06
2.03205882706617591e-07
-2.18755789956649168e-08
-6.91869282902779623e-09
-1.49352341777560256e-06
4.15002566815278093e-07
-9.41282901974502628e-08
-1.7814987007902318e-08
-1.568267577934752e-06
1.11284375075595473e-06
-5.45212021425866536e-07
7.66992289086527651e-08
-2.26851000604673806e-06
1.76498860700043888e-06
-7.90032420956795743e-07
3.33442277329304759e-07
-2.75324898797190857e-06
1.96185270828738746e-06
-7.43574378632940268e-07
5.60735604639035926e-07
-2.87080710189700867e-06
1.79653825912356819e-06
-5.77474544501960156e-07
6.10006980574152917e-07
-2.61108729527608409e-06
1.50009528568388507e-06
-4.20851719372118463e-07
6.12778309981849112e-07
-2.30188790137674499e-06
1.16457206304633188e-06
-2.92412070615900474e-07
6.08374409027993691e-07
-1.91217564841304826e-06
8.59120906510503353e-07
-2.17809622132549798e-07
5.67983391903541586e-07
-1.52733009618836963e-06
6.72057342263541957e-07
-2.04442842054135393e-07
5.03271986370720523e-07
-1.21208613099702521e-06
6.35407674019099723e-07
-2.33218255158774357e-07
4.41135094529745929e-07
-1.03260544835911607e-06
6.92516534564504033e-07
-2.74338464519131717e-07
4.1194859340023986e-07
-1.00072133219148884e-06
7.6584992186006092e-07
-2.93291237020358425e-07
4.18585860411429269e-07
-1.02078222794194219e-06
7.97343057591833557e-07
-2.82460557914805918e-07
4.23840745504904711e-07
-1.01441322462577406e-06
7.72561166457946429e-07
-2.43131085839220179e-07
4.04561187983259491e-07
-9.46418463567051405e-07
7.10432857875619863e-07
-1.88499298248633202e-07
3.62000090967830005e-07
-8.30820998622195984e-07
6.2633646457626401e-07
-1.33031361356393832e-07
3.09988946022921797e-07
-7.02639786662182156e-07
5.35950827658400153e-07
-8.7828681356017602e-08
2.47119479134027156e-07
-5.67912191969991176e-07
4.54203106470094466e-07
-5.41713066157626256e-08
1.77541886164592636e-07
-4.47329469168251609e-07
3.77445705961581837e-07
-2.73292619788387184e-08
1.48487844379228419e-07
-3.58840340858323544e-07
3.13811496128743875e-07
-5.68378081842129677e-09
1.23274586653380785e-07
-2.75766290362239545e-07
2.6610692235148283e-07
-1.14231340648209851e-09
1.01934051135728577e-07
-2.1408703770536423e-07
2.22016723170864594e-07
-1.90326013970307742e-09
8.37943412067182935e-08
-1.63768665534218351e-07
1.72484909387347465e-07
-1.79442262348938426e-09
6.81211377327158974e-08
-1.26536003257270535e-07
1.32196565146483191e-07
-1.54072281771671534e-09
4.97815625984830152e-08
-9.06126745991855358e-08
1.0278103506469506e-07
-1.04025869776798989e-09
3.56024462701680671e-08
-6.40565918206223817e-08
7.89135058986292235e-08
-3.84764981198394951e-10
2.53292439657207352e-08
-4.47135873612684292e-08
5.84652596765163485e-08
-1.15832025622411459e-10
1.7203986269197806e-08
-3.13683283483583323e-08
4.25799585256112685e-08
-1.46593897844337142e-10
1.03525064934667554e-08
-2.38068300360279093e-08
3.1823704161111145e-08
-2.33923562586416854e-10
6.09385878968023976e-09
-1.51862168513321528e-08
2.96588648849892719e-08
-3.64004942674051031e-10
3.77727249489350357e-09
-9.94440825908287145e-09
4.31293452440534882e-08
6.91723647062522093e-11
2.5086036145476119e-09
-1.02073076584649888e-08
1.80285911745530103e-07
3.03155257988707754e-08
2.89720215529773199e-08
-9.65897010210533023e-08
1.06157417320841557e-06
7.66073130436376659e-07
5.36341837978568578e-07
-8.25847166181088434e-07
6.40560649319396363e-06
3.15803694951500723e-06
-3.40181161184932381e-06
-1.98297989896713775e-10
-1.49527513877581043e-11
-1.43887354042115996e-10
2.54473226303544203e-10
-1.48255296174890297e-09
-1.60539936708000802e-10
-2.68469700209725763e-10
7.48679253699640886e-10
-6.50481767258983265e-09
-7.51488488030323886e-10
-7.80475521523475999e-10
1.01515683888549471e-09
-3.10097284596203303e-08
-4.3056475567549992e-09
-2.52940403992073436e-09
8.67333456846818782e-09
-1.24264651190538645e-07
-2.07511973591025279e-08
-1.06087772117822293e-08
2.60899181828287771e-08
-6.76581074688695827e-08
-9.40226194393970463e-08
-6.60830312360335623e-12
-5.1862304275705967e-07
-6.4065797162139051e-08
-9.82642830648060473e-08
3.7957339035034076e-08
-7.71274747662044986e-07
-9.66414652068391237e-08
-8.60890325037533846e-08
8.47982047938035852e-08
-7.49609102690384023e-07
-9.60801109864864129e-08
-8.01352373835847418e-08
9.52702548096245845e-08
-6.36576597012692885e-07
-6.58534252770725311e-08
-7.62690763728530812e-08
9.64273741679631929e-08
-5.18199032968436966e-07
-1.58342734667807385e-08
-7.22919308688744137e-08
9.47006121676218555e-08
-4.20677395123849669e-07
3.71707632839866715e-08
-6.98175400909532953e-08
9.20424729335218829e-08
-3.59335094015183626e-07
8.75509459131212635e-08
-7.27016209916097546e-08
9.01592152776282627e-08
-3.44408699710482386e-07
1.33367640959850534e-07
-8.00237013789322093e-08
9.13006249264870637e-08
-3.63625233054623408e-07
1.70299515123129047e-07
-8.2963777750064178e-08
9.2915319471145296e-08
-3.95354384511243753e-07
1.88355657889621204e-07
-7.27844100511018585e-08
9.22630226573894014e-08
-4.00854524373047808e-07
1.81663823326897858e-07
-5.40919363706294222e-08
8.58046083411213177e-08
-3.7030947268972784e-07
1.59798079302189706e-07
-3.38635251986202947e-08
6.8102320268156264e-08
-3.10537566192949008e-07
1.3499063375076036e-07
-1.38880921061579556e-08
5.04555400530834664e-08
-2.44639352476147267e-07
1.08504042017076181e-07
-5.46927028577243501e-11
4.56619914511276261e-08
-1.85973221485237781e-07
9.17153489614228834e-08
-1.28355382147913877e-09
3.86940034904599755e-08
-1.24368299478748731e-07
8.34048218108572923e-08
-1.87553529710271643e-09
3.28764245967011929e-08
-9.81479138923349049e-08
6.90861261627574812e-08
-1.66163581343253672e-09
3.03508615107426728e-08
-7.82349563028734233e-08
5.51165797240901628e-08
-7.49773142774749153e-10
2.83967716220670507e-08
-6.12073283229140119e-08
4.0410597044716283e-08
-1.28242754692904331e-09
2.13388273478186524e-08
-4.38749793905733745e-08
2.9964452524285973e-08
-1.63363858952519366e-09
1.28689394187100031e-08
-3.205772530019204e-08
2.17769063409703702e-08
-1.73695737459310919e-09
7.70771329409314778e-09
-2.4952129035190105e-08
1.60205249936530688e-08
-1.74962001230981485e-09
4.84421252983024317e-09
-1.94504783645231656e-08
1.18792137917832232e-08
-1.65072905018294573e-09
2.89442922412211411e-09
-1.47789049767888875e-08
9.02159397976116774e-09
-1.42467816808860522e-09
1.88558637656722972e-09
-1.04361795971539372e-08
6.96736665223636785e-09
-1.04791394839253223e-09
1.17976360950524675e-09
-5.74614741559512359e-09
5.54115531556842387e-09
-7.08960483544970991e-10
5.98035590212689885e-10
-3.17647979606378921e-09
4.94902896642443238e-09
-4.75422518556834689e-10
1.93912801158148468e-10
-1.69309211713264533e-09
5.45577208837795638e-09
-3.26291955308604481e-10
-1.7117780470346166e-11
-1.00755998209030143e-09
1.21017114341794838e-08
3.24565525221584385e-10
2.0660226063452464e-10
-1.36692988075367345e-09
5.14165593942282298e-08
1.48378627319464344e-08
6.61017637078493958e-09
-2.32309219802351145e-08
4.37282509798743921e-07
5.58022032997428705e-07
2.73121754583380823e-07
-4.35638038003435491e-07
5.35912412563279991e-06
2.68185688450859244e-06
-3.00037512559346599e-06
-7.52872170809382871e-11
2.14494946466823684e-12
-2.07403089205930538e-11
8.64707490992259487e-11
-4.25708178396751899e-10
-1.94736702896506077e-11
-5.35412042545393723e-11
2.75185151578901842e-10
-1.77726515532784562e-09
-1.48954243665512647e-10
-2.14224847969721795e-10
1.02292060471442306e-09
-8.9246291936917252e-09
-6.03266066165530956e-10
-5.94786606591851232e-10
4.31631530528029502e-09
-4.0307945222593924e-08
-1.17029810318270624e-09
-1.21395971553258157e-09
1.37976681767303231e-08
-5.7331821246450727e-08
-4.61305251889992875e-09
-1.96078842555913162e-09
-6.82144659843376999e-08
-5.54062452867280794e-08
-9.92215399464430222e-09
-4.84577060102623779e-11
-8.93182917463848028e-08
-4.80517743702501316e-08
-1.3747505165463672e-08
2.48472469001199875e-09
-8.60269152938501713e-08
-3.9341966298840349e-08
-1.56212506655052783e-08
5.14092447790869113e-09
-8.56847368526614658e-08
-3.0841722727249323e-08
-1.53271858843734964e-08
6.24260805724320126e-09
-8.59528306151630191e-08
-2.22378693186412464e-08
-1.3885901197957434e-08
6.67214955139346331e-09
-8.69144163655240521e-08
-1.23032886107328244e-08
-1.18834580002735834e-08
6.77681776159271778e-09
-9.07576054625162736e-08
-3.45202453580093322e-09
-9.58652424999382076e-09
8.60841250471764019e-09
-9.9132658815058534e-08
3.68143124506081622e-09
-7.64971342088322704e-09
9.66709627415336441e-09
-1.09337513492712041e-07
8.02855299664345501e-09
-4.53458052406676453e-09
1.03341589057917891e-08
-1.11765983164343305e-07
9.83989232775732379e-09
-1.6667757759157376e-11
1.09107723239524914e-08
-1.01367758626292158e-07
9.47344920857598106e-09
-3.4919668030341444e-10
1.08077108265637146e-08
-7.86291151224522734e-08
9.17377731500672071e-09
-4.5739251467820797e-10
1.00159227397697556e-08
-5.29457113815457399e-08
8.61998418515533767e-09
-3.21626560333016746e-10
8.63252684242691085e-09
-3.49988539264360035e-08
8.4418735525029251e-09
6.49583393469196057e-11
8.35435811588464037e-09
-2.8906759562341274e-08
6.84683732692810329e-09
1.17068949655261485e-10
6.70948019422536109e-09
-2.1834238968014225e-08
5.56581309939759165e-09
-1.79345271822562228e-10
5.14365641645814722e-09
-1.69858894353081136e-08
4.15308095176826667e-09
-1.56669265109806542e-10
3.55561550045491706e-09
-1.54248524835258131e-08
3.02931421839250056e-09
2.58790714778796677e-12
2.59712106253369143e-09
-1.45942254955024856e-08
2.23755953156670619e-09
3.56300937196862489e-11
1.8132130446686298e-09
-1.07699537661841187e-08
1.54785737143447898e-09
-3.97684944619577589e-11
1.23728535297495377e-09
-5.79319605870498882e-09
1.04979768053656067e-09
-2.20426791709738179e-10
7.94255212295530082e-10
-3.38004792847272785e-09
7.12076091167111044e-10
-3.36057946098870072e-10
4.9692403916820825e-10
-1.91907181366071889e-09
4.67149419296717484e-10
-3.97254455723269245e-10
2.81297968741138129e-10
-1.15791749789034833e-09
2.96194472431844254e-10
-4.27116717787025084e-10
1.45277344168328934e-10
-7.44397577946444521e-10
1.97738100847838152e-10
-3.22560604121989529e-10
4.17088762957775836e-11
-4.32230362586102447e-10
1.87348500939735044e-10
-2.14315525366748475e-10
-1.46817754518427952e-10
-1.91524594984926648e-10
2.40217191629655995e-10
-1.42121157734130948e-10
-3.33019906091500175e-10
-7.03949928202563594e-12
4.12872285315592241e-10
-5.9090642133066059e-11
-4.88785995433097055e-10
1.21265289182433417e-10
1.770751062880262e-09
5.4799536756484999e-10
-3.63521414295423837e-10
-2.12259818335959339e-10
1.64273124347322675e-08
1.11538524619394557e-08
2.15858548652314571e-09
-7.30635027475513281e-09
1.73871942064704011e-07
4.99604423891628283e-07
1.8315538215673369e-07
-2.65582234991798637e-07
4.0010679126841597e-06
2.1171431257470357e-06
-2.57898993069089799e-06
-1.33790127356239373e-11
3.97592512784632245e-12
-6.00679169463672233e-12
2.25781673867581048e-11
-4.02437064250489761e-11
-8.61377657151768566e-12
-8.12754717112833149e-12
4.91958280222065853e-11
-2.80284897973110437e-10
-4.82137404875877978e-11
-7.59413700444346182e-11
2.63597823855699826e-10
-5.85285449246339665e-10
-1.96505425374625179e-10
-1.78570270014539041e-10
7.30158311363462492e-10
-1.39993871391435025e-09
-3.23101749180196226e-10
-2.69787072469940457e-10
1.22560190083221398e-09
-4.7644861785735687e-09
-5.61467686546797917e-10
-3.41737298493039536e-10
1.23047308786240576e-10
-9.13043267941675228e-09
-1.50325989091462163e-09
-2.1716279164083408e-10
-3.68480153897604612e-09
-1.30215840278061648e-08
-2.12311607794457148e-09
-2.92083951452056945e-11
-7.44304306799913054e-09
-1.58975850774611675e-08
-2.10630512893173135e-09
-1.42021939970961359e-10
-1.11041041461342796e-08
-1.74900716384899475e-08
-1.35461136921001154e-09
-1.80257821291473331e-10
-1.40455212978727381e-08
-1.74511495709883307e-08
-5.51727361305291244e-11
3.17982189522388817e-10
-1.73740679255417763e-08
-1.49377854137467679e-08
2.18710905557940935e-10
1.01508601714476082e-09
-1.99843014902676847e-08
-1.26168004477987581e-08
2.33175898947433817e-10
1.26650530897904405e-09
-1.82361684720236278e-08
-1.02284413113127891e-08
1.37880645743893474e-10
1.47175731076845834e-09
-1.65871157599045924e-08
-7.7754222888687818e-09
8.54263018887430512e-11
1.59797291114473603e-09
-1.26971235905517205e-08
-6.03618388993379856e-09
1.25881776655039338e-10
1.6760901214321659e-09
-8.27272254881090216e-09
-4.65791869192509758e-09
2.39472688234456799e-10
1.75428564381874957e-09
-8.23447369294771612e-09
-3.46500659025407816e-09
3.26516986720703009e-10
1.67020493131236208e-09
-7.54646300004699931e-09
-2.41015076716833527e-09
3.55891269154759212e-10
1.46563320251497857e-09
-6.38846068954726798e-09
-1.7597592610051404e-09
2.60679687432773043e-10
1.16856422059414391e-09
-5.42236396875325062e-09
-1.29475461308417183e-09
2.37289014517471397e-10
9.68629089175834537e-10
-4.51006273532030824e-09
-9.99003619040447493e-10
1.94092331172915884e-10
7.52306953908566348e-10
-3.37724656972173388e-09
-8.20731278211746598e-10
1.83546874530303003e-10
5.29661642091919787e-10
-2.21133525446031386e-09
-7.11689988558532118e-10
1.81260365865195275e-10
3.68820798117909305e-10
-1.44382707667755109e-09
-6.27266822463506763e-10
1.19474821391611406e-10
2.74402264377059547e-10
-9.60377654402740798e-10
-5.63892720260582492e-10
3.98387034214174729e-11
1.76780721119889262e-10
-6.26753520772428594e-10
-5.15787303837376167e-10
-5.77137358543106288e-11
1.01808670188724737e-10
-3.99687912060352727e-10
-4.53223085778202994e-10
-1.01464848574750511e-10
4.68838433353899881e-11
-2.42493506609122208e-10
-4.28275800987458539e-10
-1.27590835926925327e-10
1.14806869693692639e-11
-1.32039545454414752e-10
-4.1206588550649683e-10
-1.20475204467922015e-10
-3.08163855658223164e-11
-5.55518891988375235e-11
-4.14843203767681414e-10
-9.55844634010848788e-11
-9.85177855808590025e-11
1.27540148925545607e-11
-3.94635341555467561e-10
-6.51037026785593058e-11
-1.76044039887688906e-10
1.37398585757485362e-10
-3.4286835230994939e-10
-4.1695619260886154e-11
-2.55297234689974697e-10
2.52486209015422473e-10
-1.41362661885124946e-10
1.06860300832973641e-10
-3.79191293708812309e-10
3.37744817875910285e-10
1.62606932531041353e-10
5.85982933110720537e-10
-4.18095391453372955e-10
1.15701381955952395e-10
3.07197263438083954e-09
1.14044836564693269e-08
1.53442698981254668e-09
-3.221045139375063e-09
4.74240123018367552e-08
4.79913895256136577e-07
1.43611413055654343e-07
-1.89866510749066478e-07
2.82998753959600522e-06
1.71917020069118745e-06
-1.98788626866162782e-06
-1.67153149305461658e-11
3.70372454204926647e-12
-4.29257958470402819e-12
2.3731019738742596e-11
-4.56783594402799029e-11
-3.49292775327093569e-14
-1.37575900960750839e-11
4.5056472962730612e-11
-1.84781459992804663e-10
-2.11312632514192735e-11
-5.57323427870523741e-11
2.19635008908600224e-10
-2.66673985550721331e-10
-1.03637524279278414e-10
-1.33193000136521618e-10
4.50482918229829312e-10
-4.10829843066932002e-10
-1.05879201645889736e-10
-1.47453054500320023e-10
4.11407748636032973e-10
-9.03668730175070266e-10
-7.4598365757586456e-11
-1.25067149912148337e-10
2.86362679839057203e-10
-2.09313595396658583e-09
-1.61122032975987502e-10
-1.1054778538306463e-10
1.4313530524999278e-11
-3.84641687087776721e-09
-2.1140321186229969e-10
-4.51941777547115278e-11
-4.26375849549555334e-11
-5.42024167505982212e-09
-5.3424767265342939e-11
-4.58535954822984834e-11
-4.20568155732085425e-10
-5.63554159748432151e-09
6.4760470787414232e-11
-1.00360018229201809e-10
-1.33301752239199905e-09
-5.13960039310738855e-09
1.02449988533012658e-10
-2.37346777030722012e-11
-1.1900581919443655e-09
-4.39974949467001796e-09
1.1159234062450984e-10
8.90631531506859977e-11
-1.53787916178102786e-09
-3.84186511918456728e-09
9.13134222590146424e-11
1.57096033792451987e-10
-1.68870173191550527e-09
-3.3719745170601221e-09
7.97964636181504226e-11
2.07108514189205446e-10
-1.73332029983667759e-09
-2.90765971386248473e-09
9.94444218292604878e-11
2.46073717566443412e-10
-1.80652123418554195e-09
-2.4756166871432351e-09
1.27849156796886732e-10
2.75998751539627183e-10
-1.79440278341760538e-09
-2.06041265100308961e-09
1.58184372360367419e-10
2.94409686921835931e-10
-1.62359277465871089e-09
-1.69388512298169081e-09
1.70785598415126217e-10
2.85336420922347272e-10
-1.37797715499004744e-09
-1.34879063498132483e-09
1.63778994880612864e-10
2.49787979091490907e-10
-1.15031941761575437e-09
-1.09955439795528909e-09
1.34307068756184851e-10
1.99342749880023195e-10
-9.14892688866343512e-10
-8.94776471230861272e-10
1.13800671510932549e-10
1.68877034648162207e-10
-6.65290419283648039e-10
-7.29673680505048026e-10
9.52449814971260341e-11
1.30619505279899181e-10
-5.01600582685654861e-10
-6.08629753402095548e-10
7.77261382290190982e-11
9.3129123964931501e-11
-3.44813588454655636e-10
-5.23755341794083903e-10
5.54210940594251197e-11
6.42529897659230651e-11
-2.30503000577672831e-10
-4.54660130345489271e-10
2.60794202075834336e-11
4.27815658488269584e-11
-1.54178790770762724e-10
-4.01493806503958406e-10
-9.93010919300482752e-12
2.4322635390439478e-11
-1.01112492918169709e-10
-3.57963905309208071e-10
-3.74609208341953952e-11
9.57310862271588554e-12
-5.88867827271532347e-11
-3.10649385937011801e-10
-4.85344482730270346e-11
-2.85722407892951599e-12
-2.74925888647139116e-11
-2.861693898807865e-10
-4.58548426488351916e-11
-1.9219466561535166e-11
-4.43202466764226016e-12
-2.76489568429582295e-10
-3.84175146810843034e-11
-3.87789373988444106e-11
2.96664473522796245e-11
-2.75887758119269235e-10
-3.33509818861557313e-11
-6.55116316787793634e-11
7.06596573683543e-11
-2.71184755707922597e-10
-2.44301094940005254e-11
-9.8645946021416109e-11
1.20892673230518868e-10
-2.3892146089328142e-10
5.41094028606643005e-11
-1.63454187806971668e-10