/*--------------------------------*- C++ -*----------------------------------*\
| =========                 |                                                 |
| \\      /  F ield         | OpenFOAM: The Open Source CFD Toolbox           |
|  \\    /   O peration     | Version:  2206                                  |
|   \\  /    A nd           | Website:  www.openfoam.com                      |
|    \\/     M anipulation  |                                                 |
\*---------------------------------------------------------------------------*/
FoamFile
{
    version     2.0;
    format      ascii;
    arch        "LSB;label=32;scalar=64";
    class       volScalarField;
    location    "0.300000000000000044";
    object      p_rgh;
}
// * * * * * * * * * * * * * * * * * * * * * * * * * * * * * * * * * * * * * //

dimensions      [1 -1 -2 0 0 0 0];

internalField   nonuniform List<scalar> 
7236
(
17.3064120935306356
34.4225086511100073
49.1134629141341605
55.829613699651766
50.8223537133320775
48.169758441323026
61.6624617863723117
88.7743819997022854
90.581001782430306
80.2354700046971914
83.7863052040195555
92.7626073885444669
94.5176327527774873
90.6646871336927376
86.7511630648657928
79.5090363345557734
73.0570684330983653
65.0424407630599575
59.5515313993516742
54.9369051628019847
50.3523218459862463
44.873102833112064
40.2718038154290525
34.8140671373342698
31.0456847163138754
26.5675756750590537
24.4174560995811589
20.3211370278268859
13.6570839485554991
10.4611444263275182
10.5390186713937606
9.05136804735350609
6.34813561577636953
4.12559760044765156
3.4017501863365931
7.62411693688908532
19.0257605466054578
37.3562607470731649
1.92285610192386303
0.566694691780381121
2.81573787415198229
5.20847765023529075
6.80750852940032836
7.6834605970884704
7.92781897201449937
8.04210423374779282
8.15473501473760543
8.31948320183245649
7.93210384695163384
7.29041540675478394
6.80218333670484387
6.81769503465940208
6.9309111515118742
5.2774359659732033
4.45316401989377297
3.22566447629415753
2.91550742296175791
2.4890445669903829
2.07497421758702227
1.85548203534262979
1.75662130508846914
1.42110210391481662
1.16805979498259882
1.21336849812632863
0.982811721406227634
0.82981921655295765
0.995554562386347652
1.10203809562520783
1.20480161926821716
1.08325984627272232
1.04310792714928047
1.01042331189025703
1.02045994104691395
1.39469267302208277
8.04432186933999738
30.4091660853751335
-0.651477100607742665
-0.700540922459675808
0.0997816770250481155
0.677319414445866741
0.938765173074578296
1.82334859814820271
2.26449132417545673
2.78269147045645671
2.96713317980571212
2.74049930984057166
2.53731069614072258
2.32431777959475028
2.19384220255883955
2.09731452814819441
1.99365418141834616
1.8528958360111607
1.69545433667087697
1.55981935920990478
1.33505564031662649
1.18307617747005622
1.02342117076548478
0.871911130062874129
0.744211864982540772
0.642009558961498694
0.59440497218900723
0.585538589948916943
0.532603188058876742
0.469232082667334349
0.40289246698673592
0.336582863496379392
0.240608207304891714
0.134918037873097418
-0.00228895092560151871
-0.151782253420379432
-0.300815987204658075
-0.0782403097447007118
2.44463938251830015
17.4910179511079669
-0.302948964833823386
-0.569590155483826188
-0.268309515295998391
-0.284395679083403463
-0.282238866611661643
0.000836960503883818875
0.493722074290260216
0.814699579853528366
0.848776907144437209
0.777421794156071266
0.765742738096434672
0.798243771956940962
0.850596884036729173
0.889872973782497856
0.919651937098003303
0.91028659425807501
0.844711776166462425
0.763704877817346306
0.686320589079268184
0.610751849420259285
0.541760192089683068
0.498844967123863836
0.458153020480835782
0.422453024638798247
0.418303247210554729
0.409380766729366075
0.401681584301340155
0.351918622988332042
0.30533156932233857
0.262005156133472861
0.198541888445280285
0.108149566640422079
-0.00604042581729703938
-0.14485029182346093
-0.303104819557177219
-0.298823820019318176
0.333943677773808401
9.93941167227665723
-0.134879728951487726
-0.157412617523839088
-0.195509526727185107
-0.274252904422293942
-0.313357430949438909
-0.266311021862964792
-0.0574072827327167037
0.0412191449204602142
0.0987298134054456211
0.152299397332322561
0.227094891089951956
0.30716407476994706
0.36603911196804978
0.394805978047000072
0.408851563989177769
0.397825143834519113
0.366733251007189287
0.332123735650970586
0.298598857120977557
0.289081909961392935
0.275963816105729398
0.289328481938483262
0.30258502143498528
0.300119901229269848
0.289993430411023767
0.269473671503982437
0.246801857686532233
0.218045112143436581
0.184894825783157829
0.147532828362290147
0.0963220333403802115
0.0260442726707234631
-0.0618037985349329452
-0.172475367595049889
-0.300917058863994724
-0.368502383105441034
-0.399011022438290175
8.50685958600332093
-0.124209850035800137
-0.0859819977520381168
-0.158597956178483934
-0.221120541082183042
-0.246073449091993884
-0.241809433156446402
-0.183523012239466821
-0.116078857471087801
-0.0626600103351433874
-0.0132272608841019976
0.0370052381898461
0.0845602200956977607
0.116464970330044243
0.134062600480647331
0.137025691007511718
0.136218271224499698
0.139447734804220624
0.143017021964913699
0.153329110071058566
0.178514692562991489
0.173573459596973872
0.166969452855894124
0.164044830605143577
0.163714890297649518
0.155115214580850008
0.142974366441684458
0.133387449184564189
0.12100473830013149
0.103576104799143531
0.081138851344224272
0.0454548667050583902
-0.00938421708440852383
-0.0856571096925367731
-0.184522530123935935
-0.30177502227787617
-0.393078796424896626
-0.726602292870654476
7.71275014134684334
-0.129207774284745669
-0.105586032114292711
-0.144147703485780737
-0.18510784747967779
-0.20120972852953492
-0.187147318759334824
-0.156985194810566664
-0.124024397221778826
-0.090972577038587854
-0.0582686167124509199
-0.0262582867803670475
0.00502705421263901619
0.0247269771182435996
0.0384701316693244061
0.0484238566765732362
0.0630592518769618887
0.0744034265160296165
0.0837803827802372919
0.0913707582081800807
0.0999257629937126551
0.106465852119033547
0.106855722428156011
0.104918273062474296
0.105994638547148981
0.109619350953834988
0.111406837748007331
0.108135180998225458
0.0989756023800650447
0.0841797509421281648
0.062282008558986808
0.0284145526716724738
-0.0221384378267012807
-0.0932373421244734879
-0.185718365669124669
-0.301181555393361167
-0.389410634839268244
-0.695877563518135567
5.24650238991197426
-0.102305599600177988
-0.0982994382731544603
-0.127184977600092647
-0.153621476296702308
-0.16572329248885484
-0.158991151910639006
-0.141457904673115198
-0.118652453139407893
-0.0941786167213137931
-0.0691327898227867693
-0.0452889557921855729
-0.0227403444361427287
-0.00506055386748669768
0.00902302144751450548
0.0224087716270931631
0.0359490114067180025
0.0487156799816721234
0.0600090756941812145
0.0693149953538616803
0.0767744425263990476
0.0836249069690665758
0.0877854827382907321
0.0896550728099636957
0.0920187570059749077
0.0951265152315529106
0.096512556606065128
0.0936148567793778918
0.0855948920076381875
0.0722779713994041728
0.0517211544551449409
0.0201529167996466023
-0.0261791094197850287
-0.0905641803174537657
-0.179493916835098133
-0.292671948896778222
-0.372319578168859633
-0.50221626727581814
1.96073018812724853
-0.116714048398880013
-0.0880752922460136117
-0.111689726221877283
-0.12959633256191605
-0.140330243231286456
-0.138560943285433114
-0.128252040467413259
-0.112356485706548048
-0.0928401033818699734
-0.071672094314241791
-0.051376024411772768
-0.0326419979248099498
-0.0163609156706063172
-0.00172266802285092873
0.0122764359499408903
0.0259702894397605341
0.0387102440007648582
0.0496962276072681688
0.0587099691584359318
0.0662075114513988455
0.0725546554430031715
0.0769435566959735112
0.0797030187857907801
0.0823718879291133882
0.0851699107582535447
0.0862460689708555578
0.0838104875543582428
0.0770814777012485963
0.0653752839916652562
0.0468374065024416211
0.0183599208691159303
-0.0227249971054213212
-0.0809356403904600424
-0.164469310192191437
-0.27240866581118095
-0.359487861203349579
-0.380655558319300369
1.82402347130779474
-0.122927899623379994
-0.0736394178505195285
-0.0969181294364232504
-0.111414036068263347
-0.123269660577504159
-0.124407970305097648
-0.118906089810148621
-0.107098081947409662
-0.0908993364966787648
-0.0725054372929221369
-0.0544747276241538056
-0.0374548189937595269
-0.0219328335802129494
-0.00745353879323415978
0.00651541809945317338
0.0199708279785050027
0.0322788882490591608
0.0427930506396449681
0.05143761913208552
0.0585712073403431149
0.064533956109114568
0.06908203508313214
-0.117427715389047782
-0.0598171869492790109
-0.0844228283686187103
-0.0986300024794304481
-0.110278022242985829
-0.11424370258118309
-0.111838091170116324
-0.102865738682134444
-0.0888784656502385889
-0.0727499663234303651
-0.0563849581294830066
-0.0405155199204415353
-0.0255290802740313558
-0.0112760459655725735
0.00244214524935309216
0.0154342229589374842
0.0271765099364416583
0.0372308129001207785
0.0455930259121788278
0.0525550139792233875
0.058415825685181319
0.0631719459860746041
-0.0983178469977967484
-0.0476146067282570348
-0.0729127724191662302
-0.0878956755065924134
-0.101017260239407117
-0.106991750932907456
-0.106366738078330372
-0.099296856060701752
-0.0872509085075974244
-0.0728233800922895441
-0.057681412091836852
-0.0426664306664452098
-0.0281683585725139331
-0.0142209722596073965
-0.000849416405036829895
0.0116625719798606267
0.0228961282162842422
0.0325794514732596074
0.0407631532058052581
0.0476791154368395032
0.0535963012730574367
0.0586236352520178999
-0.0774062324117179568
-0.0369062960278998681
-0.0645008077156988407
-0.080238575201951004
-0.094463497273760591
-0.101670249787685851
-0.102150675332887866
-0.0963682605605190173
-0.0858456555400920335
-0.0727272781279884178
-0.0585485967405393118
-0.0442153106080566891
-0.0301851665975408356
-0.0166082724736100404
-0.00364211106100966169
0.00842596709057821108
0.0192591932784913697
0.0286907792148062626
0.0367950751594836034
0.0437580671109612102
0.0498297361031117339
0.0551764267678471823
-0.0725183988008965691
-0.0590887546480816719
-0.0453137344112737733
-0.0317032014779488405
-0.0185240392614403407
-0.00595650515668564619
0.00573214919001487772
0.0162578809195765353
0.0255204511263797187
0.0336101209424781028
-0.0460312312425744108
-0.0327641096326735798
-0.0199674176828516618
-0.00775458460124554914
0.00361055289077008828
0.0138920848110590106
0.0230397984045650553
0.0311521890020385606
-0.0209431297591667689
-0.00903877511728799939
0.00204910476851917576
0.0121331694055782542
0.197504279284287598
0.362267367139165852
2.79363903786207146
4.79477687463101088
5.93159628923011262
6.32180767819432443
10.9005057320445964
18.7369477320881259
18.5177401055529636
18.260444978646543
27.0682344773861701
36.7824999089263827
44.6483034500195117
46.4176101536626788
48.7508573873794973
57.5208817520949012
62.0632296617688652
53.4891680803459479
52.4599245797716307
45.1496100285913116
35.8163497179403052
34.0882211353840745
32.0144064901327923
29.2013052658246082
25.941616391517897
23.1733986698025163
20.4668263964930723
17.0741164941955006
12.8250252844341173
10.2487456935384831
8.81628808209135784
8.40136839216854625
6.2593958491995858
3.92800540920584496
2.63361840023893734
5.20377238144229537
13.5547384908789006
30.5567263529081927
0.0830804224646548989
-0.112238506874314581
0.210528409442384573
1.16156971196480852
1.52426221959960073
1.55153600386349089
1.74568136537530672
2.19625207917875542
2.69294437442874157
2.77682010409309576
2.66212754387539929
2.55403477217040908
2.24430068804987437
1.93897696882093418
1.6901979634423181
1.43191119514294862
1.25212353875900373
1.16649963195995565
0.989961739454080614
0.874576899163942767
0.823101900041746881
0.737116190129860516
0.678119839864483431
0.604088192419965919
0.555258094745160191
0.535856562864830632
0.502544889113940574
0.4590377783203759
0.428046272443792564
0.364559461678126029
0.342769511974558849
0.269763431622406569
0.247495323741061118
0.297161047422830393
0.317966498697579925
-0.0237404504388689097
4.2729967826586579
23.0070804839337981
-0.173437804945497154
-0.165704648908634955
-0.293760461552168728
-0.169945293432763767
-0.0806538295212911732
0.121944950654246084
0.396275922012266579
0.637384847985231651
0.798370577178784013
0.842605868334060037
0.831927967657605572
0.803849973643757543
0.756573647472525201
0.698913601535217532
0.663698825908876966
0.688859808911144844
0.683022538716505201
0.650471906040697379
0.597482976444626224
0.533894348858467982
0.488362918926188272
0.445453618881806623
0.439121951543520295
0.41964746830484656
0.407503392676338394
0.434921681736988919
0.438186105642997314
0.399539378477116347
0.348093292954611888
0.296117645396519469
0.234812986329297313
0.141629633867156962
0.0157181515170189655
-0.115747307919060016
-0.291901565518625616
-0.303257295688210304
0.725347617824059876
11.8806438032067945
-0.0949616765617801728
-0.0886259885637663558
-0.181908672399966026
-0.193129564324163699
-0.180148720336927359
-0.128588677351659519
-0.0359296354455861527
0.0719423781455747896
0.140852315284315216
0.182366575318452878
0.212995199959221754
0.248407629358625315
0.283383753364623681
0.315272241671168074
0.343188642328915883
0.358565033008561018
0.361641268183502396
0.341937474537605146
0.318561912594867103
0.308480737505905933
0.308988964060421478
0.294233418869339347
0.317288155764014146
0.353539342041961968
0.38227449410258274
0.394714216447329624
0.371835326676787259
0.319937316968088969
0.279935944525172287
0.237985031720002127
0.179002043125759375
0.101192938408654134
0.0114862981308261509
-0.101536589102813893
-0.263155656755805212
-0.366693125447272394
-0.292626358658352459
6.66856473858843568
-0.063751264399859231
-0.0857461093926648182
-0.125882352312786827
-0.157196730414298547
-0.164675935394336365
-0.146138008605769115
-0.13561968697322288
-0.0960262980536134153
-0.0477759072688100292
-0.00522351412991800806
0.0348563895027751564
0.0760001738676850253
0.110936525742926326
0.135958216506358448
0.155939709022682005
0.171556044741465546
0.180125677665825323
0.182063488962163483
0.189081035561633221
0.213346519199056006
0.224997985805391737
0.225085673783868817
0.219975032655229913
0.221348255752081169
0.211500615586941665
0.193591142894320251
0.177838509040147363
0.167186722458431219
0.156700150171003028
0.139297181199115189
0.104873355454541378
0.052487472624384364
-0.020366720950574381
-0.119013979179423662
-0.247150815553477232
-0.368863612602839674
-0.651996881717994303
6.84455110418383672
-0.0500371238084943576
-0.059541023971266524
-0.0960559771224834408
-0.128253785176149215
-0.140305674512887002
-0.133829149700015804
-0.119568891460753945
-0.0959780651508491678
-0.0665211545054455317
-0.0379953672023903705
-0.00826011821434163851
0.0220046320362120955
0.0433730298364157704
0.0595424059500223868
0.0737674667490383351
0.0882969728846956098
0.101315037423022655
0.111194067078180012
0.117964828913993403
0.127772886906478006
0.131991193159896436
0.133377732276692668
0.13237571260382508
0.136094962438756933
0.140931631625117737
0.143841666521477535
0.142669596126201892
0.138216201169885367
0.129635373828628248
0.11202708009359176
0.0821572417978406327
0.0355884351563892018
-0.0312804100425124326
-0.120588838544284621
-0.239522922150716577
-0.356023848195862525
-0.655996777528262909
5.58112948964972677
-0.0390165704673754651
-0.0459910735144775096
-0.074856235444090799
-0.103252437179156553
-0.117145395439915187
-0.115713433780058064
-0.105677908723561781
-0.0882550950734282691
-0.0686437933501211212
-0.047904490411000776
-0.0256991516027926317
-0.00409639415442110497
0.0138203545023161938
0.0291432644770685083
0.0433647087521015981
0.0576533384887059838
0.0713486096688778215
0.0829079385738923647
0.092191009910575647
0.0997931371402374645
0.10662917609200942
0.111449940676872805
0.115179583342370453
0.11974693319079116
0.124928466089940265
0.127827684618733922
0.127196173549691177
0.123071887797347804
0.114384895426582103
0.0979612512158784809
0.0704949024879369668
0.0288789614184881104
-0.0303492856056286515
-0.114956704184133271
-0.226376168714677833
-0.331720345310221931
-0.532723809417772753
3.98775402927139222
-0.0279782220836731869
-0.0338741545386075232
-0.0586531506674803846
-0.0837720009694940815
-0.0985893114773141732
-0.101294684628003284
-0.0956891432430051342
-0.082989292181654975
-0.0669092210851011115
-0.0493691258320641951
-0.0308066126979525505
-0.0124091734949333364
0.00398012188088531574
0.0187370293345512015
0.0326866472375333186
0.0463352694555921596
0.0591962329373717164
0.0703886380901547204
0.0797477943558913133
0.0876705956933176572
0.0946754211777602328
0.100041516211492043
0.104405089872502244
0.108966949996408546
0.113477932630779793
0.116249826185815072
0.116102778058073508
0.11258317131394624
0.104559348074939829
0.0898649969275220617
0.0657670466604668574
0.0297327781693505939
-0.0224848911370715832
-0.100553709697394314
-0.202695443539795656
-0.310799471852305109
-0.46789231747086546
2.40951347937020355
-0.0183058770542790586
-0.0219374856252076665
-0.0446717777580275185
-0.0679057102691160014
-0.0833325300068993996
-0.0889645585362267011
-0.0867668316190787076
-0.0776257067467691769
-0.0642865757183242043
-0.0489279767220394055
-0.0327366498566425621
-0.016449468158999378
-0.00127551752063563757
0.0128373677034189278
0.0263296425197132034
0.0393795931676673566
0.0515255187145303856
0.0622392709109080219
0.0713942073619413808
0.0792399488613027558
0.0860331564713325281
0.0915778972048624934
0.0962753252852998898
0.100849939283617893
0.105129632919597163
0.107922477521364468
0.108314633991470774
0.105689692876251129
0.0990532275198190842
0.0866028260083609169
0.0662963030824144234
0.0360504723983539055
-0.00935419242993008014
-0.0790117741465260065
-0.168293158787582803
-0.279498747079713783
-0.277661302006945832
3.56721628643327771
-0.00762012473786582989
-0.00980054658013030516
-0.0324205541800606303
-0.0550278166356536133
-0.0710174676845663905
-0.0788358682284711343
-0.0791102534310704486
-0.0726966165153962868
-0.0617500040437891015
-0.0483104157389728367
-0.0337695938262367323
-0.0189909798731444542
-0.00481026421303515882
0.00870610996760633714
0.021724707431736115
0.0342252050679528116
0.0458137313241000488
0.056083115954744904
0.0649560676940410531
0.0726046217906469032
0.0792551242701725056
0.0849097036134070643
0.089871091807187678
0.00578387094200632015
0.00213833008112535245
-0.0216544640295909287
-0.0443439747751504798
-0.061281834634176989
-0.0706683173147653748
-0.0727785049160238201
-0.0684085041719799669
-0.0593990316165836363
-0.0476089731096785013
-0.0344587807058435655
-0.0208671036977306351
-0.00748661621892145798
0.00549336847407173173
0.0180469734234894909
0.0300271151608322746
0.0410985881558898966
0.0509680214633995085
0.0595893787505289291
0.0671025650657195577
0.073708624641315057
0.0795053607930578388
0.0208877007745723424
0.0134489166336304623
-0.0125448208468568641
-0.0358887245181214315
-0.053672985396763441
-0.0641109982563923264
-0.0675938020123136307
-0.064795626730816791
-0.057332991745161016
-0.0469299069542120639
-0.0349544640498371112
-0.0223162149207608955
-0.00962633049913767455
0.0028466966463235586
0.0149437706237895464
0.0264468761560994053
0.0370677954731859702
0.0465996939210229222
0.0550258875750150728
0.0624655746604751844
0.0691114492229017302
0.0751063198137350563
0.0341783977899171379
0.023504680984202081
-0.00507873835407986716
-0.0292342451051421648
-0.0476603982834122447
-0.0588527892089187182
-0.0633274453757496636
-0.0617351524498050142
-0.0555279666053220683
-0.0462749297954352101
-0.0352678546579353186
-0.0234166845940097269
-0.0113293565588794224
0.000655658209378113632
0.0123078837901112667
0.0233786101410218758
0.0336173075723130987
0.0428784443873115664
0.0511712315262271358
0.0585928146479055209
0.0653313360794151032
0.0715625155750719139
-0.045608210059554212
-0.0353959845786071745
-0.0241962586712232593
-0.0126351869137890701
-0.00110936803538237531
0.0101192288114134235
0.0207985066063616358
0.0307125349442562805
0.0397569116603000774
0.0479592776186867006
-0.024669882864090352
-0.0135624602185218657
-0.00246233692826698051
0.00836929909316508867
0.0186969156257890574
0.0283316626592545195
0.0371987072287299492
0.0453373244307183967
-0.00342754159015369337
0.00704387989954545577
0.0170542638875034562
0.0264447283995976196
0.0801333392184671173
0.0495724091784056839
0.0402448897242515258
0.563004675504708896
1.03694705424020639
1.38348535290624941
1.73784654366624403
2.27530978403706863
2.65380708855202663
2.89567236222212543
3.23282648301227793
3.4336979206160847
4.05895465424627133
5.65117385814596229
7.27907159403602755
14.9726313607871724
21.64482287321756
30.3127546927770624
30.1111672238982102
24.8313309947430625
23.2134008130758822
20.5061707354842326
19.8364755094237424
19.4549010429885953
18.831531011219603
15.6552759269452757
12.8957756912449515
12.8822088330916085
11.1628562137798184
8.20693365716301315
7.46155034409939599
6.79237752255817995
5.33354752677312227
3.50252582909720633
2.09139871710840763
3.56584684356237558
9.13716836012496891
22.404771526353823
0.0562227852236595257
0.00628075589817095326
-0.10241376717899231
-0.0923312612302141789
0.0644627356658713513
0.135554096748749381
0.281450565739490233
0.526402380172832807
0.751578569545895747
0.914339942069996026
1.1313412259784521
1.46865305943432412
1.58402587532318173
1.17597398174654311
0.924021996638898724
0.833595216174373377
0.83027307995081967
0.738491876757796817
0.652353811319059784
0.606014283277076959
0.546053622279916828
0.523868531223182221
0.490798730229767666
0.457362245565494929
0.417742332675136219
0.407325924653951565
0.400007409184491292
0.37604002137812409
0.336795360984311787
0.31233958864020267
0.266860972063760249
0.190630866867735504
0.0809022389252162799
-0.0265138389695560514
-0.144800076040816572
-0.39231628279126729
2.09197816580957197
16.1220876484071916
0.00426513937143230097
-0.0537345198977803376
-0.0774718574627198814
-0.108769017393403264
-0.0847024152028075655
-0.0550368762945358872
0.00897808950747817219
0.100639294732855447
0.188670718231181089
0.281506284643043614
0.364520061908224113
0.408050039841670487
0.413451490862965898
0.370667076187586653
0.335047863508793398
0.34618426369898786
0.367027255010010378
0.366912513518070971
0.34709908663750727
0.325285686646407834
0.315736973384934672
0.317618024337980143
0.320533179241864807
0.312392951761936821
0.301565320188595276
0.308898181928841165
0.318262982066919442
0.332114421644290614
0.30435882157845362
0.280243395746416268
0.245072857168922242
0.174878925084498066
0.0762410112339715479
-0.0618484908552409257
-0.253332167559495447
-0.383874989527518973
-0.0522336428995631569
8.1846986740263894
-0.003072812766439175
-0.0361331699401656811
-0.0742478536110291465
-0.1004029412063705
-0.0875311162822846184
-0.0563904935239012417
-0.0499169885116467343
-0.0336447031294029794
0.00145811772745942396
0.0349219481193091957
0.0672472401678729237
0.101682002006409769
0.128900270041837461
0.154232948088437988
0.180788846879327308
0.198607513956520015
0.210589085482129151
0.212987871941870882
0.212245309991672793
0.209655644024558274
0.219721534495922438
0.241873516223405804
0.273415930662573192
0.29036246753150674
0.27100407105592933
0.252516040377244899
0.235258521932290798
0.221614899506450469
0.207204905180279758
0.184058544117702783
0.150971320539720955
0.104633761712104631
0.037630837179354483
-0.0614305938165906409
-0.209279756798971622
-0.355624257158305701
-0.543880544294378598
5.04198564814426486
0.010443572118681398
-0.0179922325242805915
-0.052363583593378081
-0.0779617537333945343
-0.0848437592065991314
-0.0795130453937181875
-0.0662831176788419574
-0.050432644227283295
-0.0278642305658634189
-0.00129886675641121088
0.02199853861692673
0.0434994055729409496
0.061151155909788861
0.0767933282854060956
0.0944451007514836571
0.111519678621330512
0.128714461035023375
0.140257757305359582
0.147003915078067871
0.155470907660274466
0.159889239578420994
0.157824760647573253
0.161163526469555729
0.165937071529637437
0.170897745703990994
0.172031019517451839
0.172223054830712402
0.17086393914212733
0.163940975043671194
0.148629568775092008
0.124095571664970705
0.0848492896002459862
0.0258813891301879241
-0.0600581206817586144
-0.182628443530991724
-0.319449337999606564
-0.684661942243554811
5.46767552418866831
0.017737783537616042
-0.00453212838214429436
-0.0344096194752939524
-0.0592560995733234855
-0.071383241677196993
-0.0735160725196851023
-0.0686448859132575695
-0.0571640398407328373
-0.0413663565915800349
-0.0234420840616190902
-0.00448229492806847141
0.0148854209255046815
0.0322127930943864674
0.0473939223831735465
0.0625847155766566382
0.0785331056104311281
0.0943367837771071083
0.107138715654887168
0.116134416381351233
0.12262000643297831
0.127921370465207823
0.132740195950701689
0.137509516796737258
0.143486981421037413
0.149519845729680911
0.153408952796893427
0.154962855855267784
0.153912231869168109
0.148024203775699609
0.135128274538438592
0.112959876558768463
0.0780328485493913121
0.0266281634200503624
-0.0507681636024527871
-0.157626067085470944
-0.282986708266384335
-0.671771640458489361
4.08688655061474027
0.0259191105584082974
0.00748964004796361885
-0.0194655987875424347
-0.043617449478382371
-0.0582794011679560256
-0.0637107850452271335
-0.061759112357020092
-0.0534285189125582038
-0.0407513768943062252
-0.0258594655748754579
-0.00969453622274199338
0.00700185994540541718
0.0226241241810375415
0.0370355707987326463
0.0511580493801158179
0.0655605682362856296
0.0795679149150554238
0.0916123540820726334
0.101081787244932123
0.10849254761601676
0.114708895687580012
0.120263121363785322
0.125663679234831877
0.131610676481611483
0.137319837157120594
0.141284316798390042
0.143144658062155955
0.142326586485179318
0.137459997125113281
0.126759591905540758
0.108012275323296186
0.0790403564761341937
0.0350010862579307885
-0.0339506260427005491
-0.125639437780117713
-0.252519139693233308
-0.507082074647440817
2.45344219269755426
0.0356252174680128375
0.0189265764812270865
-0.00635653514094828426
-0.0301198446371133202
-0.046493847942379464
-0.0543312838162438513
-0.0547629769670272132
-0.0489757850109578119
-0.0387566229717129021
-0.0260213424844710599
-0.0118132598099646418
0.00305302374415196897
0.0173905231438854467
0.0310100806496208109
0.0443335076802591349
0.0576162651824208699
0.0703274072607131401
0.0815266013239719645
0.0908227021256356876
0.0985367435053838558
0.105225506964300011
0.111211110667975191
0.116871157173111959
0.122678586643444942
0.128179528007803578
0.132351884423321686
0.134655389577175794
0.134569168868122008
0.13111322702866185
0.122837519611307011
0.10808217284156614
0.0849691399512834122
0.0480415026912890675
-0.0105176164194202646
-0.0850345279966903123
-0.200818458729675464
-0.160352018381083788
4.02511429391729436
0.0463643588877749799
0.0301113738201986038
0.00520988995763343923
-0.0185187956962306957
-0.0360809785561445259
-0.045815050655492906
-0.0483326946692990908
-0.0446579892147789814
-0.0364336436178262155
-0.0254516299823750354
-0.0128484022344176781
0.00055388810550698205
0.0138341426709818124
0.0267295586990112695
0.0393647679761633812
0.0517662099232883283
0.0635237124393193131
0.0740454119413213874
0.0831016086164713952
0.0908984648671981171
0.0977856954097968828
0.103993992488251627
0.109859934265822523
0.115683467736675691
0.121181225302614354
0.125660960960402884
0.128618443688107459
0.129600752074451347
0.127832849064603904
0.122219673385019073
0.111592203346919674
0.0941750480641669885
0.0652560827949601463
0.0188732759148415932
-0.0384863224358060821
-0.13071820030138942
0.102403997705852873
3.95068158839145545
0.0581001619310464387
0.0412061496727934296
0.0155986111792888234
-0.00855650115897173442
-0.0271435209236389058
-0.0383743207075514306
-0.0426022165304412934
-0.0407039613061702943
-0.0342252230476396135
-0.0247682171385546698
-0.0135015225407697521
-0.00130616724265872537
0.0110720234441033811
0.0233074830959775353
0.035333569039245033
0.0470363772220393217
0.0580819239614911442
0.068080343644747271
0.07689830013299008
0.0846611671937498034
0.0916296371156541528
0.0980125910749221479
0.104082238827525764
0.0701678038487326544
0.0519720828851152547
0.0248829503372668612
-5.43138884392031399e-05
-0.0195651227917846456
-0.0319841942507618007
-0.0375851695267285651
-0.03718231845409109
-0.0322011592823203477
-0.0240887214952142832
-0.0139950010913557476
-0.0028125785675059186
0.0087699685049024232
0.0203893615752255772
0.0318556240193618306
0.0429763715757906298
0.0534655689978845161
0.063054011629269352
0.0716599673348294192
0.0793823858744859834
0.0864252827096089332
0.0929828132217995068
0.0823220888435030468
0.0620410418115118975
0.0329827180473536222
0.00712993115304372
-0.0132136193776288234
-0.0265506987398735038
-0.0332400136024382786
-0.034069304834418862
-0.0303392031171259326
-0.0233817984184062286
-0.0143151080166931642
-0.0040131356155711697
0.00685886497234006014
0.017898354266684232
0.0288429949400160063
0.0394586888016837042
0.0494926438262202339
0.0587505149283999231
0.0671858519370605312
0.0748786424572907561
0.0820062488074525531
0.0887549103040606024
0.0918518432019557046
0.0707121060348877839
0.039611249140257411
0.0130157319958031162
-0.00797260046738382765
-0.0219597312491044416
-0.0294865492647998773
-0.0313094103238212365
-0.0286109484924860769
-0.022638374377304385
-0.0144596703311578607
-0.00492473474896515818
0.00530850479641734128
0.0158071371628761698
0.0262655103542434598
0.0364329991618585133
0.0460830250842712633
0.0550691121829253102
0.0633700401008386316
0.0710491660887881404
0.078268098051262211
0.085222119956411102
-0.021847528890428413
-0.0144299113931925273
-0.00556458192366269134
0.00409680659218807867
0.0140934624453234528
0.0240984371825249989
0.0338633469298827705
0.0431838536003023923
0.0519396901871467115