/*--------------------------------*- C++ -*----------------------------------*\
| =========                 |                                                 |
| \\      /  F ield         | OpenFOAM: The Open Source CFD Toolbox           |
|  \\    /   O peration     | Version:  2206                                  |
|   \\  /    A nd           | Website:  www.openfoam.com                      |
|    \\/     M anipulation  |                                                 |
\*---------------------------------------------------------------------------*/
FoamFile
{
    version     2.0;
    format      ascii;
    arch        "LSB;label=32;scalar=64";
    class       surfaceScalarField;
    location    "0.300000000000000044";
    object      phi;
}
// * * * * * * * * * * * * * * * * * * * * * * * * * * * * * * * * * * * * * //

dimensions      [0 3 -1 0 0 0 0];

oriented        oriented;

internalField   nonuniform List<scalar> 
20390
(
0.000189792822577365829
-0.000233950202757136704
0.00010827822498880124
-6.41208444179913436e-05
0.00028331669570341077
-0.000209238111906243107
0.000187725893884324872
-7.2011655160725529e-05
0.000364963294943987414
-0.000198576642477409223
0.000212084449656966824
-9.51543920060678422e-05
0.000452408900245859747
-0.000188193719577837493
0.0002245108787798175
-0.000123762797107361208
0.000531526449165453142
-0.000162118181382873424
0.000235223021988208245
-0.00015222239021141977
0.000589256378623110861
-0.000129724545357769123
0.000243476014618046612
-0.00017148144380487842
0.000629397741562966488
-0.00010353606871967648
0.0002458842016871097
-0.000182489491813242239
0.000661605597864138519
-9.0709999855894248e-05
0.000246931585271330896
-0.00018842944323502634
0.000688467880676666582
-8.18895200678060689e-05
0.000247876184591315333
-0.000192848947511324955
0.000710086775469045387
-6.97534585493836932e-05
0.000245070384620876716
-0.000196935817882940868
0.000727968586823119564
-6.03519352827964605e-05
0.000241086260910701764
-0.000198616147783264938
0.000743346418230437351
-5.37330016084074265e-05
0.000237285807555381346
-0.000198930650646196583
0.000757086919126902323
-4.83298604569755051e-05
0.000233532323531681371
-0.000198942973481056664
0.000769560129736964632
-4.45145132777410033e-05
0.000229972088349076237
-0.000197930792816849847
0.000781274750757111089
-4.21273194178184603e-05
0.000226205196395238227
-0.000195792503206167244
0.000791772918758277731
-3.91932955129730353e-05
0.000221515145035791166
-0.000192820023074733734
0.00080161771276493867
-3.74380610467175837e-05
0.00021685085177812946
-0.000189257587942779905
0.000810315057387770354
-3.51634053310295931e-05
0.000212662003578604851
-0.000186195943867357918
0.000818129096360167146
-3.29172891009210287e-05
0.000208423636843679361
-0.000183320386863380035
0.000825078549858838505
-3.17335757216129504e-05
0.000205153158778112476
-0.000180369035891089438
0.00083165496275918046
-3.20083168206844698e-05
0.000202751796938152172
-0.000177319894140520658
0.000837960066347884116
-3.12474975409235889e-05
0.000199762152423705171
-0.000174819762016161266
0.000844540864509342763
-3.13483375184993134e-05
0.000197011249873092352
-0.000172243716509961183
0.000850226497569614784
-2.99944219803079397e-05
0.000194287531287465836
-0.000169978750171535776
0.000855564281124613127
-2.99505575162691494e-05
0.000192243875865262081
-0.000167631108956466362
0.000860094683059070943
-2.89334379128979762e-05
0.000190042240550034069
-0.000165639209002147055
0.000865084433587287832
-3.12550184827908709e-05
0.000188032147156724365
-0.000161766881936224228
0.000870924438472034206
-3.21704188617676838e-05
0.000185823711191224618
-0.000159493302037125019
0.00087533335843137394
-2.93380318680851659e-05
0.000183303300408082961
-0.000158374197840831091
0.000878632703375854048
-2.67517123717785793e-05
0.000181099211118444255
-0.000157646854150640572
0.000883761132740678852
-2.88488386827059039e-05
0.000180070061612579868
-0.000156349657430669762
0.000889297513728943331
-2.83906390164355687e-05
0.000178069967762805377
-0.000155215707554696904
0.00089452958387819788
-2.72194804806315846e-05
0.000175944656805736082
-0.000153957238711171628
0.000897024096193584845
-2.33590007711648341e-05
0.00017377448469983728
-0.000152909983501864268
0.000878627282736281425
-4.97829875126333033e-07
0.000172764090125044337
-0.000153869421392107054
0.000791532294447830115
7.28369812660645163e-05
0.000179205062674201023
-0.00016494701061165712
0.000500273804881656414
0.000284430783146056481
0.0001797190808465426
-0.000172891310975953805
0.000521158493881289896
0.00029634033647471384
-0.000317224991753464031
0.00016386919482688718
-0.000334022188783820399
-1.33367412705067643e-05
-5.04602694278040702e-05
0.000330385731470528722
-0.000319467751982332234
2.68278153647310202e-05
-8.31148926510185093e-05
0.000461751858021785882
-0.000302763612901857523
0.000109423418473762545
-0.00013660272541843118
0.000534697279176685994
-0.000263030004391422156
0.000167548979015299767
-0.000165658378773157999
0.000568923922427196408
-0.000213229942772164618
0.000195359068282602945
-0.000178474072906438833
0.000586209710005543912
-0.000168882593431219204
0.000202902173326807662
-0.000181029950873425331
0.000598141001620164457
-0.000138040274403568579
0.000205243387747570813
-0.000182670579921732283
0.000608942812347037631
-0.000122643219474823594
0.000205961634030317155
-0.000184830280752826481
0.000619512766031866751
-0.000112825120501510711
0.000207085521618239731
-0.000186719923327043741
0.000632343371124881749
-0.000101524683859772303
0.000209958982705562918
-0.000191018433035474496
0.000646745416277514631
-9.05110715341276895e-05
0.000213858281407872764
-0.000198101251651039748
0.000660429764502981349
-8.14713138280640469e-05
0.000217018872482248098
-0.00020296494306143884
0.000671413887579104768
-7.30149087335713997e-05
0.000220475412851442844
-0.000206774499424070468
0.00067866737191710528
-6.71891856806034848e-05
0.000223506851928314458
-0.000208085657565478465
0.000682430776491401814
-6.38654213287857836e-05
0.000225638611086497956
-0.000207663901521913809
0.000680857644063068927
-5.87197104653244481e-05
0.000226592069218955805
-0.000205492512602483535
0.000675151048655656138
-5.52605459916234639e-05
0.00022663151613231395
-0.000203102422784601282
0.000666589601457497614
-5.03423215737044461e-05
0.000226492600413408837
-0.000202752214457883851
0.000656955513690172187
-4.66176234508531223e-05
0.000227511802242172986
-0.00020417733957259096
0.000645845204631295125
-4.40253322993092573e-05
0.000229659583679161025
-0.000206257472131607194
0.000633902723358067337
-4.31281029081601134e-05
0.000231837304390723113
-0.000208775008862978676
0.000622710025963226746
-4.18301059610857895e-05
0.000233865837246150215
-0.000212090530812752162
0.000612211679928098182
-4.05785213504399075e-05
0.000235740444435024986
-0.000216011940992546174
0.000601736471691469046
-3.68067797544569393e-05
0.00023736904785942516
-0.000220081520770751455
0.000590087035057479587
-3.30503502683853246e-05
0.000238837512091173086
-0.000224088312802756895
0.000577949838878335088
-3.10380183136845498e-05
0.000240278517580101464
-0.00022603675100734777
0.0005648863330062194
-3.11489096659629382e-05
0.000240463902637302147
-0.000227506514338813822
0.00055551999464028667
-3.43901113156403816e-05
0.000239621493934385392
-0.000228035502944679252
0.00055306986945341714
-3.73990607751366311e-05
0.000237569646782093163
-0.000227058568161071447
0.000553791392193172128
-3.63031110406791417e-05
0.000234602907027505012
-0.00022577309784175352
0.000556233151323853566
-4.0258695284672738e-05
0.000230413375117683366
-0.000221445294907176389
0.000561794928567170971
-4.17309197929078223e-05
0.00022355605020381284
-0.000215777509525956913
0.000570882170997051683
-4.09721426695061326e-05
0.000215393669405242096
-0.000210728170834472686
0.000589433656941876867
-4.41262046481066654e-05
0.000207217124905631755
-0.000205001269786694163
0.000624392472528699635
-3.69941226485299957e-05
0.000202520763497796241
-0.000200983062355299401
0.000629417222514719278
7.00751534074644887e-05
0.000211296059588636384
-0.000213558724272164274
0.000476064667446834727
0.00043873765451700247
0.000252031739053589594
-0.00025298592030813591
0.000987831348824955895
0.00040835729021958619
-0.000398965483267209548
0.000128753410032735879
-0.000277670865017126819
-0.000252325233949357141
6.7221359534814693e-05
0.000348055048124741009
-0.000363377110987321995
-0.000122684659303563289
-5.27099124703654537e-05
0.000400466473212013287
-0.000325990293575602102
9.04254199144611696e-05
-0.000119609769876639706
0.000383907355008404952
-0.000233931692035281558
0.000108318513495673976
-0.000120856947519014743
0.000362935892248466782
-0.000176439519720766392
9.80838088273695445e-05
-0.000113902831297023224
0.000367095019152969854
-0.000159917115215001311
0.000100112945971176655
-0.000113237850217913895
0.000387536783419798934
-0.00014764011719917711
0.000117315237892545124
-0.000128157412403800047
0.000410403554835790749
-0.000137992679583955112
0.000138627783033828478
-0.000146145297939572459
0.000427288696009747238
-0.000122323229150054971
0.000152220581958615903
-0.000159607786944432854
0.000435541739502935243
-0.000103605084687637702
0.000163487590175971951
-0.000169660326911829582
0.00043462128196885267
-8.10154199370735953e-05
0.000173610902663931841
-0.000182186109455424034
0.000421629408681485434
-6.24045073013406186e-05
0.000181749339547673491
-0.000187824251471589845
0.000397780803634535955
-4.85921746618015539e-05
0.000187605524985306099
-0.000188179599367607617
0.000366627553606583005
-4.08949631958760635e-05
0.000192317344568068368
-0.000187458242148660762
0.000336035525338096311
-4.29932100728118883e-05
0.000196529801639616154
-0.000186809945423008049
0.000315033824147994469
-5.00538626260617039e-05
0.00020148055373649538
-0.000189144711766630908
0.000307513768440019497
-5.89159757223542456e-05
0.000207728560866653509
-0.000196553112413134546
0.000312432984666707024
-6.36259241430327168e-05
0.000216714373089414491
-0.000208349997119564983
0.000322639277397614263
-6.2711225267783041e-05
0.000227035163672578201
-0.000221147804743027088
0.000333063819003999581
-5.92010108003561246e-05
0.000235122069714882158
-0.000230370869595372793
0.000341128974071065402
-5.42263269881874954e-05
0.000239138261254781006
-0.000236105188050879492
0.000346893531629752076
-4.92051797456687418e-05
0.000241541764608931302
-0.000239931339128461265
0.000350468184491806427
-4.31801651884031206e-05
0.000239703545147151723
-0.000240676747342521063
0.000352821897739136029
-3.57295741906384255e-05
0.000234665394780317246
-0.000238096581048123277
0.000353719375675722633
-2.80864855728312198e-05
0.000226754471584569942
-0.000232616068312747871
0.000353098336370360859
-2.25788293544076457e-05
0.00021574321407074473
-0.000223581542689422114
0.000350967919417976095
-1.75576821088208507e-05
0.000201533072639233004
-0.000212994066913726256
0.000347007538091256645
-1.35078751301247164e-05
0.000186178046263967109
-0.000203100248949161094
0.000341456913921147601
-9.70500966292604751e-06
0.000170590800379020606
-0.000192734757549484095
0.000335284141361311204
-6.07437512732620499e-06
0.0001549562762759443
-0.000179012739735850008
0.000327233084609101967
-5.32538588687621209e-06
0.000137796559176899723
-0.000164679005519549214
0.000320300945106014425
-5.93223391055715298e-06
0.000121153904080209429
-0.000150020214530712344
0.000317202831804448498
-7.2102847614836985e-06
0.000104557071045279206
-0.000135220206136647434
0.000317300482519362642
-1.04368255302822998e-05
9.02830069946676652e-05
-0.00012406915407112872
0.000330607706737458609
-8.67815449666011001e-06
8.04684560692817623e-05
-0.000122090525246040013
0.000359759921159682355
8.24503371181632987e-05
0.000133183082306608349
-0.00017470946683751176
0.000298766469724689651
0.000515016094889982675
0.000245767651123285965
-0.000261052207829134606
0.00127091073212415046
0.000446911447272937035
-0.000431224210362455011
6.84945685882776148e-05
-0.000121405100601988214
-0.000227493072795133391
2.74340989246234929e-06
0.000125851392950379983
-0.000260878145180789623
-8.69110047302749911e-05
-7.29456610954166778e-05
6.64901293293228675e-05
-0.000168041919829690971
-5.6101594770300797e-05
-4.24853748148243775e-05
3.75117340881589266e-05
-0.000124706209738542487
-4.50832713555673922e-05
-3.51644252823665848e-05
8.55800931261050979e-05
-0.000143348799554041231
-2.16308125310069528e-05
-5.95281314082296787e-05
0.000157890917798653125
-0.000173380464586759034
3.57711657013133004e-05
-9.46185485103901379e-05
0.00020178869612061425
-0.000152114612458907145
8.6805199150753905e-05
-0.000126228195152026387
0.0002122593162961051
-0.000125737338127969369
0.000118740634757084451
-0.000141466502501166414
0.000201927211640062537
-9.6907225033318774e-05
0.000130966717313498116
-0.000146050348027236207
0.000182537590050384858
-7.31502539345353891e-05
0.000139211275051506506
-0.000150276153903280334
0.000160000476260586185
-5.30206351625144663e-05
0.000148668207633698585
-0.000154125499392723672
0.000138130544086149677
-4.19215708946642999e-05
0.000158581717693126125
-0.000157194274551423981
0.000128104765597922521
-4.37048589978759634e-05
0.000167248725123419855
-0.000162109740586679888
0.000136714563605549132
-5.4756051777583254e-05
0.000176045597890714964
-0.000170793947304433602
0.000160014799664969404
-6.74768217006533499e-05
0.000186058737238097894
-0.000184875282778429098
0.000188326020788465783
-7.41101740999076746e-05
0.000196419079662318982
-0.000200674112782627391
0.000213690727357638741
-7.41438907269779187e-05
0.000204116102487987913
-0.000214253051732682316
0.000232561510039179943
-6.86346386254572249e-05
0.0002108257100998152
-0.00022468783048823268
0.000245409835032748115
-5.83416313005360738e-05
0.000211346209862718761
-0.000228564034990978162
0.000253162063562208692
-4.63481182492641919e-05
0.000208405537975462214
-0.000229010555935599887
0.000256513118163999461
-3.32839964573934996e-05
0.000200864340749677206
-0.000225157734287840383
0.000257647197000839586
-2.29321109184778428e-05
0.000189823973816020459
-0.000217231323476083831
0.000257683999984654739
-1.34390222765673481e-05
0.000177907921013453643
-0.00020768634290510663
0.000256065107576016219
-3.36888234117885889e-06
0.000165862877499857111
-0.000196605369303316503
0.00025226915693833202
6.29622509481738058e-06
0.000153101620048218305
-0.000183689027502574338
0.000246412571178187536
1.3391024205750842e-05
0.000139446545379562847
-0.000169560306043185446
0.000239867918312791992
1.89494888851801934e-05
0.000125551143784053705
-0.000155514310142589279
0.000231874302660000763
2.44900800070673005e-05
0.000111079527074427816
-0.000141085040698313177
0.00022290559284914393
2.9296980022091188e-05
9.64541821687142853e-05
-0.000126488990884722729
0.000213755848445604208
3.17151070509167325e-05
8.30749880495352801e-05
-0.000111715874910289491
0.000204836595312393906
3.09295554634048337e-05
7.04127422609617903e-05
-9.77485278049263515e-05
0.000197191522949958121
2.88343360355942366e-05
5.72663683563164679e-05
-8.43867595840206157e-05
0.000190854018354664372
2.59690665917730621e-05
4.32717899571455884e-05
-7.01116023824184081e-05
0.000184662228921202701
2.21201342382825127e-05
3.21020034894004311e-05
-5.84645591214813336e-05
0.000172722848590634031
2.9869522031587979e-05
3.05245242006625266e-05
-5.71298347363882075e-05
0.000177046041039233737
0.000120603483009501452
7.5284578146231606e-05
-0.000117758681551490788
0.000159941675431858832
0.000558125442090641249
0.000214442931146162472
-0.000240446964414892355
0.00141406277356521883
0.000454805213596519561
-0.000438015282643978304
-8.00722925234612391e-05
5.51855981273860034e-06
-0.000183044735765908802
0.000136193515112012888
-0.00011531392641832851
-8.73843967200313128e-05
-0.000165686544203163746
2.74335785773505462e-05
-0.000116754383076283355
-8.87117903719752499e-05
-0.000122471236475473887
4.45829670632206008e-05
-0.000123136162805129575
-0.000109810008499473891
-0.000105678020152623114
9.71655382352334506e-05
-8.30835333163213255e-05
-0.000144856499391766665
-7.60743242023043293e-05
3.75302703786206104e-05
-3.0249026291097176e-05
-0.000152341915387059349
-3.21030399875075144e-06
-7.06623891016454439e-05
-2.38665680599565786e-05
-0.000101825765391848894
4.01037488395973447e-05
-9.67748438298780616e-05
-3.73366959786736351e-05
-7.31447037723688626e-05
6.55141324485664474e-05
-0.000104636733556793995
-4.29163142858260226e-05
-6.20804937193334983e-05
8.37796081497026737e-05
-0.000113026496181968923
-3.41350086084692207e-05
-5.71853824703620514e-05
0.000101303302131983646
-0.000126049167884557397
-9.60539657861505058e-06
-5.24986434947881061e-05
0.000117341371795658985
-0.000142392376242301394
2.28378825758330937e-05
-4.88044358881930824e-05
0.000130389427423479708
-0.000155948671955060758
5.44899204274820883e-05
-4.90878879300852113e-05
0.000138115906542006056
-0.000164383717036066036
8.2004576756532815e-05
-5.213441788000424e-05
0.000142826894272245127
-0.000172962577532502401
0.000103649622509116273
-5.34548457560086912e-05
0.000147180723207699494
-0.000182847692276057205
0.000118954136219973831
-4.79693542809638061e-05
0.000148834155292822525
-0.000190279686123141442
0.000127941969591651583
-3.78104500377192138e-05
0.000150570521173237477
-0.000195891997609459897
0.000132092936588809894
-2.52531014221641211e-05
0.000144950085164637874
-0.000192482639079120737
0.000133913900082916935
-1.13724670551364811e-05
0.000138615371181255491
-0.000187405335066374439
0.000134305866234506091
6.0281945166665719e-07
0.000132566917528445234
-0.000179909608688965132
0.000133837934611613348
1.25963463946701898e-05
0.000123612943548624508
-0.00016902529395155025
0.000133538216886528615
2.10176233507728332e-05
0.000113610788940268155
-0.000157261025076654252
0.000132881901392423678
2.88601180910927769e-05
0.000104605439984496609
-0.000146248930601880522
0.000130242879436453352
3.85100175830294222e-05
9.58978053221865479e-05
-0.000135138715774192934
0.000124181591035780304
4.80768882722320805e-05
8.59513325597223454e-05
-0.000121671659016151797
0.000115676447165023429
5.39483513917306129e-05
7.47717664056373648e-05
-0.000106824727315269635
0.000107411339664728708
5.67613658429785115e-05
6.35905376655423977e-05
-9.31384549823879756e-05
0.000100473506655645157
5.94321770985879337e-05
5.27755048411587068e-05
-8.07817726529004934e-05
9.37600087079434749e-05
6.2463093382873999e-05
4.26658724228865836e-05
-6.91208602998317416e-05
8.65368646852547667e-05
6.24545371951217416e-05
3.40318057789107446e-05
-5.7549614547152764e-05
8.01174546702021554e-05
5.85220149077980521e-05
2.54519401495508146e-05
-4.66247087217133414e-05
7.58450333152335503e-05
5.35799357822808165e-05
1.54784824659204761e-05
-3.59495156205860136e-05
7.33770470121652914e-05
4.83680242907743769e-05
5.36581553471894819e-06
-2.52935730282261201e-05
7.02580457160598479e-05
4.35139409307936701e-05
-3.7077303760914145e-07
-1.7900504832860365e-05
6.66636573203252541e-05
5.07335893946532244e-05
4.97369903690763796e-06
-2.22396807058967653e-05
7.27420223514437507e-05
0.000145587097863376827
4.61981169987199373e-05
-7.7257021168995033e-05
7.33985222732952674e-05
0.000583314702796999124
0.000189635489145212056
-0.000215479919086318772
0.0014714930579028682
0.000452858805297641335
-0.0004368901580514562
-8.15586486550761791e-05
4.08427113652272555e-05
-0.000182261279570573094
0.000228490633888511535
-0.00010279075057528977
-1.3103464521880796e-05
-0.000128865809287275114
7.58141728428774104e-05
-0.0001235967218440833
-5.88310810233292809e-05
-0.000105514965538943455
9.64435745993957449e-05
-0.00014128362937276416
-8.65054982915305139e-05
-9.12861232039270746e-05
8.56710832637936059e-05
-0.000147253760477895413
-9.77849624121501207e-05
-6.90430183439298732e-05
2.79431823248798032e-05
-0.000146147121216094137
-9.86871119590499129e-05
-3.43942690429291533e-05
-2.03662712872707116e-05
-0.000132039959720127833
-7.09317185669009571e-05
7.74902716226627148e-07
-4.57763324373974107e-05
-0.000110766656448661383
-5.38939985585647679e-05
2.73276957800744293e-05
-6.78517076621154282e-05
-8.6807512479867744e-05
-4.47452247016745842e-05
4.67562155954810203e-05
-8.80503456989396882e-05
-6.37233655372580006e-05
-3.70380841372921991e-05
6.05053613500266738e-05
-0.000103736149676199546
-4.22026144380348214e-05
-2.92472257464095007e-05
6.98391708415284308e-05
-0.000114609512767851996
-2.15977102640079645e-05
-2.2398043345480225e-05
7.64386244327498808e-05
-0.000123447453708343518
-5.29482822723799393e-06
-1.68878636381217679e-05
7.95908145203064969e-05
-0.00012809167158181283
6.35698653545690762e-06
-1.2966699730156383e-05
8.21774275125382786e-05
-0.000132995844130411902
1.40106881550790746e-05
-7.62123025819196249e-06
8.30397609438767868e-05
-0.000136526751536113357
1.96617634347004502e-05
1.15387588757538055e-06
8.3350736442384932e-05
-0.000138125048781480167
2.37170171968777686e-05
1.14866945268225125e-05
8.10363883787409392e-05
-0.000134388830124468095
2.76415500071287102e-05
2.27501626846320086e-05
7.79869606610124718e-05
-0.000129914623205843285
3.15982895548126065e-05
3.38613553063252888e-05
7.45457697850859742e-05
-0.000123735977152659575
3.43391134128822597e-05
4.2926849634298418e-05
7.05764730326639389e-05
-0.000115641131452683794
3.57744686675515313e-05
5.16493600818460403e-05
6.52092999053446095e-05
-0.000105697861505881812
3.58103854556844853e-05
5.77185704869818313e-05
5.87708312716793478e-05
-9.55081824925858972e-05
3.4865698837195217e-05
6.36922496950695518e-05
5.25569492242735744e-05
-8.64452664464891295e-05
3.28415130827434598e-05
7.12671377477205723e-05
4.68165964721567687e-05
-7.75506767483859151e-05
2.93292497811753574e-05
7.82872358967871075e-05
4.06592038006932724e-05
-6.73583119171315697e-05
2.47515882777919454e-05
8.13517431699248246e-05
3.38797888655799882e-05
-5.670651475784948e-05
2.04452764337251721e-05
8.1420994116818856e-05
2.68897355491038398e-05
-4.72446098396022554e-05
1.66546349238515251e-05
8.18323787945215997e-05
2.00055761020525502e-05
-3.86175693731883267e-05
1.27551190131051595e-05
8.25852968657287865e-05
1.39362894184462892e-05
-3.01615177938172712e-05
8.79728169931825763e-06
7.96747586343028079e-05
8.61179620536380062e-06
-2.18754599157623038e-05
6.23637366747877394e-06
7.2935626985828062e-05
2.49010315173533914e-06
-1.43418551123297293e-05
6.04268862563406208e-06
6.56163604003088565e-05
-4.92596812568581233e-06
-6.91384968360649899e-06
7.02801195670554462e-06
5.92135540386016352e-05
-1.16849036387996402e-05
-1.42449984282543672e-07
8.45224877449969803e-06
5.40434074029135737e-05
-1.44520334047210566e-05
2.50147223224926969e-06
1.40744462646751577e-05
5.91748943484338047e-05
-8.16675321782044068e-06
-5.89363592006209647e-06
2.26885233520783934e-05
0.000160033639436051137
3.13917492131959231e-05
-5.44493113368551613e-05
3.31596868596519445e-05
0.000591091694017292931
0.000175530470843912655
-0.000193777131784200643
0.00148838349576084408
0.000443896493838804966
-0.000427626793231672799
-9.18059106989550967e-05
2.52142280239003795e-05
-0.000187883185817428437
0.000295321246605158901
-0.00011200999917261245
-1.67165986024860444e-05
-0.000130280441627764123
0.00015409531408043967
-0.000130765538434058433
-4.35911851020369729e-05
-0.000103157502534258037
0.000106674136924754509
-0.00014461431970981233
-6.77138653258378605e-05
-8.23771288376294087e-05
7.74349453179010698e-05
-0.000151375068668421352
-7.31959595526777594e-05
-5.94260498062156262e-05
4.15992970456106491e-05
-0.000148230137443805207
-6.45901052638778449e-05
-3.3584534427520327e-05
-3.65755422134648835e-06
-0.000137841926094038597
-4.69175688178422728e-05
-9.99700574792966689e-06
-2.44058449009111372e-05
-0.000125376432147559152
-3.04281570298162409e-05
8.05875154754514906e-06
-4.39899171018606216e-05
-0.000112482346293569922
-1.89052339515075835e-05
2.05565918563533465e-05
-5.92901890258944073e-05
-9.90392250524852315e-05
-9.30223567150227357e-06
2.92202998928873191e-05
-7.03976884824860662e-05
-8.66861960513960273e-05
7.45697441878037578e-07
3.50213102988492804e-05
-7.73644206869787422e-05
-7.56820158178944099e-05
1.05233997497020401e-05
3.85161932138302452e-05
-8.24387888830173409e-05
-6.80312456609996532e-05
1.65430600572729406e-05
3.89363089269929833e-05
-8.00153161904572114e-05
-6.16185464380495046e-05
2.06741262178448058e-05
3.97158268638346128e-05
-7.97676258409050977e-05
-5.55751416041226493e-05
2.55820229813253118e-05
4.07336757499143019e-05
-7.99794321924025408e-05
-4.88986577289127279e-05
3.31361123532737954e-05
4.17269002010084352e-05
-8.03850013014457374e-05
-4.20955507387270393e-05
4.28326240430716113e-05
4.17823514336408154e-05
-7.9930735426890937e-05
-3.59636608889912933e-05
5.27323855791871931e-05
4.05211325231579685e-05
-7.66345149479371815e-05
-3.06334539620742809e-05
6.13706907216219786e-05
3.84658460479613359e-05
-7.1304877078082871e-05
-2.64375636616877909e-05
6.86103810457506255e-05
3.62318509443303524e-05
-6.61113983861526846e-05
-2.29690609934100735e-05
7.50139823037550014e-05
3.36783247524241017e-05
-6.05120941042521339e-05
-2.12053931408794645e-05
7.96759502692448424e-05
2.99921331135422837e-05
-5.37139610594612938e-05
-2.11055476680884568e-05
8.42142595499735991e-05
2.58083100174071561e-05
-4.64310537984848081e-05
-2.18987504887583946e-05
8.95553911348953113e-05
2.18892667046645619e-05
-3.93853255500895884e-05
-2.29024590780036648e-05
9.38393275821455938e-05
1.8183443079165265e-05
-3.27327944836882878e-05
-2.41300775955200746e-05
9.48789133549814449e-05
1.42149316413773387e-05
-2.65155542183607721e-05
-2.54644289356871319e-05
9.36560531572651285e-05
9.78521071873781319e-06
-2.0687397620235962e-05
-2.66656591686489005e-05
9.28162094136413354e-05
5.3452701844194462e-06
-1.51298272666147375e-05
-2.80007524479861848e-05
9.20538778011863065e-05
1.51042519455057702e-06
-9.64556878128300617e-06
-2.93695585415977853e-05
8.78196853381587895e-05
-2.36861582068678858e-06
-4.40781371730839206e-06
-2.97991880899508008e-05
8.00684164580306923e-05
-7.35726745793376474e-06
6.557134000099135e-07
-2.88573117409769098e-05
7.18876665846753541e-05
-1.30757416116796434e-05
5.86541074063078987e-06
-2.63265749013532432e-05
6.43930991485838251e-05
-1.8016913372241296e-05
1.03092812807221832e-05
-2.06958467155508199e-05
5.77920483044849152e-05
-2.05871116758841922e-05
1.12096292211965686e-05
-7.69531859966513353e-06
5.95227607718250572e-05
-1.62227941407994003e-05
2.8763649125835141e-06
4.02973671614408828e-06
0.000166986630877929423
2.29490611448248533e-05
-4.16246400522564617e-05
1.19448865536613273e-05
0.000592657695628406021
0.000168411579447060494
-0.00017789134554128735
0.00148751158256991392
0.000426038572510434083
-0.000413221319074285134
-7.90696554359098495e-05
6.77806739409972251e-05
-0.000178830063721064335
0.00021533646078130783
-0.000116290756645770846
-5.91760372980914789e-07
-0.00012254573076408935
0.000143639968468050911
-0.000136057851835124684
-2.66952955128793115e-05
-9.70280577375638958e-05
9.98993036811376099e-05
-0.000147062901801816269
-4.68554554496122602e-05
-7.38198744512747699e-05
6.39670671639839075e-05
-0.000152049585407987244
-4.8898931554635275e-05
-5.21568848598993895e-05
3.28474560866396119e-05
-0.000150903112094118603
-4.07378904858935123e-05
-3.16507083561907851e-05
6.65135908907126141e-06
-0.000146309190550142083
-2.65086559731368842e-05
-1.4812806335202194e-05
-1.01901852692930871e-05
-0.000139084902235322517
-1.17194970189019708e-05
-1.62644732281261602e-06
-2.43062382025628794e-05
-0.000131134269047703206
2.01984533053679064e-08
7.66217108381785723e-06
-3.45374624592902684e-05
-0.000122499779809132233
1.09313930182259392e-05
1.39632989972612574e-05
-4.28293671864382706e-05
-0.000114553840152345384
2.0662884084219237e-05
1.74426464411045576e-05
-4.53031711203577821e-05
-0.00010669977112110034
2.81360458250697889e-05
1.95286636283819226e-05
-4.49927830929006093e-05
-9.9568392129426321e-05
3.26335813284782996e-05
2.09997721332812663e-05
-4.42191257293820495e-05
-9.26553619397347882e-05
3.69612670433572087e-05
2.26315927699973303e-05
-4.58299361240737435e-05
-8.5551943541313665e-05
4.28064101436929101e-05
2.41419728061930135e-05
-4.84685488971291963e-05
-7.81540274946963094e-05
5.0513282392989549e-05
2.49827981855459741e-05
-4.97567584157545037e-05
-7.10307872971414233e-05
5.92840298407332274e-05
2.49416177577714684e-05
-4.85150325694767842e-05
-6.46979842462229562e-05
6.76999374713014646e-05
2.41458145803058738e-05
-4.54450310598705936e-05
-5.92422736843380027e-05
7.48277136924218185e-05
2.2917715364524068e-05
-4.18297877489191304e-05
-5.47286615775929288e-05
8.10060425559722586e-05
2.1506810565468841e-05
-3.84161698299703241e-05
-5.09386744682731419e-05
8.64370697029707979e-05
1.97141947881278488e-05
-3.49278691052129066e-05
-4.84992344050762727e-05
9.05199648637261393e-05
1.70551240868543089e-05
-3.03393641456314023e-05
-4.74892865596583254e-05
9.41361635321358932e-05
1.39347158474460215e-05
-2.48674869631823778e-05
-4.7088327214453931e-05
9.78804908759268793e-05
1.10723946646676222e-05
-1.97994548903338339e-05
-4.65594234339681992e-05
0.000100477553465492302
8.50925618156842027e-06
-1.56773859351567294e-05
-4.60744630902150867e-05
0.000100592575534550846
5.74239182037384036e-06
-1.19420561938914067e-05
-4.59429953180373615e-05
9.91041920251287405e-05
2.57652550217941618e-06
-8.15719843410243725e-06
-4.60300485019149525e-05
9.783931501526467e-05
-5.60593635118427987e-07
-4.37645443595201033e-06
-4.61389849643433338e-05
9.63059275747731286e-05
-3.4090081813349124e-06
-7.34416994754471446e-07
-4.62027598018555357e-05
9.17331782693198085e-05
-6.69801264825908218e-06
2.8490394789759213e-06
-4.59792144367427238e-05
8.41246521699844487e-05
-1.09918257315809915e-05
6.71388870401793582e-06
-4.48203113267617011e-05
7.56651547423754361e-05
-1.57401219117410427e-05
1.08060338019077445e-05
-4.11934977631726838e-05
6.66748283528828339e-05
-2.02097322832517798e-05
1.43028878511662742e-05
-3.25440785617416378e-05
5.75143886363467356e-05