/*--------------------------------*- C++ -*----------------------------------*\
| =========                 |                                                 |
| \\      /  F ield         | OpenFOAM: The Open Source CFD Toolbox           |
|  \\    /   O peration     | Version:  2206                                  |
|   \\  /    A nd           | Website:  www.openfoam.com                      |
|    \\/     M anipulation  |                                                 |
\*---------------------------------------------------------------------------*/
FoamFile
{
    version     2.0;
    format      ascii;
    arch        "LSB;label=32;scalar=64";
    class       surfaceScalarField;
    location    "0.660000000000000364";
    object      alphaPhi0.water;
}
// * * * * * * * * * * * * * * * * * * * * * * * * * * * * * * * * * * * * * //

dimensions      [0 3 -1 0 0 0 0];

oriented        oriented;

internalField   nonuniform List<scalar> 
84128
(
5.88913000813213765e-06
-6.52513612207072806e-06
-1.11823754324234586e-05
1.18183816186197251e-05
1.82295859194863682e-05
-1.32206662824038786e-05
-1.25867439416719184e-05
1.34669542887380539e-05
3.25679597343590848e-05
-1.52082971796197077e-05
-1.34028976327900801e-05
1.4272820401836809e-05
4.682766110565052e-05
-1.50321535301232454e-05
-1.47417190445385138e-05
1.55141704815389683e-05
5.89016432809229862e-05
-1.27184535634197824e-05
-1.66996430304629058e-05
1.73441148219081718e-05
6.82847506819980342e-05
-9.92952962434831039e-06
-1.94816936508199751e-05
2.00281160634828182e-05
7.53975438185499486e-05
-7.57849076917932897e-06
-2.33251117790598015e-05
2.37908094175000263e-05
8.04982591291513241e-05
-5.6631679398610938e-06
-2.86181123392011157e-05
2.91805650571296557e-05
8.39494528800960739e-05
-4.08878927472119475e-06
-3.5450615759569345e-05
3.60882113115436524e-05
8.59970586808392101e-05
-3.24532974173721372e-06
-4.44609305114804812e-05
4.5658654398527353e-05
8.75743874046209684e-05
-3.01210653093071695e-06
-5.5480378824854797e-05
5.69151566093874453e-05
8.85156268910076939e-05
-4.26490200150032667e-06
-7.00163412230537342e-05
7.3340003689556079e-05
9.18281259300880151e-05
-6.14850967284641294e-06
-8.7223067836257514e-05
9.00590783896852861e-05
8.82208365866956896e-05
-9.94138995823233988e-06
-0.000112213522467437848
0.00012576220172183175
8.74026539080067908e-05
-1.63856674540087494e-05
-0.000139084304094357156
0.000156288154367101274
-3.48130191665719189e-06
-0.000197537502968765476
0.00028786943244640638
7.42299441084631441e-06
-1.47040452821266355e-05
-1.11990230491736713e-05
1.19549377783000599e-05
2.00444811637745918e-05
-2.68569289318099036e-05
-1.22257032128341995e-05
1.32404781365677687e-05
3.30738185448964755e-05
-2.92603337064705218e-05
-1.31034781614364607e-05
1.41261751688981464e-05
4.48374273755063947e-05
-2.76878213806412483e-05
-1.43795517291602689e-05
1.52716089575826933e-05
5.54219749563451185e-05
-2.40176826927534476e-05
-1.63026789608875064e-05
1.70173603825636856e-05
6.45670673440729387e-05
-1.96267385441484126e-05
-1.90832276617459277e-05
1.96353438919678782e-05
7.19867983706442785e-05
-1.54575578194468374e-05
-2.29648851877771179e-05
2.34242208950430557e-05
7.76216530422448676e-05
-1.17772410160332988e-05
-2.82085846711010625e-05
2.86878029950659195e-05
8.16305665512243538e-05
-8.75144670351978037e-06
-3.50645711152264289e-05
3.57183150324466889e-05
8.42616223441022491e-05
-6.91964587809991895e-06
-4.38562481817772346e-05
4.48995085011338917e-05
8.62620983518213517e-05
-6.69092264317490282e-06
-5.48711812235399556e-05
5.65495212858961122e-05
8.78347756771763526e-05
-8.78745831673925491e-06
-6.88831721245567792e-05
7.18330510341033093e-05
9.04678130290389088e-05
-1.32163159681205526e-05
-8.6165902080288708e-05
9.06006708579703375e-05
8.83506450271676167e-05
-1.94063636078065533e-05
-0.000110603157804333075
0.000122185299476721223
8.56751998062471452e-05
-3.63716710331434134e-05
-0.000136309617220584849
0.000158971065748243187
-8.61424575680534538e-06
-0.000204501021696794452
0.000294725432415558026
9.20675146257837442e-06
-2.4882987286889246e-05
-1.10234718215604111e-05
1.19956578414899027e-05
2.15926215989426667e-05
-4.04504469111896628e-05
-1.22755857839151408e-05
1.3483216332196805e-05
3.41268532421352624e-05
-4.29739143115447119e-05
-1.32025512471988616e-05
1.43818830245351314e-05
4.56816827877606622e-05
-4.02437535592490995e-05
-1.4469884552888203e-05
1.54709764317960504e-05
5.60767222938810878e-05
-3.51856197841266319e-05
-1.63697086899876199e-05
1.71425969524205933e-05
6.51144054710000106e-05
-2.92268849623892658e-05
-1.91381885420743976e-05
1.97006437098334575e-05
7.25080953880701548e-05
-2.32774664690440632e-05
-2.30218833075352989e-05
2.34480954434512616e-05
7.81011053288561681e-05
-1.77866270275343007e-05
-2.82847256422915505e-05
2.87010990181517358e-05
8.19660070593458727e-05
-1.31922789541788921e-05
-3.51801749561807535e-05
3.57561044029526879e-05
8.43549237744297526e-05
-1.02910587895460872e-05
-4.40141734248324264e-05
4.4996668770415024e-05
8.59676619649438911e-05
-9.95428846492186429e-06
-5.50732210309966258e-05
5.67238481955353386e-05
8.71611322703401219e-05
-1.29660615171255958e-05
-6.9064723676361215e-05
7.20498564030211451e-05
8.92019419821841108e-05
-1.98314263473063332e-05
-8.63286587526994478e-05
9.09029581700853664e-05
8.71454691886120548e-05
-2.87416749027513388e-05
-0.00011039889123550408
0.000121790673943078086
8.14596604409295729e-05
-5.24526907692302938e-05
-0.000136524803393769896
0.000158291629189268984
-1.69518267688292179e-05
-0.000203612006919011142
0.000292212908270099675
1.07235717669374363e-05
-3.67931583659948224e-05
-1.08230003134398237e-05
1.20095546175720591e-05
2.30202058369626206e-05
-5.40104607379124349e-05
-1.23130211001948087e-05
1.35763063542872754e-05
3.51924130077014684e-05
-5.62971498889904947e-05
-1.32798268003659946e-05
1.44307906450964523e-05
4.64917682098484216e-05
-5.24676891242523564e-05
-1.45280102603968858e-05
1.54525273982623883e-05
5.67252508058211356e-05
-4.60778872328868427e-05
-1.64006169072155773e-05
1.70593267309111055e-05
6.56961231276352738e-05
-3.86090718350644497e-05
-1.91616079677817244e-05
1.95728464113398999e-05
7.30720584129542774e-05
-3.08963857123963184e-05
-2.30684756943028028e-05
2.33113886278428186e-05
7.85868180331665106e-05
-2.35185552543615536e-05
-2.83860380722363042e-05
2.86031827532480075e-05
8.22106137334134698e-05
-1.72068638902349327e-05
-3.53663187216790605e-05
3.57571002136232715e-05
8.41761661585867964e-05
-1.31068493913373789e-05
-4.42955855801600203e-05
4.51458157006543495e-05
8.51944127257820289e-05
-1.25955981504146603e-05
-5.54381401708506821e-05
5.70611930158148938e-05
8.57728626555784318e-05
-1.66037184721828304e-05
-6.9438307624804192e-05
7.24975019358140867e-05
8.70126490662322116e-05
-2.58722446474192822e-05
-8.66402758674852518e-05
9.1441304989455614e-05
8.48458255282788656e-05
-3.80069508579988598e-05
-0.00011037706687611061
0.000121809159391610884
7.80396169177541619e-05
-6.70795062539684061e-05
-0.000136079713848214965
0.000157512735057144417
-2.54920505558261804e-05
-0.000203755863727633486
0.000289477295936232883
1.21091488979784743e-05
-5.00717900999684445e-05
-1.05441933965632642e-05
1.17134755295409942e-05
2.45518899620601954e-05
-6.7443515214111606e-05
-1.21591432772107354e-05
1.31493793896252868e-05
3.64996857652423662e-05
-6.90246453981767914e-05
-1.3183949236309912e-05
1.39637134847968463e-05
4.76226213813478645e-05
-6.41244423729565827e-05
-1.44741349874306155e-05
1.50079025642398894e-05
5.7787062841209376e-05
-5.65065173473137424e-05
-1.63837160425481395e-05
1.66476379187001754e-05
6.6763719351784192e-05
-4.75975314427712988e-05
-1.91872883550493357e-05
1.91986895810130679e-05
7.41506567878068393e-05
-3.8129811911654987e-05
-2.31532052308093707e-05
2.29992243119353266e-05
7.95583962288423522e-05
-2.87727461827883504e-05
-2.8553637887875187e-05
2.83999674735915458e-05
8.28339184090390703e-05
-2.05687735723105212e-05
-3.56429317258692908e-05
3.57293094009689731e-05
8.41646544624961217e-05
-1.5093765028010233e-05
-4.46948994223348578e-05
4.53510508385307118e-05
8.43391089209134196e-05
-1.43891754064725641e-05
-5.59287211873866284e-05
5.75478046259958803e-05
8.40153304678588895e-05
-1.94909190019597347e-05
-6.99395233195448121e-05
7.31504305165165769e-05
8.43087804901077986e-05
-3.13088708799818638e-05
-8.70170206358342386e-05
9.21601202376069246e-05
8.17100598243279615e-05
-4.69734785038643655e-05
-0.000110352715718499756
0.000121917954831975088
7.41925608773322872e-05
-8.08493052744002795e-05
-0.000135305010666729523
0.000156592327434459179
-3.38875455960062225e-05
-0.000198978303539848358
0.000280704018278889417
1.36685252042750748e-05
-6.44966125246349226e-05
-1.01218907312669043e-05
1.08786619499157761e-05
2.64196703997146429e-05
-8.05581015409442559e-05
-1.16593815736754424e-05
1.20254245401260213e-05
3.81672551660808466e-05
-8.09224981652732967e-05
-1.2785585307585145e-05
1.29390603432028154e-05
4.912321107159685e-05
-7.50216363309391253e-05
-1.42284528169202447e-05
1.41718197488163437e-05
5.92693729986799482e-05
-6.6348655498212617e-05
-1.62787376113239916e-05
1.59749844377693089e-05
6.83263133864258417e-05
-5.61253899097922742e-05
-1.91969504721145105e-05
1.8666726670409437e-05
7.57789520971238295e-05
-4.49392304873058883e-05
-2.32617705669590903e-05
2.26164181534830054e-05
8.10773044109493386e-05
-3.3506450386136332e-05
-2.87639790669809873e-05
2.81990393358959624e-05
8.39032301593139974e-05
-2.31841067480580997e-05
-3.59739075906208517e-05
3.57635453789261187e-05
8.4406343468610803e-05
-1.61215424313851044e-05
-4.51559342203308527e-05
4.56806926831048273e-05
8.34611467529972387e-05
-1.51297158685701689e-05
-5.6499392034955933e-05
5.81850672384000414e-05
8.19449963234971881e-05
-2.14548828668407392e-05
-7.05141212183409843e-05
7.39938986264234848e-05
8.10692366276840465e-05
-3.60270810696665904e-05
-8.74315447314487473e-05
9.30244629573404958e-05
7.77315116907766014e-05
-5.54166008711238253e-05
-0.000110237589452937736
0.000122018474023980546
6.89161913791649998e-05
-9.33165631120986026e-05
-0.000134334535538011511
0.000155617324613684278
-4.32573235708663789e-05
-0.00019480036077647474
0.000272814951754467793
1.55397054391720684e-05
-7.99537916373358555e-05
-9.45221340895895505e-06
9.38418931870059903e-06
2.85055003034346321e-05
-9.31997351969156079e-05
-1.0902353201694168e-05
1.06049333598713473e-05
3.99298439614635708e-05
-9.1986849895437674e-05
-1.22020916532731187e-05
1.18704426078609149e-05
5.07028962331835094e-05
-8.52953574180891056e-05
-1.38541757003266292e-05
1.33757605011872117e-05
6.09172283059019747e-05
-7.58477953158653373e-05
-1.60837866577167519e-05
1.53788821799141079e-05
7.02007945477116401e-05
-6.45255739154511159e-05
-1.9137891163057929e-05
1.82555686987938206e-05
7.78630956172865322e-05
-5.17051919471068504e-05
-2.33011613046084771e-05
2.23987064295443354e-05
8.31334869858708643e-05
-3.80709782683173322e-05
-2.88841557575348436e-05
2.8178468283751745e-05
8.54672149352873959e-05
-2.52730391376708739e-05
-3.61947273189284653e-05
3.59523531128268584e-05
8.49669202312332956e-05
-1.62257479641156025e-05
-4.55140321889740322e-05
4.6120365916705084e-05
8.26358883044026212e-05
-1.46906021216580057e-05
-5.70019642070583311e-05
5.88945345735639452e-05
7.96574630693782526e-05
-2.23052138395023602e-05
-7.10310623420084999e-05
7.48586066034009944e-05
7.73582438051310998e-05
-3.97933140619590597e-05
-8.77879057404394554e-05
9.38487947619132091e-05
7.3078141862470739e-05
-6.31589028970760686e-05
-0.000110000494158653874
0.000122023154961792551
6.30220940068703701e-05
-0.000104535116981058169
-0.000133186266740283624
0.000154461994035030392
-5.40842615761359609e-05
-0.000190528543219005506
0.000264300711335647151
1.73640423877649138e-05
-9.60797744633106338e-05
-8.58733855799203814e-06
7.45271588085172618e-06
3.00901010116622693e-05
-0.000105354648761011338
-1.0232235028221143e-05
9.78598249838317973e-06
4.10250449152357909e-05
-0.000102597513854297634
-1.16818650171705759e-05
1.14854551187294999e-05
5.16864337581387069e-05
-9.54832427700274904e-05
-1.34194336792688962e-05
1.30489863875630912e-05
6.21974947222599583e-05
-8.56915082568017748e-05
-1.57353268091692796e-05
1.5133706459738137e-05
7.20153974253844525e-05
-7.3613505128200242e-05
-1.8869049122389626e-05
1.81658386063161977e-05
8.02019100022851553e-05
-5.93038100143924182e-05
-2.30830946854069885e-05
2.2487464398507859e-05
8.56799009619558561e-05
-4.32725274957807134e-05
-2.867778769328244e-05
2.83980501633957844e-05
8.75820662275183181e-05
-2.73677724511906621e-05
-3.60314132377654594e-05
3.62392879735493474e-05
8.5878989344746718e-05
-1.54845172212744186e-05
-4.55221919368258373e-05
4.64985559126483131e-05
8.1871278473217619e-05
-1.28786635484587272e-05
-5.7248989256240799e-05
5.94510038758314563e-05
7.71175024979205799e-05
-2.16787013626220747e-05
-7.14070505342956092e-05
7.55311007064285401e-05
7.31584236841756406e-05
-4.22952526329737862e-05
-8.80849007089163657e-05
9.45306536893898675e-05
6.77765208977132785e-05
-7.00237322821285882e-05
-0.000109701541381038969
0.000121945711410802703
5.67942884332408454e-05
-0.000114714159419665484
-0.000131977681669755961
0.000153144082214414309
-6.72853060610900363e-05
-0.000185777555368176882
0.000255940446342300216
1.81484414530778788e-05
-0.000112044995535250225
-7.96541021281535666e-06
6.44167145684123786e-06
2.98460666112883865e-05
-0.000116708470096583427
-9.8696669000683432e-06
1.02317939773153881e-05
4.02679490744785383e-05
-0.000113049864014817559
-1.10890356022271211e-05
1.17398425000444915e-05
5.1096178100248457e-05
-0.000106074401014222047
-1.26316872521859225e-05
1.28624770892154237e-05
6.23442148842581311e-05
-9.66150246647396068e-05
-1.4911362299701133e-05
1.4875626979417229e-05
7.31833937003933792e-05
-8.43340336595319718e-05
-1.80532971785462483e-05
1.80154105177066705e-05
8.24148365900624982e-05
-6.87799338152695765e-05
-2.22400205562851597e-05
2.24697978909457658e-05
8.85403150031008497e-05
-5.01958115200109022e-05
-2.7759146633287333e-05
2.84484659276331277e-05
9.02377448487899701e-05
-3.01154700868044255e-05
-3.51284579771179599e-05
3.62269430204239715e-05
8.71399955593693391e-05
-1.38515049714400935e-05
-4.49301296979989415e-05
4.64655945915713693e-05
8.10631299378976333e-05
-9.27910702873451341e-06
-5.71015782910272345e-05
5.96118904671150384e-05
7.40974618788705508e-05
-1.89844486547738853e-05
-7.16711745081860443e-05
7.59383059621322748e-05
6.82977587845816218e-05
-4.32224239594028767e-05
-8.84714070566897744e-05
9.51576429745889466e-05
6.18674414362935747e-05
-7.60503956737008675e-05
-0.000109519085374609867
0.000121924975173664374
5.0388346807405147e-05
-0.00012414483094124666
-0.000130867171160278936
0.000151796791161253232
-8.34946446099594152e-05
-0.000180667169414090202
0.000248693575400673098
1.63909147261331505e-05
-0.000103670632344193963
-7.79005224917365622e-06
7.63004096782918243e-06
2.59035737369588066e-05
-0.000100573322395024835
-9.06225214795761287e-06
1.09299423779237937e-05
3.55518822649752552e-05
-9.98742765677310102e-05
-9.32014794271181809e-06
1.07928762912133618e-05
4.64692463202987037e-05
-9.84941155591092339e-05
-1.03143455232564195e-05
1.10189075905424427e-05
5.83916569465143089e-05
-9.51201099777518376e-05
-1.24351982236381114e-05
1.26328616106076497e-05
7.0547734051559243e-05
-8.82353672678610188e-05
-1.54036614981659781e-05
1.56039048384428565e-05
8.15633743795390935e-05
-7.58263023058556706e-05
-1.93558231494409436e-05
1.99427088732170225e-05
8.96964905702057988e-05
-5.72935007302957707e-05
-2.46945893967013474e-05
2.58970262047874376e-05
9.22612310977197669e-05
-3.32987326591054414e-05
-3.24488149796280253e-05
3.39425744068597585e-05
8.79988767940062891e-05
-1.08406746116501619e-05
-4.32686462192208819e-05
4.5021422491405496e-05
7.94865477247762102e-05
-2.94706613566809871e-06
-5.65506483240245782e-05
5.89589803450132105e-05
7.00515461081136024e-05
-1.37870920989954039e-05
-7.18584265003312564e-05
7.61179383813657246e-05
6.26538205369930315e-05
-4.27345774988231096e-05
-8.90142309601858707e-05
9.58266466179497908e-05
5.57599501240976973e-05
-8.16673882032419886e-05
-0.000109523721381199365
0.000121934496878027142
4.4437282953260372e-05
-0.000133236079806881491
-0.000129847020822248757
0.00015033220855226916
-0.000102795005492659666
-0.000176011868145415506
0.000240356314756289284
5.73423123217094468e-06
-2.84811704269583198e-05
-3.97094000448838673e-06
5.00699954228386437e-06
8.77669926521306389e-06
-2.60023674847685262e-05
-3.42723653755602023e-06
4.72055241303427204e-06
1.37071711265985307e-05
-2.66766368820080386e-05
-2.70806434081251189e-06
3.11190368553311188e-06
2.02095780914013639e-05
-2.75300171986452136e-05
-2.90914716237338864e-06
2.52132430572829447e-06
2.84661492316128712e-05
-2.86587897329627736e-05
-4.00125009248144922e-06
3.17649695990040246e-06
3.8799733466306807e-05
-2.97086016142095549e-05
-5.70625749496886262e-06
4.69186800326058715e-06
5.19310485529447607e-05
-3.00150565370995698e-05
-8.32271363319084135e-06
7.30626376326221661e-06
6.65811350856445933e-05
-2.72963802815044784e-05
-1.29542867690190214e-05
1.17231767066378758e-05
7.93144796384699527e-05
-1.82426212517098379e-05
-2.18959015062187827e-05
2.02288300866488792e-05
8.24531630960725545e-05
-2.3256276372400826e-06
-3.6772066234472198e-05
3.54449869879469869e-05
7.43166319868510063e-05
5.787894976765958e-06
-5.43219836143299162e-05
5.48197387209300129e-05
6.34358824320608585e-05
-5.89532116609740459e-06
-7.15709799245352275e-05
7.51561489408539773e-05
5.62124466108454771e-05
-4.24638107580309186e-05
-8.93485441724545601e-05
9.61543725016263611e-05
4.9891915413383029e-05
-8.76112740876626125e-05
-0.000109460447114380255
0.00012170468067455837
3.89280166921377206e-05
-0.000141904957776508943
-0.00012871280265724019
0.00014859775195669579
-0.000121518290516827972
-0.000172845503837682841
0.00022904980629935749
3.43392115932643258e-07
-5.27851040802740999e-06
-6.69406127247007503e-07
1.00196526434899059e-06
5.24042586929592914e-07
-4.84831389523000748e-06
-2.86360558150501863e-07
4.86282229903743203e-07
8.56425673871855804e-07
-4.55066772000585989e-06
6.96192721601132387e-08
-1.96416369669585122e-07
1.28257418199417279e-06
-4.00145816132268979e-06
2.64820216196205178e-07
-7.72192479624324825e-07
1.79276417585283848e-06
-3.28726510097260419e-06
4.47604857458221956e-07
-1.44911045124050773e-06
2.45711609413366422e-06
-2.5078283418322168e-06
6.7054016227762508e-07
-2.12479080844679302e-06
3.92192258154605096e-06
-1.74033093419550862e-06
5.37053464631277113e-07
-2.34659694170345359e-06
8.95960100701112292e-06
-2.84358341188941958e-06
-1.02648536396281726e-06
-1.01195695915358576e-06
2.07296062029697231e-05
-4.09261861202925796e-06
-5.00250310236515462e-06
2.53458990610465459e-06
3.83077106570691865e-05
8.84988550575456787e-08
-1.56681322363898406e-05
1.07825044711142278e-05
5.0494864085284432e-05
4.91760858051078155e-06
-3.92776423390496702e-05
3.26800093627864171e-05
4.876150400866029e-05
4.42335691224025142e-07
-6.71979350832117221e-05
6.62124309263494091e-05
4.51678756042826727e-05
-4.60914200668444303e-05
-8.93435766720504184e-05
9.56339449473714331e-05
4.15419227351792816e-05
-9.67264516404748106e-05
-0.000109535265849929013
0.000122701019769365957
3.20106179810030337e-05
-0.000151720582221608887
-0.000127747916604068249
0.000147966765407278329
-0.0001386927562636345
-0.000167346851467496709
0.000216823778426304204
-4.92196653760319414e-08
-2.08050986229468172e-06
-1.82941960838076565e-07
3.11398740193702384e-07
-1.0498204061527247e-07
-1.87223941853863555e-06
4.78452957167060268e-09
1.64437839397374395e-08
-1.29572739057304503e-07
-1.77559734534997262e-06
1.75114081371131951e-07
-3.21588266741618234e-07
-1.7531491523885285e-07
-1.4332507756573115e-06
3.10028907286781411e-07
-6.72288960928808664e-07
-2.41225889234062692e-07
-9.14240917684980778e-07
4.8179627936859511e-07
-1.09792140391480038e-06
-4.21749117052438117e-07
-2.80814955478002251e-07
6.7081170940291093e-07
-1.45329945039089389e-06
-1.09572990430382267e-06
2.19272379973596774e-08
6.17583787217435344e-07
-1.62055931665977282e-06
-3.06438009641182578e-06
9.99334885345863909e-09
-1.57077646238632063e-07
-5.2129399000015003e-07
-3.96466535461036498e-06
-1.58278832757524656e-06
-1.63065332964156765e-06
1.2849474488000793e-06
-6.84091515878369113e-06
-2.28601114206158542e-06
-5.93915300577673633e-06
3.97512625836937373e-06
-1.1895839077071503e-05
-6.30246025185017981e-06
-1.91748370912732543e-05
1.5127240873269487e-05
-1.03030004161185686e-05
-2.7622432050935265e-05
-4.89231060320378648e-05
4.37067272085793899e-05
5.770882247311314e-06
-7.93057291897050374e-05
-8.98382574253944396e-05
9.30581936646972913e-05
1.92447101761524069e-05
-0.000127238756690133191
-0.000111650394291592991
0.000130180667070307877
1.89810971742754724e-05
-0.000171242045197268533
-0.000127512327962614079
0.000150017494333067465
-0.000159697312141052005
-0.000159502259158029162
0.000201994597666058508
-7.42216880748789774e-08
-8.66266452589427498e-07
-6.36768116407965424e-08
1.1898299312769403e-07
-1.42581892765854849e-07
-6.80563039780132975e-07
5.23201607106894743e-08
-6.86659401111720767e-08
-2.01045586717864174e-07
-6.05150711323978853e-07
1.60623231705713983e-07
-2.70450907380481904e-07
-2.77678613225613506e-07
-3.36389482860937506e-07
2.67262815746741248e-07
-5.0473079769587518e-07
-3.50176230219698865e-07
1.45454681460288432e-09
4.08301368519402995e-07
-7.59087304307790773e-07
-3.37203272599798892e-07
4.90696833730848104e-08
6.03725679313408665e-07
-1.02344805376073231e-06
-3.13095278426905811e-07
3.49155689665838323e-07
7.33843229659843932e-07
-1.2179978032240201e-06
-7.78166871614716074e-07
9.12686614929530781e-07
9.98968344861173877e-08
-5.03243666965109031e-07
-3.8853377784467721e-06
1.07626153881985047e-07
-1.61210033354269489e-06
1.95010193816775087e-06
-7.34053881655586331e-06
-2.45737741243685066e-06
-4.49557105467721981e-06
5.22533809780015242e-06
-3.5619515430690898e-05
-7.66688838973482431e-06
-1.6477040003963624e-05
1.46823919608659394e-05
-6.05838892799790947e-05
-2.51241594912706868e-05
-4.44467931088195868e-05
4.65571034352208054e-05
-6.26836971103648315e-05
-6.69173475431389988e-05
-8.27505028834135464e-05
7.89282996533743799e-05
-2.49077103420528489e-05
-0.000142942872977128101
-0.000111579038600301053
0.000125456264081160558
-2.14739266680882779e-06
-0.000209699013735626961
-0.000125227558562156379
0.000148574230145638066
-0.000189489795730418963
-0.000145826265887041167
0.000177445021089132427
-5.07630959344586421e-08
-4.00312789452191525e-07
-1.31135283445661416e-08
3.42093168536340804e-08
-9.85040741074457822e-08
-2.75658131769443053e-07
5.6840845175898309e-08
-7.49491718156377007e-08
-1.40463404234123283e-07
-1.8095807397142381e-07
1.29418279108825689e-07
-2.01601899207150548e-07
-2.1939622478054047e-07
1.06471110405777304e-09
2.10029782425318522e-07
-3.30173361577330418e-07
-2.6626501861060323e-07
3.9768300037319311e-08
3.22788498106365737e-07
-5.59306275170354298e-07
-4.27463295372830266e-07
1.12134127037643654e-07
5.18888307294921688e-07
-6.2892798639479497e-07
-7.49918193856113714e-07
5.00247476698845114e-07
6.03481746460768435e-07
-6.1110075734589401e-07
-1.29469972351003625e-06
5.17853613887932276e-07
7.0838051073599674e-08
-3.09044344561544941e-07
-4.03786735348050355e-06
3.10290966289376039e-08
-8.60784267642982687e-07
1.02313436708589829e-06
-8.48175895624272706e-06
-1.78372020700052675e-06
-2.78009048553121541e-06
3.31045087150667106e-06
-8.5801378525025581e-06
-1.99526852989127883e-06
-3.46758370109956842e-06
5.14615131622782472e-06
-2.16930671819418847e-05
-2.74268245683486522e-06
-7.70527931055529221e-06
4.7068304061102252e-06
-2.40047092520279097e-05
-9.04392548091717069e-06
-2.02824261166925361e-05
1.93436006174652148e-05
-5.51267617438383495e-05
-4.41388673884126584e-05
-5.53717022915638948e-05
3.26372403338459025e-05
-2.6729660506079238e-05
-0.000142386684390940176
-0.000110211292424473341
0.000112475124766152254
-0.000224442673621547394
-0.000122153972526351261
0.000142504531289440559
-2.94898922960847739e-08
-1.13186451359231818e-11
1.09395519170043404e-08
-2.18638270617241752e-07
-4.67495247970271517e-08
4.6179696975956844e-08
-4.97939559650979428e-08
-1.17736910087811927e-07
-7.07355424159422903e-08
8.85870052445067832e-08
-1.06930820108222411e-07
-1.94655550946457848e-08
-1.23670305110541733e-07
1.37707022403952319e-07
-1.87396712878703914e-07
1.5274668720916997e-08
-2.69203361542890009e-07
2.47461711911649153e-07
-3.32809588564933986e-07
4.13547798362654192e-08
-4.12477348977863287e-07
4.0129618309545627e-07
-4.72687262060336328e-07
1.03286898329339318e-07
-3.71400704161065078e-07
3.4224709827096525e-07
-4.36799602488798923e-07
1.97659613319957018e-07
-1.52476562982997512e-06
-4.1833805067526747e-08
-5.75358983136348139e-08
5.75783229620076079e-07
-3.35285244619480804e-06
-1.02942816503108806e-06
9.22138838312735884e-07
-3.65983899891374547e-07
-3.10537819449220348e-06
-1.58659508493399966e-06
2.05649722784543409e-06
-1.04669435677042214e-06
-1.19360818478739795e-06
-4.37766014899340754e-07
8.26124945764556694e-07
-3.75167887764195244e-07
-2.95200632343561891e-06
-4.22285677169514156e-07
6.92751760024902568e-08
-3.7534660332362672e-07
-7.70082674624235927e-06
-2.34896253632940383e-06
1.06378737799484627e-06
-2.24929175769340771e-06
-2.44455064662800413e-05
-1.60695664124819448e-05
5.87226519204970519e-06
-1.39190430607882692e-05
-4.0059316820513296e-05
-3.57598038035069439e-05
2.41620479053302527e-05
-4.2271811050002436e-05
-9.02575400766464229e-05
8.82243220720144991e-05
-0.000162536308878311021
5.59693560459439407e-06
-6.65453582122920268e-06
-1.01247752315539253e-05
1.76281901714033724e-05
-1.31828553428482497e-05
-1.14351432828863201e-05
3.15719826639937278e-05
-1.5044774257978969e-05
-1.2301916417395531e-05
4.52574665400749617e-05
-1.47454646776628458e-05
-1.36817389305112769e-05
5.65386598202305911e-05
-1.23517198840615763e-05
-1.5629116182667703e-05
6.49440258592182839e-05
-9.57827840275240545e-06
-1.83087810954908976e-05
7.08786437787030978e-05
-7.31007460926519692e-06
-2.19496550530093491e-05
7.46117182102568998e-05
-5.5028164511275256e-06
-2.68483702714568105e-05
7.64318403741921375e-05
-4.10950903226820361e-06
-3.31612289528302899e-05
7.66085855344310091e-05
-3.37093388700035193e-06
-4.12667418073336663e-05
7.568191395391416e-05
-3.3407205355957692e-06
-5.12129867154077211e-05
7.381810357068781e-05
-4.5096787919169835e-06
-6.36428522392111257e-05
7.13969812561114999e-05
-6.24459918759760802e-06
-7.85573440213063561e-05
6.62352591863002351e-05
-9.82361130994549005e-06
-9.7228188947709026e-05
6.53265307516361538e-05
-1.74287731377869624e-05
-0.000120746801932798743
1.25914799331290993e-06
-0.000134136678260575313
7.13374811171681658e-06
-1.49637979783145083e-05
-1.00235091165133438e-05
1.94215805250326769e-05
-2.67029677620993728e-05
-1.09934241440472153e-05
3.20219703270355286e-05
-2.88322536722527976e-05
-1.19163904764956597e-05
4.32387742039753244e-05
-2.7064362637175819e-05
-1.32774593277802299e-05
5.31296490172154172e-05
-2.33073277697544047e-05
-1.52379460828757358e-05
6.13954968180281414e-05
-1.89773527677406389e-05
-1.79500013853593117e-05
6.77376937584420842e-05
-1.49963089001371672e-05
-2.16208481038492474e-05
7.20921771589142478e-05
-1.15867546677577495e-05
-2.64791299657186901e-05
7.45693237026803123e-05
-8.905923337356877e-06
-3.27453033656636706e-05
7.53940552631203773e-05
-7.39542763897348485e-06
-4.06564860519336783e-05
7.50585144416126394e-05
-7.44359765127792531e-06
-5.04327633046827738e-05
7.36827684252034358e-05
-9.59446905676003989e-06
-6.24226359656503198e-05
7.18373960781667077e-05
-1.36748574896456665e-05
-7.68902792099891176e-05
6.58854309390750979e-05
-1.95192143928056062e-05
-9.49555794944670215e-05
6.16668671356430367e-05
-3.46159466156781094e-05
-0.000114903880657072515
6.58135947016415132e-07
-0.000142906551829698653
8.92099019429431051e-06
-2.52216206184295161e-05
-9.68664367807826582e-06
2.09482917113971135e-05
-4.01568055223997319e-05
-1.08490651643126063e-05
3.30501628895213195e-05
-4.22758724457917423e-05
-1.18608199069700814e-05
4.4052027996128769e-05
-3.92523416694940715e-05
-1.32837806504639289e-05
5.37404712219621231e-05
-3.40795472605629333e-05
-1.52859411423809675e-05
6.18891037581072254e-05
-2.82380982309558839e-05
-1.80260830117906108e-05
6.81960690959562742e-05
-2.26123020564552939e-05
-2.17128614213238069e-05
7.24990775241426348e-05
-1.759254152767805e-05
-2.65819499258509803e-05
7.48378938783321815e-05
-1.35627610553665813e-05
-3.28621548277578784e-05
7.5427714573367906e-05
-1.12102254673651517e-05
-4.07891976074313865e-05
7.47547234881752899e-05
-1.12630241795205214e-05
-5.05808036050702848e-05
7.30341130573690687e-05
-1.43714926200058719e-05
-6.25670899016477302e-05
7.07659376810538469e-05
-2.07193252045019106e-05
-7.7016016660183225e-05
6.47471148764097715e-05
-2.88915394729513792e-05
-9.50077529304645379e-05
5.78933413838038106e-05
-4.88954829429197235e-05
-0.000115391497884866399
-2.9390493473055897e-06
-0.000143018209678676621
1.04370619800541035e-05
-3.71481370598713775e-05
-9.33359058374543825e-06
2.23672994999149312e-05
-5.36316262743129492e-05
-1.07685306318412309e-05
3.41075390711507726e-05
-5.5387749439901871e-05
-1.19082516196979474e-05
4.48436442081773601e-05
-5.11213850884935508e-05
-1.33951335874678593e-05
5.43497309087775167e-05
-4.45664716860499801e-05
-1.54198511296016861e-05
6.24089756090771841e-05
-3.72956257715116498e-05
-1.81633971874626736e-05
6.86786032601489969e-05
-3.0101633396389356e-05
-2.18488376029724867e-05
7.28904611788378908e-05
-2.34683894954931834e-05
-2.67220731598643828e-05
7.49945454830337635e-05
-1.80111067865075346e-05
-3.30220677245519897e-05
7.51889808022854434e-05
-1.47161075139085555e-05
-4.09841494515314109e-05
7.39885222944370127e-05
-1.46823415123852075e-05
-5.08183771489152615e-05
7.17336330578656088e-05
-1.87400527292699997e-05
-6.2814862688543552e-05
6.88540071215678094e-05
-2.72437788108866952e-05
-7.72362091751496309e-05