/*--------------------------------*- C++ -*----------------------------------*\
| =========                 |                                                 |
| \\      /  F ield         | OpenFOAM: The Open Source CFD Toolbox           |
|  \\    /   O peration     | Version:  2206                                  |
|   \\  /    A nd           | Website:  www.openfoam.com                      |
|    \\/     M anipulation  |                                                 |
\*---------------------------------------------------------------------------*/
FoamFile
{
    version     2.0;
    format      ascii;
    arch        "LSB;label=32;scalar=64";
    class       surfaceScalarField;
    location    "0.660000000000000364";
    object      phi;
}
// * * * * * * * * * * * * * * * * * * * * * * * * * * * * * * * * * * * * * //

dimensions      [0 3 -1 0 0 0 0];

oriented        oriented;

internalField   nonuniform List<scalar> 
84128
(
5.88914998222599381e-06
-6.52519242058660826e-06
-1.11824862747262834e-05
1.18185287130624406e-05
1.82296337951194458e-05
-1.32207355366802814e-05
-1.25868561179876452e-05
1.34671049584161547e-05
3.25680336515024531e-05
-1.52083694902085328e-05
-1.34030166160086215e-05
1.42729827750289459e-05
4.68277541306265141e-05
-1.5032225155042503e-05
-1.47418483126316731e-05
1.55143489619001757e-05
5.89017509184849153e-05
-1.27185278509818191e-05
-1.66997829821349595e-05
1.73443112622841885e-05
6.8284875666160458e-05
-9.92961169473647995e-06
-1.94818428249752694e-05
2.00283300324574603e-05
7.53976891732915786e-05
-7.5785800469352925e-06
-2.33252678600920149e-05
2.37910379003016678e-05
8.04984244246648612e-05
-5.66326168529962973e-06
-2.86182750344201749e-05
2.91808069936786196e-05
8.3949628092261949e-05
-4.08888100616920316e-06
-3.54507890003733715e-05
3.6088472808213707e-05
8.59972205649319431e-05
-3.2454112393187369e-06
-4.44611229445840991e-05
4.5658948352867599e-05
8.75745049026069051e-05
-3.01217252406675806e-06
-5.54805973855638382e-05
5.69154906621622807e-05
8.85156617939906635e-05
-4.26494454493992815e-06
-7.0016583979272805e-05
7.3340373494328048e-05
9.18280240676382114e-05
-6.14851087072496398e-06
-8.72233233106382052e-05
9.00594692468044986e-05
8.82206390290624461e-05
-9.94134876356986341e-06
-0.000112213741821274497
0.000125762470538386378
8.74024005342978819e-05
-1.63855867039781147e-05
-0.000139084553752829464
0.000156288373598286644
-3.57317133415742185e-06
-0.000201494718087986404
0.000292470284160162546
7.42300974217950904e-06
-1.47041595025087352e-05
-1.11991288894040281e-05
1.19550775588879804e-05
2.00445238515132269e-05
-2.68570719958581825e-05
-1.22258092792560346e-05
1.32406209328206081e-05
3.30738865838423247e-05
-2.92604819969610012e-05
-1.31035924833165618e-05
1.41263308535303567e-05
4.48375143031627316e-05
-2.76879660538294285e-05
-1.43796768451615956e-05
1.52717825744532615e-05
5.54220776720681983e-05
-2.40178291104313496e-05
-1.63028152499572816e-05
1.70175539779976334e-05
6.45671895467334457e-05
-1.96268965453522926e-05
-1.90833732655944655e-05
1.96355565776621299e-05
7.19869443533385816e-05
-1.54577295907532886e-05
-2.29650372301887241e-05
2.34244490840810876e-05
7.76218205021216842e-05
-1.17774203926705879e-05
-2.82087424809200266e-05
2.86880449767820241e-05
8.16307434852923909e-05
-8.75162213101841885e-06
-3.50647394915801414e-05
3.57185771616177802e-05
8.4261786434164154e-05
-6.91980564964320703e-06
-4.38564371013045208e-05
4.4899804053860207e-05
8.62622187826743181e-05
-6.6910613947658276e-06
-5.48713986902476966e-05
5.65498611238799293e-05
8.78348096854181996e-05
-8.78755606571571629e-06
-6.88834171427961058e-05
7.18334321485518759e-05
9.04677173237232744e-05
-1.32163354599555158e-05
-8.61661600400927789e-05
9.06010633681266051e-05
8.835043393514451e-05
-1.94062876231388377e-05
-0.000110603387839452921
0.000122185593897560982
8.5674889469153557e-05
-3.63714729735841138e-05
-0.00013630979066532771
0.000158971203821633799
-8.84510149355515179e-06
-0.000208690911009041028
0.000299637711972169593
9.20676778490619197e-06
-2.48831515805175187e-05
-1.10235749282594524e-05
1.19957933891677769e-05
2.15927140265029383e-05
-4.04506926448672979e-05
-1.22757101250108931e-05
1.34833779776805092e-05
3.41270037308418145e-05
-4.29741543853685967e-05
-1.32026900696695381e-05
1.43820658506041042e-05
4.56818391106033806e-05
-4.0243948585301895e-05
-1.44700287307082917e-05
1.54711720395767796e-05
5.60768653960591376e-05
-3.51858014553108113e-05
-1.63698551916256469e-05
1.71428036871228671e-05
6.51145431300499683e-05
-2.92270905282149935e-05
-1.91383363207050285e-05
1.97008619073899161e-05
7.25082438742267527e-05
-2.32777092738182609e-05
-2.30220310940367734e-05
2.34483238642487835e-05
7.81012711382469353e-05
-1.77868954475999009e-05
-2.82848744600276964e-05
2.87013376579803031e-05
8.19661817898874182e-05
-1.319254757970262e-05
-3.51803318048264448e-05
3.57563614333243176e-05
8.4355084313147421e-05
-1.02913063786395252e-05
-4.40143499418200985e-05
4.49969596508829434e-05
8.59677779596646234e-05
-9.95451103541223278e-06
-5.50734263673919398e-05
5.67241874719169722e-05
8.71611612918564589e-05
-1.29662277462517849e-05
-6.90649597488588926e-05
7.2050244379015833e-05
8.92018350954284389e-05
-1.98314764127836573e-05
-8.63289085401433098e-05
9.09033656509321064e-05
8.71452388295346876e-05
-2.87415596729956767e-05
-0.000110399127982833191
0.000121790983749207459
8.14593709340571048e-05
-5.24523831546284052e-05
-0.000136524956934921206
0.000158291721584939579
-1.71570250686550463e-05
-0.000206235069400937342
0.000296006350203229017
1.07236674491290644e-05
-3.67934136972939899e-05
-1.08231675604500032e-05
1.20097594402535458e-05
2.30207789474434055e-05
-5.40111515175711491e-05
-1.23133692540735345e-05
1.35767140498792647e-05
3.51932888850043987e-05
-5.62977021468965807e-05
-1.32802239128029566e-05
1.44312588752043554e-05
4.64925646932345162e-05
-5.24678166761606823e-05
-1.45283717362828019e-05
1.54529636565177053e-05
5.67258375311659242e-05
-4.60778573524760207e-05
-1.64009175231073861e-05
1.7059705119408158e-05
6.56965108835645678e-05
-3.86090757943565046e-05
-1.91618519956134728e-05
1.95731734419633642e-05
7.3072336749447752e-05
-3.08965288277839622e-05
-2.30686748034974227e-05
2.33116805385984943e-05
7.85870538263905272e-05
-2.35188460201448271e-05
-2.8386209106038324e-05
2.86034551528601346e-05
8.22108306037843881e-05
-1.72072061307279242e-05
-3.53664800716711164e-05
3.575737428804447e-05
8.41763564060006342e-05
-1.31071802915675758e-05
-4.42957608181232326e-05
4.51461188330728419e-05
8.51945527066714576e-05
-1.25959157587501152e-05
-5.54383403343851585e-05
5.7061553555283332e-05
8.57729087557703601e-05
-1.66039680285479831e-05
-6.94385362265371943e-05
7.2497918618233951e-05
8.70125570013012697e-05
-2.58723530088725223e-05
-8.66405320762091391e-05
9.14417532689502341e-05
8.48456098588478753e-05
-3.80068338899780601e-05
-0.000110377305973724429
0.000121809517041033047
7.80394932362136887e-05
-6.70792138634347868e-05
-0.000136079880055446563
0.000157512815912601946
-2.57034092278523438e-05
-0.000203796911895965435
0.000290382778649066935
1.21100243091587501e-05
-5.00728112481929621e-05
-1.05449716450230454e-05
1.17143453120630471e-05
2.45555185555772871e-05
-6.74470374444458525e-05
-1.21609019384310787e-05
1.31512951819044338e-05
3.650493790519039e-05
-6.90270559401905782e-05
-1.318588916255978e-05
1.39658248044066749e-05
4.76273421572535831e-05
-6.41241463005060231e-05
-1.44758350411156538e-05
1.50097636003991473e-05
5.77905570199473525e-05
-5.65051332963952045e-05
-1.63850390205417685e-05
1.66491067641192088e-05
6.67659007121987975e-05
-4.75959461407832678e-05
-1.91882484747355243e-05
1.91997847004146899e-05
7.41519630602022938e-05
-3.8128739548264301e-05
-2.31538681480540826e-05
2.30000268166354127e-05
7.95592377915281556e-05
-2.87725767932873725e-05
-2.85541076373518664e-05
2.84005736494012853e-05
8.28345170556645465e-05
-2.05689992942001396e-05
-3.5643289903806206e-05
3.57298141294965887e-05
8.4165119696154062e-05
-1.50940895067294392e-05
-4.46952227955879663e-05
4.53515391808290535e-05
8.43394707219641677e-05
-1.43895522004352806e-05
-5.5929060755201989e-05
5.75483521219252172e-05
8.40155319859639218e-05
-1.94912306997418453e-05
-6.99398575161140748e-05
7.31510591322464269e-05
8.43088417491208247e-05
-3.13090329229435136e-05
-8.70173700522288335e-05
9.21607354320867284e-05
8.17100999609398097e-05
-4.69734889906340078e-05
-0.000110353112438712345
0.000121918501371465091
7.4193580318130043e-05
-8.08498730757088952e-05
-0.000135305422268991264
0.000156592592064748974
-3.44242374074457338e-05
-0.000202031821296459366
0.000284946222826973133
1.36749406753487332e-05
-6.45047920521586737e-05
-1.01264559041537785e-05
1.08834992339401567e-05
2.64392988338688904e-05
-8.05776558137823466e-05
-1.16678670429381587e-05
1.20341322898121617e-05
3.81939116855457944e-05
-8.09353531117478056e-05
-1.27946728193612158e-05
1.29483618861027108e-05
4.91477465172700608e-05
-7.50215645666984165e-05
-1.42365986184723615e-05
1.41801882088369412e-05
5.92884724706686193e-05
-6.63423203983463591e-05
-1.6285327882235442e-05
1.59817972488158827e-05
6.8338855182592054e-05
-5.61163528715292678e-05
-1.92019321731934442e-05
1.86719653968627195e-05
7.57865159201904218e-05
-4.49312323148464107e-05
-2.32653052883105362e-05
2.26201459733626905e-05
8.10819141921892672e-05
-3.35031956018320957e-05
-2.87664410761959686e-05
2.82016695398259048e-05
8.3906227300138678e-05
-2.3183170858213765e-05
-3.59756864311812377e-05
3.57655527867370735e-05
8.44085465067136718e-05
-1.61214664195606926e-05
-4.51573933894605618e-05
4.56824593794134294e-05
8.34628059363460293e-05
-1.5129861548796369e-05
-5.65007496946680576e-05
5.81868058192654152e-05
8.19462138268036799e-05
-2.14550044448538821e-05
-7.05153876835613858e-05
7.39957548355704448e-05
8.10704640555879913e-05
-3.60268012736745713e-05
-8.74327969059438616e-05
9.30263110433681318e-05
7.7732956497216047e-05
-5.5417281094359318e-05
-0.000110238952461862334
0.000122020245123379508
6.89213943201744128e-05
-9.33217021178716786e-05
-0.000134336110503822709
0.000155619494607621395
-4.42558241445694723e-05
-0.000198858673485038516
0.000277611650683124713
1.55778335191467801e-05
-8.00140978195365115e-05
-9.47465271196083456e-06
9.40613016804365077e-06
2.85978958718471424e-05
-9.32991130554736901e-05
-1.09373052412316018e-05
1.06387072264174204e-05
4.00465605713142643e-05
-9.20515781189699224e-05
-1.22392028354502123e-05
1.19067701100355282e-05
5.0814704111664588e-05
-8.53107864548203294e-05
-1.38888570668286066e-05
1.34099432288907278e-05
6.10097050929627062e-05
-7.58321140493369792e-05
-1.61136574228656206e-05
1.54084587538997249e-05
7.02660885223815716e-05
-6.44903841785108228e-05
-1.91622585371110555e-05
1.82799149030478384e-05
7.79037603439517703e-05
-5.16661729765586711e-05
-2.33195583342877643e-05
2.24168340456028731e-05
8.3157852737181191e-05
-3.80516023297823903e-05
-2.88972638999889532e-05
2.81915837891378317e-05
8.54828620563764839e-05
-2.52661755829276444e-05
-3.62043097901110385e-05
3.5962310690247149e-05
8.49779301433826139e-05
-1.62236029376180053e-05
-4.55216604381379213e-05
4.61287350152010702e-05
8.26440614607582935e-05
-1.46894907293485679e-05
-5.70089511827990902e-05
5.89024543756040767e-05
7.96636531827804459e-05
-2.23039892864580946e-05
-7.10371823140908441e-05
7.48665768202750681e-05
7.73648537567791134e-05
-3.97907021519664154e-05
-8.77943889110390001e-05
9.38570856013428334e-05
7.30856733299760808e-05
-6.31619961192211122e-05
-0.000110006396815890466
0.00012203028649551558
6.30444194410630061e-05
-0.000104559000512625789
-0.000133192573166503457
0.000154471120794378913
-5.57024449464386037e-05
-0.000195024967164801665
0.00026951600549626135
1.75513420886789293e-05
-9.64183261887173644e-05
-8.67861696680758423e-06
7.53150945128457628e-06
3.0468199152187275e-05
-0.000105764143794066958
-1.03605108842114146e-05
9.90869225978113937e-06
4.14798699930868427e-05
-0.000102865195105689334
-1.18186181607303936e-05
1.16205718353396227e-05
5.21419497030563303e-05
-9.56004378742754597e-05
-1.35523663973354301e-05
1.31799460967299308e-05
6.26014310307854919e-05
-8.56877969899415395e-05
-1.5857229861284328e-05
1.52534398582985299e-05
7.23264877036548982e-05
-7.35104564103856875e-05
-1.8976145887668705e-05
1.82711692864221759e-05
8.04052416140987099e-05
-5.91480192540916447e-05
-2.31692482298716634e-05
2.25723461935037043e-05
8.58010709028409586e-05
-4.31672010104392119e-05
-2.87412989841323177e-05
2.8461072119588717e-05
8.76563734261043585e-05
-2.73303703123699857e-05
-3.60776552701732597e-05
3.62865510163016218e-05
8.59283802763554435e-05
-1.54738926548491057e-05
-4.55581880788772335e-05
4.65364754485117e-05
8.19075023620364508e-05
-1.287342835263031e-05
-5.72813225736139951e-05
5.94861422580593695e-05
7.71451025220522567e-05
-2.16720586388980503e-05
-7.1434976484711281e-05
7.55654460885849205e-05
7.31840262816095072e-05
-4.22826887406166488e-05
-8.81150752093349138e-05
9.45681336952790296e-05
6.78073346482799629e-05
-7.00306004729198735e-05
-0.00010972517222227653
0.000121970463392131049
5.68790215142327734e-05
-0.000114802500836912581
-0.000132000813908856311
0.000153172625372114963
-6.95854148420500535e-05
-0.000190612898292693184
0.000261374888729181646
1.89834957129670983e-05
-0.0001138113294604779
-8.33087440864125779e-06
6.74038792777365429e-06
3.12965169113635323e-05
-0.00011846365604611009
-1.03582279865755596e-05
1.07447258872090607e-05
4.19564622322028541e-05
-0.000114213328518340839
-1.15917442601497592e-05
1.22799388980850627e-05
5.28343017902238766e-05
-0.000106723705206127775
-1.31207184575785048e-05
1.3366153089779181e-05
6.39682453438698893e-05
-9.6789264381809791e-05
-1.53737886600846432e-05
1.53413198313999414e-05
7.45667018147558368e-05
-8.40738637565521699e-05
-1.84763250076357306e-05
1.84412825495549625e-05
8.33958207296585754e-05
-6.82134297888214677e-05
-2.2607983811488888e-05
2.2844279867233687e-05
8.91250754632768471e-05
-4.95943253986382644e-05
-2.803813892415409e-05
2.87360107699488914e-05
9.05642062949091971e-05
-2.98760765632065396e-05
-3.53269418345992432e-05
3.64335185047959649e-05
8.73423933143373352e-05
-1.37955473234046354e-05
-4.50793442816927541e-05
4.66228139738295841e-05
8.12072002028983779e-05
-9.25962318568382322e-06
-5.72329372808896169e-05
5.97543271683537397e-05
7.42066341543078697e-05
-1.89580067271483629e-05
-7.17876743988228334e-05
7.60741874188410706e-05
6.83872012615006236e-05
-4.31784659769410598e-05
-8.8599455266729111e-05
9.53146601714921417e-05
6.19702213347250616e-05
-7.60470710215926178e-05
-0.000109598365367978145
0.000122031811384331858
5.05964262293825259e-05
-0.000124390767070654682
-0.000130942545041965385
0.000151904606170143256
-8.62529968301674555e-05
-0.000185937504536790932
0.000253201513708629661
1.90476283099320865e-05
-0.000132687109264474027
-9.03597373215405197e-06
8.86412994377662361e-06
3.03561756663983948e-05
-0.000132014095558815377
-1.06127805734942768e-05
1.28546777566703251e-05
4.09631801507229871e-05
-0.000126589031482559917
-1.08097152344431312e-05
1.25784186121205572e-05
5.24843696177674851e-05
-0.00011908689446136502
-1.17744203868531184e-05
1.26164254886125701e-05
6.4634276019457851e-05
-0.000109177226533369552
-1.3943052052103818e-05
1.41811136095883459e-05
7.64912647852245995e-05
-9.61601748938166337e-05
-1.69379775845336454e-05
1.71673053206736883e-05
8.65181232072279358e-05
-7.88935935572594596e-05
-2.08391056708011209e-05
2.14924146078559009e-05
9.29946400407310515e-05
-5.73849230996554757e-05
-2.59732679894687919e-05
2.72873497772568222e-05
9.38889171869342098e-05
-3.23733329098649684e-05
-3.33526147881661985e-05
3.49555933338426155e-05
8.881439010991084e-05
-1.05265317338114556e-05
-4.3870843975404488e-05
4.56763549882859262e-05
8.0019639430088069e-05
-2.90742403308730002e-06
-5.70359910819240673e-05
5.94785420781028325e-05
7.04473744840541298e-05
-1.36970555113199173e-05
-7.23159395567610615e-05
7.66272509735050771e-05
6.29538117438851953e-05
-4.26219187639885041e-05
-8.95005219302342006e-05
9.64375322444820744e-05
5.59565696082937709e-05
-8.16311297691913964e-05
-0.000109770119958548277
0.000122351416568132536
4.46885301095568876e-05
-0.000133757161171338184
-0.000130069015856893182
0.000150703450540669412
-0.000104382087366340526
-0.000181316368346753134
0.000244133992320971272
1.61489127140703942e-05
-0.000152192146871464422
-1.10265272802984699e-05
1.43826557381243348e-05
2.56348471119402109e-05
-0.000145891218503918507
-9.96093129188934722e-06
1.43521243072071609e-05
3.56163352524833867e-05
-0.000138030661863676202
-7.37282583929777378e-06
8.83297274152884933e-06
4.71497630796767768e-05
-0.000129807816866994198
-7.27106310161386724e-06
6.45856279845371852e-06
5.90972966085756795e-05
-0.000119307248920153507
-9.03562468065428477e-06
7.21811936361745951e-06
7.1304305548563102e-05
-0.000106331474955972862
-1.14825663732208053e-05
9.44686382795956582e-06
8.39776046409716759e-05
-8.9864980016926381e-05
-1.48236931125965243e-05
1.31217851833116899e-05
9.3521960265331933e-05
-6.53979418505875633e-05
-2.02053185921717486e-05
1.86739826784027196e-05
9.51648032190227189e-05
-3.27677646562961333e-05
-2.88961871885952982e-05
2.76477739263133839e-05
8.8067435449261036e-05
-2.99530336613017083e-06
-4.15001414426009711e-05
4.10662776060796605e-05
7.64581592179629026e-05
7.57530726881098897e-06
-5.68475221155936657e-05
5.79740638621944608e-05
6.46724793004325072e-05
-5.78422050116056798e-06
-7.3484880478319299e-05
7.73577220822186556e-05
5.6912634444347793e-05
-4.22082732017125479e-05
-9.10024832153999652e-05
9.83486781787160802e-05
5.02614404485444361e-05
-8.77329560602099968e-05
-0.000110122957524524771
0.000122875974408199437
3.92130457113147032e-05
-0.000143121553629086654
-0.000129397676486199016
0.000149810464695926193
-0.000122366835153022043
-0.000176860534244578193
0.00023405833082673958
7.64345599450173149e-06
-0.000168041343281204745
-1.44456883587389498e-05
2.26514337352026109e-05
1.23448176999637794e-05
-0.000155822458264375137
-6.50940288983970409e-06
1.17392937594013144e-05
1.85918628176961611e-05
-0.00014121296189688532
1.52677471478199512e-06
-4.59150815465621817e-06
2.59203231906799467e-05
-0.000126117503572209348
5.50334149364707722e-06
-1.65221035665262101e-05
3.24630462580632545e-05
-0.000107022949782409208
8.58128394157575327e-06
-2.74082906392743923e-05
3.89594962109862588e-05
-8.88671891536144988e-05
1.15259199495545655e-05
-3.54866357614978754e-05
4.62612689853876845e-05
-7.16863745950967537e-05
7.3959770226748505e-06
-3.28763367927196505e-05
6.01747366564508697e-05
-6.05568968845824653e-05
-9.16799711689987367e-06
-9.5865083195233205e-06
7.32085064081656263e-05
-3.56300316149407367e-05
-2.56293337052461158e-05
1.54578246352785715e-05
7.10147914806305959e-05
6.21465891708153362e-06
-4.18868463953293849e-05
3.48705884566862212e-05
6.12034533760272894e-05
2.02576488971734948e-05
-5.89563026719742582e-05
5.6085292148594483e-05
5.14948281786054116e-05
7.50128675215656036e-07
-7.66437633407503687e-05
7.98180353715935941e-05
4.66178473851297821e-05
-4.63334462074866684e-05
-9.42740897692426704e-05
0.000103276240812027198
4.24050121807963341e-05
-9.81880178326382142e-05
-0.000111557229686146217
0.000126225124386907938
3.26799346542726548e-05
-0.000155240894912755999
-0.000129894484190951466
0.000151738903110043647
-0.000141049268944701386
-0.000172663714118038097
0.000224026083930930619
-4.62000795607693884e-06
-0.000175237773732702545
-1.6749192600794693e-05
2.85656537364034831e-05
-9.63445971445286025e-06
-0.000152773366191862677
4.44078936831847494e-07
1.52133575941120015e-06
-1.17198616463837773e-05
-0.000126664088487379606
1.6048586982923611e-05
-2.85120125163020215e-05
-1.54498893890185454e-05
-9.28350100199216207e-05
2.85258510814267918e-05
-5.80782680640472867e-05
-2.14002796133880685e-05
-5.29614496019915112e-05
4.32693798994921087e-05
-9.13804187257108251e-05
-3.43289031291098889e-05
-1.40250587808482194e-05
5.64216659662991569e-05
-0.000118335073116401711
-6.13747734015411865e-05
1.81647292538552577e-05
4.42152135849761715e-05
-0.000107020346013559224
-9.36169105965432434e-05
6.53384190048565986e-06
-6.00876333718745629e-06
-2.88397988931177525e-05
-9.97453213472070783e-05
-2.57188898048363597e-05
-4.15980810888931792e-05
3.78153146828192612e-05
-7.70769533260688353e-05
-1.86667803194046598e-05
-6.56280072562353287e-05
6.78410330435157485e-05
-4.40974280250796213e-05
-1.9287054558464402e-05
-8.00202352229423708e-05
8.65853938859466982e-05
-1.59629502523686887e-05
-4.03285804730617184e-05
-9.24165189754760826e-05
0.000105360746284787027
6.34758418507084046e-06
-8.54332913135873954e-05
-0.000106735348425866393
0.000123524657498288282
2.04381912028427735e-05
-0.000135904935847712345
-0.000118450886583468945
0.000142077196992020544
2.00727138576650105e-05
-0.000182368296509339379
-0.000134045113691158682
0.000161537992734851852
-0.000167871312363308172
-0.000168162183463303272
0.000215056941459185414
-1.75096278159738378e-05
-0.000171258903447763086
-1.46678049302590958e-05
2.81986491384030816e-05
-3.17970614612302912e-05
-0.000134515346332361643
1.19253448262745714e-05
-1.58957812894318755e-05
-4.1070919265264724e-05
-9.58918394494186893e-05
3.37570671953257625e-05
-5.52553313507490496e-05
-5.07596142671842165e-05
-4.17572387317560571e-05
5.3205930963631207e-05
-9.45948622747061821e-05
-5.8905895495788917e-05
1.36735080324956997e-05
7.25975453324388296e-05
-0.000131086002534153238
-7.32955878209952031e-05
6.74259864168775137e-05
8.47077806036519222e-05
-0.000151768858691912349
-0.000106697154883874618
0.000114443888892091594
6.60820601635631863e-05
-0.000128959464128568203
-0.000169184543063520949
9.28948324146587363e-05
4.72723925827878324e-06
-2.8600850977064657e-05
-0.000213455743788079882
5.43546879699111302e-06
-4.46245891387746148e-05
5.77413157255415784e-05
-0.000221381107283433534
-2.95565554002417746e-05
-7.29443477790396415e-05
9.17594061566526627e-05
-0.000209708439118922124
-5.10910489736260062e-05
-0.000105941624987734465
0.00012607293304395519
-0.000152864387553479087
-0.000121783047848135484
-0.000121658389979642593
0.000146268804310906522
-8.51385161641522969e-05
-0.000180808999679815674
-0.000131567476264537108
0.000159217312246073795
-2.95729740543266114e-05
-0.000228054594274113096
-0.000133159222900727922
0.000169743338979556424
-2.41111327255164414e-06
-0.000243979730401510666
-0.000143747103391661421
0.000178196675956517064
-0.000213067423091460465
-0.000162122924046106373
0.000204907920932994166
-2.83142350232772275e-05
-0.000154787379678137868
-6.91749809587245645e-06
1.87604108820742546e-05
-5.05451741371380027e-05
-0.000101938624271184211
2.93391922410178008e-05
-3.9684642994030695e-05
-6.4853836106603722e-05
-5.15843152049716338e-05
5.66504879583485334e-05
-8.66490809291782385e-05
-7.66235325950318533e-05
1.74350437861328124e-05
8.15769374005081613e-05
-0.000128999242940840841
-8.67367914986035064e-05
7.9993156345661994e-05
0.000101198792484302833
-0.000157404847515990804
-0.000109211919762476991
0.000148999300404639397
0.000101678955013307908
-0.000160776817213647508
-0.000149643219238083691
0.000210053601187549426
6.49921498328183975e-05
-0.000120170396934757561
-0.000185897865354369107
0.000150150354990031935
5.09032353427099233e-06
-2.60912376413302571e-05
-0.000199255279737598254
5.5423103581637382e-06
-3.75615611161954813e-05
5.08120321862626077e-05
-0.000217139917703937726
-3.04927950721562433e-05
-6.30580806868172587e-05
8.18789040865864563e-05
-0.000235079873383793391
-4.42471974513911461e-05
-8.65950424450866369e-05
9.76911400135414072e-05
-0.000222566350362636225
-0.000136230757269480834
-0.000106831206687480073
0.000108765398149344257
-0.000171170234143266112
-0.000241303035183159558
-0.000134245334689007912
0.00014334325658041429
-9.64652054308600592e-05
-0.00033732314540708486
-0.000144480752273169565
0.000179044274438224264
-3.47270587380006031e-05
-0.000342455029932506533
-0.000154283456268754942
0.000191020608818978519
-0.000286348520039923738
-0.000155044886672884788
0.000193598924534728518
-3.31209489025634054e-05
-1.32195589265593288e-08
1.17257830858285617e-05
-0.000133378578591588346
-5.45487534099499128e-05
4.20647482846569706e-05
-5.32924162985973915e-05
-6.92825617824840761e-05
-7.04364133271615878e-05
7.04227947412838345e-05
-9.75950980241921466e-05
-8.52388863774528396e-06
-8.60739189367010937e-05
9.56160948394528065e-05
-0.000136423940035413407
7.38808217668773283e-05
-0.000109449228494031247
0.000110810439584691867
-0.000160777748322448355
0.000153336165827068125
-0.000143214772089142743
0.000102423265326300066
-0.000148413984904095445
0.000228755856704604367
-0.000178498352144305927
5.79801118001266148e-05
-9.15333983886717215e-05
0.000278890590176282961
-0.000165626637732990158
-4.33983351219758309e-06
-7.53188938796867406e-06
0.000149150332718467788
-0.000150726429613528868
-4.52698324361947127e-05
4.99219144406344662e-05
-1.40100439723720317e-05
-0.000161248368576104111
-6.08864098512075643e-05
6.8823757426039777e-05
-2.79082191134776784e-05
-0.00017865439701382927
-5.74124785229447783e-05
5.42256588417571145e-05
-2.36543276615997985e-05
-0.00019615587436878161
-4.18365810954308043e-05
1.07344542046730818e-05
-8.7627115193532779e-05
-0.000186248291696900381
-7.79959134707257926e-05
5.74763463858314185e-05
-0.000230691035557462672
-0.000149579547542695373
-0.000124317435012452529
0.000122282133984496274
-0.000371956594474002252
-7.66291441107363932e-05
-0.000154727038306597434
0.00018211086632537128
-0.000442789271805419391
-0.000152259506825888218
0.000189394446184193958
-0.000400112602861649538
5.596948852417408e-06
-6.65458532255638852e-06
-1.01248536286151104e-05
1.76282274119145267e-05
-1.31829189295458128e-05
-1.14352223382445932e-05
3.15720441751699801e-05
-1.5044840848828479e-05
-1.23020000993290636e-05
4.52575479325641457e-05
-1.4745528322812345e-05
-1.36818294888991105e-05
5.65387594277314546e-05
-1.23517824528611643e-05
-1.56292127113204735e-05
6.4944147845120024e-05
-9.57834430303949941e-06
-1.83088811144427484e-05
7.08787903796333999e-05
-7.31014345643292424e-06
-2.19497563862031179e-05
7.46118861517491828e-05
-5.50288449747988425e-06
-2.68484732539581619e-05
7.64320184732958803e-05
-4.10957048101440588e-06
-3.31613373904651108e-05
7.66087550178649423e-05
-3.37098571159959677e-06
-4.12668625036141578e-05
7.56820528433688254e-05
-3.34076283042003295e-06
-5.12131263165014743e-05
7.38181888231179389e-05
-4.50970998608040779e-06
-6.36430122433481542e-05
7.13969929153178016e-05
-6.24461441759990727e-06
-7.85575224806254557e-05
6.62352028495272877e-05
-9.82361427296272701e-06
-9.72283507966712097e-05
6.53263754837044768e-05
-1.74287360595060092e-05
-0.000120747005937285183
1.28564003900298653e-06
-0.000137453999558076771
7.13375666916290184e-06
-1.49638954578427147e-05
-1.00235831155200459e-05
1.94216119775822566e-05
-2.67030955887100752e-05
-1.09934972739082586e-05
3.20220249448748258e-05
-2.88323850507407846e-05
-1.19164700220902972e-05
4.32388487984541658e-05
-2.70644863409527501e-05
-1.32775459441446488e-05
5.31297438162322186e-05
-2.33074486395207692e-05
-1.52380389410760383e-05
6.13956162242867038e-05
-1.89774790070152336e-05
-1.79500978394414327e-05
6.77378401525288379e-05
-1.49964411664974156e-05
-2.16209454942509767e-05
7.20923454392039616e-05
-1.15868842030766967e-05
-2.64792281531406012e-05
7.4569500743203518e-05
-8.90604021855386546e-06
-3.27454063553619831e-05
7.53942227131218062e-05
-7.39552949600378202e-06
-4.06566013324112182e-05
7.50586500496037843e-05
-7.44368716599805332e-06
-5.04328985031894675e-05
7.36828471938899825e-05
-9.59454204022058118e-06
-6.2422792682570658e-05
7.18374101700759065e-05
-1.36748943472947675e-05
-7.68904638754505881e-05
6.58853850556965126e-05
-1.95192060521434372e-05
-9.49557968072948833e-05
6.16666397924099712e-05
-3.46158567359954199e-05
-0.000114903953367367074
6.69138338606885582e-07
-0.000146407793034608288
8.92099979418916925e-06
-2.52217605741850072e-05
-9.68671381556903311e-06
2.09483670873105441e-05
-4.01570279414097537e-05
-1.08491498802014614e-05
3.3050289016150019e-05
-4.22760853744690433e-05
-1.18609158978984934e-05
4.40521591752726578e-05
-3.92525047032270358e-05
-1.32838806681237021e-05
5.37405975715414411e-05
-3.40796945774537226e-05
-1.52860413015155886e-05
6.18892345795815386e-05
-2.82382599416180585e-05
-1.80261803413141137e-05
6.81962169159734194e-05
-2.26124856972835833e-05
-2.17129537825265552e-05
7.249924367392976e-05
-1.75927313785380652e-05
-2.65820380029598325e-05
7.48380666626437794e-05
-1.35629360013186782e-05
-3.28622440307609897e-05
7.54278753159981583e-05
-1.12103793297894653e-05
-4.07892971170163525e-05
7.47548501628123106e-05
-1.1263162299060527e-05
-5.05809228821150621e-05
7.30341821610050495e-05
-1.43716094296780109e-05
-6.25672316522930501e-05
7.07659296841063688e-05
-2.07193881835676224e-05
-7.70161780952118865e-05
6.47470962451001959e-05
-2.88915091654475955e-05
-9.50080117325233415e-05
5.78931640410481702e-05
-4.88953429550127217e-05
-0.000115391560527469282
-2.99223540171095065e-06
-0.00014468054958572562
1.04371481195288426e-05
-3.71483750217210722e-05
-9.3337023637616913e-06
2.23678087633852264e-05
-5.36322857532459666e-05
-1.0768772817666953e-05
3.41083103691163729e-05
-5.5388271214615862e-05
-1.19085395447349585e-05
4.48443229697424007e-05
-5.11214812987504006e-05
-1.33954044039609848e-05
5.43502332674933406e-05
-4.45664329939869379e-05
-1.54200810776097831e-05
6.2409320605258411e-05
-3.72956074060793602e-05
-1.8163579823833944e-05
6.86788625686908668e-05
-3.01017128202740173e-05
-2.18489763397314182e-05
7.28906850170898068e-05
-2.34685715926403454e-05
-2.67221781865794027e-05
7.49947496326314216e-05
-1.80113117961976499e-05
-3.30221562117051414e-05
7.51891581205970478e-05
-1.47162992900065008e-05
-4.09842388385716881e-05
7.39886528148276371e-05
-1.46825163611318932e-05
-5.08184767305749997e-05
7.1733702427869084e-05
-1.874021380006086e-05
-6.28149858146018105e-05
6.8853999271334759e-05
-2.72438738792118217e-05
-7.723635538407566e-05