/*--------------------------------*- C++ -*----------------------------------*\
| =========                 |                                                 |
| \\      /  F ield         | OpenFOAM: The Open Source CFD Toolbox           |
|  \\    /   O peration     | Version:  2206                                  |
|   \\  /    A nd           | Website:  www.openfoam.com                      |
|    \\/     M anipulation  |                                                 |
\*---------------------------------------------------------------------------*/
FoamFile
{
    version     2.0;
    format      ascii;
    arch        "LSB;label=32;scalar=64";
    class       volVectorField;
    location    "0.179999999999999993";
    object      faceTraction;
}
// * * * * * * * * * * * * * * * * * * * * * * * * * * * * * * * * * * * * * //

dimensions      [1 -1 -2 0 0 0 0];

internalField   uniform (0 0 0);

boundaryField
{
    inlet
    {
        type            calculated;
        value           uniform (0 0 0);
    }
    outlet
    {
        type            calculated;
        value           nonuniform List<vector> 0();
    }
    top
    {
        type            calculated;
        value           uniform (0 0 0);
    }
    bottom
    {
        type            calculated;
        value           uniform (0 0 0);
    }
    left
    {
        type            calculated;
        value           uniform (0 0 0);
    }
    symmetry
    {
        type            symmetryPlane;
    }
    interface
    {
        type            calculated;
        value           nonuniform List<vector> 
181
(
(2367.20925762925026 -0.0422946861320383713 -0.0441336005576360088)
(2274.7912801607622 0.00873227195465515853 -0.0461478924794099105)
(2106.72253350732763 0.0227625702654093084 -0.0457410334311655759)
(1884.62296786567163 0.0309040786219315355 -0.0455466150641163012)
(1633.46817358912085 0.038847204482359593 -0.0457353693308258577)
(1383.45206332078237 0.043858938770127108 -0.0434714293107200042)
(1156.32624030875149 0.0446936403650634029 -0.0394945637529953222)
(962.216230057763141 0.0484901094079716877 -0.0393930373876437839)
(794.181613776511995 0.0570487207535656793 -0.0418874869483895976)
(653.760801485283196 0.0606285759370477073 -0.0395856329803535231)
(524.551078491107432 0.0589581627146517837 -0.03433212547695072)
(403.319252570991182 0.0571040684835270179 -0.0298944849896559985)
(295.994872329310965 0.0543138914165974609 -0.0258716308919035437)
(205.893526998420725 0.0466544099858593742 -0.0205178787960528519)
(137.620093354613317 0.0232553200955148108 -0.00959471534690647943)
(87.8848276990602955 0.0300666971433932138 -0.0118190766920728673)
(2847.68861130235291 -0.00984877921227953271 -0.0247007239887840971)
(2726.91332949230082 0.0135782013072292956 -0.029970569843746301)
(2526.8372976007463 0.0233272076818062703 -0.0289770917678571979)
(2273.12544843632304 0.0312608933256288274 -0.0275104270455431635)
(1995.02843223846526 0.0379443258092495225 -0.0260707143086856205)
(1720.11465304162766 0.0433687142927248886 -0.0249244816394279325)
(1465.20793322470672 0.0477203387264951984 -0.0242502545858160959)
(1239.47666263390352 0.0512069915104364504 -0.0238497644482109326)
(1043.79025531195362 0.0597848331059280744 -0.0259776923366769677)
(868.944313469772396 0.0652399362654780962 -0.0263444680460852149)
(701.424712968487597 0.0658664010032177921 -0.0246590372603483834)
(542.315511055085835 0.0599653094703846146 -0.0207755105771925234)
(404.277846324689335 0.0445270436308188508 -0.0143426149418212235)
(289.663800601011189 0.0357314129131634656 -0.0107997590238265977)
(195.314490109902806 0.030684298268123078 -0.00874085851244804646)
(120.893061350961716 0.0303265213699054383 -0.00811298724501459054)
(3112.4991481752304 -0.0125211008945152746 -0.0188452890275037088)
(2983.96597172809925 0.0144684090509282302 -0.0213897808957685363)
(2776.7060454164648 0.025177414713856202 -0.0213269452807363022)
(2515.22137648040189 0.0337850065605480587 -0.0210037321989788098)
(2223.80487273128074 0.0448509280824675449 -0.0221177723937858901)
(1931.22379197906776 0.0534868751387442068 -0.0221194480107035907)
(1666.81335450314077 0.0505488973654367041 -0.0185623663625229703)
(1427.91164341790068 0.0534618852353780927 -0.01797353036077666)
(1204.79628358136438 0.0564202250725268917 -0.0173903718698953103)
(1001.61911639349 0.0585173925820838478 -0.0164425473000750152)
(814.477334550587216 0.0641110505057109759 -0.0166382988242856911)
(637.394492971386398 0.0590158198308959395 -0.0143963771874870018)
(480.836272930049574 0.0470359293586254321 -0.0108450986261481846)
(349.272609371750548 0.0410701966411741795 -0.00897683265395673828)
(237.057849010074847 0.0414074135210220698 -0.00857139762263700415)
(142.864546168675332 0.0412695853276735594 -0.00812781529157476264)
(3261.72760533199744 -0.0122373440000404198 -0.0110142597111761789)
(3135.50698340559211 0.0152384150659405151 -0.0152927947034553254)
(2924.98817198258075 0.028563183130756134 -0.0162799026587510456)
(2649.89054420068169 0.0435011266986457534 -0.0176533775755637855)
(2336.73747199871332 0.0530601576229668206 -0.0167135462847674311)
(2028.73100269868905 0.0618071952873352273 -0.0159779018175453466)
(1761.61419583774477 0.0530207616700276788 -0.0120611944638390148)
(1520.24614487539111 0.0550946801304986467 -0.0114659458828742459)
(1286.65693858177951 0.0581311515327584474 -0.0111703684711670428)
(1069.35551294457423 0.0611789481619223821 -0.0108710215939285919)
(874.482481325776348 0.0611592513816976227 -0.0101990404798823452)
(693.231573334424183 0.0635315451035879247 -0.0101317214538061105)
(526.570452089614946 0.0633621503329532543 -0.00967165559818205199)
(382.342877749272532 0.0533399896241669308 -0.00777599968528455351)
(260.711091844896202 0.0418547872161755055 -0.00581444213832254218)
(159.779083035136807 0.0342151814267126417 -0.00460216767586430885)
(3358.24255460511131 -0.0122082351535650994 -0.00918911826525201786)
(3230.57957585376244 0.0156885910151142553 -0.0106751521871000302)
(3017.34172580928634 0.0296605838001394034 -0.0112168347685910001)
(2735.63541690271131 0.0441349886711712228 -0.0118923630452076306)
(2415.41222135837143 0.059382025496700519 -0.0123636619267729862)
(2103.63678591502821 0.0661421963657531226 -0.0114245631999275801)
(1833.23477464666848 0.0547269481172017805 -0.00834861540457826866)
(1584.84423480646069 0.0583025721488396112 -0.00809793734052532098)
(1342.4873255758755 0.0608071212593013014 -0.00777049771903034949)
(1119.01644482092274 0.0639552703726160438 -0.00762903821749008008)
(920.329478469132937 0.0639852341508361788 -0.00721746088410219356)
(734.526662331331522 0.0685060432530624208 -0.00735929909827574922)
(562.309481486004188 0.066424033810938532 -0.00681097284184757103)
(411.750597952045268 0.0600693996597652866 -0.00595655797959514406)
(284.321126882531416 0.0434434587664350169 -0.00421638970835011735)
(178.666553988005546 0.0317386204841884553 -0.00308417159711601606)
(3417.04503410393545 -0.0109450159783979987 -0.00515230929792041391)
(3291.46074915962208 0.0159401537531432616 -0.0073054230158805895)
(3076.74761149123151 0.0304957715860609685 -0.00784192119629036066)
(2789.32043149931542 0.0432540333383523642 -0.0076944806655477125)
(2464.55278260648311 0.0623615040460242798 -0.00805672798682534157)
(2149.89009002033163 0.0696828593291934362 -0.00713190053313124059)
(1875.49169736571389 0.058869851298092718 -0.00523775297116244997)
(1622.3693003599351 0.0579787738842385478 -0.00469795869922725109)
(1376.22924223933114 0.060848856441317635 -0.00457626538408487799)
(1150.83324210089631 0.0653406628829130004 -0.00461047452167101957)
(950.220942091630377 0.0645207817002264317 -0.00427628531331379191)
(760.795921378486355 0.0708550323223321454 -0.00443181946511642458)
(584.575833418638581 0.0681801153956715644 -0.00405849974254157263)
(432.815219719393554 0.0511967696040163608 -0.00297466806062893566)
(304.806944252146081 0.0444839066490430937 -0.00258432382873871169)
(196.126151256073712 0.0404024761069350785 -0.00238193831711592825)
(3458.55618835839232 -0.0107520226289283208 -0.00310128501469583533)
(3336.17335220506538 0.0156243070733029614 -0.00433550150231996976)
(3120.47904681935734 0.0334926850404272738 -0.0049372967011583075)
(2822.13632556608718 0.0523475866880967061 -0.00487137094428401977)
(2485.24483742166285 0.0706614660382439697 -0.0041016132716543063)
(2171.61943013422388 0.069190575418792491 -0.00302040664545466042)
(1902.5891760120071 0.0579357752250894351 -0.00245169617952929611)
(1645.70686513123155 0.0599898365899377284 -0.00257163526566809176)
(1392.54717547808877 0.062219228662282175 -0.00263803267161662712)
(1164.44109940634098 0.0650052499586293298 -0.00254574526364076273)
(965.655806292948796 0.0661607556609943304 -0.00221358846206365064)
(779.135113177993389 0.0723836760516815003 -0.00206181742897185985)
(603.606182076388336 0.0697603384525601611 -0.00175297507587835258)
(450.914448577269809 0.0535904319899222006 -0.00128664879136912371)
(321.077887748246667 0.0467524475054425584 -0.00114122203307253159)
(211.177518400740666 0.0455584143948823614 -0.0011692730361496258)
(3478.71253781054656 -0.0106512005710328057 -0.00101031752972807233)
(3358.69774440417359 0.0154943243278395822 -0.00135853692363127956)
(3137.56089018436978 0.0383225380133422888 -0.00166165142732991765)
(2821.96626152810086 0.0623050359580216151 -0.00143401681886694125)
(2480.30665148001981 0.0697678907944841997 -0.000778562911357169748)
(2191.24722280797414 0.0557777267445732777 -0.000546206069977252869)
(1936.73387103185883 0.057375095015938557 -0.000723087085402937296)
(1671.1922803545956 0.0604538472878209665 -0.000897872123175764373)
(1405.57877374024747 0.06402366777459087 -0.00100475825886193874)
(1166.54257814068774 0.0674656362811129895 -0.000963360449553514768)
(961.981824672051289 0.0797495974163385107 -0.000819173309230912874)
(778.065384896892169 0.0822990405183391255 -0.000515087302934431348)
(607.233534063474508 0.0721853097166066104 -0.000279637090541293327)
(458.987807732984209 0.0529591092956096382 -0.000165709547293959686)
(330.451275265151196 0.0500280552459723138 -0.000164377399748991479)
(219.254640108056918 0.0485634699493602204 -0.000181299131286168514)
(0.134101394890601605 0.0354609813648587638 -404.416261141303551)
(0.12831876976872314 0.00900101883969845439 -466.904334610658054)
(0.119446358386889231 0.00788195919255560949 -402.417450150998718)
(0.109356866685722337 0.00976934606812734571 -300.017687002601804)
(0.0802311541822651186 0.0122895119621123042 -209.37076035659922)
(0.0554746815799410098 0.0140999350268484931 -148.06242650016307)
(0.0146683055897063718 0.00550566236365562182 -93.5006452272018578)
(-0.000633723909787580332 -0.000326835626936361208 -26.4822091522988181)
(-0.000711816738403643775 -0.000695523206838911316 -8.51284167090333987)
(-0.000349794758947202832 -0.000533051908676298366 -8.39706337375348433)
(0.00404582370110662202 0.00735266474818576515 -8.66426018102095874)
(-0.00545805831782402318 -0.0104811681290414398 -7.45296728688929022)
(-0.00144700456192451712 -0.00323568519796649983 -7.15715047121849146)
(-0.000561188245191032416 -0.0015158953213258526 -7.76580848685032965)
(-4.03056111658469022e-05 -0.000133082803786907256 -7.57813610218799116)
(0.103499685618790402 0.0287875591317995651 -159.014923944470809)
(0.100536464655330046 0.0012238662160182043 -159.718522867078661)
(0.036394470850842367 -0.00474230986116569355 -99.4722413371837462)
(0.00647192328071783014 -0.00131592831375718523 -41.7293688802670886)
(3.80358784459712283e-05 -1.79246574980422478e-05 -10.9493868973456117)
(-2.04015544871225108e-05 -1.46971009209523304e-05 -4.51397921499445065)
(4.17861612985494777e-05 2.07691264979434547e-05 -3.10842025318252668)
(-3.14969581166336368e-05 -7.4488775015819764e-06 -4.02520468991997671)
(-0.000189265995648393197 -1.11180920350318471e-06 -4.90398015989553038)
(-0.000241684595049919778 -2.49666952966012401e-05 -5.37153898100709881)
(-0.000221972749159538111 -3.38093697220399244e-05 -5.64302243028458328)
(-0.000202808282985635346 -3.73575835504816469e-05 -5.71979727914871994)
(-0.000190098675114735148 -3.85198395768744553e-05 -5.81209197299389579)
(-0.000182998514886569983 -4.13916227309741314e-05 -5.92621602038631146)
(0.070254633734414762 0.0176907847313273123 76.6604669231397651)
(0.0383579017609373754 -0.00269599876080071953 28.8824957440432577)
(0.00150863226531246426 -0.00102077289836116137 2.95648486047749293)
(-0.000105441700491031712 -6.61964339918211464e-05 -3.37553469822105257)
(-0.000177567255102494849 -7.39041297661216009e-06 -3.30872877960581491)
(-0.000151952785459346799 -3.08280472676664759e-05 -3.05903785141530937)
(-0.000147942656944614323 -3.05265283440723419e-05 -3.172400999054108)
(-0.000142851124377572794 9.69472234629778128e-06 -3.70133737277922936)
(-8.35010908121345988e-05 3.04872803713315841e-05 -4.37176903188040455)
(-0.000128637434650791699 3.44975143215375087e-06 -4.84434199847345059)
(-0.000131873144795445995 -5.50673648709409186e-06 -5.21138835708995707)
(-0.000133540721843201612 -1.42754023502309554e-05 -5.42566841063275795)
(0.0211911830077343016 0.00360940137771521884 41.5830390867910253)
(0.00447970734580661369 -0.000266380720350365167 13.3226482039870309)
(2.13196513128756319e-05 -9.22674144993103254e-05 -0.397428874864766579)
(-9.47612831286340457e-05 2.27925675759201496e-05 -3.30963950438208077)
(-7.63463274767455131e-05 1.6863821723559325e-05 -3.51688468434869428)
(-8.57351006607404224e-05 1.24521026436402003e-05 -3.41906490303057309)
(-8.59927360202130108e-05 2.75468382422052554e-05 -3.51795156932170272)
(-9.63958815338069306e-05 1.58777220671823054e-05 -3.70363721491841691)
(-0.000108155109718230714 1.31895079635764994e-06 -3.86327746265710914)
(-0.000112442544929552659 -6.18713423641731843e-06 -4.0444363207996199)
(-0.000115809128207524555 -6.9396288297312934e-06 -4.21372476756840353)
(-0.000115821574668222908 -1.008030342911122e-05 -4.36683293764987024)
)
;
    }
    procBoundary0to1
    {
        type            processor;
        value           uniform (0 0 0);
    }
    procBoundary0to3
    {
        type            processor;
        value           uniform (0 0 0);
    }
}


// ************************************************************************* //
