/*--------------------------------*- C++ -*----------------------------------*\
| =========                 |                                                 |
| \\      /  F ield         | OpenFOAM: The Open Source CFD Toolbox           |
|  \\    /   O peration     | Version:  2206                                  |
|   \\  /    A nd           | Website:  www.openfoam.com                      |
|    \\/     M anipulation  |                                                 |
\*---------------------------------------------------------------------------*/
FoamFile
{
    version     2.0;
    format      ascii;
    arch        "LSB;label=32;scalar=64";
    class       surfaceVectorField;
    location    "0.179999999999999993";
    object      Uf;
}
// * * * * * * * * * * * * * * * * * * * * * * * * * * * * * * * * * * * * * //

dimensions      [0 1 -1 0 0 0 0];

internalField   nonuniform List<vector> 
20789
(
(0.0605141627277732894 -0.0144991265402008209 -0.0134146183053622144)
(0.0305570263577914399 -0.0270178038622135921 -0.0127955276450883604)
(0.0301004676687746942 -0.0129540976018624864 -0.0126667121509770816)
(0.0304814730799213181 -0.0129949752553527344 -0.0129119530084405923)
(0.132478044943398127 -0.0160901697252543892 -0.0149475350342568765)
(0.0957941844813954418 -0.0321127621793173834 -0.0139393774208302137)
(0.0949037737353928268 -0.015991357806993723 -0.0138584125206193242)
(0.0961167481831115555 -0.0160542451649887605 -0.0141159513217756164)
(0.204346464647396947 -0.0163614756852754305 -0.0174131227571067554)
(0.165731233168127101 -0.0320774990556548859 -0.0157726134908454906)
(0.165460500003735078 -0.0161142663179912778 -0.0156882756979743881)
(0.16762270465987214 -0.0162005814470721488 -0.0159601492705452597)
(0.277575692918168304 -0.0167700689634805687 -0.0212171921519824641)
(0.238002941012749603 -0.0326957728808913786 -0.0188178425922362544)
(0.240265719510743825 -0.0165079618698860224 -0.0187369803568483047)
(0.243712492261046715 -0.0166255533943600702 -0.0190357812756388779)
(0.35270621117828177 -0.0173716701722289625 -0.0266995176208233743)
(0.309963224360308098 -0.0335616956230874938 -0.0233104539580621349)
(0.312176169171958173 -0.0169004465814152488 -0.0232185781447734642)
(0.317160590916324092 -0.017051863053849356 -0.0235591735866801794)
(0.431785202633556797 -0.0183700768048101794 -0.0344069597559257048)
(0.386209393236958409 -0.0353538193889689489 -0.0296906225467659657)
(0.388123351211559053 -0.0176692884012965325 -0.0295849243581151403)
(0.395142251638160746 -0.0178728041968620951 -0.0300000047029377465)
(0.516165425455489491 -0.0196506832750987098 -0.0451971570724786706)
(0.466563466470961752 -0.0377541473525192378 -0.0385900752902198149)
(0.467512034809424937 -0.0188285879434366421 -0.0384613562617517543)
(0.477296449524092226 -0.0191220641114282358 -0.0389648840715194344)
(0.606143430153263107 -0.0208363710148347404 -0.059996631554314013)
(0.553782644348403852 -0.0403629185518451852 -0.0510166531666037745)
(0.554209696798209084 -0.0201208031986132505 -0.0508575040209791954)
(0.567904833485789018 -0.0205400539159930305 -0.051602751369941309)
(0.700693460610764873 -0.0221718260223707844 -0.0812990372750551915)
(0.643375782853105704 -0.0424217113702810497 -0.0680542142241725295)
(0.641112229938745171 -0.0210317557641489759 -0.0677234424067323371)
(0.660464447947719191 -0.0216965028240727782 -0.0685222114493216627)
(0.799986475573742806 -0.0228085192804866541 -0.110336447084417616)
(0.741011625786894723 -0.0451690100398317654 -0.0929031333025178013)
(0.736562663498054881 -0.0225186450781744638 -0.0924270963808919849)
(0.764150024231307401 -0.0234318433816248367 -0.0945044561916679321)
(0.898996909034062375 -0.0220691584594616547 -0.154072502331231764)
(0.838319857720204009 -0.044693113573915054 -0.126328928862798423)
(0.827940284340867749 -0.021910684436293848 -0.124950827857428892)
(0.868736852077086064 -0.0234793239705524022 -0.126327646571693375)
(0.986009605979403903 -0.0203745452434013347 -0.216642709223047708)
(0.931340173989928299 -0.0427769861042404664 -0.179281892268368021)
(0.910359544187108627 -0.0202360699131656947 -0.17609257398472003)
(0.970629796612112461 -0.0228014795679032205 -0.184301922336883833)
(1.06357890049757975 -0.0189252584084271258 -0.315872664500153499)
(1.01823994734745571 -0.0378162469245973756 -0.252148915077195834)
(0.980531579234864559 -0.0178630651364312595 -0.245764379777351022)
(1.08186476995574776 -0.0211110871453596138 -0.252446453726889009)
(1.07567518976926624 -0.00482217690093716261 -0.476458935462927946)
(1.08681717474957606 -0.0342162740144378169 -0.377922151366945069)
(1.0275873988029034 -0.0151373548102468163 -0.353767801672188353)
(1.16738976903645497 -0.0207941896888410825 -0.411448125403234111)
(0.932209457335507308 0.0332387786416800182 -1.02439948473364018)
(1.11455395091283327 0.0132487688127701682 -0.588486757001361216)
(1.0005433293699435 0.0114277058815949444 -0.50425602316570417)
(1.33597672026564829 -0.00457871781226368811 -0.605283554782349076)
(0.794936612722748848 0.110288221835061664 -1.50234727775136312)
(0.734405110263031458 0.0665835088067260883 -1.02412354229676206)
(1.22116413475280372 0.0439643193091185658 -1.6321776305871063)
(0.0618923901892633951 -0.0441834868818987911 -0.0133202867605563598)
(0.0311021241502679596 -0.0546509675259913633 -0.012732772867436553)
(0.0306331266701837697 -0.0401929244058360363 -0.0126281742174960843)
(0.0310154802451954939 -0.040318369391304773 -0.0128788211019715531)
(0.131391504317284996 -0.0478010891370267005 -0.0147644558774188261)
(0.0961687734239518033 -0.0631309653790638192 -0.0138096090501835227)
(0.0954792030224058952 -0.0480087627269086478 -0.0136815829352389014)
(0.0966849712393195865 -0.0482033201939025546 -0.013940717024992345)
(0.199532198333096711 -0.0479212112987331268 -0.017177333325974993)
(0.164380894486947038 -0.0624982682054087205 -0.01560829191655606)
(0.163841993887653581 -0.0473668451764588522 -0.0154786385591237745)
(0.166014212386329574 -0.0476178499172334388 -0.0157503602888662206)
(0.26913553219559333 -0.0492138358542378931 -0.0209111043983159252)
(0.233336079049744904 -0.0637784567052787077 -0.0185892937355818973)
(0.232364317112045332 -0.0481860896733136909 -0.0184587809193764059)
(0.235697214892195139 -0.048514505521653338 -0.0187541621944945051)
(0.342642442028967431 -0.0514610817977295409 -0.0263015588840047332)
(0.304556927262923882 -0.0663991303201794114 -0.023009337745552555)
(0.302878400011229232 -0.0498678117761461662 -0.0228702424273267146)
(0.307681919948570082 -0.0502970193744507049 -0.0232052472325397115)
(0.420587040124151879 -0.0545937408874444113 -0.0338737380810600897)
(0.380022339010651078 -0.0701975203266709397 -0.029278026904844049)
(0.37744975344698134 -0.0525559364651015729 -0.0291228414212177898)
(0.384195192870179669 -0.0531411865951164006 -0.0295257433156944464)
(0.503276404807665445 -0.0583177675161048945 -0.0444095713843449397)
(0.459879433682095551 -0.0747577410937207837 -0.0380140290006463905)
(0.456084611634859416 -0.0559339684946229126 -0.0378320869464354864)
(0.46548291088341498 -0.0567726046482585206 -0.0383371500949817659)
(0.591558345723520285 -0.0618503453807810466 -0.0590742358364622633)
(0.545794964640864078 -0.0799342689555608277 -0.0501398345853514421)
(0.540087513984084611 -0.0596972503891095782 -0.0499100875326089696)
(0.553147818041500372 -0.0608988367446812104 -0.0505793915983412737)
(0.684262496014559685 -0.0653796552809411541 -0.0796583102516351393)
(0.635326924671021809 -0.0841140597812771035 -0.0670100275123666628)
(0.626937751246901653 -0.0625204590326402243 -0.0666917806767331478)
(0.645354961096805457 -0.0643711136617206997 -0.0676722057218619721)
(0.781370836485360321 -0.0674274583184203552 -0.10889561508089865)
(0.731750002615944251 -0.0890726001646807847 -0.090830832852570334)
(0.719064891347142798 -0.0660304659265417149 -0.0902804333639336543)
(0.745117064208673074 -0.0686281337076831699 -0.0917687056818585895)
(0.879945532770840977 -0.0660516029279073352 -0.151538318799934679)
(0.829350863128864857 -0.0899055243081030991 -0.124661405092388822)
(0.810179017874264495 -0.0655277386469053924 -0.1236070454115306)
(0.848334465161743712 -0.0697317226401873991 -0.126409885585521076)
(0.970673782449944955 -0.0619159015634202642 -0.214788098122516175)
(0.924116637802420149 -0.0858173054847036071 -0.175113161510473986)
(0.895968471374566922 -0.0612460394126646476 -0.172531463491010839)
(0.951757677014129166 -0.0678766938768595174 -0.177964948598133749)
(1.05497773530086314 -0.0565941911302516726 -0.314198401943987293)
(1.01425805420645809 -0.0810239788231671282 -0.24926738623114375)
(0.969704783046166363 -0.0554987967894468304 -0.243724449253095249)
(1.0616290679603777 -0.064014626349137474 -0.255203159200471874)
(1.09537348460338535 -0.0251332805767702887 -0.489949972905378506)
(1.09080904736547057 -0.0729277606964792852 -0.373334286874763721)
(1.02952699564414463 -0.0457358315200051546 -0.35270365466281145)
(1.15979322718455369 -0.0580992494580732932 -0.39421917169782672)
(0.996618162455572554 0.0971592481512721373 -1.0664345500190815)
(1.12158580400060592 -0.00320546708940011148 -0.605217182220973648)
(1.02827281644859791 0.0172335900965322857 -0.525902156703521029)
(1.32048147047379327 -0.0242757412386302857 -0.646592815175815239)
(0.848069255699667401 0.275858019079745886 -1.53884071646351783)
(0.842445055979586632 0.212884376317655888 -1.12577367248298699)
(1.29053463454927786 0.138263022378700418 -1.68051657429586143)
(0.0630657344874480108 -0.0735795199990440241 -0.0132220951570637159)
(0.031491600156420059 -0.0828093117399240075 -0.0126102614223927226)
(0.0311902582317885244 -0.0685257216638868322 -0.0125109039049090577)
(0.0315716404250549684 -0.0687423776975432249 -0.0127689960215720943)
(0.130450601775084524 -0.0781280116576736211 -0.0146534450893207567)
(0.0960940854986511578 -0.0932119391535222164 -0.0136823176455488117)
(0.0956632234220164829 -0.0783552200083472705 -0.0135756312841643825)
(0.0968544386096269333 -0.0786699985146680908 -0.0138397004689040874)
(0.198258825047212595 -0.0785369526899748621 -0.0170202523261629643)
(0.163078311293760103 -0.0927724549461043657 -0.0154387112661634462)
(0.162773758087571691 -0.0775329729020561437 -0.0153405739525702758)
(0.164907042948313154 -0.0779346597132111324 -0.0156147284491359502)
(0.267892070285830008 -0.0810660354508406927 -0.0206875270828185236)
(0.231570615733852014 -0.0948734502828619958 -0.0183511619561443559)
(0.231015934320612709 -0.079078546050120796 -0.0182645501721019864)
(0.23429136971062331 -0.0795989160493514314 -0.0185580399712910703)
(0.341181264735035961 -0.0852179453322696318 -0.0259858057663918743)
(0.30258486073423968 -0.0991370842432180016 -0.022680200817754393)
(0.301493224635436152 -0.0824571811232926305 -0.0226012726917058371)
(0.306215859710863014 -0.0831456332206536169 -0.02293092726280151)
(0.41894704741308969 -0.0904859925218366168 -0.0334183178244303672)
(0.377796433430464429 -0.104957450044043485 -0.0288159695951741533)
(0.375944189024290387 -0.0871783313234741897 -0.0287431858207150386)
(0.382568495395553765 -0.0881216467667320924 -0.0291375872250183646)
(0.501688781997581268 -0.0965660432217198134 -0.0437442922016528929)
(0.457385654328776869 -0.111777009024667945 -0.0373489696717819106)
(0.454426792878318442 -0.0926764309976695205 -0.0372822917393169501)
(0.463643145936120438 -0.094015025880570452 -0.0377722561377815819)
(0.590021349565132858 -0.102467685836146932 -0.0580756262612558277)
(0.543410397478219953 -0.119521525519060354 -0.0491663116158810518)
(0.538682011431763863 -0.0988572454932249295 -0.049104358311429272)
(0.551452530536333363 -0.100779565637997642 -0.0497605909957102369)
(0.683338142049197739 -0.108188426169747415 -0.0781825501133018852)
(0.633022170628929182 -0.126048122719247285 -0.0655544063168467944)
(0.625702122338618327 -0.103723068200223853 -0.0654844586268241158)
(0.643714290241511611 -0.106631283491529921 -0.06640386975276516)
(0.781738577199786566 -0.111972599548041674 -0.106596622864060478)
(0.730708891092027302 -0.133551182755846792 -0.0886782474246389091)
(0.719097311918821314 -0.109197363646150861 -0.0884917520826187243)
(0.744451840472456605 -0.113305335214106156 -0.0899815783835538063)
(0.880928069098283806 -0.110280700147016783 -0.148236247802928128)
(0.829873418618165326 -0.135268276662835973 -0.121286941354676464)
(0.811788944839369253 -0.109546740626149344 -0.120840182886329944)
(0.849005257285511794 -0.116037179650349168 -0.123397215174698607)
(0.974608266320805883 -0.105466896798763254 -0.209592449619101784)
(0.926309203046643326 -0.12997740755597037 -0.170514470856649891)
(0.898833668283449461 -0.102865834276895524 -0.168807061181038831)
(0.95337487642415919 -0.112908560501140384 -0.173856021063534455)
(1.06444640726905559 -0.0964440264345709369 -0.308403271161920178)
(1.02080750455029245 -0.126498521523699198 -0.241425715215507347)
(0.976594192723882593 -0.0972797202160693292 -0.237392716100702367)
(1.06608316620875354 -0.109580954221112692 -0.248485597462432484)
(1.09752248912632644 -0.0481561486486239698 -0.48860149619035953)
(1.10215220107114442 -0.106256471532341218 -0.365243762606635158)
(1.04191395847882551 -0.0767592100297458391 -0.349208456660908051)
(1.16864237821800265 -0.095320516023315649 -0.38646474572825068)
(0.970277283563873882 0.171464713608354052 -1.0776233486654101)
(1.12451346696294996 -0.00816091015494312295 -0.601427173125603565)
(1.02076056038136453 0.0177087465316570249 -0.524572460040091504)
(1.31728651180437129 -0.0454980506294327958 -0.64759003224981837)
(0.821583630639543094 0.431586088762887843 -1.54293413992806983)
(0.812875293405557975 0.380864548657833257 -1.13645548354224912)
(1.25533124315926359 0.245077146820649239 -1.68746804643931103)
(0.0635069964604208781 -0.102504862209191056 -0.0130704839108778184)
(0.031569651795774839 -0.111170096394889867 -0.0124508721766483955)
(0.03141503249261271 -0.0968523968687209635 -0.0123506681465397027)
(0.0317903130819584198 -0.0971554976133097298 -0.0126214266775266076)
(0.12924222736355806 -0.107928726641721706 -0.0144675838223915013)
(0.0955478892011575043 -0.122563445147890915 -0.0134929814289628872)
(0.0953494670688576906 -0.107770063754864628 -0.013402692687447277)
(0.0965128093238669521 -0.108191189995765311 -0.0136741892904248836)
(0.196369586400554547 -0.109146822768227153 -0.0167696208961448379)
(0.16138061361098141 -0.122745136386226486 -0.0151897645848837904)
(0.161281495313719964 -0.107584108835340087 -0.01512084207725704)
(0.163358729629218213 -0.108130707360620623 -0.015397218579626502)
(0.265646910058396246 -0.112967070174837342 -0.0203438356910802289)
(0.229155813074462894 -0.125807041078794868 -0.0180132584803096921)
(0.228900210853378971 -0.11007682133240565 -0.0179703004493985408)
(0.2320926938646935 -0.110787190262110258 -0.0182573832869331772)
(0.338506621981184253 -0.118930949291884164 -0.0255103646465366651)
(0.299689042838336583 -0.131677860032128863 -0.0222210499921909749)
(0.299031408732090165 -0.115044440330725709 -0.0222017774959726022)
(0.30363501953713723 -0.115985214193828318 -0.0225188680707300443)
(0.415882211613318342 -0.126354711242475465 -0.032746621442525721)
(0.374440508695415286 -0.139534701764230856 -0.0281795450439567899)
(0.373143546264074311 -0.121729407864687639 -0.0281876887084703195)
(0.379591471088641497 -0.123015688931311193 -0.0285636080415437241)
(0.498455461227187757 -0.13488169709458675 -0.0427709890860100764)
(0.453621940174054938 -0.148708923277760779 -0.0364453343206377275)
(0.45131974446343609 -0.12946798791992678 -0.0364903852155570446)
(0.46026469876426862 -0.131280945265333099 -0.0369554477426897385)
(0.586779291145753668 -0.143313721365008612 -0.0566450916714720254)
(0.539578734393884152 -0.159086570276698508 -0.0478438703935434445)
(0.535655685714253926 -0.138137046937446245 -0.0479470336914323281)
(0.548014899248308707 -0.140750237434354775 -0.0485666624316210896)
(0.680734844746110901 -0.151688668369507201 -0.0760501036281838044)
(0.629376228768561141 -0.168234661463755403 -0.0636158382482603924)
(0.622853293288145426 -0.145315849288886551 -0.0637860018155412267)
(0.640245905560704154 -0.149231661322342113 -0.0646426442258956485)
(0.78078568050273589 -0.157216826281082578 -0.103368565915254854)
(0.728460471519355224 -0.178728776473926043 -0.0857366412633658592)
(0.717780320513514813 -0.153393692109839247 -0.0859262621374348029)
(0.742127969643071261 -0.158947161023062666 -0.0873471311347624735)
(0.881279196129179043 -0.155440169175644932 -0.143565164408398227)
(0.829423856074263277 -0.181068191061091371 -0.116912970535886243)
(0.812370395722843308 -0.153965346931682845 -0.117070647242186077)
(0.848292319092683766 -0.162853743903401516 -0.119342805489992695)
(0.979496250263989787 -0.151165137271670774 -0.202347736453055455)
(0.928851785049704337 -0.176074077155322944 -0.164173134460606024)
(0.902067202679070146 -0.146039718570605576 -0.163341469393833871)
(0.954285132253083646 -0.159396604411936593 -0.168230603197344258)
(1.07475126099385521 -0.136582585777026533 -0.298266206660222466)
(1.02977127909723287 -0.174021168366674583 -0.230832365773942672)
(0.985412531863441021 -0.141519782478060491 -0.228452240720005362)
(1.07274528442443562 -0.158120900797375008 -0.238826152421636961)
(1.10985272112694022 -0.0657545235991956328 -0.478069439541879415)
(1.11620877146166997 -0.139814573001863368 -0.352417862263543991)
(1.0556450745559891 -0.107703738937550836 -0.33799214535783223)
(1.17504656877668467 -0.132651969431951983 -0.37390691826573641)
(0.968251480046712576 0.251194279283375621 -1.06673796438826418)
(1.14180887783100493 -0.00488849545933454314 -0.59145883248430231)
(1.03753489482784311 0.0243743675077925867 -0.516782553713189263)
(1.33277077556915868 -0.0608733029072152793 -0.636105627096060555)
(0.810159308896608144 0.597397326757632019 -1.52800140208938728)
(0.797436181800015631 0.550942012470632791 -1.13019886289924365)
(1.23132012443985417 0.358425837001698666 -1.65924466452516817)
(0.0633310042782552068 -0.131241716365237432 -0.012873369694733466)
(0.0314080744789382929 -0.139463556670904043 -0.0122627595840226061)
(0.0313540872434769496 -0.12517858531775089 -0.0121498071102144594)
(0.0317175038959876671 -0.125553230186470244 -0.0124423642410269632)
(0.127792284038100917 -0.137385637955966811 -0.0142151621914551746)
(0.0946018225656927447 -0.15135470156099376 -0.0132500122394183153)
(0.0946028706953394166 -0.136812981046786325 -0.0131695981458242982)
(0.0957238779541626922 -0.137325596925163829 -0.0134530075819757344)
(0.194045212664609196 -0.139469973962858484 -0.0164334021690486463)
(0.159307600659245291 -0.152330583280943593 -0.0148673586331732228)
(0.15943814197364678 -0.137323782608027051 -0.014825760104572221)
(0.161441101547745075 -0.138006817562932094 -0.0151049498836423185)
(0.262719457227653663 -0.144597226255607142 -0.0198904727814204485)
(0.226202738070607423 -0.15646638666321383 -0.0175821693295256549)
(0.226273847987336324 -0.140819314401765178 -0.0175845574884874976)
(0.22936142405842877 -0.141710706645047202 -0.0178592344889974657)
(0.334973690780572819 -0.152381841325228251 -0.0248902303896110962)
(0.296024335927023763 -0.163938698304967628 -0.0216425007428863725)
(0.295830522942534868 -0.147361179602139486 -0.0216839260142123492)
(0.300284689842364116 -0.148537766118775783 -0.021979364918888928)
(0.411810762162232169 -0.162029135073130881 -0.0318782579220688103)
(0.37012245661939136 -0.1738570801861751 -0.0273853970103910098)
(0.369426569622085754 -0.156054866255292579 -0.0274731571628901022)
(0.375653261868205524 -0.157655151483880401 -0.0278180386072099835)
(0.49406339196843968 -0.173102823589002613 -0.0415182156281710818)
(0.448756297234565227 -0.185479832088789653 -0.0353248949515389613)
(0.447196186249252892 -0.166141367773889409 -0.0354772251101327651)
(0.455796772980785692 -0.168385353214217326 -0.0359053035745544799)
(0.582425405855382938 -0.184269829128412194 -0.0548146169703318115)
(0.534489821993649916 -0.19863804509777605 -0.0462122228842219082)
(0.531473517517177863 -0.177414090539894792 -0.0464714620490336155)
(0.543323626909265056 -0.180651460827722321 -0.0470300555061360717)
(0.677179725916460584 -0.195619855341359783 -0.0733023758834424333)
(0.624652857351820634 -0.210743638949526635 -0.0612298122234560607)
(0.619122343565475686 -0.187222916985130883 -0.0616196849397010193)
(0.635688315562084272 -0.19204529836391368 -0.0624112518611582082)
(0.778977179333978031 -0.203020500510792068 -0.0992810458839972765)
(0.72504035470736794 -0.224604577469282335 -0.082079325375551071)
(0.715673450504595854 -0.198240349828080725 -0.0826515304756554464)
(0.738803643536541377 -0.20517240150750507 -0.0839162884155881528)
(0.881656146043504507 -0.202172676828073605 -0.137520940588093943)
(0.82831689768760286 -0.227709675003316625 -0.11160835173125698)
(0.812445987373145329 -0.199002895820049763 -0.112340330244039388)
(0.846659651223200083 -0.210145102848915022 -0.114352892979266735)
(0.986766974332992208 -0.199364145224016326 -0.192657763781493241)
(0.932246158306419104 -0.225067967388067613 -0.156008293982508595)
(0.90646199450313425 -0.191922296043148227 -0.156140975390346909)
(0.955680693626018929 -0.208479390052365432 -0.16069652209551083)
(1.08937428905699218 -0.177753318776784935 -0.284984021377264307)
(1.04149502597349808 -0.224462170949654705 -0.217382759918062191)
(0.998197662829145238 -0.188194922527842423 -0.216801964077533937)
(1.08163669072741397 -0.208714309198659131 -0.226477085452024107)
(1.12826005932293616 -0.0800344154318769763 -0.465807255205966386)
(1.13687495361332602 -0.174830093162991473 -0.334909326820696351)
(1.07550031241456878 -0.138210282686591329 -0.323338698387710954)
(1.18577625266301911 -0.174429148389634414 -0.35880465283567653)
(0.974349529660052838 0.339355455877587364 -1.0527222701854273)
(1.16128902822046642 0.00524962332856613277 -0.582702553426657111)
(1.06376472649026854 0.0370014264871745893 -0.506502382238304572)
(1.37493414309448125 -0.0717339483302715381 -0.6230359885663872)
(0.807545970562382309 0.783048782644790387 -1.51942509103391576)
(0.797312678956859866 0.730844105371234787 -1.12417614832656843)
(1.21701724156479751 0.486376343052911997 -1.61896202423732638)
(0.0627547646692168254 -0.159621160580502935 -0.0126394021287074537)
(0.0310786628332275876 -0.167519212668329642 -0.012057906700641963)
(0.0311041549269920337 -0.153345082659295417 -0.0119117509962302064)
(0.0314494864721524964 -0.15376552799948201 -0.012240920194501851)
(0.126033831196415508 -0.16634579416423384 -0.0139022086811363584)
(0.0933154503857707013 -0.179629475290176477 -0.0129618203538742378)
(0.0935021369660756357 -0.165307787437289549 -0.0128818218533649203)
(0.0945650466290395286 -0.165889558008771532 -0.0131831308647291038)
(0.191259312391242137 -0.169406548771653537 -0.0160161257936502315)
(0.15683806809146722 -0.181461114308094335 -0.0144763340992527592)
(0.157209633929497383 -0.166622937218563222 -0.0144588429712360338)
(0.159119450355953956 -0.167431391147095099 -0.0147414964448481529)
(0.259094437251051191 -0.175901018488895083 -0.0193341972909915859)
(0.222688338107518619 -0.186741993205728762 -0.0170633198332403591)
(0.22309750642881418 -0.171236823281093575 -0.0171127608873720069)
(0.226060222507082492 -0.172298127270566703 -0.0173658567023348871)
(0.330542693976342894 -0.185527359211523468 -0.0241376673636662896)
(0.291569684018257169 -0.195824128881644466 -0.0209549311814723714)
(0.291855438090299346 -0.179371443321442448 -0.0210570515251721664)
(0.296134520398818823 -0.180763120964709284 -0.0213181180046270007)
(0.406659322710671511 -0.197459243315767641 -0.0308320340398611677)
(0.364802290877057733 -0.207836493360312707 -0.0264512788968285367)
(0.364740532308351073 -0.1901135751935977 -0.0266148284404501764)
(0.370706377983294866 -0.19199062150668797 -0.0269141969257407181)
(0.488429738999900276 -0.211219516931051732 -0.0400189022075897946)
(0.442698300826236235 -0.222008757692321396 -0.0340160712115035388)
(0.441943777712125507 -0.20265459579297887 -0.0342657469336897433)
(0.450141498171911791 -0.205271303037210084 -0.0346385231399424023)
(0.57679338222996801 -0.225379377063370662 -0.0526274181373461714)
(0.528058925237633647 -0.238146702235764895 -0.0443257173863318421)
(0.526039239296647088 -0.216737615904834202 -0.0447156374854845926)
(0.53727522052050547 -0.220504222870718691 -0.0451871944248765645)
(0.672320859293498829 -0.240069150258070463 -0.0700067617155646499)
(0.618555866184447134 -0.253556832196553117 -0.0584533708328248483)
(0.61427045874554409 -0.229512774716815526 -0.059025097820179194)
(0.629840146368456755 -0.235126022637539289 -0.0597379069833816403)
(0.776075480519558436 -0.249738491768129373 -0.0944066312228108301)
(0.72024064381282682 -0.271241836751248244 -0.077812160888901305)
(0.712277438168170796 -0.243898107408101944 -0.0787442687248945394)
(0.733999983137997081 -0.252089149341166552 -0.0797922447904288179)
(0.882165572855421187 -0.251120063354198564 -0.130095705125671562)
(0.826560345695053211 -0.275743712208747827 -0.105418083506861979)
(0.812118071889011084 -0.245218012401574176 -0.106667769375085097)
(0.84407491499207643 -0.258457816315072753 -0.108433189898246907)
(0.996052288645913886 -0.250759365774525289 -0.180733290119077711)
(0.936134728921070525 -0.277672650861775505 -0.145952974203674563)
(0.91194184429874614 -0.241372933786490163 -0.147314179875171536)
(0.957562360117183986 -0.260546943491077931 -0.151290333250039211)
(1.10815052522744528 -0.221883326764968913 -0.267308065361494318)
(1.05574727518170053 -0.278492297336524863 -0.201388083102600368)
(1.01423160088635078 -0.238030183682368224 -0.202845956210909367)
(1.09033138222963522 -0.263127993115830738 -0.21126296823899729)
(1.15235294527329657 -0.0909047768342479134 -0.451804625041386743)
(1.16201681986927996 -0.210335510644986706 -0.313958256605112673)
(1.10192550333861727 -0.169840939629059079 -0.30576422822379179)
(1.20839879265719974 -0.220283983516661425 -0.337484339512552522)
(0.981978863869865881 0.445297886047583191 -1.04940537427514635)
(1.18460725375607878 0.0221451218974695677 -0.573586169870612728)
(1.09141323913964361 0.0582701849445547773 -0.499179101132772585)
(1.3750418075390558 -0.0740368665462627085 -0.616832441571439682)
(0.808168802691911159 0.977277696913181226 -1.51629741757959691)
(0.800632768186710586 0.932909793432684431 -1.12715714747191864)
(1.20240283077072285 0.645445589387141916 -1.61156943977295519)
(0.0618820152169501647 -0.187589995914081348 -0.0123803249258087472)
(0.0306182929026080596 -0.195216467819858241 -0.0118525130871640367)
(0.0307111669053440582 -0.181210198354948143 -0.0116425715786378538)
(0.0310305454339836959 -0.181633394243360502 -0.0120307230998842017)
(0.123943492892904281 -0.194807503826473549 -0.0135359457719906352)
(0.0917219525499167049 -0.207375570199162196 -0.0126391763306094723)
(0.0920881138013939921 -0.193293188904146512 -0.0125464098794085769)
(0.093074151892563961 -0.193913166667167097 -0.0128726702216224887)
(0.188004505159210189 -0.198881901349646284 -0.0155235281388428868)
(0.153964843554304898 -0.210076122168924129 -0.0140221169761607627)
(0.154585471728401758 -0.195438720261099153 -0.0140243238000708672)
(0.15638193681889076 -0.196360215612561451 -0.0143110226967087424)
(0.254774242022210329 -0.206767928708921633 -0.0186840537237211481)
(0.218602811068118297 -0.216526560095262943 -0.0164634706534744074)
(0.219358482242693748 -0.201224162506109361 -0.0165625393160992208)
(0.222179346451260473 -0.202441881142497893 -0.0167805801904646404)
(0.325194882197929858 -0.218257843792428796 -0.0232685427146346289)
(0.286312821182703514 -0.227226496720243393 -0.0201716666989442198)
(0.287092309862482575 -0.210967704755057051 -0.0203342126750512345)
(0.291176659407878013 -0.212547694805484161 -0.0205426097603537243)
(0.400378872676202757 -0.232547116460272235 -0.0296353160684709183)
(0.358445723085456802 -0.241368078153323951 -0.0254002323764230681)
(0.359047550838421992 -0.223805786090376435 -0.0256332270256529708)
(0.364722191239304494 -0.225912933078726313 -0.0258659732651953175)
(0.481477543956329856 -0.249149139092056715 -0.0383228863902455863)
(0.435376596729022292 -0.2581974487966473 -0.0325648104450856346)
(0.435478806038944621 -0.238933910280271278 -0.032891356862336539)
(0.443229949219495767 -0.241844706621173244 -0.0331807986936719645)
(0.569672828071384418 -0.266609000920428274 -0.0501516700818105121)
(0.520153449040085869 -0.277524299747573477 -0.042261950364483436)
(0.519265490306336397 -0.256052402649648458 -0.0427321095204066317)
(0.529790819669631041 -0.260226301707737306 -0.0430912463154652162)
(0.666035742035654854 -0.285107583913835894 -0.0662587700061614548)
(0.610848408151495881 -0.296699614424839775 -0.0553645322566427359)
(0.607923357923791707 -0.272220203984001707 -0.0560606102611542062)
(0.622383751397274199 -0.278475584887927674 -0.0566900433989939931)
(0.772049825910845477 -0.297701861596094741 -0.088823613172952523)
(0.713859913737070806 -0.318751622787871169 -0.0730454107487375909)
(0.707691379555014266 -0.29052819287565651 -0.0742939258152025689)
(0.727741307033549001 -0.299766680348633963 -0.0750785332543042333)
(0.882562256683107282 -0.302842294018564773 -0.121275352584865104)
(0.823561663942508404 -0.325642318940201403 -0.0983499655135329914)
(0.811232527489591626 -0.293170593932153334 -0.100105761589946385)
(0.84037487525899468 -0.308216372235660896 -0.101669220761795714)
(1.00665055202113973 -0.305896249842570134 -0.166607767187197497)
(0.940271932541469124 -0.334453617184928054 -0.133998329318786413)
(0.91795762179722673 -0.2950823442484104 -0.13685504449648378)
(0.959151456284416115 -0.316170019442265082 -0.140115607329064945)
(1.13025647538494156 -0.266963347982736798 -0.248038274346218668)
(1.07245294512191047 -0.336500357011375262 -0.182842299193811036)
(1.03274198168448317 -0.290756046416343228 -0.187279435818270446)
(1.10131786774041363 -0.322466206860788251 -0.193423430533463114)