/*--------------------------------*- C++ -*----------------------------------*\
| =========                 |                                                 |
| \\      /  F ield         | OpenFOAM: The Open Source CFD Toolbox           |
|  \\    /   O peration     | Version:  2206                                  |
|   \\  /    A nd           | Website:  www.openfoam.com                      |
|    \\/     M anipulation  |                                                 |
\*---------------------------------------------------------------------------*/
FoamFile
{
    version     2.0;
    format      ascii;
    arch        "LSB;label=32;scalar=64";
    class       volScalarField;
    location    "0.119999999999999996";
    object      p_rgh;
}
// * * * * * * * * * * * * * * * * * * * * * * * * * * * * * * * * * * * * * //

dimensions      [1 -1 -2 0 0 0 0];

internalField   nonuniform List<scalar> 
7248
(
13.1354618322939416
165.255066370242957
2.63710767560699066
9.66435309391967756
203.159361644396228
0.908720405969047795
0.799506564986002588
0.553497600720362692
3.07855611335551105
176.099525024938089
1.11180490926539144
0.282352156284911393
0.122681465221050473
3.93942227743259688
150.823150562758258
2.27520525554099784
1.31567730469750788
2.82797649766584369
13.6874392439928929
10.3350813166858142
0.923086514766720323
0.197628814220393467
2.4874422809069725
23.2770330663787988
-1.38127151265332482
-1.19753144681437163
-0.704034379490950379
3.68888308300492662
9.59379530488722487
-1.21317932313038601
-1.0817584991757474
-0.787000839716779699
0.703065760238022697
2.25748815967114957
-0.934525198628180065
-0.821012988254021581
-0.639203543728899315
0.0953085296444303454
0.784475073955142821
-0.631573738049529321
-0.546406748421927491
-0.415171624379307824
-0.167930571451421567
0.165877874021866711
-0.429551307252456049
-0.362630231566534844
-0.268881712664949535
-0.144823772866956274
0.00609507426575239125
-0.288717611236640581
-0.241359104465829921
-0.175929676490415077
-0.0968081637392431277
-0.0113489816286093601
-0.233855278133400263
-0.220274614851057676
-0.196529995355412379
-0.160748138790833661
-0.114963259014302766
-0.0626017294395718321
-0.00890389456973505154
-0.165793769029390137
-0.150463763519427474
-0.129972006514208011
-0.103698864138435626
-0.0726709044629583328
-0.038989391536722498
-0.00565320373427018619
-0.107009345623721705
-0.0937296260414685611
-0.078257827358595905
-0.0605626621671421436
-0.0412640466229831707
-0.0214960176778041245
-0.00270412623146249137
-0.0551425442630488483
-0.0452495010292722488
-0.0352818339211019225
-0.0254750053173356354
-0.0161860500546945271
-0.00783279385055129888
-0.000802823913403031631
19.7476222467969471
75.9032100651078139
5.04574281113903833
14.6886846444748933
293.260318941275614
0.986990112446291201
0.697827296764742311
0.828561852784242214
4.20674524739207811
279.510157592905784
1.05741835205110402
0.208328528105971883
-0.118705523315813133
0.833552379331454762
130.912513741827325
2.12667287530530924
1.35020100477991578
2.18207531008088118
9.03791772173162578
16.0446855628172003
2.87724731035421133
1.54519301271841814
9.16505543551084934
32.2260383966820783
-0.854739508340231713
-1.0021707245916327
-0.499836790216755922
9.82851166951869892
16.733694306897867
-1.17850184696032345
-1.13270382950209259
-0.828195844611873899
0.396039790736957331
2.40238357174293604
-1.01903161487328142
-0.887525643883300908
-0.687473500877720634
-0.069410078065213876
0.894798868851219731
-0.69538862790547018
-0.581485654200554203
-0.44134521256543513
-0.174995078170661372
0.22230488635179943
-0.436750216216259424
-0.371802019297345188
-0.275811796379410556
-0.144724324596088555
0.0234881420697897851
-0.29011227862157063
-0.242653791016945536
-0.174746348512671984
-0.0903852209187935435
0.0038966768443069056
-0.195999291642988127
-0.159103548249869192
-0.111056796479976877
-0.0550840843551540574
0.00338335563104690375
-0.128833702688017054
-0.101476639695764301
-0.0687921100669522806
-0.0328878762761163901
0.00302901448217050969
-0.0771788162625959978
-0.0587949024438123163
-0.038557252244397662
-0.017641860079423935
0.00237682573004985732
-0.0346565524236937886
-0.0246314942769243379
-0.0150629026934152466
-0.00639971257091185262
0.000924127148772323301
26.436030459353848
19.7015525197172359
7.74514720554741309
17.3773751384992678
574.43116342743906
1.17396893173317873
1.39286290192566709
3.12458598640187191
7.32519704354488344
390.091414707379784
1.26035636610563362
0.991487023040988014
0.961516101318133587
2.40166786298906043
66.1918160471556831
4.7894001868895284
1.8361453422539975
2.3695231181430465
7.6636369447082151
0.887645550017058693
-0.770980182196121633
-0.181365914799050759
12.7576862622618581
34.4124739016371493
-0.23527706165849277
-1.34921235072496692
-1.0845758885426684
0.370597406389972406
15.0659460985876841
-1.16910185301719549
-1.21361786939296179
-1.0510330860079673
-0.774067858835375544
0.0221441081858268912
-0.925893834578728425
-0.886724535998180907
-0.763283811576527804
-0.551780220729131243
-0.135993989614620087
-0.666738890564733899
-0.588772598473676023
-0.471500683261838027
-0.308829630446234515
0.0349795285302852421
-0.439918590923871866
-0.378803501659328745
-0.285783250352148188
-0.159645000417512173
0.0250456884859584852
-0.292246770947095835
-0.243705267738898779
-0.173968295804404177
-0.0858307238488908719
0.0168430781445401551
-0.195997131817089332
-0.157529626145150342
-0.10719109020810122
-0.0479033374105229531
0.0151482333719299717
-0.127795575372216891
-0.0992078461469361184
-0.0649234379040178056
-0.0268899056084774997
0.0115908814411603764
-0.0761518759293506181
-0.0570454203784212729
-0.0358849790591934531
-0.0138503924889957549
0.0073903509893103389
-0.0340925127016528315
-0.0238306085275819986
-0.0139769421802791883
-0.00500509607272756844
0.00261497987746138472
34.5964916180707789
17.07051728014617
12.6263820716250503
19.3630477835081507
697.043936596727008
7.36222905188758503
4.35481892548731597
7.30124198841026306
12.7270823757514275
471.486728150811814
44.405889948496224
2.87561585436721767
3.79603346373606509
6.86242807609579852
35.0214379856030931
75.9448927352931378
6.41815872185420311
4.76337814704048679
7.01508857270476227
-1.34376616510940083
0.00069389006682571083
-0.864065316225879565
9.72732907068031238
19.1286813876554405
-1.25435975222506668
-1.57027889748663618
-1.3121505890978844
-0.167319925357593102
17.2175349598606005
-1.22676057036553821
-1.26608553302718674
-1.09882013232188114
-0.763584821621637877
0.678366122077689093
-0.935652933939222775
-0.888169833881877535
-0.76020241031443736
-0.520020959358982071
0.252964576676152242
-0.642596668479357036
-0.582204449936595592
-0.480266313018367419
-0.312838595975138856
0.370333622011560726
-0.432939053825630527
-0.378476988305720852
-0.288318014420610336
-0.160300972218097165
0.12426502891474954
-0.290701465396200009
-0.242053050039778922
-0.171550695352852223
-0.0795342458852605627
0.0390141407989623989
-0.194937358187551119
-0.155094959275981659
-0.10304816164086586
-0.0407260294465994002
0.0274016053945897314
-0.12666542099108824
-0.0969456273770607502
-0.0611554987170748673
-0.021133168079326449
0.0198756596617464011
-0.0752120286248815911
-0.0553789362720388742
-0.0333485803689168997
-0.0102630995916191351
0.0121562126251038606
-0.0336100055677033341
-0.0231032456914898633
-0.012972168871009564
-0.00370713248540969608
0.00419050802175554085
43.6104683984795756
21.4362571198980021
17.3821655742073098
22.1675422420161361
350.202199272977225
15.4430722006276486
12.4323715263228962
9.54788997116440186
14.7647583425892499
190.727710606787099
9.55745458221386279
6.56699178837682673
6.0842795371045808
9.98473885128474947
5.75236820069174204
3.77331286747158678
4.38510545072936608
6.7499036396048373
7.99370497392381552
-1.71547452724875371
3.02841154253545586
4.68369727895403365
6.88768856230620052
10.6967241430003828
-1.41215584316771881
0.292274839485697491
0.531780084244152684
2.53294464755600535
10.7485543626834499
-1.10314845499901448
-1.17473148817289386
-1.05021440072186656
-0.644759059656848876
3.86758038040261187
-0.893889254312451365
-0.859537827655148967
-0.71919468693081412
-0.26040723006918931
1.96011024633944109
-0.628543074573461591
-0.57904305631620745
-0.478239308207881797
-0.00622685960319421198
0.751484191619236852
-0.427716678409174655
-0.375940037121855586
-0.289070521829198235
-0.0933022559831331866
0.214838192032704156
-0.288536091922149573
-0.239652517520255348
-0.168864396503059594
-0.0682988381568070263
0.0661979840712443313
-0.193554750029314021
-0.152596932933477286
-0.0991485935436786231
-0.0339660139718288984
0.0395031306829815021
-0.125495906718074562
-0.0947513701488929411
-0.0577506714281306663
-0.016006333729862262
0.0273270851522750442
-0.0743464747732395376
-0.0538915285143839878
-0.0311032948115687255
-0.00710369889892237
0.0163625342302646179
-0.0332149286210357692
-0.0224841228944875626
-0.0121020346219413658
-0.00257765549497271157
0.00556682106293426154
51.1753707155161379
29.3321084702638508
22.5661443562739059
25.4793880124238825
496.292246111864188
18.0890384628481264
14.1201945079173328
13.0329968639876608
20.7463351088028922
339.120150195349424
11.1461121380619002
6.57785362321720335
7.67290830283791614
14.6002364618650446
3.20626427600687558
-1.25636180752767745
2.91262636292279531
4.90220088697261058
8.22288620981194995
-1.75703523380478721
-1.06595300926091796
10.2250152350404289
3.70044928699708464
7.13690507464431345
-1.47282262639363659
-0.247637406223894296
3.42928244796202897
3.87357411028387455
6.90474317553235473
-1.06000039905835997
-0.859587688443188114
-0.741027872203612881
0.531903413228714261
4.63973200664300123
-0.874207862333507002
-0.835852470164687777
-0.659923239369139103
-0.152311266916479976
2.18260632886038008
-0.615440580441572682
-0.576452265886567727
-0.476462383174705961
-0.0921686583511127783
0.859176914278826254
-0.423588169030808037
-0.374606769464491507
-0.2908241809917399
-0.0801518888040881478
0.259861159066605507
-0.28683125425614292
-0.238031518322489699
-0.167452667257463328
-0.0626998249539805902
0.0845459125625384333
-0.192302470346395582
-0.150621831982589216
-0.0963551196923504161
-0.0293368999738008243
0.0481540062835730323
-0.124493446285616288
-0.0929988828999611244
-0.0551313800733469542
-0.0121411576797520564
0.0329578400507694741
-0.0736349651424043627
-0.0526865446760871603
-0.0293331140401446172
-0.0046409303005831579
0.0196333992826159542
-0.0329075839280006874
-0.0219990135157428074
-0.0114199814675882069
-0.00169273139200114796
0.00664513659662319817
63.1388595191402828
162.067496353825106
28.8830408007319903
35.3704603608826176
326.212412349631279
16.1146085782852815
13.4486173744987454
17.9227564801175987
31.9078985158224029
132.362997202720351
3.29120114806507713
3.19608200818804189
7.94422452674339308
20.4708806242966297
8.32795402469398205
-1.73925536646129952
-0.231076889863100321
2.31865488454602486
8.58194264249303451
-1.83327358491440706
-1.97715956898774081
0.633869252487481716
0.870206458182857023
5.37279243575173826
-1.51072835421909857
-1.53804424493387559
0.290769207603536695
1.88432783525961445
4.68182295137110671
-1.15317418521576309
-1.14297904279012275
-0.703839367259940674
0.538481945290500863
3.09936035545515631
-0.876353386497929043
-0.848417070780482563
-0.701513761784495316
-0.292112256064294196
1.70960423598292599
-0.610466247991559463
-0.581778014486873052
-0.498289549772995777
-0.164636121041969147
0.730606066350465988
-0.419824152140402029
-0.375049575699578863
-0.297364016524359731
-0.106459285472859488
0.206556251311861505
-0.285553529342814694
-0.237442267783345318
-0.168140856490565871
-0.0661474328008374995
0.076450239224571101
-0.191415354365155055
-0.149459404756104447
-0.0950116911528409575
-0.0275956161716730541
0.050732541585153168
-0.123788646270955982
-0.0918538064970769036
-0.053513189129837338
-0.00987145256587034815
0.0361265721684954494
-0.0731394056740033993
-0.0518698247885286332
-0.0281594748117644199
-0.00304236450911891942
0.0217251265186725814
-0.0327025277468766945
-0.0216717645331634262
-0.0109619415073470578
-0.00110247518261431528
0.00736024934402887236
81.3506712234614753
189.703041367515453
38.6385651196450013
30.2415267454648884
489.598857757226028
24.6814117159476396
23.1616913835368443
23.8369875619488774
44.5453025556869306
353.490264342678415
17.3016699967656109
11.7274197714040032
15.1489934097008145
35.8816985378136479
20.974833905268266
15.4830530726243651
-0.0621029745329014643
4.9234524292233246
19.0180776743204234
-1.80440357066544599
-1.38675755052489946
-1.08793341764312768
1.0319782745630548
5.3467425420009338
-1.4922586420693531
-1.44366148724939047
-1.12149161000730602
0.0790032804298865798
1.75242848760002556
-1.13741881865836758
-1.18923290163109718
-0.998146975081263599
-0.305786255271967677
1.46094891050894216
-0.87315363857734074
-0.8690480848147768
-0.779415565290609624
-0.527162123026510554
1.0753338093385727
-0.61199724594642313
-0.588699271701563109
-0.525798032496574086
-0.315672146077748461
0.274350217644131644
-0.41798220405030273
-0.37592678304305932
-0.304183403393735674
-0.187097117306890659
0.14731550071270702
-0.284717663697758694
-0.237425762162550735
-0.169487015596582663
-0.0763169559968145672
0.0620213393758884818
-0.190988940811916474
-0.149018465128699401
-0.0947214404160837825
-0.0277752733731995265
0.0494797203979200767
-0.123442126089460397
-0.0913207580732503799
-0.052819558476260367
-0.00898702426905997886
0.0372270891214956379
-0.0728898016965085493
-0.0514670343909099659
-0.0275938400003629611
-0.00229412143855310885
0.0226795528999248729
-0.032604453342761637
-0.0215121442468551825
-0.0107384124808288395
-0.000814893609594608535
0.00770640612784558032
2.69753618692068908
1.06129993516058674
1.33508647035609118
0.668355959912449671
549.726491625589347
16.2384846145021307
10.5610099421466757
5.89186014599170171
0.323269308127494881
374.030636896887586
16.8714452785939137
7.95371543094163069
9.39088344841333722
1.7876597075367493
13.7932874626795403
2.38022171514481595
-0.144610307643132957
-0.100360158356695289
1.59992677237328818
-0.538393560720527131
0.234822088455131667
-0.0142313661229663373
-0.151193467696496942
0.0100254343158797041
6.8430392660877768
9.16066436759516201
9.57530535348939793
1.3597778244354537
-0.300612703726443498
1.51159105753276868
3.07913177743071653
2.6888867017697704
-0.0344669163310084431
-0.3035097710246214
-0.701069814097068478
-0.670316510256614539
-0.566622596670000256
-0.412424838400241744
-0.282566988287054122
-0.511285423156034091
-0.45283917981993832
-0.37180294394449942
-0.289688645171932435
-0.207859916814437273
-0.381939487205317618
-0.333468991086944833
-0.274700535427717996
-0.212200283238728776
-0.151934412012945663
-0.279476535174053242
-0.243071316507038504
-0.199827778735575723
-0.154801090832360877
-0.110757687894233042
-0.24309729790469195
-0.225190571669751372
-0.201745344559519008
-0.17354953471873491
-0.141968039493960779
-0.109454262293700727
-0.0779461784571054694
-0.171971855655320582
-0.156703429773426745
-0.138334706935043295
-0.117505878497353361
-0.0951720502884935426
-0.0726385419424895457
-0.0511851544976928072
-0.111581137890172918
-0.0991356508577078965
-0.0854379379450642962
-0.0709480787338109403
-0.0562590026607976967
-0.0419973085480959615
-0.028897710187712429
-0.0583475485713447067
-0.048726053999505553
-0.0393165932014016631
-0.030454721697799586
-0.0224420203431213612
-0.0155009366619987803
-0.00982561269741042721
1.29932813438639516
0.7419249593605306
0.771786148557366491
0.744643977400814894
426.778137965139649
11.343013169298553
2.17816510847958655
0.927539464425560789
0.162936143796948568
387.776245181377817
9.76575703554709484
2.03052756208968477
0.290573920489353543
0.0301720830016392917
7.42339823219895933
6.85824394053872677
-0.581219217616381956
0.449247802555667319
-0.185582240367076851
-1.22310150151002262
-1.19948361938781645
-0.317891816717501829
0.556837810421841106
-0.469033684789708971
-1.34669001415013789
-1.18476145026371582
-0.955785820009253384
-0.469441404894006653
-0.392799828619114444
-0.851680036058587664
-0.954666904192774002
-0.654459864755440601
-0.486185970210455953
-0.352015535285613634
-0.683152494972039004
-0.63844557829475268
-0.542468030745908325
-0.409195941821409503
-0.278820960308016896
-0.51425522339160723
-0.454912802075101041
-0.375010064367009011
-0.287374594613820977
-0.202725847964727618
-0.380616241090199925
-0.332488859606365372
-0.273653050765951589
-0.210467860269352963
-0.148273185891785869
-0.279437142628725654
-0.241923186914404981
-0.198465394699377129
-0.152620565037472233
-0.107688570811567949
-0.243036346829512001
-0.224889922463423125
-0.201098745739574508
-0.17251921430997863
-0.140680939094881219
-0.107681670139806396
-0.0756744507494981483
-0.171792239408646213
-0.156352192239388593
-0.137797182978104754
-0.116755669876950116
-0.0942178227278019503
-0.0714401944911017273
-0.0496896666750095764
-0.111366393825707802
-0.0988395199876021396
-0.0850493343149748698
-0.0704465880621635843
-0.0556337037425564535
-0.0412810972135202112
-0.0280434748598942657
-0.0582464288409648562
-0.0485930154382821569
-0.0391455699858413581
-0.0302405321233914608
-0.0221885562486146513
-0.0152328955631859438
-0.00953056668199069382
0.929822380626039835
0.427607469307342392
0.19760122814116024
0.287888587586379474
305.743160138469932
7.98825269585241227
2.3137487754867414
2.24295076770822144
0.305071718500910638
151.256090554275801
7.93997941990581957
3.66403405358643175
4.01252993910591371
0.229687189102970479
24.6403965178132083
-1.43884828991971503
-0.139357046994072226
2.05242908414907621
1.41539407070051571
-1.28495235766777127
-1.2974032043842787
0.23086081535196129
1.15009705029497877
0.810944919300294886
-1.04559375680670597
-0.907235233393227314
-0.580147577425903505
-0.446589132626652119
-0.221661805631588521
-0.847277375948781608
-0.74703311708210085
-0.684081374209611126
-0.532626451580754612
-0.353998658447899961
-0.671510771213804092
-0.612458314652242208
-0.523964652987605417
-0.39212205560281288
-0.261196640779869371
-0.500120711171097687
-0.442751519376316072
-0.370155025680005079
-0.281223317116808535
-0.190886256962899292
-0.376044514259586238
-0.328014320948008808
-0.269632163233824107
-0.204565786061241012
-0.139597473757445384
-0.27753171954299144
-0.239591680782171162
-0.19542956788329055
-0.14803337512699391
-0.101299824307594821
-0.242154866529331519
-0.223878068866838226
-0.199842299219169323
-0.170830874442582409
-0.138294283575527477
-0.104299141326141598
-0.071222839721008846
-0.171273152188256728
-0.155680401823143161
-0.136908394042800835
-0.115519200673464301
-0.092497386457402811
-0.0691251285859369319
-0.0467563604718971015
-0.111003456346992962
-0.0983642795171503076
-0.08443184468608321
-0.0696261747630272931
-0.0545506923917890713
-0.0399037246653918126
-0.0263638897192641879
-0.0580365142411847987
-0.0483414003061895664
-0.0388433213431671615
-0.0298748668233851794
-0.0217500444961547593
-0.0147217998679352834
-0.00894929699893377666
3.25181952869443114
0.701118158693058713
0.514518197197105454
0.287303899606379809
556.135067161635106
13.6475731620424341
2.80821579386886899
0.305691009651961165
0.265731778582927569
295.590784469081484
5.27105642962995713
2.35026323707079632
1.62776903561340047
0.294731479913501626
19.1065552834567818
-1.59708583327704412
0.159344427202121414
4.0770549686787243
1.3262397453854462
-1.51256331290064061
-1.15452827961429039
-0.1528013478774366
4.85534002959859379
0.826943613679017031
-1.16386028372174444
-0.957865756152355918
-0.401953126687239648
-0.222533657401556201
0.00576704131183679129
-0.862288447139912817
-0.804935063028587972
-0.697856012920877622
-0.522058577277198954
-0.336930902558867318
-0.672923084242913028
-0.61159141140890072
-0.518997352626883512
-0.380033049527615185
-0.235740911963864402
-0.501281285066134341
-0.441722617197375933
-0.365914048662418501
-0.271492852445889443
-0.172308315124935219
-0.375917972571780556
-0.32630119323213469
-0.2652187812977429
-0.19609480828727191
-0.126176438859267631
-0.276295467955776419
-0.237455109504972173
-0.191492771611782686
-0.14143339469580124
-0.0917323582390709574
-0.240985839559385656
-0.222804057144005641
-0.198536081627296718
-0.168805644190791887
-0.135051723387166228
-0.0994299121365843502
-0.0646152067277526027
-0.170515249029333155
-0.154812087720580777
-0.13577941841535579
-0.113882063204781281
-0.090097273676096129
-0.0657780598315284432
-0.0424404600179738023
-0.110492073539931832
-0.0977307087812885056
-0.0836125924662518144
-0.0685121401403362834
-0.0530316116227490669
-0.0379100859014526309
-0.0238955255272778055
-0.0577219736540387843
-0.0479811620584362844
-0.0384217540028163398
-0.0293661702697978096
-0.0211302054008694305
-0.0139804457792145013
-0.00809472353698278274
6.56620168075352506
3.29298301727303677
2.94963415506166537
0.511831617394710947
386.068865984817819
13.6599553784479841
4.13192404277947301
2.21179304463634585
0.606864736699226803
150.093059813588923
2.50084590768027581
4.09285829118041988
0.971379011480996479
0.736910825935937153
3.77577494230481303
-0.452749797247808894
6.17831077173825705
2.30085161604410615
0.842142926194685337
-1.63323721890921281
-0.732780835723685464
5.28439153138751916
6.96912446711866451
0.885544196636066427
-1.24660275910377671
-0.805301299897179912
0.0674150920040188367
1.53484227487497438
-0.0974020231075367893
-0.892696709374469877
-0.871183712426288226
-0.759601657835924815
-0.517525458090552948
-0.249649028147546637
-0.686923503797356561
-0.623615149695339377
-0.520551854930116242
-0.362622020146239121
-0.198257058601262609
-0.50899261929877615
-0.447634541956554499
-0.364821919624332636
-0.260218693334424989
-0.146942447821708955
-0.377908149456799292
-0.326881276224145589
-0.261458306156560905
-0.185963789077924019
-0.108484686573078248
-0.275912743817078809
-0.235899624757861331
-0.187219432983115081
-0.133266362969191615
-0.0792648635250496336
-0.23957633241978632
-0.221788551487751839
-0.197393295899820825
-0.166723179511381908
-0.131234409552895309
-0.0933102034716358775
-0.0560507207258066908
-0.169593674376487702
-0.153855669111499227
-0.134545408858777665
-0.111987711830248138
-0.0871581734942936531
-0.0615320173536785045
-0.0368520689918427138
-0.109852087411981228
-0.0969788749468343397
-0.0826455784518135839
-0.0671642151112921415
-0.0511377934570253143
-0.0353652844644309003
-0.020698537826190723
-0.0573062837157846602
-0.0475234371524942967
-0.0378965959739170216
-0.0287317832046708778
-0.020347388360846437
-0.013030569609891917
-0.00698903447171627269
4.40646623397904946
9.31382957458070493
1.87587534905554598
2.87562505046318417
611.78218182617195
11.6177462106083134
1.43500662925516442
1.40728519593929668
2.36373177944239599
370.138016566529927
14.9305616841065163
2.63972959721100464
1.42274087992535825
1.19600968667222674
1.31382363297098981
10.2367653247432671
3.98649995619491859
1.83676034066201388
1.10844567669915417
-1.6269095060757377
2.16775759470554297
14.2805851343742223
4.19862553556597273
0.913516919444990583
-1.32694163839532453
0.170899292845769352
1.16654460526084547
2.29312204205025472
0.643043306990750629
-0.939998551399891746
-0.909760095674154612
-0.773091135587037459
-0.458044241572990951
-0.0254243719183139642
-0.719057070127184006
-0.644241868523565797
-0.529385750094929608
-0.339214980755156159
-0.134573576593927796
-0.524833760844987673
-0.458959322497280608
-0.366610450351954997
-0.247877936284066347
-0.114200173138904668
-0.383699363071885902
-0.330114842299231659
-0.258852700311517581
-0.174768230906726052
-0.0867260100989201282
-0.27710924254711311
-0.235457996252707524
-0.183134678939968654
-0.124028998065072629
-0.0642340316568520281
-0.238191613552473341
-0.221139413014453584
-0.196665662100863919
-0.164828063554721183
-0.127121274897996628
-0.0862236462115626712
-0.0457720392856136929
-0.168597380475350417
-0.152919563918233636
-0.133325079330218949
-0.109967993050977042
-0.0838315836197640191
-0.0565487218528243837
-0.030148717488733795
-0.109121215554287471
-0.0961578500454634416
-0.0815876034743300282
-0.0656469568933588932
-0.0489425179692441481
-0.0323514968585212684
-0.016859345302750902
-0.0568023511581332713
-0.0469876285575175912
-0.0372899652052163522
-0.02799573362545189
-0.0194280358263686989
-0.0119014327346667111
-0.00566286235870420811
3.2223721102702596
11.856349173883526
1.45729708142162173
2.13145323284321453
409.182653659919424
0.460186443959385516
0.874811152113482704
0.99234977332008234
1.79222300732452111
240.07696907027983
1.57196580645046979
1.02585726559289792
0.730220360106660915
2.90946371869289155
30.4061451695502356
3.69068732963161805
2.18195811667776107
1.58896073607826582
2.90205948990419893
-1.47239544793317401
8.30346441510481448
11.1831226734147311
3.01133380682233254
3.31777941931139564
-1.32767513342916965
1.18695184544274634
2.38410731290487021
2.2711353833749417
2.77643682421523819
-1.01060216352003929
-0.930976939818003002
-0.775554652274342948
-0.178890577885483293
0.379796056828271444
-0.769105137206505085
-0.680679558919752847
-0.547738226988179533
-0.291988798239751379
-0.00657666847833373366
-0.549344844700308532
-0.478091555724822037
-0.374877265432173534
-0.233726257451352004
-0.0679156554994646833
-0.394164723525101179
-0.337479719830543257
-0.259055089390306414
-0.163692421586961484
-0.0610868742536756076
-0.280018615693758244
-0.236491928071727336
-0.179817508637830886
-0.114387246661583258
-0.0472220887981669515
-0.236940614256035603
-0.220894320502766528
-0.196460399755603643
-0.163295242976420507
-0.122975904593893778
-0.0785066548094203037
-0.0341328012582913856
-0.167583071531831246
-0.152053478530609104
-0.132179611593161772
-0.107912776537834418
-0.0802519790249812542
-0.0510070798962557262
-0.0225329823935388578
-0.108351838573794337
-0.0953148003270202354
-0.0804861591897357148
-0.0640171282340083608
-0.0465204374229315973
-0.0289635672724891033
-0.0124864642494602555
-0.0562388972665138417
-0.0464024613952639178
-0.0366298357505619177
-0.0271867269934328235
-0.018404075695196951
-0.0106294468702431734
-0.00415575052017266508
7.15731331455316688
51.9828296807197958
1.84746730751951405
4.48269251789129264
485.146189505939049
0.787182037132038159
0.860184946589932276
0.768389902707905192
1.35626644181075862
380.391891290053536
2.30381254140680714
0.488246908849089778
0.8954390187607284
3.54767542139925895
103.300343350565569
22.1031950292746764
1.51594315274543256
3.29515775561013013
12.9518096890837864
-1.74239185078220693
4.76045659179807235
-0.211170318917187738
6.35824818572709294
17.1763570329024908
-1.44180395642367509
-0.698963965485812966
-0.643846865611212626
4.01001540299529502
6.36949733359586023
-1.11435330657474663
-1.00247947460237374
-0.811944395373956018
0.0717826628900517794
0.825215669083585124
-0.844695239323441149
-0.742279594760428929
-0.588364484680482969
-0.1615265200215599
0.293426869219840847
-0.589410450162261235
-0.5082228690607411
-0.391450332845427962
-0.208514475574618691
0.0210364763303343173
-0.40975130666602011
-0.348950431697832741
-0.262647570182388435
-0.153694635198296126
-0.0303565805580792783
-0.284350707546226156
-0.238791213171008571
-0.177482932788650405
-0.10509319775757231
-0.0291485170715228316
-0.235663018669886259
-0.220824645280747356
-0.196585501741686597
-0.162041333437720286
-0.118924856532498638
-0.0705131481139393973
-0.0216276809164853076
-0.166620971477420915
-0.151245656769590592
-0.13108657611732602
-0.105836660168144872
-0.0765105471095526013
-0.0450876774308005268
-0.0142652196066578325
-0.107618838013319784
-0.0944902370210312786
-0.0793697919434877414
-0.0623133482242731393
-0.043939407239212018
-0.025306708013482726
-0.00771700902267520757
-0.0556654343292906223
-0.0458077268724632752
-0.0359490339199638256
-0.0263360789826279432
-0.0173111168862766854
-0.00925729526502478729
-0.00251640698340688642
8.48140587376320987
9.73679444397708416
5.97148611147347985
7.65086088124629349
2.64187114012763091
4.06576553670194407
5.74189977703280796
1.25233009145652874
1.38996903886109369
2.32381583937909619
3.73418546932640938
11.5501478691152428
12.3862147621769818
8.47901202969235435
9.47123166932605365
3.61508898456112826
5.9447705542144833
7.38450502655392338
1.10202740803481647
1.6292521177908621
3.72435467818989041
5.43619996298149477
14.6197454947773
20.0272842349986036
11.0215396095997988
17.73541724413192
6.08228149969732712
8.09274707915920288
17.8160630621220868
1.4027278483422676
3.2989073141130687
6.25481052640382007
18.9497584287586278
45.8868338148255717
61.6968773681648415
34.9162669900201053
57.511794848080477
10.0553393441530385
35.207328515135913
53.7053367215416912
3.83911739322767964
7.43709765382329557
38.8822934187533349
49.1593750656515951
86.0493759391768407
54.2496449633750615
79.9597415059667043
52.5356023469227651
66.8445365867897721
73.307037633442178
50.9491531554157717
10.6353501039640488
62.7571981580695706
66.7103020548566263
46.1414290605440485
-0.960108619812926611
-2.45597128944616605
13.6572481889434236
-2.40505278275149292
101.295349060231501
32.4722549963868445
-2.42802160183530269
57.9301967087310246
95.4157392044772763
33.7094194402111356
-2.24083769771058883
-4.01408697016344274
-3.44979781057219004
-3.83648154358274596
-3.34525836694487566
1.46102893092781105
-3.47762824134109083
-3.26420268185267037
127.055431137066563
9.18393833790785585
-3.47433002731535545
-3.20108489353904435
-4.07533966026897954
-3.53461777053431492
-4.06595339747632423
-3.41151929909733465
-4.25364133817805712
-3.86147733114890102
-3.25521349389567627
-4.46340460476089174
-4.23253449240792801
-3.64679276293245902
-3.08895219189267412
0.960074501160170013
0.98781940582920913
1.36932369002445786
2.11044495316130298
0.694361537152609398
0.827596027057541983
0.906498680019665715
1.0828589817211085
0.4096579150399981
0.551599154496123512
0.663517903179888124
0.636638476242087137
0.117434664463667765