/*--------------------------------*- C++ -*----------------------------------*\
| =========                 |                                                 |
| \\      /  F ield         | OpenFOAM: The Open Source CFD Toolbox           |
|  \\    /   O peration     | Version:  2206                                  |
|   \\  /    A nd           | Website:  www.openfoam.com                      |
|    \\/     M anipulation  |                                                 |
\*---------------------------------------------------------------------------*/
FoamFile
{
    version     2.0;
    format      ascii;
    arch        "LSB;label=32;scalar=64";
    class       volScalarField;
    location    "0.119999999999999996";
    object      rAU;
}
// * * * * * * * * * * * * * * * * * * * * * * * * * * * * * * * * * * * * * //

dimensions      [-1 3 1 0 0 0 0];

internalField   nonuniform List<scalar> 
7248
(
0.000982887410632959924
0.00017057853962919504
0.00216333106059504081
0.000565404656780973611
0.000183450739243429153
0.00797031721076599253
0.0106381540324772678
0.00434227839931865343
0.000883408229301890107
0.000269891183262483119
0.00655485371620520476
0.00755719881201099251
0.00612245702868605308
0.00130455257291106456
0.000377613483621047727
0.00516347037861088296
0.00480670537258442131
0.00409223849101447885
0.00189705064516071322
0.00258504843029677689
0.00659229341317365929
0.00586485727005128278
0.00513515533904485358
0.00262211025562278204
0.0106334480387619834
0.0097579230757487475
0.00807729790428827511
0.00626764555649674676
0.00477255859100393035
0.0142180297437944133
0.0123446576357864029
0.0105719647914097447
0.0094390073980174221
0.00843106322153004684
0.0173602841434301949
0.0154408596708027375
0.0144916003893921699
0.0137170075042988247
0.0127765837182550242
0.0197398887454422328
0.0186518120499648068
0.0182904530311418824
0.0180413136729703598
0.0168837048156264026
0.0204208349723659088
0.0202161760364143323
0.0202128143119236665
0.0204818422289165872
0.0202342978269835702
0.0213625474619633764
0.0214558371603917782
0.0216880688658766217
0.022168427897252433
0.0226029036907245302
0.0216797075612079129
0.0220240355637656288
0.0223276824763276732
0.0226456464320079452
0.0230558363960644171
0.0236237721720579455
0.0243758570403918122
0.0225230358468445913
0.0229433338229890309
0.0233732828464684322
0.0238379536785658444
0.0243692978593174278
0.0249995356564757208
0.0257509231507047319
0.0234509520365659488
0.0239374626962263228
0.0244699941438735434
0.0250505778939215766
0.0256827899473784926
0.0263709319349173139
0.0271113759361523397
0.0191532527780221007
0.020087368963960666
0.0211900129609167431
0.0224820564592844718
0.0239763746992039568
0.025665082310452246
0.0275130001261328118
0.000741445564046255964
0.000207175857107232825
0.00149349716825912331
0.000429638157245061029
0.000129197120500308926
0.00764442657793912468
0.00885130052563342165
0.00343555192142247501
0.000667935514434518131
0.000165495948922841603
0.00680958058905718842
0.00809105586915926517
0.0061744535640513732
0.00100780276306907876
0.000379207670821019125
0.00515925354715225833
0.00493880341457892703
0.00436835964012873348
0.00148562661092976303
0.00228962428499322138
0.00450249330958992725
0.00453818657014953917
0.00391333665940300085
0.00189365663299885197
0.00616182878742754011
0.00705539287264613391
0.00634664294459180364
0.00438591083545634627
0.0034003420523238681
0.00904065142173844476
0.0105093767652409808
0.00942547672414704302
0.00862671328909744503
0.00819222063693671523
0.0139263739166041577
0.0141176570854027409
0.0134178175783061134
0.0125169373954003085
0.0121178912667015935
0.0194759693608292164
0.0178159611058878731
0.0177039980810223506
0.0173594622395226508
0.0165267465804126885
0.0213929478599400799
0.0202619697392568791
0.0202215504947226982
0.0202477581422143109
0.0199239981792921003
0.0216639763302457732
0.0215790898213039199
0.0216776740495785748
0.0220502228872871096
0.0222778496626376589
0.0224924002314885636
0.0227079169984086109
0.0230504528063900545
0.0235797357128169523
0.0242204623716632435
0.0234500230075780809
0.023878341534946855
0.0243846890303112615
0.0250056225153368859
0.0257698399941898929
0.024519830406062218
0.0250903744949450766
0.0257172720516956367
0.0264105659989831917
0.0271661817182269512
0.0212510770544138312
0.0225621964209268694
0.0240881015083346701
0.0258242400446743112
0.0277351540572833496
0.000588376809552242021
0.000237999391350589436
0.00116986467999036898
0.000351163979202423016
6.60026539448931867e-05
0.0043889282300914427
0.00602237073064017768
0.00276541435280852708
0.000539760797008225933
0.000101982423363720207
0.00573071298521416698
0.00721690910805876992
0.0050696714660985057
0.00079779183839885691
0.000438785934545388092
0.00477504307974872463
0.00524683886032627743
0.00412914779059756799
0.00123252440653729323
0.00428068962069748111
0.00497830304364409518
0.00449884704600983249
0.00304973448612344674
0.00181462699818094693
0.00786701904130372894
0.00831070681840536882
0.00740717422588154945
0.0056798001071276796
0.0036018372889153466
0.0118787109824536694
0.011409178535190025
0.0103749719509552453
0.00941736006466651482
0.00833498090141111293
0.0162311377504394949
0.0150506669335155104
0.0138528875050007352
0.0128043627689976413
0.0129137714075531242
0.0182322878805347179
0.0177362120293193468
0.0173048583803661546
0.0168381384149066497
0.0168813287334718572
0.0194708752005403607
0.0195980264233660308
0.0197582130787058545
0.0197401677759579189
0.0197774919124809219
0.0210642870999743041
0.0213310515370515527
0.0214685394874650007
0.0218044906939447759
0.0219359052623378722
0.0223551322148431535
0.0226521446746130381
0.0229759812613285243
0.0234986118195006713
0.0240533505148401196
0.0234637504280191637
0.0238768248429427725
0.0243772940089108311
0.0250039359319078093
0.0257912579006602354
0.0245481072427357547
0.0251143867646211674
0.0257425109303042465
0.0264494178282120816
0.0272259897575563049
0.0212977090876451669
0.0226292358998578386
0.0241897352205952612
0.0259786234257710184
0.0279589106837711196
0.000497702446517777871
0.000218434481409624827
0.000967212208751402945
0.000314706314727222357
6.18169774055459496e-05
0.00143561206854467206
0.00356590025212795382
0.00217268334520389966
0.000476248327126984488
9.10807168931559113e-05
0.000906964604368758719
0.0038629536803933464
0.00365004646323633048
0.000686210890933534987
0.000456754430259810932
0.000668834552297271055
0.00422459970854635342
0.00540503461308754207
0.00115668874093633541
0.00603084600051188857
0.00484642122797879736
0.00521986967698594238
0.00380475406993155277
0.00199402687640660948
0.0104233314765716113
0.0112582027020168216
0.0100221863035799934
0.00766504297866987989
0.00375747265147007578
0.0148662408268883557
0.0138728441505091057
0.0130042918439006901
0.0111346086910626141
0.00980544050974469297
0.0171728757165744983
0.016289470552042655
0.0152729087586532548
0.013494705408430176
0.0130833978326553597
0.0185450503313569909
0.0183078733856899649
0.0175836723323606302
0.0165277967771565205
0.0158005630065654601
0.0191884843256885408
0.0194656462046460914
0.0195126115762120772
0.0192916145509819462
0.0187680131138170253
0.0207176658657097848
0.0210519188260839228
0.0212774527537826948
0.0215743820126376197
0.0213974347957555239
0.0221266746081311243
0.0225470083464444325
0.0228850811580413802
0.0234217293276394976
0.0237564148188860562
0.0234126925953613389
0.0238472445162302288
0.0243545560278585309
0.0250035051986466118
0.0257096146168777004
0.0245554812257237458
0.0251218606493749143
0.0257587793023854664
0.0264876778433676442
0.0272930588494803943
0.0213287973003143984
0.0226808562505721976
0.0242769365768464272
0.0261208622534021447
0.0281755928376215686
0.00045125763129027981
0.000218029497868640855
0.000872796924726037507
0.000313102310814835131
0.000100248436864975869
0.00151562128172452021
0.00286680952246617764
0.00203270459038259544
0.000470544437798846803
0.000187002286750108192
0.00172746252624864419
0.00401453063363980175
0.00338304146887275165
0.000650244968112974895
0.00144511185957565112
0.00382721039552504734
0.00573848991656738909
0.00510575999477036208
0.00106864298291342694
0.00905675661750120903
0.0064292081624434793
0.00700867128873014847
0.00602130390872512421
0.00198964938792761843
0.0124490670403657865
0.0105053639880636762
0.0111763722737341451
0.0107442374629867325
0.00426546260028775638
0.0141248158804029092
0.0140853612743913944
0.0152909072560776047
0.0144428185298928584
0.00787326499789415234
0.0154662458264098902
0.0153870490195490723
0.015090665461686234
0.0142988399551149479
0.0106798186270691941
0.0168320996298885646
0.0170260082500074024
0.0168857439542942044
0.0159435904828843789
0.0137327282108925721
0.0186440626176141815
0.0188667894205713643
0.019056647738257354
0.0188471625748776878
0.0174629228684196475
0.0204073504140101468
0.0207570521655060305
0.0210950552017650055
0.0214260778155448833
0.0208171726146045774
0.0219429349759200192
0.0223930676112826556
0.0228015090312482134
0.0233908031380193476
0.0234969124686196483
0.0233251676957947456
0.0238033351511243232
0.0243309193274862876
0.0250177368782180838
0.0256545458573519819
0.0245487725168303007
0.0251194302790943465
0.0257704640961339028
0.0265256993258142192
0.0273696116753919111
0.0213477652261085046
0.0227179930643294989
0.0243474204197558185
0.0262433470130311493
0.0283709106507374215
0.000435702618452218579
0.000227122415083841713
0.00084577720632082699
0.000333953907323348567
7.82573055857809023e-05
0.00139114536892192306
0.00239746230255415832
0.00183539949540240587
0.000496129236671099703
0.000117445843057235592
0.00145402572061916228
0.00332652178794566947
0.00285611350745768391
0.000675959832932600669
0.000734235440826637095
0.00325778295064146342
0.00639931185394288036
0.00472341231939407344
0.00104852929511785298
0.0125744062508133993
0.01229188601655452
0.00575686491046462859
0.00649555179712630205
0.00181458752015183273
0.012942411591721048
0.0115265788184077851
0.00930779588629901226
0.00859108558903409064
0.0038331725000538097
0.0133646769046400094
0.013421093607033455
0.0150517049279688692
0.0132229988439535959
0.00710304373298279237
0.0145442718687534677
0.01474142145006338
0.0151256575799794228
0.0150567829606746105
0.0103371005519830826
0.016281262677716641
0.0163727314442023222
0.0163141311161106896
0.0161544011074687202
0.0135393595268559052
0.0183868605274498699
0.0185735805494306461
0.0186775463477434379
0.0186793032337226467
0.0172435606559716709
0.0202309759216913361
0.020543865588282674
0.0209381186082686008
0.0213713201382586572
0.0206863329142327849
0.0218293047585116154
0.0222530773842220982
0.0227390196336527788
0.0233945369752203633
0.0234179845517311878
0.0232586936017985003
0.0237582208227401677
0.024312650719317392
0.0250437834951055677
0.0256427455943053183
0.0245315133160479912
0.0251119644561742864
0.0257797803116972951
0.0265625743612360049
0.0274266856995148932
0.0213580973755522867
0.022742823403477129
0.0243996963522524618
0.0263393233088356424
0.0285305772435677854
0.000407112513152302769
0.000167587510833356619
0.000734145360323134569
0.000390216300453211931
8.67155621123743463e-05
0.000945452745944793402
0.00221134785361718237
0.00142143405870415337
0.000574722043476407645
0.000214060409219492406
0.00153052850565367862
0.00381583731418070086
0.00230744393029819975
0.000794961036279630186
0.00144585054090724439
0.00522247165186769981
0.0105682813307937922
0.00453565284847597117
0.00112436715623454898
0.0118093712245908363
0.0132235520354042936
0.0146605199301436881
0.00863361379384134341
0.00182270139078210365
0.0132455133152378744
0.0138660420124157389
0.0142058952309167732
0.0112049086930109398
0.00374463415624854941
0.013658977687180213
0.0141656105424514036
0.0149201709391223666
0.0150852079661331247
0.00852904690625732806
0.0142511229904256874
0.0147569841208801591
0.014726621549027822
0.0151726313936996204
0.011762407040880123
0.015905967508619754
0.0162553432888394682
0.0160622724861715985
0.0158029348459605319
0.0143853018475571318
0.0182752394076598178
0.0184589259161296211
0.0184778049930818186
0.0185536493046070186
0.0178010346594522952
0.0201675454219446826
0.0204387287587827066
0.0208175465716738117
0.0213538886077667481
0.0209682177057618456
0.0217787725536578644
0.0221691504521818704
0.0226972195067993016
0.0234195726896451253
0.0235343918043628697
0.0232232689885096925
0.0237181115743539637
0.0243032075505261944
0.0250751991312744109
0.0256738761192399738
0.0245141857926691291
0.0251043409182735815
0.0257887721952636262
0.0265952280513662223
0.027458549199704068
0.021362572186542212
0.0227572343147447662
0.0244337225100048801
0.0264047283467026099
0.0286428785199245445
0.000349589209546769181
0.000162826257751417462
0.00058767740011595555
0.000371152618385616666
8.46747067030269182e-05
0.00106280645510745705
0.00272053518683540918
0.00111092815401353648
0.000458789007893064648
0.00011484270943338237
0.000976002309934425683
0.00266343105797073191
0.00187465717362662312
0.000631946907690223857
0.000591223212758958225
0.0013191027730291168
0.00471374190934419329
0.00346553760102418689
0.000879907192555103566
0.0120624786613435838
0.0127365653392106024
0.0178870152013088438
0.00958579454180543203
0.00144061012809671611
0.015806995741003433
0.0155818263153536564
0.017902774090982853
0.0159262693044069231
0.00334560837675046711
0.014653341325971252
0.0145032080477431758
0.0146360737362239441
0.0163303620534811997
0.0109869834463221898
0.0146031155416352955
0.0150744882195448775
0.0146763958913272291
0.0147507156710045863
0.0142493046780254162
0.0158711236516487185
0.0164244366544295632
0.0161277740915169582
0.0159044846729570824
0.0163907314004819969
0.0182087258227107314
0.0184870003653088352
0.0185314629413985445
0.0186911599136611942
0.0188330268480868812
0.020168298122535757
0.0204113730638222045
0.0207638699412318849
0.021335490263582127
0.0213974630900257631
0.021759639748918494
0.0221207320563038962
0.0226471424778904411
0.0234097656003789262
0.0236846665705260015
0.0231911863017646748
0.0236684552861800325
0.0242771303786017446
0.0250801940839511517
0.0257238667863835188
0.0244813441579735842
0.0250729095008515937
0.0257707659800450635
0.0265951162387857154
0.0274747779838978093
0.0213433295170167431
0.0227404486290036928
0.0244248908842940593
0.0264097642088358189
0.0286702681690817127
0.00343178540603312435
0.0109783321079236496
0.00837921237894916938
0.0135155275349385703
7.1057941498786276e-05
0.001174465629455901
0.00328619321635843049
0.00607591156338438843
0.0123503419396793802
0.000100825788886271071
0.00101996248992432866
0.00363671177040524431
0.0047555315270148904
0.00998546907323812939
0.00054308883352801522
0.00178256337872132473
0.00739078680887424438
0.0176268212074446179
0.0128994179771961103
0.00935077435649727014
0.011859239909903856
0.0144747711194357434
0.0158143942192640816
0.0167014005725063218
0.00661406967753605697
0.00551647163684801725
0.00635138835493128957
0.0143426752153301123
0.0210038533298808131
0.0134003359862719055
0.0121221293970513802
0.016218525128766547
0.0194702997995820949
0.0192122166580502053
0.0182781975766685388
0.0182115199495376558
0.0194171850989587787
0.0187757549998530809
0.0192060969214859316
0.0187701119677921684
0.0192900912124898405
0.0201263440066057307
0.0209214405015897761
0.0211259862196458668
0.0198744767193458106
0.0203116301503318275
0.0211405651927598706
0.022156286954468616
0.022902047311305393
0.0211525387326115775
0.0216090490474475302
0.0222962018005915391
0.0231296959320626411
0.0240925696572448188
0.0214409669647295832
0.0217606514814654775
0.0221656263943415914
0.0226877516166341074
0.023349796627748675
0.0241220239608331347
0.0249818780890574722
0.0224110125181963792
0.0228120956925518155
0.0232818967201039763
0.0238278300904828273
0.0244661025274059279
0.0251928129636011869
0.0259713111714061189
0.0233542832673186811
0.0238213379924929122
0.0243554370223115491
0.0249518045171046969
0.0256049014431772512
0.0263174283520552742
0.027050608428692037
0.0189237992368152599
0.019813941647456635
0.0208551077829642155
0.0220547343833983542
0.0234116437165472653
0.0249295397938834873
0.0265543305357711194
0.00449003947950720166
0.0172100531573952525
0.011123273264729899
0.0182533286070917129
9.53824034690922722e-05
0.00121457169558977676
0.00441378030202961482
0.0121930714113011509
0.0165626427974809066
0.00011546669554555798
0.00116238429912840198
0.00443605621039434156
0.0116710111608114581
0.0135326197288174483
0.000508217238480667874
0.00164455319472926438
0.00738413055398653116
0.018275723752240354
0.0145904407409254908
0.00954075113037672513
0.0120250529100278357
0.0113548555473091534
0.0125352853682604275
0.0147417493595148313
0.0130323765055683858
0.0130513210438803449
0.0137759704570023633
0.0137829307489814017
0.0153807829857842415
0.0146754107156037757
0.0145585232930356412
0.0155306159996186372
0.0151222842899220392
0.0166641766541189146
0.0163811154556867469
0.0164409117034498425
0.0172159368463238802
0.0181378123647115558
0.0188303439767564668
0.0178391195617895494
0.018253307451561486
0.0192617169204201237
0.0206809054787405779
0.0211072921747915074
0.0196771162806863784
0.020089726348838776
0.0208822198807719142
0.0219448257390171611
0.0228287211183970766
0.020976671543870791
0.0215020388821152673
0.0221820366419011837
0.0230131856823534361
0.0239825408522730023
0.021392208537475161
0.0217213727952889381
0.0221357267716479726
0.0226640663847516681
0.0233069809013098928
0.0240543742697725584
0.0249081366063543877
0.0223733448261176117
0.0227748371663583915
0.0232484981241272079
0.0238038566304435255
0.0244407423825292285
0.0251483819227868721
0.0259248104339629901
0.0233303356321586906
0.0237981830155998102
0.0243351948422601549
0.0249369524151529971
0.0255954992518396401
0.0262973228438523401
0.0270302667865485041
0.0189128830666707819
0.0198052626779855571
0.0208513998172633573
0.0220599239858513124
0.0234295850523794195
0.0249472583008257774
0.0265796545502462386
0.00380257794293014512
0.017304425326538822
0.0117888243065000509
0.0170358758561212943
9.28842100264459016e-05
0.00103756216355373708
0.00512531895619367309
0.00923248968579792363
0.0154554961888023149
0.000188725466676714328
0.00113850751387896323
0.00550598768744733989
0.00745170694868627081
0.0152239315742561006
0.000722197910110577664
0.00283953815008068265
0.0110190970345908686
0.0112527973392668804
0.0134111381269080288
0.00982161260504521225
0.011282832842110263
0.0110412458710906249
0.0107717839875380965
0.0113726992059673578
0.013587388186653105
0.0138146451520278473
0.0133306001277880247
0.0147301235744554029
0.0142767317223780367
0.0167507793075296861
0.0172645402549238859
0.0161913362497527712
0.0162302328211519874
0.0166093912558592377
0.0165492684621643092
0.0171544175109859427
0.0174898385639170421
0.0185559148360271327
0.0189152318646926623
0.0181760034430082304
0.0187008861652662832
0.0193538763466813216
0.0205234572050749658
0.0211277202395428396
0.0197356056613981409
0.0202316288987795558
0.0208826448475906978
0.0218181593049042027
0.0227001163147941866
0.02095955134321522
0.0214548845409880187
0.0220959224272662749
0.0228878735060244164
0.0238325951693352418
0.0213424971919177128
0.0216787160468564326
0.0221000289791594244
0.0226218966065389361
0.0232484731684330856
0.0239783189799369703
0.0248172387287073186
0.0223397943809442688
0.0227439803008536168
0.0232206970026627331
0.0237744740902796556
0.024404867759136379
0.0251042690506993807
0.0258743583139058285
0.0233129757803591069
0.0237823693776594916
0.0243213715273556674
0.0249241339982780238
0.0255814435585345161
0.0262794782983480114
0.027010009219910272
0.0189202531328579483
0.01981596387299547
0.0208668717739859434
0.0220813639668838192
0.0234581764330105691
0.0249836105794752489
0.0266250423501317793
0.00255710047709046791
0.00906040210049361035
0.00756430278418141529
0.0213842253616114315
6.50676933661708807e-05
0.000896255962261040262
0.00298992594933787615
0.00828829210191451247
0.019303504952638207
0.000117979903809266703
0.0012690767999156288
0.0034331938199696193
0.00693322425436145636
0.0160074483883309825
0.000715142924379450038
0.00373442678075239058
0.00622456087973485579
0.00646159283565612887
0.0131874099551643233
0.0109018112681166599
0.0106831366003022309
0.010502228872314022
0.00764589228075409494
0.0112372151048948515
0.0113742833730215379
0.0114354874075208793
0.0116188749819229487
0.0131860091872889693
0.013130062716481131
0.0137352920784694146
0.0141107575804056556
0.014803742903956604
0.0164037707021993141
0.0165629705555421294
0.0154950980043310239
0.0162367861422105901
0.0171716020194525518
0.0184874700244099452
0.0188183423816510251
0.0180226303617462974
0.0185128383834283518
0.0193147263934635646
0.0203320198554187218
0.0208462654017147753
0.0195871692640645877
0.0200692003363552446
0.0207336934689011619
0.0215857890234438209
0.0224540143820547121
0.0208621712217322841
0.0213549044957820934
0.0219824283652678004
0.0227461536827993187
0.0236695931989069561
0.0212796664680596943
0.0216228689386816358
0.0220467942877000285
0.0225648284747106444
0.0231802968829758413
0.0238948348823295117
0.0247198837257162976
0.0223059015706082615
0.022713397220904874
0.0231921583808428096
0.0237443615535058439
0.0243688632034337847
0.0250615461657548375
0.0258246290389692254
0.0232995281926834351
0.0237713311005568195
0.0243122958381976895
0.0249159262617246885
0.0255725378683876944
0.0262686166985958945
0.0269987546519903886
0.0189358107123115335
0.0198358542214145533
0.0208928533463928652
0.0221155622069462467
0.0235033115422054011
0.0250424820574440335
0.0267002180113195924
0.00192724603088757426
0.00319469615446194791
0.00462576759436092097
0.00853149566661087419
7.24905223665363709e-05
0.000802097943531759005
0.00234550482742467304
0.00621659181040158312
0.0142372206210592094
0.000205539634334280332
0.00136045301496953881
0.00334521629540701854
0.00910269495881030691
0.0149163159826964202
0.00214974049913064201
0.00543862366574516046
0.00441509328123876246
0.00957924914050131866
0.0138728437551413151
0.0116766035129696483
0.0100583012500763801
0.00614091351644387856
0.00655239953530888184
0.0109426465179462574
0.0118082064322304649
0.0122046232495605037
0.0117122740460514664
0.0103462245960285835
0.0117095880919567946
0.012916581625536357
0.0135577669208318194
0.0146419477767881761
0.0158493556613515905
0.0152967071596916224
0.0158517468001770981
0.0162251287600974452
0.0170054612859036301
0.0182520160915283364
0.0182312360571880855
0.0181586298525125145
0.0186216734790988006
0.0192736438525663648
0.0200760550229465082
0.020402914379422963
0.0195097160651125784
0.0199721782393140271
0.0205766388937782575
0.0213664200252663243
0.0221708936285372228
0.0208041888429047438
0.0212869576035948568
0.0218821490130294248
0.0226083766540994997
0.0235082580891568804
0.0212189787112032693
0.0215774713171485132
0.0220078114884394993
0.0225198123184461516
0.0231199766718296687
0.0238168674667300108
0.024629772123304583
0.0222788403906033598
0.0226926504773339935
0.0231750144060003035
0.0237247675610570384
0.0243416061607305556
0.0250259316957880534
0.0257828338058450901
0.0232937041506973801
0.0237695236326800861
0.0243133497219151576
0.0249176664882683266
0.025573097004056973
0.0262679394358086571
0.0269978864641894183
0.0189609991348237382
0.0198670582199904737
0.0209316469160115773
0.022164837038441236
0.0235672751381186818
0.0251258678905824373
0.0268062915022139331
0.00233284585343306646
0.000903993705937976766
0.00598775865979167109
0.00198781696982512851
6.44827646951001937e-05
0.000970094195929543652
0.00313024765529965922
0.00660749019938347646
0.00394763078567194475
0.000102608569734883041
0.000939622152919663027
0.00302784133234920531
0.00749500248263225421
0.00847677751150437142
0.000739988005252989142
0.00191945068323360495
0.00482328129606449107
0.00987945899812701228
0.00933296743000813257
0.0112524151131863075
0.00696060459928047465
0.00391497597239424781
0.00773701395141181397
0.00820164807069169444
0.0119603495361920234
0.0101303969972067198
0.00927207544346292899
0.0090538946739594419
0.00999929127094985847
0.0133765836482168388
0.0135483915371712067
0.0142825286262436395
0.0147447518237612766
0.0142138275390144234
0.0161293498055157594
0.0162050612459522098
0.0167926922739254393
0.0179268092342826819
0.0176425759905335724
0.0180470302417866935
0.0185437625730053186
0.0191320928519671009
0.0198263117430711039
0.0199162882954706418
0.0194447865436353506
0.0199124202871253514
0.0204724833913732703
0.0211774337126641489
0.0218461827578173423
0.0207732956099656446
0.0212428345000698453
0.0218015261540070691
0.0224852413795904038
0.0233573189872765714
0.0211716269331436203
0.0215576930657802764
0.0219968782781848893
0.0224978606763241162
0.0230754793704749071
0.023749958249534648
0.0245508772100888756
0.0222649691870163459
0.0226927378956835561
0.0231783307402272688
0.0237219367805715613
0.0243272617348595996
0.0250011831898005882
0.0257533444613783045
0.023300494379187818
0.0237824276362412386
0.0243288137278667924
0.0249324258355926691
0.0255853751567681788
0.0262786617874454093
0.0270099811026414324
0.0189974300616610192
0.0199104225907036463
0.0209838043753120922
0.0222294419153840246
0.0236500406265220918
0.0252332589705015486
0.0269434132585100322
0.00229436634340418133
0.000391959467344947673
0.0094577400382858702
0.000795268987939496286
8.32653300453107663e-05
0.00173671426165301337
0.00862364743892362132
0.0109853970386121647
0.00147368475306245967
0.0001403471674521317
0.00170794449513986518
0.00794122168204977608
0.00798750123914401464
0.00304974084765209782
0.000712839889401872297
0.00380641174209907533
0.00866592659594727505
0.00672368000935708553
0.0049665184914326763
0.00746603797334075264
0.00414209611735510443
0.00439457398789744238
0.00554212129564172953
0.00571193564817569933
0.0110991402919065202
0.00836106543680002756
0.00747522145171115263
0.00805165748536695522
0.00761269028728816209
0.0135283119734179412
0.0132964407113138582
0.0131160528612991305
0.0129965214400450963
0.0127727131898540316
0.0166713927107903712
0.0162834678935094394
0.016199532484052679
0.0167133132981190854
0.0165780009164082538
0.0181516233578333346
0.0186069833182734325
0.018902697645052785
0.0192882310541714966
0.0191998564471638974
0.0195055311530833789
0.0199112968973603546
0.020339676527349828
0.0209278154217544012
0.021399853065042735
0.0208203455327458098
0.0212436967675575135
0.0217324160765066804
0.0223589155704695605
0.0231458720118245254
0.0211883184254489203
0.0216018841376275222
0.0220363664338815504
0.022508538613497029
0.0230490821119218765
0.0236946648481128168
0.0244854641074624194
0.0222926711617434936
0.0227303109114375332
0.0232121199642326172
0.023741233587084902
0.0243283218213548522
0.024991193609846217
0.0257365772884470892
0.0233282768395661269
0.0238154515932943942
0.0243618767621681456
0.0249617399841576583
0.0256098902721109759
0.0263014700183484343
0.0270319390174270056
0.0190446139959846959
0.0199650069512087858
0.0210478558709062402
0.0223074812243776385
0.0237493914739962293
0.0253621873052321707
0.0271088336470145207
0.00188973811834114024
0.000292873982527362665
0.00451143326746082304
0.000629437257072821632
7.60952879495604588e-05
0.00564396335569603436
0.0093815499140329061
0.00747074136313422531
0.00106016165732441842
0.000109936311842879575
0.00472895588402483334
0.00742660595034786396
0.00641565215814896787
0.00186487065959300329
0.000353344447682846425
0.00232776401988991086
0.00516477440106228106
0.00428374058630281301
0.00255328096544543779
0.00555538780514973265
0.00442261454539171796
0.00670261665234849532
0.00508447278759318298
0.00308732463966769058
0.00971553123388254301
0.00901943417482706233
0.00918203225269359317
0.00693111048190524996
0.00579894922294602738
0.0138383485625453682
0.0129999633229130728
0.0119987386977598726
0.010890742231506859
0.0106549585292660398
0.0169874022927811973
0.0160047277705545471
0.0154443668690389963
0.0152556010224065078
0.014766730475466755
0.0184606196826545207
0.0187006933054581839
0.0186149238840604657
0.0186677621821401962
0.0181652265001064073
0.0196984757209812261
0.0199675970292785034
0.0202191015133493732
0.020676982742415629
0.0208309758557232369
0.020997850767231787
0.0213105367051244117
0.0216921284705612373
0.0222481997158695023
0.0228863783300617685
0.0213518047845271709
0.021750326717949714
0.0221465686604531073
0.0225602242180779899
0.0230436500998638105
0.0236518493928205946
0.0244411047902655075
0.0223814622277379929
0.0228170726981642598
0.0232810950142082508
0.0237833597674113398
0.0243446110802430851
0.0249908082258928667
0.0257372777539813143
0.0233805950820463772
0.0238697107101490356
0.0244115681664860765
0.0250033227930815533
0.0256439631850583563
0.0263330865162211929
0.0270676916803919108
0.019098944611634798
0.0200266387164775017
0.0211191885071892252
0.0223941116533064727
0.0238604785015582334
0.0255082190346155972
0.0273028062589487919
0.00179628384926093011
0.00155873396393714026
0.00259945572610484257
0.00207434880684406004
0.00549402427512135638
0.00382236789419448768
0.00277179741313236501
0.0129572899105739239
0.00879492517914871874
0.00565569212447126785
0.00374234071767570124
0.00124078391272955326
0.00104744619613516329
0.0016985053728057857
0.00130359420476190615
0.00403167315638805739
0.00232779190864720181
0.00161200999079218134
0.00916774291453176411
0.00681319752871392247
0.00323636900958521566
0.00204655522607729602
0.000599606978076146148
0.000441436802065109011
0.000730069564713373251
0.000510482331856109686
0.00178500435713601822
0.000898698767314204329
0.000589248907740122659
0.00683570157023541489
0.00266391204811732831
0.00113430504725003586
0.00069833405889796322
0.000221695869356083701
0.000186594629338174045
0.000259218740327041991
0.00021557454024932426
0.00053224040536189684
0.000292197409241432742
0.000252600583695014266
0.00211124166837075569
0.00067186971108584609
0.000332113321573388506
0.000303998209067418907
0.000114711793396047733
0.000166769664743942876