/*--------------------------------*- C++ -*----------------------------------*\
| =========                 |                                                 |
| \\      /  F ield         | OpenFOAM: The Open Source CFD Toolbox           |
|  \\    /   O peration     | Version:  2206                                  |
|   \\  /    A nd           | Website:  www.openfoam.com                      |
|    \\/     M anipulation  |                                                 |
\*---------------------------------------------------------------------------*/
FoamFile
{
    version     2.0;
    format      ascii;
    arch        "LSB;label=32;scalar=64";
    class       volVectorField;
    location    "0.119999999999999996";
    object      U;
}
// * * * * * * * * * * * * * * * * * * * * * * * * * * * * * * * * * * * * * //

dimensions      [0 1 -1 0 0 0 0];

internalField   nonuniform List<vector> 
7248
(
(0.494781047989003853 0.681062359999835554 -0.446019693147311047)
(0.510052412542740252 2.95464525666654332 -1.04816465433215189)
(0.354526760144152131 0.583402334463707928 -0.55268180178317361)
(0.571273669114357951 2.46217494842084106 -0.823527793803966457)
(0.0809056711343268398 -1.04002247343131504 -0.094663242870973191)
(-0.452736572446593044 -0.630641884722538126 0.175329058869463539)
(-0.337928357752870112 -0.154031034386489962 -0.0775886120952208463)
(0.0547396933887189935 0.271292251758042058 -0.633064281432420328)
(0.542783306219373318 2.07617374104455354 -0.746896973018030597)
(0.0974139365814940955 -0.680026409584906788 -0.0257982928922113955)
(-0.745208320617577913 -0.319932483725677785 0.249546832805445262)
(-0.769346511854595239 0.0402658824344003241 0.143156469992483326)
(-0.335919479130589671 0.502667322484378287 -0.320264982561303202)
(0.276542517361190954 1.64376253776766679 -0.599657864923737294)
(0.0482179080104629676 -0.315787594162736329 0.0727964842024802772)
(-0.965636204087247485 0.0692403098614232937 0.236088514352587264)
(-1.00077124134093953 0.213905057467855875 0.176980674718303505)
(-0.756913363422107688 0.54226978654804292 -0.108494105702465232)
(-0.257547098758394488 1.20658845404020565 -0.456297285654972851)
(-0.574471400331722171 0.0805353630646625795 0.158095941081280195)
(-1.2478158066701881 0.133019283322493354 0.284127367089608784)
(-0.964093600897862113 -0.235989412522807973 0.374106340373904889)
(-0.884012520507560851 -0.0453769968640456017 0.224765180583056112)
(-0.674033964180809408 0.588099965192337537 -0.0943577927272902517)
(-1.05713072949317843 -0.0367501645403973398 0.19131635543813777)
(-1.12131816485164659 -0.11878604610062321 0.23902455397128064)
(-0.954203129485738821 -0.331129523531686676 0.331059739898988736)
(-0.97028874213746108 -0.1153917061975714 0.353939115264253035)
(-0.799608264697119542 0.440157537303195345 0.0652910437961783802)
(-0.808697605651423346 -0.034486222792325244 0.0814849305980995947)
(-0.789968315727789139 -0.355895946197073321 0.143666432697205859)
(-0.855456404239113954 -0.408574765928010675 0.240443333086361399)
(-0.940231092403755242 -0.180472770874478355 0.230275157989935225)
(-0.950188019644898518 0.353614892887780918 0.0649241790841886129)
(-0.53914014304265645 -0.072318885921999157 -0.00667855592117225227)
(-0.509221991451157541 -0.315377105137931157 0.0475181898828964805)
(-0.639595184016354179 -0.262246852492842519 0.0682934133489954409)
(-0.751229071044472452 -0.188287132981126704 0.0588356868285515866)
(-0.782412714682596433 0.137763858731201672 -0.0192715709823186448)
(-0.287620066148529696 -0.244402000009348641 -0.0264309796232209473)
(-0.337961284640375559 -0.268358834454578699 0.00632533970042351706)
(-0.440513540833195161 -0.18834354961323832 0.00244685369380370776)
(-0.512427619773369702 -0.0913798959641774489 -0.0134443185777614067)
(-0.541421046928453054 0.0647262389756429052 -0.060522572334616033)
(-0.241320982902885534 -0.220241660535914374 -0.035785546113601463)
(-0.288137480582900174 -0.195863881088001401 -0.014288816834123301)
(-0.331461087205919602 -0.139179999922215802 -0.015924096939830143)
(-0.356664296105997813 -0.0633671161603136801 -0.0270351620175476384)
(-0.357312207959028572 0.0354350661554583141 -0.052019686267329876)
(-0.210420968893048566 -0.197946942722871888 -0.0184899910153210265)
(-0.232342442980333796 -0.164718002507871164 -0.0141703926255350963)
(-0.251465977943718222 -0.115842931142405084 -0.0170677133416858029)
(-0.260003496405958601 -0.0563049955524665829 -0.0254169394642871291)
(-0.251202866430431104 0.0117471055710224419 -0.0381840979426358307)
(-0.155113192750533507 -0.251295320180992043 -0.0157912802362058999)
(-0.158343620832732929 -0.221326305645814736 -0.013604789507049516)
(-0.166384299358092014 -0.189225657180226881 -0.0115904849912066878)
(-0.1761480920364773 -0.151612931271117024 -0.0117456706492436811)
(-0.183858223382053182 -0.107551630189346298 -0.0144966622644941562)
(-0.185682185645540898 -0.058624604565937169 -0.0196914846187340939)
(-0.178329028241991761 -0.00736782645667624636 -0.0265220237203524986)
(-0.107918379269602613 -0.25437709559431565 -0.00907294158871881778)
(-0.111893824363555314 -0.219724069800791705 -0.00819108749426582933)
(-0.116532285204930891 -0.183842163385635249 -0.00791357899074397915)
(-0.121147876251996148 -0.145451395213599455 -0.0086791977035366296)
(-0.124222665465269833 -0.10451041691387819 -0.0106187080512694047)
(-0.12404034039755342 -0.0619974042910815537 -0.0135907890646240533)
(-0.119097421042766341 -0.0197030646205040294 -0.0172285158277955749)
(-0.0628253937426619391 -0.251538732415151733 -0.00506201243490312508)
(-0.0652301006597959809 -0.21660728150357797 -0.00469858025580101833)
(-0.0673480029246794343 -0.179955616977734878 -0.00473159445924296526)
(-0.0691124792623713374 -0.141721942163834436 -0.00528263138745184001)
(-0.0701245465432221021 -0.102521058882893631 -0.00637766828697128481)
(-0.0697368915995771332 -0.0634347580314802012 -0.00792599041767209737)
(-0.067385446313554892 -0.0257888171792110751 -0.00964676082546626207)
(-0.0208778746742475617 -0.253951521614928455 -0.00148689010188908901)
(-0.0217508699995413585 -0.2195878461367686 -0.00140609306988454062)
(-0.0223328802235106642 -0.182915917823974095 -0.00145713286935523351)
(-0.0226231487239521509 -0.144490089001970495 -0.00165995304772832263)
(-0.0225874643136807322 -0.105194765952798946 -0.00201423620468804167)
(-0.0221899503519255026 -0.0663334476023791364 -0.00249537567426762067)
(-0.0213822700684385206 -0.0294258896431206195 -0.00302150357711093807)
(0.522396374296086985 0.923700981744497662 -0.528385622123279108)
(0.524397687824346481 3.45969904139271822 -0.80173600279752022)
(0.374182667078799103 0.620176130278420112 -0.639482391131654171)
(0.607019901532103501 2.96793578647882672 -0.723268234750555683)
(0.105404293861805651 -0.974159830428927287 0.0504449037756450475)
(-0.443929169989162653 -0.807203250210364209 0.184534271767500313)
(0.00648345137842717273 -0.328350489000934331 -0.428916684115242974)
(0.126449686935447836 0.109190961527948605 -0.847888956600512889)
(0.568952261904015377 2.5357408126157166 -0.716440093547749957)
(0.215687136291872361 -0.648737672558102219 0.0578038229919967117)
(-0.555253111360197726 -0.545190331876587275 0.206592739685010768)
(-0.46021272805414315 -0.260580153726174157 -0.329055795257248707)
(-0.189146902436545306 0.142049088945966712 -0.716598996383172815)
(0.446813022579032049 2.04317853852398557 -0.709191884051316612)
(0.357534936579768037 -0.334059873564362175 0.0930495508041447178)
(-0.843936059070999001 -0.154454272998341441 0.215530670292121918)
(-0.868944670058988455 -0.129937100983832016 -0.0629090883991860889)
(-0.616075886010212237 0.333365010899986713 -0.371623713875413153)
(0.0277800923272500805 1.41704671449513642 -0.644599946465978402)
(-0.571417118053318074 0.25664522875019713 0.32057670687821066)
(-1.21916104158059979 0.349141510826935675 0.337949534081319503)
(-1.11365659362413671 -0.376903478210417253 0.280325749616817443)
(-1.08085314599646187 -0.0793356627264072412 0.0224032419196048202)
(-0.662846397817406063 0.685597188498564436 -0.337845028163986261)
(-1.31467056298343166 0.356565683056084048 0.294121255724739683)
(-1.31776918928371289 0.0704135975757161359 0.325788158021851015)
(-1.11330496582696359 -0.296007105344196053 0.282090481481242883)
(-1.13387060188289746 -0.156373493577779993 0.107362037990877721)
(-0.786420282149196126 0.380868347197370061 -0.209723629366299652)
(-1.21302506124618503 0.298889428117141309 0.187965641006926476)
(-1.06345480527183089 -0.201117526934848245 0.210180159118621646)
(-0.99023410163684944 -0.359466547643825907 0.226539056868943905)
(-1.01140496725867024 -0.231571504819702456 0.138457238177413788)
(-0.887940977744083315 0.287753913047076482 -0.0458976800439547944)
(-0.813355145524712997 0.195737833591482946 0.0432352896022148506)
(-0.649465386430730929 -0.307692982539789273 0.0711790164394204561)
(-0.705646632327383228 -0.26902922081777586 0.103401668704056759)
(-0.803695568058217402 -0.219697244553513055 0.08564683619161928)
(-0.830877011789848519 0.108161346814808712 0.00487257580791167211)
(-0.369347444826485405 -0.0568220910745323021 0.017567173493223058)
(-0.356301460586531005 -0.297099930838209847 0.0280306721946517526)
(-0.461352942471438321 -0.194391708677069286 0.0296862135281184755)
(-0.543057954344400184 -0.118802791380533374 0.0112101533571625864)
(-0.592718155486025355 0.0411030747716425032 -0.0288527091895825344)
(-0.202243274695257713 -0.209069192471593446 0.0166977627808864437)
(-0.276879314326465453 -0.205678728878084804 0.0078233183923850369)
(-0.338166055796220111 -0.144779012522816525 -0.001933713129597045)
(-0.372307502865117101 -0.0690702696634103441 -0.0186720630754630169)
(-0.383905829151543532 0.0340460286454012592 -0.0440400074226655266)
(-0.205917022107582004 -0.189554669904536455 0.00158679156896787514)
(-0.233137922056188357 -0.164767780195192753 -0.00391678125297312621)
(-0.25774089172064657 -0.115785378472014408 -0.0116492129615820769)
(-0.269981972701405504 -0.0547947373228458573 -0.0229760188217458423)
(-0.263988203826415246 0.0180931620549270346 -0.0383729513384855198)
(-0.166561781235279649 -0.186711904085373193 -0.0036696095097229417)
(-0.178336266005895472 -0.150624018079107969 -0.00692529239966001558)
(-0.188201024215416013 -0.105894067198285424 -0.0119338861483116697)
(-0.191698510565730673 -0.0549861095163637625 -0.0187520190722683319)
(-0.184925560662617339 -0.000450937103257494022 -0.027037158694569019)
(-0.117051305962067073 -0.182447090731745143 -0.00470018049321961617)
(-0.122710000881174022 -0.143857710768567182 -0.00649323031440068778)
(-0.126795305945593711 -0.10211183853314286 -0.00932688158265627086)
(-0.127379294575160118 -0.058184317752182052 -0.013079295092240182)
(-0.122604664909407912 -0.0139934841697524886 -0.0174410158963001667)
(-0.0676294631408811964 -0.17829835462216817 -0.00338728150934450214)
(-0.0699397162911044312 -0.139680786319464678 -0.00427429806908625597)
(-0.0714374254813848336 -0.0997893558833132105 -0.00573792886732679697)
(-0.071339451356371486 -0.0597540666947139754 -0.00764750398672980804)
(-0.068987486080853172 -0.0209555924364376971 -0.00965643799111205389)
(-0.0224552630465512798 -0.181141949480797204 -0.00111563333584979545)
(-0.0228996845701838481 -0.142285224400285848 -0.00139290913357767421)
(-0.0229971241524851919 -0.102379264838686382 -0.00183284569459094427)
(-0.0226798323218232629 -0.0627797317369219177 -0.0024030280406081299)
(-0.021898849989444677 -0.0250939598973740075 -0.00301978060190546266)
(0.543529359052182026 1.05856641946689245 -0.487301426733054821)
(0.51713673175403696 3.77442423116150838 -0.68448303434893254)
(0.41660898839161431 0.635999924350945767 -0.604400605131236057)
(0.626626934078480136 3.28139341216944214 -0.618823465814930418)
(0.176162605865973571 -0.976508277146003634 0.109774477881890486)
(-0.0670057651871459325 -0.717190132430505223 0.205354298254089851)
(0.0988621254654114406 -0.379132124342572208 -0.313146822374728906)
(0.196261294861498403 0.0729103851894956217 -0.872926550330561546)
(0.593147462233962197 2.82967609562957767 -0.626318598425838147)
(0.250775723908545967 -0.756992867544971526 0.122576787844875607)
(-0.0765445744477811912 -0.65691600495070368 0.303155357555009941)
(-0.00377316054292176073 -0.586141534104897999 -0.127055454741892643)
(-0.0589844750170819693 -0.157937116452769866 -0.781462727796900958)
(0.499188290007314961 2.25435846384374861 -0.669853421992710363)
(0.145456466499565701 -0.53592557066221802 0.164785137486905042)
(-0.557596463769162165 -0.415773939412458549 0.3594933761867255)
(-0.72831269904967344 -0.618539906523823846 -0.0351088687614328834)
(-0.515021494753787668 -0.0543339810665045969 -0.404848087505679133)
(0.186178084518778958 1.49841242907016658 -0.666399992805114305)
(-1.07890555197599602 -0.0888264264651861812 0.450012280143025523)
(-1.2837392892544508 -0.165388005601998039 0.488809053642840219)
(-1.12412054047066268 -0.750146002005043444 0.244019658210617746)
(-1.093538606550017 -0.518223742393232656 -0.0103563285587285753)
(-0.511689974109244106 0.463824511271272999 -0.368869415073366902)
(-1.24779401742772711 -0.0930911832977195652 0.351163001891171056)
(-1.08718546365811575 -0.358063451061039706 0.301541509117633777)
(-0.904854891716848297 -0.72010084907518912 0.16902538747380888)
(-0.829014693542585279 -0.805944989298518544 -0.0346909339173130729)
(-0.691848280282448158 -0.189909509748179911 -0.253589512937065442)
(-0.915754809177454332 -0.134424047500737165 0.132481843519813042)
(-0.845628052131370267 -0.429687184423506063 0.19610172443097848)
(-0.785539512453055311 -0.611633226212664804 0.160824695039254895)
(-0.811156142100533217 -0.628474499925377628 0.0684781014334779892)
(-0.803403264154713193 -0.260706696701716534 -0.0897788989870698106)
(-0.437625974546644647 -0.343751952661539573 0.0381290852205667524)
(-0.520554440888531977 -0.411942537214729676 0.0476572228744360851)
(-0.60363622205063705 -0.419333804070626592 0.0775590809091349781)
(-0.714898884722594108 -0.391410698570305471 0.0860624383049717057)
(-0.79286801683755459 -0.17719945783348795 0.0049031176308635821)
(-0.302682081991673624 -0.34662506205928767 0.0452686738460433974)
(-0.374313491521916342 -0.323679201202187516 0.0213734908676303861)
(-0.454070886630308035 -0.251183343048350438 0.0194756101834976068)
(-0.539549804424917068 -0.174978312785701084 0.00482536771435799344)
(-0.597618042155450335 -0.038820159023446002 -0.0329216343043185616)
(-0.25502176669617127 -0.251984709732076428 0.0490145395725000987)
(-0.309241251328962796 -0.218339157277364637 0.0151801441231482707)
(-0.354608761363029101 -0.163345988155026101 0.000113790915068533866)
(-0.390428264850037954 -0.0858352643097803208 -0.021207631668876948)
(-0.404954729440249683 0.0202288920169565942 -0.0505334053369747849)
(-0.219307247503536862 -0.213508125684553129 0.0165274819281615824)
(-0.244447063399715558 -0.174367523325911655 0.00342908334646926678)
(-0.268499472175190879 -0.121719299569593459 -0.00835602216674462446)
(-0.283073019472351861 -0.0561317725048253516 -0.0225387588496531038)
(-0.279193355208994853 0.0218740724786774393 -0.0409626503604236178)
(-0.170852781031949341 -0.193471513608760415 0.00294546276017121442)
(-0.183667137796499125 -0.153469926125801959 -0.0028085881231260856)
(-0.194519657120930389 -0.106166476511456137 -0.00957570006249928822)
(-0.199140533045101625 -0.0521897624180443012 -0.0177574793036346795)
(-0.19288488789226893 0.00640995384022051851 -0.0273507508531959445)
(-0.118628531131109147 -0.183829071110641812 -0.00162906670831074445)
(-0.125241198498820538 -0.143805740244940999 -0.00423900753038770114)
(-0.130133914231372078 -0.100472134940132102 -0.00780111204758074037)
(-0.131349755852139954 -0.054692207382480526 -0.0121485994344116398)
(-0.126687630360722309 -0.00821906250527594182 -0.0170321881243946857)
(-0.0682305701127772224 -0.177634611212288324 -0.00200627480660724514)
(-0.0711099092271783445 -0.138292714465701849 -0.00315984784074039085)
(-0.0730803190250897128 -0.0974634984938035492 -0.00488321442691231396)
(-0.073234243209012867 -0.0562852099508951292 -0.00703716266091025579)
(-0.0708411651654956842 -0.0161764689520586605 -0.00927088096549502291)
(-0.0226491315101238384 -0.179770628116888015 -0.000764923961492495466)
(-0.0232626550443073635 -0.140413477720005009 -0.00109016670263055991)
(-0.0234947657639661897 -0.0998135657586470132 -0.00158589487588445613)
(-0.0232571956483907938 -0.0593773206492955036 -0.0022114935341736178)
(-0.0225057079911807831 -0.0208341077862950093 -0.00287878075225736756)
(0.559878862945261901 1.23342781545062752 -0.40895450997644045)
(0.505408414208483814 3.93657344323091429 -0.505519127394731815)
(0.468958352323078365 0.760962775858040952 -0.516782257525464472)
(0.630636328058135409 3.47039901009284213 -0.471824875868644744)
(0.201951229955954381 -0.930855094557651142 0.00393054653099859496)
(0.131798720658117957 -0.682426839480715697 0.117769036253336262)
(0.204436905883820408 -0.359340593640991579 -0.183363775107430044)
(0.257270199187245585 0.0901376992197287785 -0.699497461962371947)
(0.605223500003381765 3.00991592307881728 -0.491690669201158559)
(0.231990801238733613 -0.727254068507704021 0.0269518686924671187)
(0.294249072045180027 -0.627522850826085943 0.120940620192193773)
(0.364025522163757109 -0.432747483636072794 0.0281886010459546366)
(0.0969873982458454298 -0.180900104843875226 -0.578838532739846867)
(0.529519580813059387 2.39162474966140071 -0.538065735474786533)
(-0.0307768562526119713 -0.616873802518719261 0.130780095709585265)
(0.351058039696812652 -0.427069578631762037 0.119993693578616098)
(0.291566518599081226 -0.351349576978956191 0.113828037686517961)
(-0.166356821345960554 -0.216451217468577151 -0.262947048948822371)
(0.291374958079563595 1.6216836207815013 -0.543532018260866279)
(-1.06535852852310176 -0.652356565206229311 0.406498344403943168)
(-1.12863089691267238 -0.504213349073746708 0.344780056265766244)
(-0.877708063863466559 -0.382781091883170554 0.118737828991032149)
(-0.731533856607012423 -0.000616593258407654998 -0.0325491325498230427)
(-0.199240540395132448 0.73303243887487568 -0.278676130283951939)
(-1.03285888493187494 -0.0541913777214298037 0.239336454038772073)
(-0.829604322951804307 -0.267703383889236368 0.128719890046532337)
(-0.628122824989241213 -0.645656116138427549 -0.00685588122951684593)
(-0.590489858167729142 -0.620793960173454895 -0.109572935814371886)
(-0.388523074620700681 0.0125980573283934194 -0.172495349173728607)
(-0.625594907236457276 -0.0487368958685984871 0.137710402004803945)
(-0.516662055174425539 -0.452911684539451298 0.0674769825583070998)
(-0.56473540762929042 -0.567749888974802497 0.00396769942379928894)
(-0.561677921654859746 -0.647985884876229101 -0.118191173018245693)
(-0.552974796479524633 -0.0918120173614143387 -0.229647662028333505)
(-0.467509322355969426 -0.164465214997798675 0.0929819564537747584)
(-0.369275473672926846 -0.331136811128470043 0.0597425427908745699)
(-0.487155622965461887 -0.388699366161606552 0.0185646909077236584)
(-0.629501515704454895 -0.363715454994877341 -0.0292060421283825492)
(-0.688912880192240618 -0.0905555876233070378 -0.117800910246845664)
(-0.301154394465712016 -0.339919580470190386 0.0575218940331721912)
(-0.333530488570048411 -0.277468652550821759 0.024385800150337214)
(-0.453921130808715989 -0.257451465715155092 -0.00294516532198233275)
(-0.545022842768254523 -0.171759354983313794 -0.0408423076228300319)
(-0.608695986235180397 -0.00394639284939503343 -0.0953707157451501863)
(-0.28607364590203499 -0.252222208591810326 0.0399215581746160467)
(-0.325577297459702042 -0.218472040826488328 0.0148254671504273981)
(-0.368090184561812306 -0.16298218545908888 -0.00612699880930239228)
(-0.414633636702619546 -0.0861642066414420871 -0.0337322118721053721)
(-0.437007027550731286 0.0293370520186109068 -0.0742187388513886742)
(-0.231794187522403328 -0.222896775447418233 0.0182439879595763417)
(-0.256577975472345676 -0.177198976998229785 0.00535729075363121365)
(-0.281113667024128655 -0.122559617789222669 -0.00775607318973869399)
(-0.298626540959582576 -0.0531837403290005908 -0.0236606188955314246)
(-0.298491315777704491 0.0310187470180316033 -0.0455093407116562779)
(-0.175917144590525654 -0.199552286543778989 0.00573478714323094173)
(-0.189803448462019436 -0.156116786304903721 -0.00042614975863770649)
(-0.201709031587706422 -0.105912235774421049 -0.0077361922407443353)
(-0.207609602451625075 -0.0485636739040319967 -0.0164789337045993974)
(-0.201974788006563738 0.014686288045341769 -0.0267283479095202572)
(-0.120600585425055445 -0.185951265815171574 0.000353563380935612362)
(-0.128242659568702122 -0.144270978066210726 -0.00247169626389085947)
(-0.133927131929871907 -0.0991645103567806024 -0.00625753415656168932)
(-0.135715917897765187 -0.0512625670519736495 -0.0108067507950001997)
(-0.131098173594109829 -0.00218138797890997643 -0.0158031152831193122)
(-0.0689917318857485862 -0.17763127770756712 -0.000919665859779108326)
(-0.0724764519093621107 -0.137463832237128714 -0.00213800909394411091)
(-0.0748990887688697066 -0.0955588046460097429 -0.00391965557108173504)
(-0.0752954280332604753 -0.0531199896762179907 -0.00610499546207267808)
(-0.0728729811981709552 -0.0115729908535593083 -0.00840662808954008994)
(-0.0228832751138027778 -0.17881698723943526 -0.000467526904285257307)
(-0.0236748907571980478 -0.138925332996311185 -0.000800711998899059888)
(-0.0240371112934346445 -0.0976028724105741929 -0.00130326848323081453)
(-0.023872955517847478 -0.0562924836270455656 -0.00192190528950174247)
(-0.023135325093376756 -0.0168430844044181877 -0.0025870500510835788)
(0.55484447490636235 1.38399408401460677 -0.330737801921854646)
(0.4859082114851353 4.07152179977777795 -0.35932403507411026)
(0.467632959528628378 0.924988182673718295 -0.404653376307687884)
(0.60274416345946269 3.61176430030900786 -0.337034662068995017)
(0.157579052991043689 -0.959656437518263683 -0.00413044371009940216)
(0.119088183979039003 -0.556659192043264972 0.0289675922881323655)
(0.188883414824837281 -0.386235500234874185 -0.338814378595461263)
(0.252191273561203577 0.174969061798994546 -0.607741781173332996)
(0.593314528723068557 3.14635341135424085 -0.35455191420687715)
(0.258038384253055031 -0.954077145559878104 -0.0192904688717135328)
(0.315520640847123723 -0.68202076545363377 0.0218678660915415553)
(0.290722663205582821 -0.380961523489459331 -0.0676771164982987172)
(0.0718319203617493046 -0.0943760997756151743 -0.613516535504794347)
(0.51537652798810718 2.52807699007567521 -0.405995906798710227)
(0.24067897925197107 -1.19617307417260177 -0.0292380126026565851)
(0.253515029866582975 -0.505748664632807654 -0.0234224183843277228)
(0.371216613183711075 -0.258439845651503464 0.0202749040801538036)
(-0.0418498162090938583 -0.111966432119352963 -0.247906609705537739)
(0.337016611098974683 1.78511920036182836 -0.426816397640689627)
(-0.468379351794431409 -0.854223526879378192 0.159410155138100557)
(-0.107692715241622397 -0.0734461408258741538 -0.10885335684893914)
(-0.660697638858724456 0.18074052276786462 0.0676457496853879181)
(-0.429882759444367712 0.393102404696098473 -0.204320654049729378)
(0.0243514186267775531 1.2325873108242893 -0.379922918592344838)
(-0.462750586434074518 -0.295797097573368473 0.254416889893791409)
(-0.244472208365423632 -0.494207810314371665 0.036296176285278009)
(-0.473679130762211797 -0.111930500930234406 0.127667600287668825)
(-0.519425089679467211 -0.019375258447249577 -0.070797795689428622)
(-0.203870868231022406 0.774683610936958922 -0.274995011058994987)
(-0.513271503020069408 -0.442922776303604993 0.222519808084114756)
(-0.418512270852119117 -0.446330742445218587 0.188487050841891379)
(-0.415433568132794417 -0.390650843893077915 0.0396481881430816308)
(-0.453753615081526895 -0.181935533367143798 -0.0907540993148458208)
(-0.37835654300272864 0.498405041939268489 -0.233349520889159778)
(-0.434201216642174925 -0.476849894231902827 0.0868150101334753954)
(-0.482770289324870816 -0.396399034832881247 0.0540147977633204865)
(-0.565658841285332503 -0.32394512464447528 -0.00659632542315083392)
(-0.602401654248773344 -0.143588799070371642 -0.0693838649887704439)
(-0.579102162536069054 0.314099273179637706 -0.152163911434697874)
(-0.35695741417745247 -0.379687273448383378 0.0848404131132354661)
(-0.423343657802061013 -0.31723001893331082 0.0389021474832696099)
(-0.504828464388054954 -0.246405261930578295 0.000197262256965936508)
(-0.589977460891004446 -0.120480675800187009 -0.047909957725328238)
(-0.623646039711249323 0.152989245451667283 -0.100699230028299738)
(-0.309717892667449202 -0.280200831397109218 0.0403208903912811792)
(-0.351899581819697771 -0.228315843384882033 0.0199876521417123171)
(-0.400514471234314329 -0.166323094315455527 -0.00234086809787561415)
(-0.454115922987621712 -0.076372491072115814 -0.0299914061527261043)
(-0.482207791034578392 0.0724378609447365318 -0.0687171383023390397)
(-0.241970501013271361 -0.235817863162924968 0.0182364531081571496)
(-0.268401359323882482 -0.184856853348587868 0.00721533781492441229)
(-0.294975960189135522 -0.12382540894890115 -0.00471885089572305315)
(-0.317166350141987519 -0.0479227461061997734 -0.0191682904818162095)
(-0.322492954509136176 0.0476168533056288354 -0.0398778935060290218)
(-0.180464148022937837 -0.205828305281302859 0.00655662085474524592)
(-0.19589783335376415 -0.159138913844333652 0.0011887251785446919)
(-0.209032737961574344 -0.10572157338464197 -0.00544030756253494757)
(-0.216306334596270883 -0.04449236336699737 -0.0132700832174238136)
(-0.211660904323688753 0.0242086496433090576 -0.0225347952945832916)
(-0.122489488738763835 -0.188407878865792078 0.00133799654682615721)
(-0.13118605635530492 -0.145140365734889282 -0.00118068807938360065)
(-0.137628774376131219 -0.0981978506147618835 -0.00460469583907842026)
(-0.139964832416154927 -0.0481096023123246605 -0.00872397173962342724)
(-0.135400211015934385 0.00363728617809706053 -0.0131697705480099646)
(-0.0697313168704825626 -0.177972353934695515 -0.000251099017988172112)
(-0.0738063123857612274 -0.13700805813619768 -0.00131717983038479231)
(-0.0766518128692320333 -0.0940809114713365147 -0.00291578255366629815)
(-0.0772839621557459833 -0.0503975635352605159 -0.00485544482754929254)
(-0.0748586631526920315 -0.00745674671731112911 -0.00695639082108088364)
(-0.0231126480888010216 -0.178191343246988432 -0.000247045499864472938)
(-0.0240772986548829469 -0.137814210417175703 -0.000555872472997586309)
(-0.0245630740899542739 -0.0958177305102760751 -0.000995190135543730283)
(-0.0244664394671967392 -0.0536963864986019224 -0.00154303842525417003)
(-0.0237480133473155566 -0.0133718307173609219 -0.00214047720279128117)
(0.535621147220163407 1.42302371671402783 -0.24251369332990988)
(0.458350151096474367 4.15712566144798501 -0.22855732601311099)
(0.445746671659230542 1.01914492183575978 -0.256488480829969223)
(0.562720617538614132 3.67709088187898248 -0.215424637259607726)
(0.167210735515949893 -1.01137344835880993 0.01441735989225984)
(0.049123959010684809 -0.733742102569924004 -0.0595631153067329305)
(0.167572007209000118 -0.514314762062969999 -0.406866952230858281)
(0.192549961594004643 0.3867383427617892 -0.404058076972866664)
(0.542732147669108378 3.19489028248917561 -0.218522780482024392)
(0.284138164832100915 -0.919637704306843218 -0.00234644870516208335)
(0.318039571468141102 -0.892485073322454414 -0.020901869753334204)
(0.198205213536255587 -0.487181101392611504 -0.124846321011072889)
(0.0789200664445462996 0.121681911809764925 -0.630168968164759979)
(0.450246962325694389 2.59549598548433869 -0.285597556821490239)
(0.477149166765126864 -1.06596315406592623 -0.0298254826435635362)
(0.387993566665723044 -0.835804493674787818 0.000114045716360595961)
(0.266608407275577719 -0.328017851937757232 -0.0442801178744925)
(0.0107289911900826096 0.0712067204786318575 -0.408491352788585615)
(0.296995891213551966 1.89478893809070503 -0.367840120812398585)
(0.0474215502977048675 -1.30129266765769147 0.14992417744146555)
(-0.130802388309851997 -0.500806865105514865 0.202317661551158989)
(0.146897659452042251 0.209329190080875749 0.194685293263484466)
(-0.228937205938584548 0.440143342929290693 -0.198783036489557974)
(0.107571619150078207 1.4190919363029173 -0.423045795156832494)
(-0.379108154610369064 -0.595472823031857335 0.183769839073812252)
(-0.305055463701188967 -0.36788425478916631 0.242568661429811094)
(-0.327028735866652931 0.0144458694322459891 0.263253183921198675)
(-0.38749217927271512 0.467091311392350605 -0.0684503188441664412)
(-0.106161817143238718 1.06071643703544649 -0.384091349643662094)
(-0.487275542029937503 -0.635033359098057026 0.0596840716098648028)
(-0.514526317931608967 -0.413024118129925844 0.110006437280702571)
(-0.488166024211739158 -0.157293331441782924 0.0583019177287128487)
(-0.483653213980020036 0.215159543314864921 -0.0498574437494175987)
(-0.309424838077325126 0.747704767804807213 -0.251031690248139094)
(-0.524118477734065724 -0.477096857939283303 0.0521617123887843787)
(-0.569109923588252187 -0.385821885282426669 0.0271370148229051929)
(-0.584685008671404716 -0.257966757880499942 0.00240201984368769439)
(-0.600864017034616671 -0.0291090125212638273 -0.0276717146354479096)
(-0.532893342377556478 0.450303541263962659 -0.0963980081525120658)
(-0.407269321026340447 -0.404351613888668748 0.0702156018770005302)
(-0.478153775207769693 -0.323843491256916693 0.038784205616421541)
(-0.546325059407452684 -0.246324258130668994 0.0145617096536227453)
(-0.612197869108799586 -0.107760676028477304 -0.00580633963445132892)
(-0.635995135125622113 0.205572864036612707 -0.0330216900050710471)
(-0.325113992549782349 -0.299916862465485601 0.0322507366970769885)
(-0.368666608760046477 -0.241703377367553734 0.0181766293449699724)
(-0.419905000112626992 -0.173904438988275123 0.00697903819823686086)
(-0.479031312488430006 -0.0788652381907042482 -0.00622587062687418678)
(-0.511741643872053231 0.087676142476994165 -0.023533913042412466)