/*--------------------------------*- C++ -*----------------------------------*\
| =========                 |                                                 |
| \\      /  F ield         | OpenFOAM: The Open Source CFD Toolbox           |
|  \\    /   O peration     | Version:  2206                                  |
|   \\  /    A nd           | Website:  www.openfoam.com                      |
|    \\/     M anipulation  |                                                 |
\*---------------------------------------------------------------------------*/
FoamFile
{
    version     2.0;
    format      ascii;
    arch        "LSB;label=32;scalar=64";
    class       surfaceVectorField;
    location    "0.119999999999999996";
    object      Uf;
}
// * * * * * * * * * * * * * * * * * * * * * * * * * * * * * * * * * * * * * //

dimensions      [0 1 -1 0 0 0 0];

internalField   nonuniform List<vector> 
20536
(
(0.518109952546334962 1.81785380833318722 -0.747092173739730914)
(0.424653904066578103 0.484747621355092473 -0.499350747465242328)
(0.508588711142545447 0.802381670872167052 -0.480584036274374682)
(0.482189463367136528 0.508964634216396261 -0.388033126134995576)
(0.540663040828549102 2.60701106075961953 -0.935846224068059063)
(0.517225050183543367 3.20717214902963033 -0.920397046477743119)
(0.574286545477979526 2.73224122363135979 -1.11668519383279286)
(0.586257607169279771 2.94306205231650519 -0.788114237341474122)
(0.452935428484000424 1.52278864144227088 -0.688104797793569478)
(0.204633226766435167 0.397896956906882537 -0.59287304160779708)
(0.364354713611475645 0.601789232371064076 -0.594598334629945491)
(0.30645019135314483 0.435964080939525211 -0.441851655739399662)
(0.557028487666865635 2.31586133755304635 -0.785212383410998638)
(0.589146785323230726 2.71505536744983322 -0.776817275789747463)
(0.571426090055715763 2.34819242063036837 -0.887250709575136298)
(0.547059789389911622 2.75733034547650835 -0.804999983446231915)
(-0.1436406847532197 -0.83533217907692725 0.0403329079992445633)
(0.0891598038579104885 -0.867095862273038365 -0.0602307678815922412)
(0.09315498249806628 -1.00709115193012111 -0.0235640773076609064)
(0.132549151015351224 -1.0368486221188713 -0.100823835495125386)
(-0.442216098402781976 -0.392336459554514017 0.0488702233871213393)
(-0.598972446532085701 -0.567734557066395196 0.212437945837454401)
(-0.448332871217877904 -0.71892256746645089 0.212019363283842216)
(-0.309019462472677142 -0.653364645596362759 0.0461672720380063711)
(-0.0900957360918751837 0.0586306086857753192 -0.355326446763819526)
(-0.553637434803732731 -0.078983758006846691 0.0327839289486312468)
(-0.165722453187221591 -0.241190761693712091 -0.203594737498413669)
(-0.403348734857285007 -0.263208608182461501 0.0756623731598992239)
(0.271372675818992326 1.17373299640129236 -0.689980627225225129)
(-0.140589892870935346 0.438048657435053557 -0.476664631996861765)
(0.09059469016208338 0.190241606642995414 -0.721721275952668551)
(-0.0155235449865303854 0.265025812431074703 -0.373645855835504526)
(0.409662911790282136 1.87868900241058734 -0.67327741897088389)
(0.555867784061694459 2.30595727683013596 -0.727798125086822512)
(0.522978920181938256 1.95725635943471676 -0.74849793001543552)
(0.575967665027318665 2.55639541124019098 -0.77306241799994313)
(-0.282258820632146579 -0.499979446655292703 0.111874269956616548)
(0.0728159222959785107 -0.547367284180834801 0.0234990956551346455)
(0.156550536436683041 -0.664382041071504559 0.0202224284293363345)
(0.182510238227317989 -0.732185471282837397 -0.0891636889616787137)
(-0.748123819868921403 -0.139833300645639091 0.196351651398964433)
(-0.855422262352412699 -0.228524311965552007 0.242817673579016263)
(-0.650230715988887931 -0.432561407801132503 0.257926437063279612)
(-0.430263572271456285 -0.454237076613060398 0.0699603152058052291)
(-0.512559347794176334 0.271466602459388806 -0.0885542562844094661)
(-0.885058876597767941 0.0402691563505009342 0.16006857235539354)
(-0.614779619954369028 -0.110157135645886889 -0.0363830668088423806)
(-0.746299388357734461 -0.061827116120052858 0.252496270774247966)
(-0.0847141744960589194 1.07321493012602032 -0.459961423742519693)
(-0.546416421276348596 0.460674071145529218 -0.214379544131884064)
(-0.262533190783567738 0.32235820571517293 -0.455243157373863838)
(-0.367375114568851524 0.479684531553348836 -0.0598596721171773816)
(0.00949770930139937075 1.41224688946865462 -0.527977575289355405)
(0.361677769970111584 1.84347053814582651 -0.647450312683101492)
(0.239872629024815626 1.51287461649016031 -0.514994361516981192)
(0.414134591232529214 2.20293735939571089 -0.666073443406732801)
(-0.399755237763363802 -0.123273642150655754 0.154442499277534118)
(-0.263126746160629199 -0.176605421628906772 0.11544621264188018)
(0.202876422295115655 -0.32492373386354928 0.0948416133830563141)
(0.178439256843305194 -0.459998578582186901 -0.0505068192542824507)
(-1.00264672441609637 0.141572683664639737 0.206534594535445259)
(-1.10672600537871757 0.226029996419121637 0.260107940721098108)
(-0.904786131579123354 -0.0426069815684588168 0.248546903619168147)
(-0.53307234055042263 -0.107133764123998415 0.0156718766125713144)
(-0.86840216749519783 0.378087422007949758 0.0342432845079188308)
(-0.982432421119400656 -0.00102127238024437433 0.275543507546104904)
(-0.934857955699964105 0.0419839782420123181 0.0931623554247762165)
(-1.00585841378947416 0.182657103096103113 0.184954532837864366)
(-0.521575837299897094 0.87442912029412434 -0.282395695678719028)
(-0.820462941964834158 0.227887331830790435 0.0581355374402952041)
(-0.686494624716159962 0.437817398724014706 -0.18479714033102107)
(-0.779364771072035722 0.476408950955827637 -0.0317015545506884253)
(-0.465790531469601365 0.881802630023926892 -0.275327539191132065)
(-0.114883503215571725 1.31181758426767137 -0.53745083808034233)
(-0.358138357176340738 1.08240865077526505 -0.351340015660313865)
(0.0856333885687031171 1.84603115052615507 -0.566136016316538981)
(-0.957237432514907116 0.106777323193577883 0.221111654085444642)
(-0.815801064912450746 0.0812630151456907868 0.174706148259709065)
(-0.572944259192520122 0.168590295907429716 0.263184506674183805)
(-0.744214275219513777 -0.207553412821217309 -0.0817818191409073747)
(-1.07468581207377922 -0.0514850646001580314 0.329116853731757031)
(-1.18456698576091735 -0.0397668227053520965 0.26157596053044474)
(-1.23348842412539383 0.241080397074714625 0.318737739018486677)
(-1.07221189286062568 0.119550552691247591 0.0371371298828010246)
(-0.934854865872496665 -0.140683204693426961 0.299435760478480639)
(-0.959148365191800467 -0.273022493659769383 0.352583040136446924)
(-1.03887509726099969 -0.306446445366612752 0.319185054068864327)
(-1.04648411832591925 -0.108619411002950556 0.262142921772987869)
(-0.715617545777704311 0.271361484164143518 0.0652036939278841654)
(-0.927150631322511076 -0.0694801985902722963 0.289352147923654768)
(-0.982432833252011251 -0.0623563297952264145 0.138533637108489871)
(-0.899539278837288347 -0.0219274733987144012 0.135166179147973436)
(-0.736821114438964364 0.478154884290487636 -0.0145333744655560537)
(-0.668440180999107736 0.636848576845450931 -0.180146064922724003)
(-0.706902414329927398 0.539585457489799025 -0.0982914251178866188)
(-0.320795897128206886 1.26395982420525366 -0.30377768857690346)
(-1.11061425862651064 -0.0777681053205104278 0.215170454704709302)
(-0.932914167572300723 0.0310937159800806079 0.136400643018118689)
(-1.18590064623830482 0.159907759257843118 0.241322493275789723)
(-1.13238487145933542 -0.294544050870281904 0.0620249951367851521)
(-1.03482691694657869 -0.224957784816154749 0.285042146935134577)
(-0.955643240289717033 -0.261679592715481357 0.191345493334243055)
(-1.21954367706767952 -0.0241862242624537559 0.266538223047569689)
(-1.12157314679113407 -0.216958403331438149 0.185963065054878474)
(-0.960328289507161204 -0.223260614864629475 0.34249942758162083)
(-0.904829766862426443 -0.393288007024680475 0.285751536492674985)
(-1.03375404765635137 -0.313568314437941364 0.30047955991617048)
(-0.944360554196185698 -0.258021173046491192 0.286524836576677655)
(-0.813961850120213382 0.162382915552811424 0.209615079530215964)
(-0.955259917270607994 -0.190394207360065848 0.292107136627094477)
(-1.05207967201017927 -0.135882599887675676 0.231985487363528947)
(-0.961066008844299824 -0.119042756149763063 0.28147934323370416)
(-0.874898142171009252 0.372014296223580287 0.0651076114401834966)
(-0.793014273423157889 0.410512942250282731 -0.0418301263063165715)
(-0.837694437431901751 0.397556544785254817 0.0374643023401722911)
(-0.645150278363238905 0.90297592642233182 -0.129487124625874361)
(-0.818237189212627336 -0.19519108449469863 0.112575681647652651)
(-0.673918874347040564 -0.0613717150308751014 0.0374031873384638655)
(-1.01086133344880347 0.132201602662407491 0.136518915630064325)
(-0.719301468396514321 -0.277376806724073444 0.072761668390853268)
(-0.814348846387063618 -0.382235356062542053 0.19205488289178374)
(-0.649595153589472951 -0.33942204819891747 0.0955923112900510241)
(-0.926711560499809739 -0.278506736565960922 0.175343682432118092)
(-0.772299806091692576 -0.439863595025025755 0.126972869541182642)
(-0.890717855734582842 -0.294523768401245167 0.235359245538148354)
(-0.747525794127734011 -0.34044987393886994 0.154368373217678434)
(-0.922845252937981586 -0.384020656785918346 0.235970558114039997)
(-0.828961218551996004 -0.409475578927985417 0.203313683486586849)
(-0.916294580560696459 0.0865710610066496855 0.147599668537062412)
(-0.84573008172411368 -0.179467789655002291 0.144555422409243267)
(-0.975818029831212796 -0.206022137847090475 0.19913998901630775)
(-0.918447679666772876 -0.215077007281402527 0.183688312047228353)
(-0.866300367163747365 0.261148205733623018 0.0228263040509349216)
(-0.919064498694491028 0.320684402967428839 0.0347361607450971388)
(-0.931420364937544099 0.260915645009371033 0.0447368354003581034)
(-0.821891231962000424 0.682258472511726111 -0.0766270284992412176)
(-0.528770174016620964 -0.1938479955299649 0.020419816980862069)
(-0.413380104595591824 -0.180088258990266509 -0.0165547677721967837)
(-0.676247644283684557 0.0617094738347417696 0.0335164467403356869)
(-0.473809861315521941 -0.202693919414896145 0.00267125411027861054)
(-0.572764142987039593 -0.288811978815386783 0.0579058016159459885)
(-0.423591638045766605 -0.309359665224335334 0.0269217647916599606)
(-0.579343688940944346 -0.311535043838860215 0.0647558624985647147)
(-0.505874999713071705 -0.31238945690440606 0.0456937346655876195)
(-0.688848928430614404 -0.22526699273698475 0.0635645500887735276)
(-0.540054362424775003 -0.231226268226578158 0.0353701335213996992)
(-0.672620908171868814 -0.265638036655309218 0.0882519982879421683)
(-0.617734904793536765 -0.260593680234745051 0.0578826124228969813)
(-0.771127670317592995 -0.025261637124962516 0.0197820579231164709)
(-0.631828345408920411 -0.127998013828124008 0.022695684125394848)
(-0.777462319551344927 -0.203992188767319893 0.0764928639796265825)
(-0.717078453572583596 -0.174761520717805707 0.0376699523027617528)
(-0.661916880805524355 0.129842062261634417 -0.0398970716584673979)
(-0.80664486323622242 0.122962602773005192 0.000105016371152439822)
(-0.743856056641911345 0.0946581208195460683 -0.0433958521758672361)
(-0.72158609364095927 0.341492305529003171 -0.095434182254428318)
(-0.30745572210228439 -0.256380417231963642 -0.0100528199613987464)
(-0.264470524525707906 -0.229472620706900693 -0.0311082628684111427)
(-0.328483755487507467 -0.150612045541940714 0.00514985100430416856)
(-0.299263465115747918 -0.276436380900409118 -0.0421777471177113283)
(-0.39795742646378629 -0.228351192033908912 0.00438609669711359246)
(-0.313049382611637617 -0.222881287819838209 -0.00398173856684998391)
(-0.347131372613453282 -0.282729382646394245 0.0225985998555950363)
(-0.351751554981120984 -0.259498628272697207 -0.000191917579795138169)
(-0.473943125774349439 -0.139861722788707982 -0.00549873244197883471)
(-0.385987314019557548 -0.155370335251095865 -0.00673862162301320806)
(-0.450933241652316685 -0.191367629145153789 0.0151579014605944598)
(-0.43450259198221558 -0.183277625416787049 -0.00181105003794446162)
(-0.537665518925333874 -0.0133268284942675702 -0.0369834454561886253)
(-0.434545957939683536 -0.0680207985859962727 -0.0202397402976545633)
(-0.527742787058884999 -0.105091343672355425 -0.00269942630982991302)
(-0.49267059574420452 -0.0861508004717284476 -0.0193546226329211445)
(-0.449366627443740729 0.062870368465757831 -0.056271129300972958)
(-0.567069601207239149 0.0529146568736427042 -0.0460273121899507087)
(-0.510720219530957475 0.0555693040590579529 -0.0704587219950917332)
(-0.514924751908058753 0.156812809199570635 -0.0966405818955178159)
(-0.26337022377843089 -0.20805277081195786 -0.0250371814738623612)
(-0.225870975897967091 -0.202127354426560019 -0.0271377685644612551)
(-0.221782128799071554 -0.214655426503753882 -0.0191998088964664866)
(-0.255605076939067699 -0.226665798866117651 -0.0360684992772098423)
(-0.313547819064476374 -0.167521940505108657 -0.0151064568869767289)
(-0.260239961781617235 -0.174054111964759617 -0.0142296047298291848)
(-0.282508397454682814 -0.200771304983043103 -0.00591054582717823965)
(-0.294031136038960583 -0.19529038647663377 -0.0179576064040986687)
(-0.346630264568430435 -0.101273558041264977 -0.0214796294786888595)
(-0.291463532574818551 -0.122649416809706382 -0.016495905140757966)
(-0.334813571501069829 -0.14197950622251615 -0.0106918141582913202)
(-0.329543941661925244 -0.13818948930292535 -0.0182807327721099845)
(-0.363697565277956603 -0.0139660250024274887 -0.0395274241424388093)
(-0.308333896255978068 -0.054288510385777887 -0.0262260507409173664)
(-0.364485899485557485 -0.066218692911862026 -0.023469282945022877)
(-0.349028980006662992 -0.0634677264197560376 -0.0294827746707036868)
(-0.304257537194729533 0.0260750760924912776 -0.0451018921049828117)
(-0.370609018555285996 0.0347405474004297901 -0.0482948838717641923)
(-0.344618074992839918 0.0295675467959264984 -0.054171987060575584)
(-0.342715457846546279 0.0838577691723158963 -0.0678549206455382053)
(-0.221050185837571606 -0.181332472615371693 -0.016330191820428084)
(-0.188402634125570345 -0.189468990932040532 -0.0150402380032638588)
(-0.208168995500315285 -0.193750806313704171 -0.0115899435823447229)
(-0.214720903193210383 -0.2032225013712603 -0.0218147840126554048)
(-0.243613507397378748 -0.140280466825138117 -0.0156190529836104496)
(-0.204245267508405298 -0.153902076390544207 -0.0129580316373893775)
(-0.232740182518261091 -0.164742891351531973 -0.0101665711237343883)
(-0.233528735761112494 -0.166093783459021288 -0.0167841633562997167)
(-0.258234740018684739 -0.0860739633474360138 -0.0212423264029864417)
(-0.217662100662885383 -0.108585173723814071 -0.0157821878030899691)
(-0.254603434832182396 -0.115814154807209746 -0.0149000691450742913)
(-0.249618212754393637 -0.116747610430396109 -0.0185167833505238792)
(-0.259318503085282592 -0.0222789449907220723 -0.0318005187034614833)
(-0.22284284102574986 -0.0553927372326047662 -0.022554212041510615)
(-0.264992734553682052 -0.0555498664376562201 -0.024365909724481459)
(-0.255891159323018202 -0.0581493530584085289 -0.026061921429262315)
(-0.214765947336211099 0.00236685047745167606 -0.0323530608314941126)
(-0.257595535128423203 0.0149201338129747417 -0.0383353572973858733)
(-0.245987282278652242 0.00702437421795293077 -0.0378469666579608482)
(-0.240991582730186532 0.043428205708320157 -0.0450786934111289811)
(-0.154929926397013001 -0.236310812913403362 -0.0146980348716277062)
(-0.131515786010067998 -0.253765485744408659 -0.0124321109124623484)
(-0.156172640652071815 -0.257733411424233616 -0.0202941225241701842)
(-0.16136153287223215 -0.205275981413020836 -0.0125976372491281036)
(-0.135118722598143975 -0.219845135362102317 -0.0108979385006576571)
(-0.159861482880723466 -0.225770011369258228 -0.0170300054265212948)
(-0.171213082711966696 -0.170419294225671869 -0.0116680778202251853)
(-0.1414582922815113 -0.184920686897912828 -0.00975203199097532218)
(-0.166473040296685831 -0.187968780632800037 -0.00832826729288808389)
(-0.167405255013120258 -0.191711212830147276 -0.0140492581986064024)
(-0.18087339923379922 -0.129582280730231619 -0.0131211664568689212)
(-0.148647984144236883 -0.146508410117467403 -0.010212434176390164)
(-0.177242179021186386 -0.151118474675112496 -0.00965073263116237624)
(-0.176032551912418594 -0.153013332865637092 -0.0133036926389173971)
(-0.186314731455478944 -0.083088117377641782 -0.0170940734416141216)
(-0.154040444423661382 -0.104244669199970663 -0.0125576851578817743)
(-0.186029623798734611 -0.106722848693815861 -0.0133681185815364752)
(-0.182500584122130577 -0.108918080698859693 -0.015306268526558307)
(-0.184096216487290132 -0.0329962155113068117 -0.0231067541695432824)
(-0.154861263021547069 -0.0591937450726071901 -0.0166411368416790641)
(-0.188690348105635786 -0.0568053570411504657 -0.0193194307384754529)
(-0.183372847572874281 -0.0607874104028701887 -0.0198763390934517392)
(-0.148713224642379238 -0.0136100223775957856 -0.0218752697740740645)
(-0.18162729445230455 -0.00390938177996687838 -0.0268623986049746424)
(-0.175678046034713375 -0.0109366179093686577 -0.0260772895002992187)
(-0.171235920348025011 0.0168929460563193891 -0.0298943820890919115)
(-0.109537565505842802 -0.237050582697553691 -0.00863201454149232356)
(-0.0853718865061322135 -0.254585274275848428 -0.00706747701181096536)
(-0.108450184601575239 -0.256904786763637594 -0.0108519419781912384)
(-0.113946006815336287 -0.201783116593213463 -0.00805233324250490337)
(-0.0885619625116755016 -0.219195967042503992 -0.00644483387503341342)
(-0.112361309751347616 -0.221794470907117292 -0.00977312308180851991)
(-0.118939087295283047 -0.164646779299617296 -0.00829638834714030438)
(-0.0919401440648050933 -0.182294764946411531 -0.00632258672499346787)
(-0.116791795583498989 -0.183144627058690196 -0.00644516254315990848)
(-0.116674308815516617 -0.185400834295047279 -0.00912877071365247351)
(-0.123199339392878193 -0.124980906063738822 -0.00964895287740301887)
(-0.0951301777571838258 -0.143550054556989048 -0.00698091454549423958)
(-0.121928938566585085 -0.144654552991083318 -0.00767352574448742705)
(-0.120791057641084956 -0.146786182366403312 -0.00948279647918505095)
(-0.1249716843091737 -0.0832539106024799552 -0.0121047485579467238)
(-0.097173606004245891 -0.103361896272618783 -0.0084981881691203378)
(-0.125508985705431786 -0.103311127723510532 -0.0100568755586013612)
(-0.123347619101796369 -0.105996578371114883 -0.0110383590791086825)
(-0.122634670046711455 -0.0408502344557928332 -0.0154096524462098098)
(-0.0968886159985651169 -0.0626689016084113065 -0.0107583897411480597)
(-0.125709817486356762 -0.0600908610216318098 -0.0134283283160154185)
(-0.122758442054396677 -0.0640098301509552936 -0.0136622380324349126)
(-0.0932414336781606928 -0.0232847629369943576 -0.0134376383266309289)
(-0.12085104297608712 -0.0168482743951282633 -0.0174530555123416052)
(-0.117701131800971359 -0.0224809495313362945 -0.0169394868054629083)
(-0.114807213763950977 0.000268564480621721891 -0.018906404375313924)
(-0.0640590975283761854 -0.23407300695936481 -0.00488029634535207171)
(-0.0418516342084548076 -0.253227455445754535 -0.0032744512683961142)
(-0.0631124769300382277 -0.252880075075233357 -0.00571015691305127009)
(-0.0662866199214912077 -0.198281449240656465 -0.0047150873575219918)
(-0.0434904853296686697 -0.218341793533582101 -0.00305233666284278077)
(-0.0654120362432490943 -0.217873455622830392 -0.00534818330536037789)
(-0.0683200954821162054 -0.160838779570784629 -0.00500711292334740307)
(-0.0448404415740951134 -0.181372889451910713 -0.00309436366429910459)
(-0.0674887330327803153 -0.179126985799951538 -0.00409658216653550986)
(-0.0673459191407976832 -0.181172419035092069 -0.00528598398160194747)
(-0.0698503616328271654 -0.122121500523363957 -0.00583014983721156545)
(-0.0458678139931615325 -0.142809923410218947 -0.00347129221759006614)
(-0.0695260977767378913 -0.140701364241649557 -0.00482135837676726364)
(-0.0688798797261173518 -0.143011813302827945 -0.00568344194220451841)
(-0.0703114269841558365 -0.0829779084571869163 -0.00715182935232169109)
(-0.0463560054284513426 -0.103497408195089763 -0.0041959522458296589)
(-0.0707809860123034679 -0.101155207383103421 -0.00611011694570850594)
(-0.0696615045249694143 -0.104032854492159821 -0.00660556465472108677)
(-0.0689627958413367576 -0.0446117876053456347 -0.00878637562156918059)
(-0.0459634209757513873 -0.0646559466775390307 -0.00521068304596986921)
(-0.0705381714779743096 -0.0615944123630970883 -0.00785117388205449837)
(-0.0691091207496594001 -0.0653040312460891614 -0.0079722960708842102)
(-0.0443838581909966334 -0.0276683632904778064 -0.00633413220128859009)
(-0.068186466197204032 -0.0233722048078243844 -0.00972766344183321335)
(-0.0667141432373021398 -0.0281264393327535639 -0.00954054998097749254)
(-0.0654703209271067371 -0.00828930397457578252 -0.0104461631396392182)
(-0.021392743314792375 -0.236769683875848569 -0.00144649158588681481)
(-0.0209513540793031562 -0.254866301213527102 -0.00164833236074543089)
(-0.0220941211976034974 -0.201251881980371389 -0.00143161296961988706)
(-0.0217817020047891517 -0.220540482288436479 -0.00157186469777893171)
(-0.0225220330698203755 -0.163703003412972364 -0.00155854295854177764)
(-0.0223940716350309738 -0.182028933652385649 -0.00129768428181408347)
(-0.0223070234126222788 -0.183960636603362815 -0.00160227913034977727)
(-0.0226488421251664768 -0.124842427477384915 -0.00183709462620818042)
(-0.0227614166470679995 -0.143387656701128186 -0.0015385277311430513)
(-0.0225324682779120856 -0.145703307253348457 -0.00176944815728739087)
(-0.0224392030115542346 -0.0857641067775891108 -0.00225480593947783008)
(-0.0227922942330829603 -0.103787015395742671 -0.00193908054201122966)
(-0.0224350605630144091 -0.106662217932311718 -0.00208009813212045851)
(-0.0218461480012369681 -0.0478796686227497686 -0.00275843962568928089)
(-0.0224348913368743845 -0.064556589669650527 -0.00247090249213462523)
(-0.021998100887794584 -0.0681076680082136898 -0.00251402808940808615)
(-0.0216405600289415988 -0.0272599247702473048 -0.00304806383443844689)
(-0.0211799633276222136 -0.0315306515538316748 -0.00299109002861657272)
(-0.0207855258019405305 -0.0125663511789039575 -0.00328884684572646694)
(0.549055505738182625 2.19170001156860561 -0.665060812460399386)
(0.448289520687442988 0.628633757705325813 -0.58393400662746664)
(0.532962866674134506 0.991133700605694945 -0.520011696652504241)
(0.565708794678224991 3.10991422935160067 -0.76250211877403784)
(0.520767209789191665 3.6170616362771133 -0.752369332710990268)
(0.604642271957059774 2.95239208182813462 -0.632833464797294631)
(0.473514003175001419 1.79405595837862086 -0.681375312941104871)
(0.250316177007123331 0.331870588025619528 -0.743685673866083752)
(0.395395827735206651 0.62808802731468294 -0.622458397110572492)
(0.587986081718059439 2.76545035057911637 -0.71985416414915282)
(0.616823417805291818 3.12466459932413443 -0.670576480020882548)
(0.612340944074664106 3.16041207951796332 -0.693001138153724106)
(-0.168997372747180324 -0.890681540319645304 0.117489587771573062)
(0.160545715076838985 -0.833644925338170473 0.0541243633838208726)
(0.140783449863889604 -0.975334053787465516 0.0844758741091084231)
(-0.204025393058670373 -0.567776869605650658 -0.122191206173869527)
(-0.499591140674680412 -0.768302529524976685 0.195563505726255554)
(-0.255467467588154695 -0.762196691320434772 0.220181780311917069)
(0.0750898119337213843 -0.109579763736493294 -0.638402820357877543)
(-0.226864638337857333 -0.313975769885208977 -0.378986239686246007)
(0.0526727884219192199 -0.353741306671753186 -0.347735831278907892)
(0.321054253180038829 1.32246588707182777 -0.7821645250741317)
(-0.0313486077505480409 0.198177002180507683 -0.782243976491843185)
(0.161355490898473175 0.0910506733587220923 -0.851213964731135309)
(0.507882642241523685 2.30670768235890566 -0.71281598879953334)
(0.581049862068988787 2.68270845412264691 -0.671451894284881168)
(0.601722230144457471 2.97681741949793111 -0.696926947248482365)
(-0.176557094319023583 -0.596964002217344247 0.132198281338504448)
(0.286611036435820032 -0.548430878064330996 0.0754266868980705968)
(0.233231430100209192 -0.702865270051536983 0.0995829002114344969)
(-0.431128467198542309 -0.40288524280138005 -0.0612315277861201837)
(-0.699594585215598697 -0.453720720633120411 0.211061704988566246)
(-0.315898842903990007 -0.601053168413645311 0.274505962086133593)
(-0.251053909242267725 -0.0592655323901040976 -0.522827395820210317)
(-0.664578699056565525 -0.285889776229543591 -0.195982441828217557)
(-0.231992944298533482 -0.423360843915535356 -0.21515586737883538)
(0.048639543557146267 1.09261381373497057 -0.712895440217244714)
(-0.402611394223378494 0.221219380417377903 -0.544111355129293206)
(-0.124065688726813783 -0.00794401375340126649 -0.736989695879912921)
(0.237296557453141377 1.7283261953595721 -0.676895915258647562)
(0.473000656293173449 2.14876850118386686 -0.690071719845833598)
(0.530376345860476217 2.6171180905669571 -0.681126423290888461)
(-0.259076836300665025 -0.244257073281352183 0.154290110548133047)
(-0.106941090736776434 -0.0785837858384942356 0.206813128841178029)
(0.251495701539666605 -0.43499272211329032 0.146902982063683352)
(-0.807979052189947811 -0.142195686991086895 0.076310790946468629)
(-1.03154855032579906 0.17578999205910395 0.276740102186720516)
(-0.700766261420080694 -0.285114106205399898 0.316794218271005845)
(-0.676927764875960625 0.101713954958076419 -0.217266401137299003)
(-0.991300631841562252 -0.283954190967923958 0.108708330608815212)
(-0.798628684554330892 -0.374238503753828167 -0.0246138665250500849)
(-0.359404894942388253 0.87520586269756484 -0.50811183017069661)
(-0.848464516003337055 0.0605640296448327065 -0.174610235977904149)
(-0.565548690381999952 0.139515514916741079 -0.359934184410084956)
(-0.317533152745079539 1.05139303065686551 -0.491222487314981637)
(0.106979088423014512 1.4577295717826515 -0.654130257475774024)
(0.279557073275795598 2.13202504480084931 -0.650013554601005628)
(-0.971981821451346595 0.302893369788566402 0.329263120479764915)
(-0.943043840518376975 0.364238450492230081 0.307348981301475088)
(-0.825161335014656272 0.0839094011425060293 0.413629075799194501)
(-1.138825423588397 -0.0138809836917414553 0.309137641849068445)
(-1.26846511543215668 0.194356022496399938 0.331868846051585231)
(-1.25145016541752518 0.0918767526124688177 0.454668565460911833)
(-1.08457517053693975 -0.228119570468411997 0.151364495768210899)
(-1.11348077972555015 -0.312608512480115119 0.281208115549030135)
(-1.11888856704739981 -0.563524740107730571 0.290067493575493329)
(-0.825497004137651369 0.303130762886080873 -0.157720893122191785)
(-1.10736187393967977 -0.11761419200937992 0.0648826399552413363)
(-1.08719587627323944 -0.298779702559819671 0.0270277690907114107)
(-0.72463333998330115 0.483771223834268516 -0.273784328765142859)
(-0.587268185963325307 0.57471084988491894 -0.366384359808402171)
(-0.190264227446375028 1.54127448741646456 -0.48485858793913722)
(-1.33503674097538316 0.213489640315900675 0.309954706873295294)
(-1.26384781211480823 0.376376894729960054 0.24104344836583308)
(-1.28123229020557949 0.131737249879182505 0.309880192403385601)
(-1.21254916327568107 -0.112796753884239959 0.303939319751546977)
(-1.19061199727777112 -0.0646673828263252953 0.267984158570235997)
(-1.20247732647091432 -0.143824926742661785 0.330343552571060961)
(-1.13483821130298623 -0.226190299460988287 0.194726259736060642)
(-1.05176953373190663 -0.329320709425118041 0.254314769175093436)
(-1.00907992877190611 -0.508053977209692365 0.242546944514348162)
(-0.868333815557493893 0.112247426809794493 -0.0511807956877106673)
(-1.07263778457078396 -0.216602473167642307 0.122909638084145734)
(-0.981442647712741589 -0.481159241438148921 0.0610865949183435411)
(-0.837180629946639998 0.281678766364578115 -0.127810654705126731)
(-0.739134281215822142 0.095479418724595061 -0.240886189670872358)
(-0.492826456648042532 1.04130777933252805 -0.355657745158862393)
(-1.14610036214237776 0.0488859505911460462 0.199072900062774061)
(-1.01319010338544713 0.252695589335466653 0.115600465304570021)
(-1.06438993521181979 0.0822326903082023219 0.135596201232073998)
(-1.02505665702993953 -0.280292037289336937 0.218359607993782762)
(-0.8564600958512818 -0.261039702249303063 0.140679587779021342)
(-0.95454142870160108 -0.315402355679176627 0.198663464574175469)
(-0.993060597560762259 -0.295519026231764181 0.182498147523178833)
(-0.847940366982116611 -0.323206389255381088 0.16497036278650043)
(-0.887886807044952819 -0.4855498869282448 0.203454614725414817)
(-0.898108545643275913 0.028091204113684376 0.046279779066730406)
(-0.907550267658444154 -0.216492113559750787 0.112052037184516617)
(-0.911280554679601673 -0.430023002372540042 0.114664096958696504)
(-0.859408994766965861 0.218864370979452189 -0.0205125521180215611)
(-0.845672120949398254 0.0135236081726802272 -0.0599141351366664493)
(-0.744518163689686041 0.728510736640503476 -0.155592297766965787)
(-0.74397369169603822 -0.0559775744741541695 0.0572071530208176776)
(-0.591351295175599145 0.0456376901443135211 0.0304012315477190584)
(-0.625490560035679044 -0.0740070595350280219 0.00830737500405788476)
(-0.676624174866083394 -0.288361101678782594 0.08729034257173858)
(-0.502883423508630578 -0.320462576068445915 0.04960484431703608)
(-0.58500991365963162 -0.359817759877259336 0.0445010276357554468)
(-0.748478035415554577 -0.244363232685644471 0.0945242524478380197)
(-0.583499787399410441 -0.239213313683126594 0.0665439411160874822)
(-0.654641427189010194 -0.344181512444201143 0.0961241518935094935)
(-0.812861631772321402 -0.0557679488693521574 0.045259705999765476)
(-0.673376761201309182 -0.160521307018825943 0.048428494774391033)
(-0.759297226390405755 -0.305553971561909332 0.096404897491670874)
(-0.711797583637937992 0.106407167760047022 -0.0119900666908352785)
(-0.811872514313701554 -0.0345190555093396259 0.0200341042201206965)