/*--------------------------------*- C++ -*----------------------------------*\
| =========                 |                                                 |
| \\      /  F ield         | OpenFOAM: The Open Source CFD Toolbox           |
|  \\    /   O peration     | Version:  2206                                  |
|   \\  /    A nd           | Website:  www.openfoam.com                      |
|    \\/     M anipulation  |                                                 |
\*---------------------------------------------------------------------------*/
FoamFile
{
    version     2.0;
    format      ascii;
    arch        "LSB;label=32;scalar=64";
    class       surfaceVectorField;
    location    "0.960000000000000631";
    object      Uf;
}
// * * * * * * * * * * * * * * * * * * * * * * * * * * * * * * * * * * * * * //

dimensions      [0 1 -1 0 0 0 0];

internalField   nonuniform List<vector> 
20789
(
(-0.0306712175692726748 0.00496554458881314029 -0.0308281546753674772)
(-0.0191663667975399826 0.0135598364511985564 -0.0286731628704897934)
(-0.0203372334683457057 0.00727659186715178506 -0.0278384243345017081)
(-0.0192707506047059898 0.00740237513872976996 -0.0279820559381254476)
(-0.0430966150336358489 0.000988865117780602342 -0.0351366487714000059)
(-0.037243413914795305 0.00487366016526800862 -0.0331400189474493484)
(-0.0409070023483032452 0.00267939418313597978 -0.0325132514401779912)
(-0.0386145723903794369 0.00304918989816145049 -0.0338107967289324671)
(-0.0439871722068689783 -0.00163368214292820683 -0.0389662586507927358)
(-0.0426032116400256039 -0.000294444193530475054 -0.0364708238676886773)
(-0.0468621701115623374 -0.000625025766458219998 -0.0357998224302314635)
(-0.0437605009890578711 -0.000221439679708941263 -0.0371803695455474453)
(-0.0392927624307080683 -0.00278108770379510662 -0.0437928254574488363)
(-0.0424411428516437012 -0.00278687340750784175 -0.0408554904181273743)
(-0.0434046501644606911 -0.00252259133420084302 -0.0401078550753481838)
(-0.0394325332899731762 -0.00228537460972092106 -0.0415088185804581428)
(-0.0330896876802930645 -0.00288445658173925017 -0.049744616934533907)
(-0.0394715182773156953 -0.00332517412828724213 -0.0464096915254174833)
(-0.037472124639951275 -0.00290559244875088739 -0.0455349640279936393)
(-0.0319041228719887382 -0.00279638217212721139 -0.0466714541329650706)
(-0.0255916329438523847 -0.00288743730822036424 -0.0570438385322900518)
(-0.0349845296530901101 -0.00375854542602694231 -0.0533416978047932672)
(-0.0327579500554334227 -0.00275119979016736835 -0.0521798156525242682)
(-0.0255646284752666514 -0.00265813142152656516 -0.0530319198916265194)
(-0.0150597149795104746 -0.00337286567066929751 -0.0659758101360435056)
(-0.0262161874579036717 -0.00509631889737482534 -0.0616728769107748875)
(-0.0249186564929160352 -0.00304619756600078839 -0.0600777864600960873)
(-0.0160016443586477007 -0.00295674771555639064 -0.0609086585042492093)
(0.000752826444019586566 -0.0041362837785013859 -0.0769311923258239189)
(-0.0128520900734360437 -0.00731480528176801752 -0.0717643084929530384)
(-0.013190099291112211 -0.003832074218616388 -0.069923754430607013)
(-0.00224317796810272587 -0.00361858356702720024 -0.0704977266363923244)
(0.0203388568354930035 -0.00498014961634528006 -0.0906493694401611927)
(0.00563584389952517546 -0.00935549078579357533 -0.083743627983678931)
(0.00333126356236973682 -0.00463832422149335673 -0.0813035653599592373)
(0.0166487376378108773 -0.00446144818523760023 -0.0826047197851348947)
(0.0449146016105139989 -0.005863433147452384 -0.107573643709328523)
(0.0293194666896808565 -0.0116120337029525823 -0.0988184701400865451)
(0.0244593446962324892 -0.00551602001279164963 -0.0964597027843102639)
(0.0407962760469077271 -0.0053958720013325568 -0.0978386526913539167)
(0.0747840945595399653 -0.00670757111534352884 -0.129668534598906232)
(0.0565940608850913629 -0.0135857453835609935 -0.117069747938179508)
(0.048703438620101111 -0.00631654791540786457 -0.11496916836216578)
(0.0703409953092238999 -0.00614633149507496767 -0.11558998598235963)
(0.105658727146445655 -0.00736313228518481987 -0.157525435288876192)
(0.0902821349749915875 -0.015493119268957951 -0.141971155071419775)
(0.0781969098831446219 -0.00737234597641386186 -0.139084071612971538)
(0.10431897486736201 -0.00723617960763922683 -0.142626180928258628)
(0.141595501308360627 -0.00866675207094056571 -0.201746848490496816)
(0.121918179532896701 -0.016884270016987793 -0.171971373923170689)
(0.105929620577559863 -0.0077295744954615081 -0.169270595428959558)
(0.149218903820346332 -0.00750638110442318485 -0.171095337586285812)
(0.165812817534447599 -0.0142256887974162166 -0.253691674775121057)
(0.15648636232088553 -0.0207876938048338067 -0.226912331832536979)
(0.133175139579551127 -0.0105864636567645828 -0.217790329357574225)
(0.1778461767359375 -0.0100621485419966593 -0.237839230055177792)
(0.214984476566841026 -0.00794381219290655159 -0.389846247799960577)
(0.21003590640525846 -0.0363490796131422447 -0.27734470866438321)
(0.175225447432756115 -0.0198175628006021926 -0.258397003959019156)
(0.306579844438311988 -0.0197578027918544688 -0.287387046572612048)
(0.151765776096578708 0.00702728716567809549 -0.508349104287536546)
(0.158075689822668286 0.00459090536708527727 -0.379437956216904904)
(0.297099787484706945 -0.00226996595018354478 -0.556480726482418753)
(-0.026867978227464711 0.0132174394926762705 -0.0309850271425716611)
(-0.0162107453915680613 0.0252378807122111554 -0.0286801020133124196)
(-0.0188461656577419562 0.0198522621062329763 -0.0285578106905377861)
(-0.0177883266746221499 0.0202881129535813672 -0.029084516791789361)
(-0.0375835387613520922 0.00323669120368547027 -0.0344741940437380129)
(-0.0317696815972761878 0.00870637327208174418 -0.0328286407182422496)
(-0.0357598342897394381 0.00683307044225091743 -0.0316128941105807484)
(-0.0335423659940823626 0.00779974096550983213 -0.0334725655338816985)
(-0.0425284125427558141 -0.00164500533656602999 -0.0383600556350233157)
(-0.0385712669318572926 0.000824779314774970723 -0.0363783596914764792)
(-0.0417181652156777411 0.000162799510076070287 -0.0348319109998490722)
(-0.0383381540082468331 0.00104305300307585766 -0.0369889830386103402)
(-0.0450928463673297142 -0.00362325751447614003 -0.0434723564860960143)
(-0.0432765586715374295 -0.00258290827131834764 -0.0409087222859366231)
(-0.0459944897746993528 -0.00284653359587743165 -0.0394436590247587496)
(-0.041290952475736227 -0.0022596712407884959 -0.0413151946705895487)
(-0.0438897209408532635 -0.00465311959575641539 -0.0500067723956768503)
(-0.0448307393998781598 -0.00458691160986418947 -0.0467727724880501114)
(-0.0474123212142471551 -0.00395139975337278123 -0.0454005534813093914)
(-0.0414330786010033841 -0.00355024613844596992 -0.0468544564492777565)
(-0.0377535537688175743 -0.00638950430663036851 -0.0579707361832781237)
(-0.0418952902241687408 -0.0070329298495700257 -0.0541779709221918149)
(-0.0444480767859097639 -0.0052930649324455098 -0.0527359967613343153)
(-0.0372739254331781455 -0.00473081102248133246 -0.0538302287154268366)
(-0.0259913345844945583 -0.00930210344236851935 -0.0674613752676844203)
(-0.0333806802128238933 -0.0107515581387272081 -0.062929861039085308)
(-0.0362056581042412284 -0.00797328347657082909 -0.0612846670795865051)
(-0.0277362425230735718 -0.00718074157316651255 -0.0621397021114926534)
(-0.00882639977325657896 -0.0126586252920566477 -0.0785767441508080228)
(-0.0194087626117821488 -0.0153304982028971918 -0.073303430715096124)
(-0.022838015624150599 -0.0114978697162193017 -0.0713968718833084687)
(-0.0129082297790618569 -0.010458256255529156 -0.0721704562320955173)
(0.0130419847363130691 -0.0160352287243925723 -0.0919127286836042834)
(6.42639914778745915e-05 -0.0197618015263292673 -0.085217498856835272)
(-0.00444355519080552597 -0.0149198070208899133 -0.082766768532433227)
(0.00751062052763329727 -0.0137699546602985771 -0.0841407788888020036)
(0.0397174079551386797 -0.0192522792029824856 -0.108314574368937544)
(0.0249771601123838158 -0.0243931576723448347 -0.0998915019088941758)
(0.0188230359826583177 -0.018226132762900412 -0.0970708159485585698)
(0.0335904446673722726 -0.0172280047462604509 -0.0989215364429830296)
(0.0704789742232689032 -0.0223252093030862839 -0.12937236841069305)
(0.0535431225636688393 -0.0282863395665613609 -0.117843336651380151)
(0.0453163259259719564 -0.0211283112886103963 -0.114680846029559955)
(0.0644394585837936573 -0.0201147014569315261 -0.11673839169181624)
(0.104145389614272998 -0.0250751375414805001 -0.1564170937057143)
(0.0871010006534298498 -0.0325422293641219468 -0.141862294709314468)
(0.0761205973758905252 -0.0245139256350031254 -0.137491431780871864)
(0.100348981714059357 -0.0236322201645961343 -0.141663956254265366)
(0.140718398107539611 -0.0291176553448047083 -0.197136857265210796)
(0.12036418682746132 -0.0357866370222671565 -0.171899190026910009)
(0.10577956389806048 -0.0265764419815126586 -0.166261626760971587)
(0.143883633847893017 -0.0259093201829417516 -0.171557066609280051)
(0.172365387089669003 -0.0442038457150209507 -0.25056536572179916)
(0.156266198983466914 -0.0443519468549864876 -0.222728656004663766)
(0.13767015940611102 -0.0331427172816993812 -0.210360477475151797)
(0.181433835734815779 -0.0318883723793049467 -0.229358398066207281)
(0.212794253011691581 -0.022499860217518073 -0.395847565151958458)
(0.209482802758745756 -0.0748285639425306653 -0.277910024477815765)
(0.176936046454065604 -0.0554326821169005279 -0.250802524694205886)
(0.287565166051955867 -0.0589640571341554232 -0.291824813477151335)
(0.143206688113562436 0.0149564538581667024 -0.510338656681703973)
(0.152043675076113327 0.0167322917959527862 -0.39628101053256426)
(0.286641855565155479 -0.00635817980849194813 -0.569573213260792466)
(-0.021675913454654052 0.020598208532508485 -0.0305237155889830046)
(-0.0123922414405099376 0.0344341704518381989 -0.0277628629877993659)
(-0.0144783866383197905 0.0305651251189367236 -0.0273075890952110094)
(-0.0135183531715836313 0.0314243197876273445 -0.0281826056039590697)
(-0.0337560441314835591 0.00625753647154113617 -0.034732806365980716)
(-0.0266403445722438598 0.0129227606093615787 -0.0326623219512371457)
(-0.0301990044502319366 0.0113566566200181459 -0.031323164039099044)
(-0.0279021063338952754 0.0129322015479079351 -0.033628412815918822)
(-0.0410945560875050353 -0.000295750058986363326 -0.0389270263423897867)
(-0.0361900023305779528 0.00291524694380123489 -0.0366023996789992187)
(-0.0392482081988074633 0.0024034741080489648 -0.0351558568784461553)
(-0.0356502699555687613 0.00380976250023043993 -0.0374981067072581165)
(-0.0453843608273007057 -0.0037000185600247616 -0.0442091382878907202)
(-0.0433157021837672629 -0.001717826488983341 -0.041458177450229533)
(-0.0457294035625506884 -0.00174734757197955812 -0.0399924355327719444)
(-0.0408258584218155821 -0.000717428136555407271 -0.0420754051408172014)
(-0.0455646343956618155 -0.00686928697175452196 -0.0509439710145650829)
(-0.0467141488233522445 -0.00526698565318746339 -0.0476539965926446943)
(-0.04868049314195462 -0.00486054592902134333 -0.046207221742117742)
(-0.0424431649471142189 -0.0040402977802760703 -0.047727507569121537)
(-0.0403450243661298905 -0.0111664900496894915 -0.0591370957779990131)
(-0.0451151548009607051 -0.00989899472032840406 -0.0554581355246142119)
(-0.0468906183632715606 -0.00895384168724819123 -0.0538070272650809159)
(-0.0394223084848896871 -0.00787818647154526694 -0.0548993688938746865)
(-0.0289518641046481902 -0.0166087016613919829 -0.0687719164864969978)
(-0.0372651020601004537 -0.0162371375073563848 -0.0645642054490856987)
(-0.0392344966332736356 -0.0144146787459902403 -0.0625383140717344632)
(-0.0305382305913425751 -0.0128138844860491673 -0.0633821099017932293)
(-0.0114494642163214116 -0.0223050214832152954 -0.0799441854211233593)
(-0.0232006836567964746 -0.023538962777408641 -0.0750175826228865333)
(-0.0258265822695670083 -0.0204755516946559767 -0.0726377697416708823)
(-0.0157547611620676917 -0.0186210519712878067 -0.0734969457693857992)
(0.0107255675380363447 -0.0279904295439291628 -0.0931962720821251783)
(-0.00335571272723931809 -0.0303243398040314409 -0.0869417337107719901)
(-0.00706732800262021166 -0.026225367224767579 -0.0840486191720520442)
(0.00490322082481934284 -0.024000470119239916 -0.0854625182225900171)
(0.0377131409451029395 -0.033334992348468373 -0.109420264191336755)
(0.0220551964346835661 -0.0374151925242532934 -0.10133653654915957)
(0.0166483090253562623 -0.0318536748536549924 -0.0980850122115918682)
(0.0313541413970681443 -0.0297478133488900919 -0.100140094709255958)
(0.0687652490871504679 -0.0383698175691302851 -0.130333262950001527)
(0.0509742475488360741 -0.0432201689315359835 -0.119054507840149301)
(0.0433120815694387554 -0.0366206536831718554 -0.115609532069756341)
(0.0623753560388417977 -0.0346214140225418396 -0.117875293991802937)
(0.101766165099360054 -0.0430937407295480385 -0.157344391030510233)
(0.0850973072956665855 -0.0491864063673477306 -0.142793562423045806)
(0.074513010654984585 -0.0418997243985941847 -0.138491272866774318)
(0.0987915342010914077 -0.0400637233691325742 -0.142445484243336085)
(0.137537144100383257 -0.0508415959508063189 -0.197490988766362952)
(0.11555386120320775 -0.0543014718497045121 -0.172783200074966448)
(0.101589169921068229 -0.0460454515617027965 -0.167255295472076126)
(0.139581995210861759 -0.0444518760905163873 -0.172488574878743972)
(0.171862981658926189 -0.0745675611962025864 -0.25007331476068051)
(0.156538799351152946 -0.0686649055553923415 -0.222373581482242566)
(0.138523864388629514 -0.0578950991000422993 -0.210496802085325591)
(0.180441619425126071 -0.0548193017553098641 -0.228610919116445099)
(0.198978174569528404 -0.0377874949417464981 -0.392401116007561224)
(0.194358697239116807 -0.105421706702168161 -0.27800391527853513)
(0.170028370679755569 -0.0893956730990506931 -0.25198336191011278)
(0.278909438595458803 -0.0952275880664868873 -0.289067325290583599)
(0.127915905246535455 0.0173624037593796375 -0.504177189834955741)
(0.139064407634447107 0.0255603563025127711 -0.389834539042916484)
(0.271367283950060822 -0.0135024136176676874 -0.56189220109864757)
(-0.0176390414190068581 0.0269527501018392013 -0.029901469350053507)
(-0.0093619646787780203 0.0416647660071542969 -0.0265216585125893148)
(-0.0112473766581033113 0.0391222151333492432 -0.0261510434627069584)
(-0.0102907573484739591 0.0406854482797142369 -0.0273691080490969414)
(-0.0305411086965388032 0.00976303187143702511 -0.0345319152642556484)
(-0.0220480552416017009 0.0176451971123572429 -0.0316049510234301181)
(-0.0258707268491460973 0.0161203360487509328 -0.031091557003812581)
(-0.0234777060236717496 0.0185129522068213023 -0.0331153082070529542)
(-0.0404538948404749923 0.00168651346347289412 -0.0391335507868389651)
(-0.0340904709666779784 0.00647115485567650341 -0.0360289034174711351)
(-0.0374597041423775923 0.00537754548877434832 -0.0354809178616476498)
(-0.0337071059946168067 0.00743715120137994606 -0.0371805252297569069)
(-0.0470694192416771656 -0.00316778269525792681 -0.0449030357549835071)
(-0.0440071299975928337 0.000553671217639275354 -0.0416167633872240594)
(-0.0465658785857092777 -0.000152888324563832411 -0.0408211759272892397)
(-0.0414280996756013348 0.00129146380598571401 -0.0421586201241118952)
(-0.0490733393215306707 -0.00828643800065906495 -0.0521681611026938163)
(-0.0496976238806067366 -0.00482652159454645489 -0.0485666599872640603)
(-0.0516890127245535694 -0.00511757599127873365 -0.0474321843749354113)
(-0.0451105982576703729 -0.00397561154797234327 -0.0483324202412403967)
(-0.0449133546728051822 -0.0150938768812503912 -0.0608852451957009252)
(-0.0496245255767386526 -0.0120265518683347374 -0.0571109859618037508)
(-0.0513284237316244119 -0.0117545883548262134 -0.0554788240275016151)
(-0.0434484119363091614 -0.0101699659148533315 -0.0560360518496663615)
(-0.0337822082683044561 -0.0233295656962275548 -0.0708098715854752342)
(-0.0423947334581141061 -0.0215226540851270777 -0.0667769033759888497)
(-0.0442046837442626323 -0.0202434306983450621 -0.0644528478424393203)
(-0.0352499538339827029 -0.0177688258941403852 -0.065129431585275982)
(-0.0162954408604420314 -0.0317709361043042524 -0.082015130912535178)
(-0.0280120272173820031 -0.0318248379634717068 -0.0773420704343671661)
(-0.0305217971799123383 -0.0292392637139294725 -0.0744381425986659073)
(-0.0203701701760967101 -0.0261899456537266623 -0.0754660430428363838)
(0.0072775435669440048 -0.0399366999747339385 -0.0950819981778063955)
(-0.00751136774095396021 -0.0416165100183156639 -0.0891135971157609591)
(-0.0112079438030030995 -0.0375649091898871065 -0.0858083238391664782)
(0.000713058094755103533 -0.0341255287838882829 -0.0874388655895037836)
(0.0344800505584943948 -0.0473943389747333368 -0.110970780197972102)
(0.0186180883556674066 -0.0507807928514542109 -0.103047311660180801)
(0.0131138212270117405 -0.045418199254550283 -0.0994596953883263024)
(0.027699150940915046 -0.042161789866229149 -0.102010859038124374)
(0.0659946772957513417 -0.0540959592877354525 -0.131514807313193594)
(0.0481876233720277478 -0.0585496424515600106 -0.120295590580748901)
(0.0401738425564097182 -0.0520024537063469919 -0.116836905209501143)
(0.0591192158758812869 -0.0490487084644804991 -0.119482829053105394)
(0.09841459241963256 -0.0604628526963174387 -0.15823237146750202)
(0.0832553635018577071 -0.0655993251947757372 -0.143408695568791072)
(0.0719693876368928814 -0.0586130217957510843 -0.139487339622406364)
(0.0962918624465852052 -0.0560154953805973854 -0.143495477525065918)
(0.133544069669620874 -0.0721793447878689015 -0.19766579279084609)
(0.11108431456208942 -0.0725362289505815938 -0.173376203325489309)
(0.0963449393531450593 -0.0650218423045648281 -0.168091507615599822)
(0.133813231664958621 -0.0620815792422591828 -0.173334848652290263)
(0.164419495085525474 -0.100077900301158415 -0.250304182000097242)
(0.15530097419466049 -0.0909619991960481517 -0.222568463696370844)
(0.138911779804191865 -0.0827513283558326956 -0.21050765051541237)
(0.180146852149261794 -0.0784620161232724989 -0.227657062560546686)
(0.176113011875935976 -0.0516412764953447373 -0.389779989105929869)
(0.160542183795126192 -0.127457443953714944 -0.28297757096734949)
(0.148119283113391759 -0.114842985035667658 -0.254892130063727462)
(0.255225172728963223 -0.124250408850407307 -0.288569432456821984)
(0.106133663724916866 0.0115307750903698349 -0.499746158795181084)
(0.12288865175209647 0.0275613942141596444 -0.385875010750854675)
(0.247632311805062899 -0.0225643389019779296 -0.554083235882518954)
(-0.0138549275977823301 0.0325262425714462899 -0.0282251401859659259)
(-0.00634573869301289801 0.0473480108409817177 -0.0242076110296395239)
(-0.00857883077869186876 0.0456675189927169961 -0.0246745875029329431)
(-0.00760830878987459741 0.0481447704542004376 -0.0256236903603544799)
(-0.0273560841506845891 0.0144345266175670839 -0.0331019391766455909)
(-0.0171672656171533225 0.023479628186687234 -0.0292269906595381233)
(-0.0215591742291524613 0.0213215584820563193 -0.0303801775054581835)
(-0.0190787544108752052 0.0246219212034947191 -0.030712454476464101)
(-0.039930760207318769 0.00545652651033086931 -0.0385121160178562294)
(-0.0319922280572202608 0.0121403918383199833 -0.0345495499347862334)
(-0.0356302166812680621 0.00987826914002285297 -0.035430207389638077)
(-0.0316542230038314096 0.0125242463792571961 -0.0352692750547600742)
(-0.0491701972060738304 -0.000945736328727010862 -0.0452803876195046195)
(-0.0451895483862391478 0.00478689445229378563 -0.0413251942576481207)
(-0.0476480448417099453 0.00309508675081455542 -0.0414984279488699592)
(-0.0421702851998553563 0.0049070301815637915 -0.041244787523958916)
(-0.0531744948272236881 -0.00841817152269574119 -0.0535094848463739808)
(-0.0534392690811333129 -0.00287686929439614353 -0.0494161105757871325)
(-0.0551681436545291976 -0.00404481709474421858 -0.0487927990562612643)
(-0.0481364244152393331 -0.0025080222694625798 -0.0484527783227686054)
(-0.0501035416625413843 -0.0183776971963439256 -0.0630026441420916961)
(-0.0549710940090630956 -0.0132707628846481882 -0.0589963183207632899)
(-0.0563359844394918513 -0.0138089069672608523 -0.0574127147097166779)
(-0.0479904709532787896 -0.0114514634239163363 -0.0571712896865394435)
(-0.0389416240677223913 -0.030027774159388846 -0.0733091022248807678)
(-0.0481790245849338383 -0.0267146855066725149 -0.0693271539984495477)
(-0.0496582704453751508 -0.0260940197361797244 -0.0666557411198336891)
(-0.0404297451794812385 -0.0223732777310002504 -0.0671180134290228075)
(-0.0208110054755217995 -0.0416847209306245581 -0.0844405366375929611)
(-0.0330365561313515771 -0.0405835934917608207 -0.0799458424587953936)
(-0.0354425801433653487 -0.0384530692173487912 -0.0765057951400911623)
(-0.025285305626414234 -0.0337313650610957874 -0.0779071506711585399)
(0.00335193784878276991 -0.052473636654747205 -0.0970789105981353651)
(-0.0113316388672288961 -0.0535048749742509724 -0.0912980649871218963)
(-0.0153073637903833604 -0.0495863887232573519 -0.0875488435320094516)
(-0.00354370366280976415 -0.0446190888648697603 -0.0898473695416064366)
(0.0316828708581995619 -0.0619790201869816343 -0.112372122042957615)
(0.015994397097326786 -0.0649295732386794139 -0.1044919534083978)
(0.00978264196784928847 -0.0593582538306685475 -0.100833286565654101)
(0.0242492422814963131 -0.0549392217784907613 -0.103947766291539859)
(0.0642298371932600309 -0.0700792889011084552 -0.132189478836346352)
(0.0469924192410555719 -0.074532818654762481 -0.121068606686847421)
(0.0377100744347596967 -0.067801885531871775 -0.117789261654654434)
(0.0564439269298701377 -0.0639300659297215718 -0.120824955625175798)
(0.0965668096523247532 -0.0777194761827576797 -0.158552527426778361)
(0.0836026579150968563 -0.0819246146135842596 -0.143437423265533992)
(0.0706821466604860976 -0.0752484574522537392 -0.139838664464097567)
(0.0949795494916441246 -0.0719837612820910799 -0.143745266960629919)
(0.129154165591989389 -0.0913073117508516469 -0.198278874231014091)
(0.109368269605096394 -0.0893565312108267756 -0.174327126536612143)
(0.0930211274895169637 -0.0837868477907452447 -0.168754953238287042)
(0.129600049802189476 -0.0795331543994977214 -0.173429041158457697)
(0.14404361643803909 -0.118554486993839539 -0.255241852663622926)
(0.148313367461817197 -0.105100102675775756 -0.225543462321705968)
(0.134575939665898897 -0.103081731729536552 -0.212201400197917639)
(0.178660066912909088 -0.0987282510410597003 -0.22724258049256274)
(0.136144207732663919 -0.0665195048793298521 -0.392943740656601093)
(0.10431449516756594 -0.139156170195161244 -0.299464821942763304)
(0.103148336231496177 -0.132063282099842971 -0.266158215958179234)
(0.209541930350578276 -0.141740642062766903 -0.296577425421846286)
(0.073208507991122343 -0.0090690256103190172 -0.495518059207967543)
(0.0978910138952459874 0.0180898288926369978 -0.387462919653155768)
(0.21014221968784963 -0.036320631491240922 -0.54967965881717229)
(-0.00973537759936319615 0.0380492994185106792 -0.0252094615032117109)
(-0.00264176089977250297 0.0519592783131615221 -0.0202820080088044995)
(-0.00558962818145836669 0.0506925661425760149 -0.0226381634906265457)
(-0.00465376940769269588 0.0539955236730202404 -0.0220693912266297157)
(-0.0240261621906505685 0.0208840623428936355 -0.0306746014176787485)
(-0.0119955124458668381 0.0309341383421091048 -0.0263678597182195745)
(-0.016851995379847419 0.0277432176976327091 -0.0288941374194911817)
(-0.0139748824467689613 0.0315241381503930593 -0.0266881362990041351)
(-0.0395614850315946232 0.011269371059220339 -0.0373626281745781316)
(-0.0303630309367236631 0.0201363887081739759 -0.0330298318024431631)
(-0.0338760920596323303 0.0163132756596500138 -0.0346922702443904149)
(-0.0291282215135782348 0.0191701755269400413 -0.0325094967732335663)
(-0.0521300473576489717 0.00285915494055367361 -0.0454609172139306406)
(-0.0475382131080318085 0.0112117187151432179 -0.0411719648754725262)
(-0.0493723628924900571 0.00790358075528580124 -0.0416659333287644762)
(-0.0430535773912738284 0.00996054619555655427 -0.0399883134387050143)
(-0.0583111017671735163 -0.0076019032325676918 -0.0549029440501764346)
(-0.0585738737216935992 0.000515725909549871915 -0.0504177480904785744)
(-0.0595597683013706775 -0.00203887076278281686 -0.0498292359232980556)
(-0.0517579815199149876 9.09725686317559623e-05 -0.0485382323999960438)
(-0.0562587514595514482 -0.0214158196615252816 -0.0653208281771211485)
(-0.0616519529008133019 -0.0138361871990176823 -0.0611141245340786413)
(-0.062310182120913514 -0.0156087612413818716 -0.0592466471872975728)
(-0.0533856096250760748 -0.0119422303668614664 -0.0585530865764916711)
(-0.0443958412318479073 -0.0370581254042712804 -0.0759638942323641597)
(-0.0547163163896268456 -0.0322925186505263404 -0.0720283735462144692)
(-0.05579024685049494 -0.03241409006634869 -0.0689042769584905929)
(-0.0463882000960789131 -0.0266660203277887288 -0.0695150599792573876)
(-0.024958450372455445 -0.0521386006657772044 -0.0868033708083243427)
(-0.0378458377571758084 -0.0502682945668580516 -0.0823497433607769946)
(-0.0404173106470866877 -0.0483634479523735727 -0.0786064854287418929)
(-0.030531252846030605 -0.0413928953677379849 -0.0806981633232386614)
(0.000495302362697409848 -0.0657421190335508998 -0.0987111077973843176)
(-0.0141929359559053274 -0.0662866277864774534 -0.0931371039198873873)
(-0.0187725209546132574 -0.0622768383007633389 -0.0892767922422854215)
(-0.00748298620241779743 -0.0552701884952099959 -0.0922147104831125691)
(0.0307330320036442416 -0.0774113370521032351 -0.113188438052287635)
(0.014887169603829303 -0.0800299277271294962 -0.105774133712213864)
(0.00783768752174063624 -0.0741678924168342329 -0.101960579999561485)
(0.0218422497545037037 -0.0683234236470501993 -0.105283278898350277)
(0.0653398082850995959 -0.0863955557028160126 -0.132316551116035019)
(0.048034603801931447 -0.091319802366083988 -0.122374288203001572)
(0.0379279599501017584 -0.0843833880776346246 -0.11835815528254387)
(0.0560103878761611523 -0.0795372001418525321 -0.12117052202693579)
(0.0979945463839929504 -0.0935918472162325238 -0.159212022375367857)
(0.0857142811169632202 -0.0978810824749059977 -0.145118127138493536)
(0.0725481223239172468 -0.0917373024388391245 -0.140005765540719279)
(0.0967615434103193395 -0.0879221823222545024 -0.142892263261736124)
(0.122686883875182826 -0.102822601014809667 -0.201591714627304075)
(0.109294005180784276 -0.101842249566411955 -0.178725626020574735)
(0.0931625123059901666 -0.0994352946022039885 -0.170784647994476568)
(0.129209812209357872 -0.0948623484765734187 -0.173807355940097108)
(0.108856182387792239 -0.124394631913335635 -0.26976643160084629)
(0.130722743610922898 -0.104781741609581536 -0.234195610265375304)
(0.119239816967868117 -0.110516690339843529 -0.218455534808993795)
(0.171316131315513903 -0.107394906286594871 -0.230112804517751124)
(0.0767825175194434412 -0.0806015454581817392 -0.402039140494129976)
(0.0353075149058553889 -0.139390443596942304 -0.329254907508400918)
(0.037226401700112724 -0.138588159557465618 -0.290846675477018313)
(0.142453973475549112 -0.144768244900589649 -0.31982520217567395)
(0.0264073825070523724 -0.0488031479398230023 -0.481157483793455132)
(0.0609226885784195371 -0.00358055991537096878 -0.393237048089764285)
(0.151866524408952291 -0.0587210968809000131 -0.540956476859298929)
(-0.00509628225935122164 0.0448445808847224431 -0.0214404062238123666)
(0.00193352225890795109 0.0560376626386540067 -0.0157491880222965022)
(-0.00179618997079861935 0.0560362966607856477 -0.0198414099811025299)
(-0.000718899013725216767 0.0598783106853140734 -0.0162147535326499607)
(-0.0206701281098308903 0.029545747349559625 -0.0287230901029839822)
(-0.00743907001822854009 0.0395864547597138336 -0.0246281224148644194)
(-0.0122770726378144436 0.0359724296145762096 -0.0268457486495048032)
(-0.00798325860125737724 0.0395892094349873588 -0.0233846183181930234)
(-0.0408263686039827614 0.0194039700734914451 -0.0368391685033375577)
(-0.0303173353494664566 0.0302401481195370865 -0.0326668576293937529)
(-0.0332990133109531544 0.0250509312614048338 -0.0334797293914838381)
(-0.0265332057052118861 0.0278292495897156031 -0.0311889036325792915)
(-0.0568209876247963361 0.00827225025038423427 -0.0461287957520204669)
(-0.05188790230558777 0.0191580125989087996 -0.0418882428188954853)
(-0.0528741063185510299 0.0144864334829546346 -0.0415964341525823442)
(-0.0447477801205530545 0.0168278954598605306 -0.0399212591150720775)
(-0.0651155098752512207 -0.0061999974904962292 -0.0566289285743807949)
(-0.0653910293621432076 0.00469557013679688332 -0.051859827641963431)
(-0.0657651459614124884 0.000822289803742573717 -0.0506059397188825949)
(-0.0566078445623635143 0.00382635657613449812 -0.0496190863295386461)
(-0.063610222546744255 -0.0252897660816277098 -0.067821669903171955)
(-0.0699585318048347865 -0.0144002404868988389 -0.0634903851137710445)
(-0.0698906146427722696 -0.0176226269386207911 -0.0610679775736354472)
(-0.0601919198771951672 -0.0119843630746751355 -0.0608579681504723344)
(-0.0496268852691398588 -0.0462772769254827382 -0.0784142226746272902)
(-0.062264336341449622 -0.0392336272145869733 -0.0746324778455677573)
(-0.062533938956216284 -0.0405569643293162002 -0.0712151634745110812)
(-0.0532606249145136448 -0.0320432635290281154 -0.0726676859428373179)
(-0.027749402497421357 -0.0651309004970591632 -0.0886834764723400393)
(-0.043710684854549875 -0.0614107005846622964 -0.0847716435298151161)
(-0.0447447564632464309 -0.0607926464918124299 -0.0806656098657887038)
(-0.0354956268572431816 -0.0513531225393444035 -0.0835037336927941243)
(-0.000703144225343038773 -0.081202162970754721 -0.100200129834716919)
(-0.0188975413938890953 -0.07980738474571622 -0.0961497796577506919)
(-0.0209237213734615769 -0.0772941966227650851 -0.0911944834641899432)
(-0.0101502101347995064 -0.0684451467832007943 -0.0941948520750489765)
(0.0315588365021310796 -0.0943510391652592206 -0.114959983862927828)
(0.0107550276812405608 -0.0954534139656509073 -0.110383811700451862)