/*--------------------------------*- C++ -*----------------------------------*\
| =========                 |                                                 |
| \\      /  F ield         | OpenFOAM: The Open Source CFD Toolbox           |
|  \\    /   O peration     | Version:  2206                                  |
|   \\  /    A nd           | Website:  www.openfoam.com                      |
|    \\/     M anipulation  |                                                 |
\*---------------------------------------------------------------------------*/
FoamFile
{
    version     2.0;
    format      ascii;
    arch        "LSB;label=32;scalar=64";
    class       surfaceScalarField;
    location    "0.300000000000000044";
    object      alphaPhi0.water;
}
// * * * * * * * * * * * * * * * * * * * * * * * * * * * * * * * * * * * * * //

dimensions      [0 3 -1 0 0 0 0];

oriented        oriented;

internalField   nonuniform List<scalar> 
20390
(
3.29985011102511657e-05
-1.07754212712555091e-05
2.92143882107089517e-06
-3.48344077384788706e-05
6.47732992334620764e-05
-1.62278941749594236e-05
8.16303598115363356e-06
-4.34700747096272944e-05
9.91949179263746533e-05
-2.22661367941871295e-05
8.86915259649352049e-06
-5.21961876437139618e-05
0.000128499908066060026
-2.45348367988148372e-05
8.89793725765682907e-06
-6.23738452949355903e-05
0.00016208905832619015
-2.44663866456561039e-05
9.45898936430457308e-06
-8.63247907871371841e-05
0.000201475447005527216
-2.22946649587152544e-05
1.0773924751926798e-05
-9.68307480249678063e-05
0.000289669624399976704
-2.24415062710596995e-05
2.0359540899501722e-05
-0.000109466247469789247
0.00034843394369407036
-2.26474751781642371e-05
4.0502804598355091e-05
-0.000120697641542280847
0.000360507375461920543
-2.15020769645222003e-05
4.95118370590526066e-05
-0.00012658187284108008
0.000368849001178046137
-1.9087708710534193e-05
4.65907768862941396e-05
-0.000134861260853799805
0.000412254374258530932
-1.79357850536067002e-05
5.78054398078753058e-05
-0.000134708200469577094
0.000451834334803953575
-1.6035666538110077e-05
8.80943961425562723e-05
-0.000132825999905228701
0.000445184537789003812
-1.46040926052195838e-05
9.7709902346539173e-05
-0.000125017205034208605
0.000434845546157814884
-1.27824318321170998e-05
9.6461863983152881e-05
-0.000119048358487289539
0.000410566891609114894
-1.09894587800413271e-05
8.85725403757627099e-05
-0.000111811518924286805
0.000384240693274815587
-1.02466125684546281e-05
7.89843899526081693e-05
-0.000102736277430033116
0.000358451078644759136
-9.26589862290936437e-06
7.30326256200766332e-05
-9.31275786353967364e-05
0.000330985357242399565
-8.15693435204644693e-06
6.71375514983138858e-05
-8.36639599627372058e-05
0.000302535102924758928
-7.20451738554558586e-06
6.02413915146726052e-05
-7.50727867959949082e-05
0.000275340991930873326
-6.7217192062255284e-06
5.47295789322943606e-05
-6.74376254861906992e-05
0.000247492846618179948
-5.906741245891936e-06
5.02596151856475213e-05
-5.98744319235137835e-05
0.000221188089147446136
-5.12271885743940617e-06
4.56487753099889195e-05
-5.40070756108366833e-05
0.000196164008776159352
-4.48966650127185428e-06
4.07322777669051687e-05
-4.86936758584631513e-05
0.000170729483214863737
-3.94375599934158508e-06
3.57334965741074883e-05
-4.31566918621993246e-05
0.000146913958679311155
-3.65574460423507792e-06
3.11652146235628767e-05
-3.7281862105189453e-05
0.00012648499438573836
-3.24431637042483815e-06
2.81532193129199225e-05
-3.10714921392846481e-05
0.000102790036929436597
-3.07375043305824811e-06
2.58172353754763256e-05
-2.58606229838799404e-05
7.66558575088211564e-05
-2.83390613886280228e-06
2.13411932631125763e-05
-2.04811624813720112e-05
6.15173947999128959e-05
-2.28998203528935476e-06
1.64045353557665409e-05
-1.59716007214097226e-05
5.43729551978257573e-05
-1.80249100158237154e-06
1.39537186600767508e-05
-1.37625483604161821e-05
4.15103227267297537e-05
-1.70420373207585446e-06
1.17115278567448899e-05
-1.10651616569568383e-05
3.14553201389235727e-05
-1.3181056564315454e-06
9.19356934760040854e-06
-8.69179862237933166e-06
2.63819045702074858e-05
-1.05896473737695108e-06
7.37827954390415193e-06
-7.14416230598012648e-06
2.09426863340871589e-05
-8.15282194188126491e-07
5.86877666120834678e-06
-5.59455188945297209e-06
1.86611236586609e-05
4.11430682340403203e-08
4.47518564662299503e-06
-4.40635575835247295e-06
1.28656014920307194e-05
8.75493081507792883e-07
4.48441725657436682e-06
-4.79999402343089817e-06
4.99229922402446166e-06
2.43737402352229539e-06
3.50010199598284991e-06
-3.70238841560838091e-06
1.32136424143790666e-06
4.12931998330225584e-06
-4.58163728854409251e-06
5.84189498793883062e-06
-7.00293112508525222e-07
-4.19137917928626064e-08
-1.72915144880056865e-05
1.97914908906872003e-05
-8.09053859089227667e-06
1.99330652069405877e-06
-2.49671338232606564e-05
3.04153681989847421e-05
-1.17245727163212128e-05
5.86055331059485736e-06
-2.83573172012052704e-05
3.50988004235425251e-05
-1.06687496988533278e-05
7.52803491565289245e-06
-2.74341224017849885e-05
3.83485214405402007e-05
-8.80781591561204314e-06
8.02862554711548883e-06
-2.83828301729999141e-05
4.18319293038200263e-05
-7.58379283430655496e-06
8.18965068059123614e-06
-2.77686189808947338e-05
4.57837087173470076e-05
-7.16103083365777028e-06
8.82892067313532728e-06
-2.96259941448037459e-05
4.88063924602001955e-05
-7.04272523290888708e-06
9.54014994367404759e-06
-2.96752786329407384e-05
5.16020655087454737e-05
-6.95220306961294959e-06
9.74652701758341411e-06
-2.90432621443299652e-05
5.25675871425047272e-05
-6.69871277584899064e-06
1.00965232067530855e-05
-2.60786775073473535e-05
5.19510917815409223e-05
-6.34300003856314944e-06
1.12433468111942637e-05
-2.536397249439822e-05
5.05717041651250411e-05
-5.58801946732940191e-06
1.22175094705551125e-05
-2.44366703953052457e-05
4.72786255925211358e-05
-4.84959558064966217e-06
1.2755510153489657e-05
-2.26625674525157293e-05
4.26481020787714227e-05
-3.79896397718034734e-06
1.27898634097638838e-05
-2.03746285735336552e-05
3.89978193229443621e-05
-3.06543991070724418e-06
1.21088234311564038e-05
-1.87391737153215444e-05
3.50700250332366069e-05
-2.37825252016406381e-06
1.12917438630960749e-05
-1.64248451564163385e-05
3.13882704566541409e-05
-2.03940657384985095e-06
1.03783941573285204e-05
-1.48714179794657128e-05
2.82588343486050569e-05
-1.68855594673421651e-06
9.55008833005756274e-06
-1.34933346500704445e-05
2.55233108834656986e-05
-1.44114283430281641e-06
8.68639852710351231e-06
-1.25262972304087393e-05
2.278217382158351e-05
-1.28660158679487046e-06
7.79422211251673034e-06
-1.15743540285187638e-05
1.9965234684533352e-05
-1.15983721249598606e-06
7.07586465737872992e-06
-1.02210255510646372e-05
1.71508392097761443e-05
-1.04231140533301284e-06
6.40828528761328299e-06
-9.01765371861884747e-06
1.49645954789076972e-05
-8.86380804997215626e-07
5.74395396474215233e-06
-8.18513409081087183e-06
1.31267165088672925e-05
-7.34396779491357646e-07
5.11973990570864269e-06
-7.35642222340512932e-06
1.13275640219684479e-05
-6.18471628492075408e-07
4.53537920935954864e-06
-6.35364327965226663e-06
9.498116572141569e-06
-5.32924519198524847e-07
3.99565369189873114e-06
-5.32420748148285126e-06
7.94806806850578706e-06
-4.42183048483959684e-07
3.44297956607373602e-06
-4.59272389527829781e-06
7.0881979119615949e-06
-3.82024453271893853e-07
2.89046435162955096e-06
-4.17932592746527571e-06
6.66283659625741517e-06
-3.68217744125043047e-07
2.3740331826862224e-06
-3.50024971091707164e-06
6.10815222745403745e-06
-3.14908702596640329e-07
1.98238832082838366e-06
-2.9297161265803382e-06
5.28048292118677233e-06
-2.85554453259244194e-07
1.53881483667981892e-06
-2.56893458152641749e-06
5.04617756789864659e-06
-2.49189657444133729e-07
1.32101399376704167e-06
-2.25200894025328236e-06
4.63486793831228732e-06
-2.23061737487118313e-07
1.13626141071272086e-06
-2.01155076315140433e-06
4.25298505792359973e-06
-2.11605841899118354e-07
9.85384696773372303e-07
-1.82289394703289485e-06
4.70594722746585671e-06
-1.22148919089374643e-07
1.02621482365229573e-06
-1.65688810147128797e-06
5.03023174677870904e-06
3.7321867840932785e-07
8.46244346897917474e-07
-1.29632366285599736e-06
5.39648038341305521e-06
2.18788243524805589e-06
2.04770716024944488e-06
-2.31925634247663666e-06
3.80715282976749913e-06
4.15095253972754247e-06
-4.2523447026230068e-06
4.29746913450172725e-07
-1.32745840027258841e-06
-1.7670293769053297e-08
2.1940428196271913e-07
7.3150876913573454e-06
-4.53930326817522602e-06
-2.02437497876139088e-09
-1.03905197888830751e-05
9.89565127873918834e-06
-3.26876809884765811e-06
1.5189563961203098e-06
-1.25802764922972056e-05
9.08431079952533523e-06
-1.59369973039820624e-06
1.58380474139071187e-06
-9.7765185490539405e-06
8.16408555807700273e-06
-1.45144180190557362e-06
1.21278626258649979e-06
-7.91418964437169806e-06
8.60088968071782394e-06
-2.0836466812442378e-06
1.30763838785210244e-06
-7.72770241395390469e-06
9.80502729977128805e-06
-2.51062697238911863e-06
1.69590849934137901e-06
-8.15115127424620712e-06
1.09041236663987776e-05
-2.54159562143361019e-06
2.09312989294667487e-06
-8.51100725906358643e-06
1.14939136085646216e-05
-2.23147536427772404e-06
2.29948589662088981e-06
-8.40004957693479265e-06
1.12027162578911484e-05
-1.83242055496414144e-06
2.40348279354599118e-06
-7.75635908671807472e-06
1.02333629391003027e-05
-1.34214295047645855e-06
2.43030154108914749e-06
-7.27541634809683138e-06
8.61651601430316608e-06
-9.27845987558619911e-07
2.41507188490736927e-06
-6.25696676262173733e-06
6.7772207538010292e-06
-6.51017560104408304e-07
2.18599964741342704e-06
-5.21404306802030034e-06
5.36223759421877494e-06
-5.17758069265426968e-07
1.9686471022671119e-06
-4.34429664951452686e-06
4.24840977230769926e-06
-4.96017883932864027e-07
1.82303544643471721e-06
-3.74427767156785627e-06
3.58101797965723636e-06
-5.01743404972796698e-07
1.68359165118927116e-06
-3.26622629738258165e-06
3.09864646981887945e-06
-5.23160381398425438e-07
1.58020480854244816e-06
-2.9977070061143159e-06
2.768678577522344e-06
-5.08816254493778058e-07
1.50647582054329101e-06
-2.73070660307151868e-06
2.51925133210536055e-06
-4.54709703054017311e-07
1.39889186016732498e-06
-2.4607403334409934e-06
2.28150014367833901e-06
-3.93156765231935223e-07
1.24946566798151312e-06
-2.18945129718533229e-06
2.02123752548188115e-06
-3.37985972805911957e-07
1.10875794854181268e-06
-1.93879300434806913e-06
1.75041663044681854e-06
-2.74837581581939644e-07
9.77235242499033358e-07
-1.6964359552576444e-06
1.49875040306300732e-06
-2.1018888270668136e-07
8.33427370821920228e-07
-1.43476985242151167e-06
1.30011353278120918e-06
-1.49765301883868555e-07
6.95486751799656445e-07
-1.17431071128164642e-06
1.11190533874195871e-06
-1.08388237948070813e-07
5.5573975453375128e-07
-9.71625133052627162e-07
9.29103829534098049e-07
-7.7913276891444618e-08
4.33182676053071152e-07
-7.94050516405681995e-07
7.77008831931086451e-07
-5.2529442248164423e-08
3.29132952934037046e-07
-6.46484066513810062e-07
6.57426181744109916e-07
-3.14623688834171604e-08
2.37908429195892446e-07
-5.368501762617552e-07
5.31796711024765408e-07
-2.41454453360629738e-08
1.74994383140876877e-07
-4.51855300772101311e-07
4.3144577969205165e-07
-1.5622233298230984e-08
1.25624684250058823e-07
-3.63947768443665988e-07
3.68001734717906325e-07
-1.36785101875073466e-08
9.02150390008281336e-08
-2.90728396211030121e-07
3.25861536649755209e-07
-1.08873438071246594e-08
7.07049720783413505e-08
-2.35534761681491929e-07
3.15225567147821765e-07
-9.94158201047285405e-09
5.79803434891643797e-08
-1.95433255621434985e-07
3.2083658451717905e-07
-1.38588186907492739e-08
5.45762595392929321e-08
-1.8470260528178423e-07
3.55267533480102485e-07
-4.85422365492259416e-09
5.91992823040847719e-08
-1.87468906944508625e-07
9.83579136040784755e-07
9.49589070122540822e-08
2.13770507809910167e-07
-5.35377273943736503e-07
2.29334665255632103e-06
1.28904946528504018e-06
1.08069470908642558e-06
-1.50840081713451956e-06
5.14089192203079252e-06
3.40797296767206993e-06
-3.57016474504297596e-06
5.9856508758497997e-07
-1.32049820335851793e-10
-1.76711899718569197e-09
-1.86489588061738751e-06
1.16035271347340823e-06
-7.83205827881382686e-10
-1.36648014240204505e-09
-5.03295536766744366e-06
3.36663756024762973e-07
-4.25149140865028241e-09
-1.97156060696442809e-09
-2.44623708545329109e-06
1.64536284332392811e-07
-1.77113763469293523e-08
-9.84636785345827663e-09
-1.39361992534735874e-06
4.5952793507805664e-07
-9.83736219570847282e-08
-4.14494103522720769e-08
-1.60146411291207077e-06
1.21533976272133713e-06
-6.3369496030267314e-07
4.52918995265639712e-08
-2.33527839200039077e-06
1.71350901397049453e-06
-6.97010534997487754e-07
3.22547558377415933e-07
-2.84360333554861149e-06
1.66631444811380601e-06
-5.19215653461149691e-07
4.42816421917073868e-07
-2.68335167526683459e-06
1.37067128866666394e-06
-3.23165539888471882e-07
4.52557460479605799e-07
-2.31708467810436877e-06
1.00542230882771061e-06
-1.74363085003924358e-07
4.24751097025600827e-07
-1.92429908942025997e-06
6.69881108677124818e-07
-7.92423623638093383e-08
3.70418378139175821e-07
-1.48335502249972695e-06
4.60565003128466184e-07
-6.43067898970774242e-08
3.2447804903608696e-07
-1.1576277441566005e-06
3.90613451379475419e-07
-1.04883232707259536e-07
2.67145908284194098e-07
-9.17738704881052353e-07
4.33223242898517481e-07
-1.50658646263060679e-07
2.42049406007619157e-07
-8.26420697797279766e-07
5.1710007663720473e-07
-1.82990815069689998e-07
2.8251410577261853e-07
-8.5232048069747715e-07
5.96986502955147509e-07
-1.94702265738610798e-07
3.1739801739296286e-07
-8.8307510558435667e-07
6.3684573592496546e-07
-1.82426274292856093e-07
3.29313595380871905e-07
-8.77719756042199991e-07
6.29714191899282705e-07
-1.56909489004327405e-07
3.21387900186421099e-07
-8.25413857061424228e-07
5.86636429717413753e-07
-1.19514938283404289e-07
2.8540395531425886e-07
-7.23564995129069308e-07
5.27666578861661141e-07
-8.17731331159597433e-08
2.34634597014914401e-07
-6.08831478663282961e-07
4.65021173813152302e-07
-5.12533992063689638e-08
1.76333114628447742e-07
-5.01048376601762899e-07
3.95295134968518942e-07
-2.85314180713971053e-08
1.47523306912574519e-07
-4.16910425158043059e-07
3.30467953383087915e-07
-9.41451736957115394e-09
1.24823714763588186e-07
-3.32002185867750467e-07
2.7635513741595629e-07
-7.17097975348411277e-10
1.07373347699872255e-07
-2.50359315559258086e-07
2.3451093512837682e-07
-2.02414481372129752e-09
8.69497860154361951e-08
-1.96473786715427408e-07
1.89306847657123492e-07
-2.21799298017827205e-09
6.8031593622530348e-08
-1.48093733967280537e-07
1.47549064709904785e-07
-2.10484284764233593e-09
5.28361795143250875e-08
-1.1231615537569812e-07
1.16296181819056646e-07
-1.79693003322727809e-09
4.07023004652261022e-08
-8.30307250487697939e-08
9.02049313430810807e-08
-1.39281084762209907e-09
2.91616402056282009e-08
-5.93212823194426963e-08
7.05097670556788001e-08
-8.48261657585186075e-10
2.10796907095420708e-08
-4.26113016562922483e-08
5.2188304991097444e-08
-6.73817427454785504e-10
1.38586854174641559e-08
-3.02517787598296816e-08
4.00885554725248963e-08
-5.85320943560103311e-10
8.61893401043618186e-09
-2.09564500768353318e-08
3.2661194134907956e-08
-4.42605391263870065e-10
5.6443205500489488e-09
-1.41911529105071429e-08
3.07504326844994473e-08
-4.03451661076123657e-10
3.47634801362797107e-09
-1.02026242779191959e-08
4.45974152060507523e-08
2.89326067386951273e-11
2.5264636746743633e-09
-1.11837404065128225e-08
2.00263581125007969e-07
3.20338828095565201e-08
3.06519837981567639e-08
-1.029712080078876e-07
1.0505697463291264e-06
7.32445058155993231e-07
5.14265965736662423e-07
-7.84379996092270818e-07
5.93458568416036542e-06
2.85050241194274092e-06
-3.08375208004444026e-06
-1.80267964233021253e-10
-8.1068569914895522e-12
-1.54611591282474751e-10
2.18897313801673782e-10
-1.10497717219201792e-09
-6.05402307464568147e-11
-1.14789503475709505e-10
3.25437994989201082e-10
-5.84705237077257015e-09
-2.08018188416648506e-10
-3.53657565898293543e-10
8.48585367434875093e-10
-2.81912439764574992e-08
-9.72281026966316876e-10
-1.64031992705043366e-09
6.50389389179996417e-09
-1.25245740397204922e-07
-4.88968703730833272e-09
-6.81514745702055483e-09
6.81865257186287391e-09
-7.59559642098053465e-08
-2.85691808417486863e-08
-8.62934833485849939e-11
-6.58587292944261418e-07
-1.44097039420786386e-07
-2.45023261850474016e-08
1.33327072291710987e-08
-6.31068028248184087e-07
-1.67424874825231562e-07
-1.61649521546051262e-08
1.52377655827025336e-08
-5.16187959503236859e-07
-1.43768309701218373e-07
-9.50085946504923359e-09
1.17286521438282974e-08
-3.77098884913474989e-07
-9.75704876235926033e-08
-5.22462906324784147e-09
1.64731416260227879e-08
-2.67242350241534996e-07
-4.75321164216620958e-08
-2.27197638825041177e-09
2.41119113697639407e-08
-1.96924232589464513e-07
-5.46083631041416172e-09
-4.88833921777266311e-09
3.18353950485731213e-08
-1.91342371320809695e-07
3.13317160932691944e-08
-1.4917877445387505e-08
3.56022698328103242e-08
-2.25130039279692464e-07
6.37487747323504679e-08
-2.31242168116305685e-08
3.57793502305196772e-08
-2.57651448532957888e-07
9.0077368679536263e-08
-2.59904507391685633e-08
3.39430358284642475e-08
-2.78337684716470606e-07
1.0732079360922395e-07
-2.09219703022231761e-08
3.77470281930728516e-08
-2.91621535338045208e-07
1.08670742565692183e-07
-1.05254175445675011e-08
3.64914716603380119e-08
-2.64084640604581323e-07
1.00110507183682152e-07
-2.11384643976768442e-10
3.62020381103857318e-08
-2.31222930020673787e-07
8.8400161896948201e-08
-1.1824968802358703e-09
3.43940741337239904e-08
-1.77256282326584035e-07
7.82223779546013422e-08
-2.06067933926543954e-09
3.04409187333215879e-08
-1.26999251615685269e-07
7.23369563651381758e-08
-2.45261484562729805e-09
2.71051846910278874e-08
-1.00559722104974718e-07
6.35488885712230711e-08
-2.16530161362929784e-09
2.5488251611663075e-08
-8.24611400176143194e-08
5.4036256859558464e-08
-1.09361041239894649e-09
2.49949416451356604e-08
-6.69752216180456866e-08
4.22483131121618589e-08
-3.00696418178839647e-10
2.23048516791558237e-08
-5.18060162775590774e-08
3.17084231790683908e-08
-1.37926498209607888e-09
1.60260330226662324e-08
-3.71996518940532353e-08
2.3972022497541295e-08
-1.68574544799355234e-09
9.39176353693667794e-09
-2.72867201723508444e-08
1.79225791283979451e-08
-1.88920828744204608e-09
5.82163290437144727e-09
-2.14848895750310186e-08
1.38175138697473156e-08
-1.86155669862666296e-09
3.78618451501618606e-09
-1.68500709418937266e-08
1.05352573267805901e-08
-1.5560520083455245e-09
2.44183767611924692e-09
-1.2973201854288922e-08
8.07615024011075773e-09
-1.20526409925111027e-09
1.57566574787984312e-09
-9.01186249779160883e-09
6.31480360917888418e-09
-8.42462469691246612e-10
9.32095228346896675e-10
-5.20518622889965152e-09
5.25421651253988086e-09
-5.63268549527026514e-10
4.71104646565345392e-10
-2.87638275141761138e-09
4.80660620307914492e-09
-4.12492595616331829e-10
1.50299600033773438e-10
-1.6007921735159723e-09
5.52185873092383225e-09
-2.5093037011101392e-10
-5.63690267355627421e-11
-1.01551366728742698e-09
1.27037308668816067e-08
2.85347523939606452e-10
1.43636783467332585e-10
-1.33269100800439909e-09
5.61302001300126798e-08
1.51363074752407747e-08
6.32517615175923313e-09
-2.34479001012577468e-08
4.32784760833814307e-07
5.2623772304563229e-07
2.54341444448613991e-07
-4.09054703341448709e-07
4.99570025237261736e-06
2.50824221451609887e-06
-2.70329236648935811e-06
-2.72320525052003342e-11
-1.16359795882989418e-13
-8.45065098344898666e-12
3.11317306989728944e-11
-1.07540994406258193e-10
-6.63206737105342853e-12
-1.39794822825371993e-11
5.19417167609695922e-11
-6.3088508766250094e-10
-2.07766260186925005e-11
-6.12366650509853003e-11
4.30486887263025027e-10
-3.03465037887231552e-09
-6.88892372952466097e-11
-1.87789162270427159e-10
1.77821538850373473e-09
-1.22122591300511378e-08
-1.29793786689144899e-10
-6.65647325709347336e-10
5.30066643149423196e-09
-2.11225666160345594e-08
-6.01168322444354967e-10
-1.39025839459428373e-09
-1.70395426625191665e-08
-2.57717141049052081e-08
-7.0179751089282491e-10
-1.06947669004356e-09
-1.80107106725868908e-08
-2.74091451656092554e-08
-2.65949712905032666e-10
-1.5576943803340907e-10
-1.55989684228806357e-08
-2.66011557957805197e-08
-7.5769193804507376e-10
4.01131128582612845e-10
-1.39383671041842237e-08
-2.49948075835630888e-08
-4.72571986102464671e-10
1.36315092983061161e-09
-1.56159826524901984e-08
-2.34310053907017305e-08
6.27761873278282377e-12
2.64819041940940001e-09
-1.96469369713293975e-08
-2.06640904247478291e-08
6.11499831699751598e-10
3.9101323994858187e-09
-2.77952352705883482e-08
-1.74189180787456577e-08
8.07024313358842709e-10
4.82421169271449711e-09
-4.09294867676032183e-08
-1.28651720122896655e-08
7.84262836473956704e-10
5.40361770793615907e-09
-5.1612810318462636e-08
-8.26218790408043578e-09
7.32034636680281005e-10
6.01980683819991282e-09
-5.48993283938670311e-08
-4.65988659918211718e-09
5.17297554811803619e-10
6.38730266706543922e-09
-4.64537765279969371e-08
-1.95465413040706722e-09
5.03939348148582038e-10
6.52278469380335091e-09
-3.42777755575552176e-08
7.94012907321218567e-11
5.10840509575894432e-10
6.28815593314236505e-09
-2.67015198652443958e-08
1.55877968261645509e-09
6.97995042203738915e-10
5.97314779982545571e-09
-2.36682989542105006e-08
2.31756152396902698e-09
6.72858767902395689e-10
5.09269544189330677e-09
-1.89974595636418541e-08
2.6281953662826941e-09
3.46477824519252095e-10
4.20455357358861794e-09
-1.50445558115348855e-08
2.53765937136546218e-09
1.54061299812551138e-10
3.2686239639401914e-09
-1.39669328800348217e-08
2.20364830429095374e-09
8.11942778367372498e-11
2.52677111619490588e-09
-1.38399940982438111e-08
1.76689814089104201e-09
5.34314751968266396e-11
1.8582943620076972e-09
-1.22402928624848758e-08
1.33763821825501005e-09
-1.01993121400211448e-11
1.31978900433723442e-09
-7.71303459405287953e-09
9.51025572634612114e-10
-1.97682824029942191e-10
8.81006929043648015e-10
-4.18344250580202075e-09
6.69811631197020931e-10
-3.82317136190077399e-10
5.7086155583168485e-10
-2.60541024410507056e-09
4.5286619623751267e-10
-4.36404366561392347e-10
3.65202755901746198e-10
-1.54238976444111332e-09
2.74594237733714388e-10
-4.969735332936263e-10
2.08894640703757515e-10
-9.71554729482376221e-10
1.56083419763612075e-10
-3.82182557139395199e-10
1.01108554611778289e-10
-6.47214935937403508e-10
1.08798722134700056e-10
-2.76796047479709143e-10
3.6818940172892494e-12
-3.67125113067531613e-10
1.19950626563348018e-10
-1.84045937298540005e-10
-1.90294335221306691e-10
-1.58698581496222451e-10
1.61957257597188461e-10
-1.28943957779212667e-10
-3.39190519612090017e-10
1.74881200325360795e-11
3.3296751057724123e-10
-5.44252180243803265e-11
-5.12740919658875878e-10
1.53782556915703788e-10
1.81836293605369147e-09
4.3540277465675026e-10
-4.3783421187145898e-10
-1.64999804130982462e-10
1.73910826004895684e-08
1.06774224332012853e-08
1.89306297682384577e-09
-7.00915182275128396e-09
1.86398187353751521e-07
4.55564056315114342e-07
1.62348087498530893e-07
-2.45465460012448614e-07
3.55199137887316254e-06
1.9640011173110325e-06
-2.52544286840339316e-06
-3.46778879605421138e-12
4.10504742097107071e-13
-1.64247433735261165e-12
5.97108710141628154e-12
-1.2875152577454278e-11
-1.86669634501595895e-12
-8.04859127584752981e-13
1.28902964173319187e-11
-4.72013494470537486e-11
-1.57161548373690524e-11
-1.66163909853893124e-11
4.9606029603364382e-11
-1.0554803912560585e-10
-1.74405681206612737e-11
-2.11240732138741965e-11
1.19207266517912625e-10
-3.82946444295859288e-10
-2.5110530947334529e-11
-4.45818367115888455e-11
2.39188485439208556e-10
-9.84231462335352049e-10
-4.13331661620901315e-11
-9.44075162724037857e-11
3.46891791670907154e-10
-2.18484784888154975e-09
-2.35234862593070419e-13
-1.09782378014256106e-10
3.06897143678311011e-10
-3.69093995089885381e-09
-4.76991624789796785e-11
-1.50101109833121441e-10
1.82382716573967636e-10
-5.88267846015130991e-09
-7.28530466258710367e-11
-6.39527354610952678e-11
7.13391655440359923e-10
-8.2521878457900026e-09
2.79510253687702306e-11
9.77091086994900144e-12
2.32175470346843657e-11
-1.00566036436402075e-08
3.41543916587773453e-10
8.94383535025186612e-11
-1.44063654786124453e-09
-1.02450152093028288e-08
7.05140256263338583e-10
2.31243651086937343e-10
-3.77596832037961107e-09
-9.72079542561895564e-09
6.72058241609184209e-10
3.55984703157846613e-10
-4.79004141234746745e-09
-8.64624082991856768e-09
6.03950713307569078e-10
4.73501362931966732e-10
-5.43005292203512369e-09
-7.37035838751775861e-09
4.76033493504523231e-10
6.03998383445048022e-10
-5.49461420403106041e-09
-6.17876902813880699e-09
4.43648703211255668e-10
7.36545263660522555e-10
-5.3722377390898779e-09
-4.96164085410097175e-09
4.96875614606618494e-10
8.3865756968338236e-10
-5.3497075201834809e-09
-3.91396847219863024e-09
5.22125549454569887e-10
8.64950978573138071e-10
-4.87250292475641431e-09
-3.0007796142031311e-09
5.19651143936444041e-10
8.24755094261965698e-10
-4.3901605631798664e-09
-2.19475989250442879e-09
4.26878099089466664e-10
7.24670424349545359e-10
-3.61926120529663489e-09
-1.6071548477299524e-09
3.18249765642655333e-10
5.8481317561416325e-10
-2.7642697426998655e-09
-1.23953457055880067e-09
2.32167109605821074e-10
4.39282325331154286e-10
-2.05712365697375166e-09
-9.99756174580284721e-10
1.76659749628246743e-10
3.30493629914952394e-10
-1.43950499897102804e-09
-8.40033710043986598e-10
1.12301350593098251e-10
2.46465048107493323e-10
-9.90903360713737379e-10
-7.07325943776228787e-10
3.97459758381015177e-11
1.70747148244146843e-10
-6.77533630646556291e-10
-6.19223681399455916e-10
-6.84816377857423669e-11
1.04685499684064197e-10
-4.37168446623628934e-10
-5.48119595101658347e-10
-1.29314832564413755e-10
5.7911503368419723e-11
-2.9036993855798239e-10
-4.78009163060357819e-10
-1.37750936846255333e-10
2.41465045263491764e-11
-1.77549933785486939e-10
-4.49151713225561343e-10
-1.37229767742269284e-10
-3.04177668749361489e-12
-9.13691111875759484e-11
-4.43058693303070712e-10
-1.10931810030366779e-10
-5.65136246263084397e-11
-2.89982714712300773e-11
-4.65535991623596363e-10
-8.40314373764642581e-11
-1.21562487319048822e-10
5.18509794416141227e-11
-4.29656199013117768e-10
-5.94520807235289858e-11
-1.87453875730975272e-10
1.59769707897397286e-10
-3.64166543037579251e-10
-3.5174487574175278e-11
-2.55006531756301652e-10
2.48691627854710461e-10
-1.71885789215225293e-10
9.1515401200011431e-11
-3.8611287421127306e-10
3.51958914548695136e-10
1.70749439394194314e-10
4.92133390952472047e-10
-4.66227024811438839e-10
1.94643495659323404e-10
3.79789112616052773e-09
1.047170892668742e-08
1.18431114500416863e-09
-2.84907149753212363e-09
3.81555418454766866e-08
4.5241338251853287e-07
1.2452758192439652e-07
-1.70684218017590034e-07
2.72258398321349467e-06
1.48584239472018031e-06
-1.7077821786120727e-06
-2.50726567338316443e-12
5.82241560608876141e-13
-1.06648415547712482e-13
4.13786085837843486e-12
-7.73200845784039892e-12
-4.27978909624094947e-13
-5.65446199333092504e-12
1.42978657909951236e-11
-1.29875847850335371e-11
-3.92553469569698749e-12
-1.39230389633401116e-11
3.45000192112242223e-11
-2.36447231463832041e-11
-5.16547947185517606e-12
-1.06942401066152274e-11
3.21484289730800318e-11
-6.11535933869651232e-11
-3.97844574468565683e-12
-1.22581048557677216e-11
4.96165516114356286e-11
-1.33523199894994805e-10
-3.95621504332363731e-12
-1.71868168765623886e-11
1.06102333669444142e-10
-3.12164986419847676e-10
1.68018192610589536e-12
-2.58368730008446896e-11
2.33005233621581963e-10
-8.61235764608813746e-10
8.99767424004378394e-12
-3.55925589366230312e-11
2.33496604873582239e-10
-1.55110173493177262e-09
1.01634740587450706e-11
-4.27371017960369259e-11
1.83609775272498399e-10
-2.24397049572059331e-09
6.69427507643485949e-12
-2.03577610865555052e-11
4.17420731488600059e-10
-2.56253092711136913e-09
5.54534700373772412e-12
-6.3991046121827618e-13
1.32089157601379826e-10
-2.43178172893149576e-09
1.06749751467320687e-10
9.42813033174351635e-12
-2.4969850831521084e-10
-2.29586971078681999e-09
1.0258199678485436e-10
2.7401015137957743e-11
-3.55412411299238835e-10
-2.1377169524297717e-09
9.72118787699143345e-11
5.07656577748526467e-11
-4.56229646878995568e-10
-2.02693883639748392e-09
8.94355567551734517e-11
7.47555160210586793e-11
-5.57677041380549273e-10
-1.90692435772167561e-09
1.04270186349787238e-10
9.7758146742396328e-11
-6.65094188020605678e-10
-1.71960918998424875e-09
1.37215967878714143e-10
1.15822053836769972e-10
-7.39668554469854843e-10
-1.50466965139108063e-09
1.52405508057484153e-10
1.20229647342831536e-10
-7.32718496570717078e-10
-1.24652045638866214e-09
1.42920501988914851e-10
1.19245668135437211e-10
-6.62854610547083715e-10
-9.91183226695787545e-10
1.19263676938085331e-10
1.06728768402658277e-10
-5.3113520845270433e-10
-7.95037898738884087e-10
9.07695518703763134e-11
8.89717024526103975e-11
-4.11314729594594002e-10
-6.59516313934557288e-10
6.83310654046860938e-11
6.87484372910189458e-11
-2.94086888032926987e-10
-5.60363564035021205e-10
5.03207861778663096e-11
4.94319988696464374e-11
-1.99281417915178147e-10
-4.89050002071354947e-10
2.22785669075861989e-11
3.27334838553791161e-11
-1.31532861479837626e-10
-4.30372928493684518e-10
-1.69778304998411559e-11
1.90898590976448567e-11
-8.93684877822257984e-11
-3.8732557314780476e-10
-5.05960517656060762e-11
8.3179511283324675e-12
-5.57110430829169354e-11
-3.42386643044956853e-10
-6.18882435869225456e-11
1.10454197626931485e-13
-3.12274672755902104e-11
-3.04049983487938899e-10
-5.2929346458037256e-11
-1.33901142333627465e-11
-1.09423884677967365e-11
-2.81461458357539338e-10
-4.13122189571489606e-11
-2.76511903579395994e-11
1.35923857217072702e-11
-2.87243873510171541e-10
-3.65483332508288656e-11
-4.76718101929489637e-11
4.74504459496850208e-11
-2.90118362590196934e-10
-3.1452413234868431e-11
-7.37093870346506588e-11
8.37951697713680294e-11
-2.82086643132896969e-10
-2.30888340893115245e-11
-9.93137713028043555e-11
1.28169044844962565e-10
-2.42497646933447512e-10
5.58263432160442391e-11
-1.59572715558331425e-10
1.85190811289798817e-10