/*--------------------------------*- C++ -*----------------------------------*\
| =========                 |                                                 |
| \\      /  F ield         | OpenFOAM: The Open Source CFD Toolbox           |
|  \\    /   O peration     | Version:  2206                                  |
|   \\  /    A nd           | Website:  www.openfoam.com                      |
|    \\/     M anipulation  |                                                 |
\*---------------------------------------------------------------------------*/
FoamFile
{
    version     2.0;
    format      ascii;
    arch        "LSB;label=32;scalar=64";
    class       volVectorField;
    location    "0.300000000000000044";
    object      faceTraction;
}
// * * * * * * * * * * * * * * * * * * * * * * * * * * * * * * * * * * * * * //

dimensions      [1 -1 -2 0 0 0 0];

internalField   uniform (0 0 0);

boundaryField
{
    inlet
    {
        type            calculated;
        value           nonuniform List<vector> 0();
    }
    outlet
    {
        type            calculated;
        value           uniform (0 0 0);
    }
    top
    {
        type            calculated;
        value           nonuniform List<vector> 0();
    }
    bottom
    {
        type            calculated;
        value           uniform (0 0 0);
    }
    left
    {
        type            calculated;
        value           uniform (0 0 0);
    }
    symmetry
    {
        type            symmetryPlane;
    }
    interface
    {
        type            calculated;
        value           nonuniform List<vector> 
104
(
(-2.47251284688952966 0.00261369623255195034 -0.000187030504232035876)
(1.27253869831166888 -0.000367512083514167384 -1.18677146993339012e-05)
(1.21955259441788 -4.80658428662518382e-05 -6.21613695466929461e-05)
(1.10462118507445051 -2.33400418227814341e-05 -3.71561501414955918e-05)
(1.09352525014495283 -1.13656714158376568e-05 -7.6164587412930578e-05)
(1.17132122409887107 3.32863435277628355e-06 -7.23001707406946902e-05)
(1.24727479321170609 9.36761581856335769e-06 -7.17266560418091992e-05)
(1.37150983758762712 8.77429260796538714e-06 -6.42293761653026671e-05)
(1.5069326392561182 9.03905567359088258e-06 -5.93332701416079383e-05)
(1.62100019601864109 7.52176777162734374e-06 -5.46191791061555795e-05)
(1.73367889945688702 7.33765117654091692e-06 -5.22348639672031876e-05)
(1.83350776925152203 7.7066812795826331e-06 -4.86200017144161037e-05)
(1.93220674058947184 8.10799535700557868e-06 -4.49931808194377252e-05)
(0.405847716119631552 3.90114230925588766e-06 8.39688765960165792e-06)
(0.631557895164715832 -2.70161164698644123e-06 -3.37216817191000122e-05)
(0.772584292065068623 -7.69141292236802039e-06 -5.66973490002930708e-05)
(0.859267063855903568 -3.57347502653385099e-06 -4.37687604637075406e-05)
(0.953517628224738178 -3.81278454787578157e-07 -2.74092126926138786e-05)
(1.05743483047326436 4.22802329028680938e-07 -2.4526743038756529e-05)
(1.16267504034582392 2.95316201032531443e-06 -2.6124953777249514e-05)
(1.27100908611175978 4.8728739177690353e-06 -2.73731309502123134e-05)
(1.38170004169142047 6.77162609901433732e-06 -2.87638520015212029e-05)
(1.49160448451424643 8.06703137609173823e-06 -2.88654463468511783e-05)
(1.60115893897468586 9.27865407842476358e-06 -2.82213002450267504e-05)
(1.71066360006812368 1.13615591987305526e-05 -2.69249129991632696e-05)
(1.8234570901892484 1.36482984736654224e-05 -2.50998804521357741e-05)
(0.374423520350660732 1.3915067794331922e-06 -2.01743049239454517e-05)
(0.508954505722017503 7.8684269573535475e-06 -3.85650969210430983e-05)
(0.645934339910519739 7.42471798829029584e-06 -2.91785906998427934e-05)
(0.76176621830997937 3.82409988676456768e-06 -2.62244670585513142e-05)
(0.868176266618369441 2.43275823739574125e-06 -2.85914752116314738e-05)
(0.97725914987457152 3.84022364342041082e-06 -2.73331454354929239e-05)
(1.08753710190516806 5.34203709056368044e-06 -2.62839965465539928e-05)
(1.19893879104680789 6.82602964546976894e-06 -2.52552291609539166e-05)
(1.31087754155215963 8.30687058214104819e-06 -2.42748660726210819e-05)
(1.42314849848589664 9.96162897887899862e-06 -2.31784853362516842e-05)
(1.53634372943538455 1.18112852549482051e-05 -2.19422095531902512e-05)
(1.65086703881996488 1.45825743307974254e-05 -2.0581182611778819e-05)
(1.77000446328072347 1.69613509734935837e-05 -1.90383658741095631e-05)
(0.326374060722664505 -4.8949595771247103e-06 -1.58609508298682779e-05)
(0.454105661537181904 4.95051279195860476e-06 -1.70984335638173126e-05)
(0.577733966093675666 5.18622909545516054e-06 -1.91264028362034506e-05)
(0.697851701634872423 4.73416768728013891e-06 -1.93322340059535886e-05)
(0.816067341468546203 5.02280019651447074e-06 -1.77089681841184016e-05)
(0.931982708338599197 5.72763782399495592e-06 -1.66427701332746344e-05)
(1.046961692530604 6.79265409957791854e-06 -1.59254657809798437e-05)
(1.16168657686532906 8.1261189341477491e-06 -1.53505855272187858e-05)
(1.27641502867807466 9.68397168949994516e-06 -1.48229651492203741e-05)
(1.39142637778484524 1.15668909679686306e-05 -1.42437548551536045e-05)
(1.50751959878841824 1.36667358982962959e-05 -1.35624768816683705e-05)
(1.62507710699198071 1.67424018260088105e-05 -1.27709203959032314e-05)
(1.74731652674066829 1.93294600288272137e-05 -1.18688828654142211e-05)
(0.280898415030768567 -3.70576789658618466e-06 -1.07144041142531347e-05)
(0.405235224358584945 3.20198728078376512e-06 -1.3290597938526144e-05)
(0.53039882212858902 4.8664094671944265e-06 -1.31907974251528067e-05)
(0.653628134463306254 5.36723606234605933e-06 -1.29497682314931084e-05)
(0.774465091488145796 5.9543347407362454e-06 -1.28591824983541143e-05)
(0.893740734628338584 6.84137392375194906e-06 -1.2601852104719709e-05)
(1.01204455365947421 7.98391619009317572e-06 -1.21851376003481429e-05)
(1.12976562297192196 9.36304226419138537e-06 -1.16925664825904716e-05)
(1.24727047084239517 1.09839028367683755e-05 -1.11574306764942166e-05)
(1.36490281989756457 1.2959491416155043e-05 -1.05851476196895565e-05)
(1.48343085697186083 1.51640800857336558e-05 -9.97618547376501434e-06)
(1.60328831613742206 1.83647042170980797e-05 -9.32959788412527019e-06)
(1.72766447467036866 2.10816339838965056e-05 -8.63841574265257016e-06)
(0.252788460802430281 -2.61583908475549824e-06 -6.8366699872395822e-06)
(0.376417940768206671 2.26200641715628223e-06 -8.06881573744292238e-06)
(0.500697486622161847 4.23998257808084947e-06 -8.16861177601177245e-06)
(0.624388160970432926 5.35955233582425612e-06 -8.20904557386064786e-06)
(0.747030146482914992 6.36388295038839293e-06 -8.14481585413603651e-06)
(0.868546604964529068 7.4740604681819862e-06 -7.9787363219350603e-06)
(0.989084320879797918 8.73656244761727289e-06 -7.74125204477287775e-06)
(1.10889863687571011 1.01947450002775699e-05 -7.45700390185274914e-06)
(1.22832241287464838 1.18815941484719026e-05 -7.13758756408126038e-06)
(1.34771493904668493 1.39251804804898904e-05 -6.78704266970970188e-06)
(1.46784642333076776 1.62028119622038513e-05 -6.40736127578833365e-06)
(1.58920598081799436 1.94664869781314272e-05 -5.99785070057320592e-06)
(1.71489854607479608 2.22747887654064754e-05 -5.5600554453091903e-06)
(0.236821949926822178 -2.26312752343430469e-06 -3.93386435378890056e-06)
(0.359853908858892624 1.96788251787986039e-06 -4.49975871503189328e-06)
(0.483539452607879117 3.91484319428919565e-06 -4.50999907018731735e-06)
(0.607074846513097954 5.24422253178576473e-06 -4.54453316739926253e-06)
(0.730002669434673734 6.44446654573560573e-06 -4.55616830804469996e-06)
(0.85223032832146739 7.71964659209058614e-06 -4.51183408996712447e-06)
(0.973760697973271361 9.11013812426262515e-06 -4.41289828234574111e-06)
(1.0946944730482584 1.06627126752011109e-05 -4.2720830898211113e-06)
(1.21526335155618792 1.24218834894033962e-05 -4.10065851091672939e-06)
(1.3357697062210907 1.45241551154687299e-05 -3.90438555042233205e-06)
(1.45692389175912207 1.68575916957367842e-05 -3.69048808464611424e-06)
(1.57922014128408805 2.01578030740549727e-05 -3.45862657612799818e-06)
(1.7056705830398311 2.30246031833731137e-05 -3.21497966768091471e-06)
(0.229765969040921253 -2.12296728410942623e-06 -1.27180359966325885e-06)
(0.352544059821053024 1.86147175534237031e-06 -1.44252297465280857e-06)
(0.475859501688484066 3.76694974041507315e-06 -1.44185332159844835e-06)
(0.599176063851561413 5.16861431990546796e-06 -1.45496091588763127e-06)
(0.722115381682092883 6.45277230326759495e-06 -1.46198813946120118e-06)
(0.844572627460510428 7.80308401365948314e-06 -1.45121665678010108e-06)
(0.966489725277177025 9.25643077099074101e-06 -1.42308709324347587e-06)
(1.08790164847567117 1.08580643928680164e-05 -1.38091816758761103e-06)
(1.20898204837810286 1.26570532436668074e-05 -1.32779629513041515e-06)
(1.32999974257154907 1.47781567565989307e-05 -1.26604162123139111e-06)
(1.45162077892333841 1.71507397071921461e-05 -1.19953749551880141e-06)
(1.57437105247185305 2.04216702111122142e-05 -1.12815509403013511e-06)
(1.70118373566280656 2.33674083955537488e-05 -1.05341381663397608e-06)
)
;
    }
    procBoundary3to0
    {
        type            processor;
        value           uniform (0 0 0);
    }
    procBoundary3to1
    {
        type            processor;
        value           uniform (0 0 0);
    }
    procBoundary3to2
    {
        type            processor;
        value           uniform (0 0 0);
    }
}


// ************************************************************************* //
