/*--------------------------------*- C++ -*----------------------------------*\
| =========                 |                                                 |
| \\      /  F ield         | OpenFOAM: The Open Source CFD Toolbox           |
|  \\    /   O peration     | Version:  2206                                  |
|   \\  /    A nd           | Website:  www.openfoam.com                      |
|    \\/     M anipulation  |                                                 |
\*---------------------------------------------------------------------------*/
FoamFile
{
    version     2.0;
    format      ascii;
    arch        "LSB;label=32;scalar=64";
    class       volVectorField;
    location    "0.300000000000000044";
    object      faceForces;
}
// * * * * * * * * * * * * * * * * * * * * * * * * * * * * * * * * * * * * * //

dimensions      [1 1 -2 0 0 0 0];

internalField   uniform (0 0 0);

boundaryField
{
    inlet
    {
        type            calculated;
        value           nonuniform List<vector> 0();
    }
    outlet
    {
        type            calculated;
        value           uniform (0 0 0);
    }
    top
    {
        type            calculated;
        value           nonuniform List<vector> 0();
    }
    bottom
    {
        type            calculated;
        value           uniform (0 0 0);
    }
    left
    {
        type            calculated;
        value           uniform (0 0 0);
    }
    symmetry
    {
        type            symmetryPlane;
    }
    interface
    {
        type            calculated;
        value           nonuniform List<vector> 
104
(
(-0.000772660264652977585 8.16780072672484109e-07 -5.84470325725111812e-08)
(0.000397668343222396469 -1.14847526098177298e-07 -3.70866084354184336e-09)
(0.000381110185755587441 -1.50205758957036981e-08 -1.9425427983341543e-08)
(0.000345194120335765768 -7.29376306961919838e-09 -1.16112969192173735e-08)
(0.000341726640670297834 -3.55177231744926825e-09 -2.38014335665408107e-08)
(0.000366037882530897854 1.04019823524259044e-09 -2.25938033564671293e-08)
(0.000389773372878658448 2.9273799433010512e-09 -2.24145800130653916e-08)
(0.000428596824246133695 2.74196643998918508e-09 -2.0071680051657095e-08)
(0.000470916449767535975 2.82470489799714498e-09 -1.85416469192524433e-08)
(0.000506562561255825459 2.35055242863354538e-09 -1.70684934706736228e-08)
(0.000541774656080278179 2.29301599266904066e-09 -1.63233949897510239e-08)
(0.000572971177891101616 2.40833789986957691e-09 -1.51937505357550591e-08)
(0.000603814606434208991 2.53374854906423933e-09 -1.40603690060742685e-08)
(0.000126827411287384857 1.21910697164246501e-09 2.62402739362551798e-09)
(0.000197361842238973697 -8.44253639683262863e-10 -1.05380255372187547e-08)
(0.000241432591270333911 -2.40356653824000584e-09 -1.77179215625915824e-08)
(0.000268520957454969865 -1.1167109457918285e-09 -1.36777376449086058e-08)
(0.000297974258820230388 -1.19149517121118056e-10 -8.5653789664418278e-09)
(0.000330448384522895355 1.3212572782146289e-10 -7.66460719961142033e-09)
(0.000363335950108069805 9.2286312822666026e-10 -8.16404805539046882e-09)
(0.000397190339409925197 1.52277309930282453e-09 -8.55410342194135443e-09)
(0.00043178126302856844 2.11613315594197829e-09 -8.98870375047536679e-09)
(0.000466126401410702071 2.52094730502866879e-09 -9.02045198339099501e-09)
(0.000500362168429589684 2.89957939950774094e-09 -8.81915632657086566e-09)
(0.000534582375021289006 3.55048724960330006e-09 -8.41403531223852737e-09)
(0.000569830340684139222 4.26509327302043769e-09 -7.84371264129241777e-09)
(0.000117007350109581598 4.34845868572873002e-10 -6.3044702887329604e-09)
(0.000159048283038130625 2.45888342417298601e-09 -1.20515927878259811e-08)
(0.000201854481222037596 2.32022437134071947e-09 -9.11830959370088108e-09)
(0.000238051943221868857 1.19503121461392885e-09 -8.19514595579729628e-09)
(0.000271305083318240496 7.60236949186169268e-10 -8.93483600363483768e-09)
(0.000305393484335804151 1.20006988856888045e-09 -8.5416079485915542e-09)
(0.000339855344345365228 1.66938659080115138e-09 -8.21374892079812904e-09)
(0.000374668372202128098 2.13313426420930667e-09 -7.8922591127981123e-09)
(0.000409649231735049438 2.59589705691907506e-09 -7.58589564769408008e-09)
(0.000444733905776843231 3.11300905589969066e-09 -7.24327666757866046e-09)
(0.000480107415448558547 3.69102664217132072e-09 -6.85694048537196502e-09)
(0.000515895949631239902 4.55705447837420318e-09 -6.43161956618089234e-09)
(0.000553126394775225235 5.30042217921673645e-09 -5.94948933565922896e-09)
(0.000101991893975832658 -1.52967486785147191e-09 -4.95654713433383668e-09)
(0.000141908019230369356 1.54703524748706397e-09 -5.3432604886929098e-09)
(0.000180541864404273628 1.62069659232973755e-09 -5.97700088631357693e-09)
(0.000218078656760897668 1.47942740227504357e-09 -6.04132312686049809e-09)
(0.000255021044208920294 1.56962506141076977e-09 -5.53405255753699214e-09)
(0.000291244596355812299 1.78988681999842402e-09 -5.20086566664832412e-09)
(0.000327175528915813461 2.12270440611809776e-09 -4.97670805655619721e-09)
(0.000363027055270415556 2.53941216692117335e-09 -4.79705797725587348e-09)
(0.000398879696461897526 3.02624115296872686e-09 -4.63217660913135739e-09)
(0.000434820743057763907 3.61465342749019537e-09 -4.45117339223549908e-09)
(0.000471099874621380796 4.27085496821759329e-09 -4.23827402552136669e-09)
(0.000507836595934994068 5.23200057062775479e-09 -3.99091262371976081e-09)
(0.000546036414606457308 6.04045625900848789e-09 -3.70902589544193363e-09)
(8.77807546971151619e-05 -1.15805246768318248e-09 -3.34825128570410413e-09)
(0.000126636007612057806 1.00062102524492665e-09 -4.15331185578941991e-09)
(0.000165749631915183972 1.52075295849825763e-09 -4.12212419536024998e-09)
(0.00020425879201978333 1.67726126948314439e-09 -4.0468025723415988e-09)
(0.00024202034109004544 1.86072960648007576e-09 -4.01849453073565883e-09)
(0.000279293979571356007 2.13792935117248559e-09 -3.93807878272491167e-09)
(0.00031626392301858583 2.49497380940411887e-09 -3.80785550010879693e-09)
(0.000353051757178725811 2.92595070755980962e-09 -3.65392702580952434e-09)
(0.000389772022138247921 3.43246963649011207e-09 -3.4866970864044374e-09)
(0.000426532131217988977 4.04984106754845189e-09 -3.30785863115298688e-09)
(0.000463572142803707051 4.73877502679177341e-09 -3.1175579605515708e-09)
(0.000501027598792944508 5.73897006784315073e-09 -2.91549933878914745e-09)
(0.000539895148334489962 6.5880106199676545e-09 -2.69950491957892664e-09)
(7.89963940007595362e-05 -8.17449713986093887e-10 -2.13645937101237122e-09)
(0.000117630606490064696 7.06877005361338796e-10 -2.52150491795091566e-09)
(0.000156467964569425639 1.32499455565026582e-09 -2.5526911800036798e-09)
(0.00019512130030326048 1.67486010494508172e-09 -2.56532674183145504e-09)
(0.000233446920775910868 1.98871342199637206e-09 -2.5452549544175105e-09)
(0.000271420814051415605 2.33564389630687308e-09 -2.49335510060470899e-09)
(0.000309088850274937107 2.73017576488040026e-09 -2.41914126399152635e-09)
(0.000346530824023659966 3.18585781258674552e-09 -2.3303137193289878e-09)
(0.000383850754023327371 3.71299817139746727e-09 -2.23049611377539246e-09)
(0.000421160918452089298 4.35161890015309291e-09 -2.12095083428428311e-09)
(0.000458702007290865625 5.06337873818871156e-09 -2.00230039868385734e-09)
(0.00049662686900562344 6.08327718066607308e-09 -1.87432834392912748e-09)
(0.00053590579564837394 6.96087148918952595e-09 -1.73751732665912267e-09)
(7.40068593521319307e-05 -7.07227351073220244e-10 -1.22933261055903138e-09)
(0.000112454346518403955 6.14963286837456379e-10 -1.40617459844746671e-09)
(0.000151106078939962206 1.22338849821537333e-09 -1.40937470943353633e-09)
(0.000189710889535343169 1.63881954118305207e-09 -1.4201666148122701e-09)
(0.000228125834198335384 2.01389579554237553e-09 -1.42380259626396782e-09)
(0.000266321977600458783 2.41238956002831014e-09 -1.40994815311472761e-09)
(0.000304300218116647218 2.84691816383206928e-09 -1.3790307132330437e-09)
(0.000342092022827581083 3.33209771100035008e-09 -1.33502596556909841e-09)
(0.000379769797361308289 3.88183859043855672e-09 -1.28145578466147652e-09)
(0.000417428033194090721 4.53879847358397682e-09 -1.22012048450697834e-09)
(0.000455288716174726059 5.26799740491774963e-09 -1.15327752645191167e-09)
(0.000493506294151277989 6.2993134606421845e-09 -1.08082080504000035e-09)
(0.00053302205719994646 7.19518849480408792e-09 -1.00468114615028452e-09)
(7.18018653252879046e-05 -6.63427276284195847e-10 -3.97438624894768461e-10)
(0.000110170018694079065 5.81709923544490747e-10 -4.50788429579002692e-10)
(0.000148706094277651274 1.17717179387971043e-09 -4.50579162999515141e-10)
(0.000187242519953612996 1.6151919749704592e-09 -4.54675286214884934e-10)
(0.000225661056775653887 2.01649134477112205e-09 -4.56871293581625054e-10)
(0.000263928946081409745 2.43846375426859052e-09 -4.53505205243781976e-10)
(0.000302028039149117734 2.89263461593460547e-09 -4.44714716638586086e-10)
(0.000339969265148647528 3.39314512277125791e-09 -4.31536927371128831e-10)
(0.000377806890118156599 3.95532913864587196e-09 -4.14936342228254169e-10)
(0.000415624919553608948 4.61817398643716413e-09 -3.95638006634809618e-10)
(0.00045363149341354366 5.3596061584975502e-09 -3.7485546734962576e-10)
(0.000491990953897454499 6.38177194097257243e-09 -3.52548466884417549e-10)
(0.000531619917394626296 7.30231512361053651e-09 -3.29191817698117106e-10)
)
;
    }
    procBoundary3to0
    {
        type            processor;
        value           uniform (0 0 0);
    }
    procBoundary3to1
    {
        type            processor;
        value           uniform (0 0 0);
    }
    procBoundary3to2
    {
        type            processor;
        value           uniform (0 0 0);
    }
}


// ************************************************************************* //
