/*--------------------------------*- C++ -*----------------------------------*\
| =========                 |                                                 |
| \\      /  F ield         | OpenFOAM: The Open Source CFD Toolbox           |
|  \\    /   O peration     | Version:  2206                                  |
|   \\  /    A nd           | Website:  www.openfoam.com                      |
|    \\/     M anipulation  |                                                 |
\*---------------------------------------------------------------------------*/
FoamFile
{
    version     2.0;
    format      ascii;
    arch        "LSB;label=32;scalar=64";
    class       volScalarField;
    location    "0.300000000000000044";
    object      p;
}
// * * * * * * * * * * * * * * * * * * * * * * * * * * * * * * * * * * * * * //

dimensions      [1 -1 -2 0 0 0 0];

internalField   nonuniform List<scalar> 
7236
(
4.52468957194136401
18.8185367385659532
28.1021888144306793
30.2061728211651754
33.3816319911685611
35.0700631690070423
35.2889106702148041
43.3792638429084931
49.4582105304081097
47.6792503487764705
46.31122477044363
46.5809753264435997
52.2995481773330937
47.0905554549954246
41.7092133998747627
38.4424593489276347
36.0120174245974667
33.2067072124518177
29.9892619977649204
28.4195961504619099
25.9053422839857461
23.0938641336518948
20.3817218078859703
17.8411317322675487
16.0726636089720074
13.9288321620049445
12.4553950164646334
10.5713348968270182
7.61503184090920282
5.59545787435748743
5.75048666856934521
4.40018318000143438
3.06724149604963348
2.50335684105746781
2.06891701974221753
5.47810524030294133
16.3658075375532341
33.0526423874990485
-0.773085731347773919
0.73637227501970981
2.96457765198447465
3.27482430452504314
3.22899527581074963
3.43838890768661543
3.88006094341169705
3.92532078156462827
3.26321152359053235
3.10229592589656722
2.57039434399115585
2.31128342943452836
1.97770632344548414
1.77360555269089915
1.46043949649985105
1.19048205281106978
1.09497329205588145
1.02547997664876811
1.02638749119828954
0.979081617029947893
0.934418831542092043
0.840386229913775429
0.702544623855519301
0.642441626669493004
0.582833563418693634
0.535805527727633013
0.413212533274378679
0.322667525517807863
0.331543907505264968
0.300704138821769718
0.237816401076394568
0.114175667210467013
0.0109617318512369444
-0.160607381988805198
-0.270325751189339103
0.571684764978547033
7.0974334270630548
25.2050404505624961
-1.04839785893494253
-0.504475677021943514
-0.0806952083446591528
-0.317038037970326703
-0.337757930208774315
-0.174847307157317333
-0.057046536989945773
0.0925322720801666776
0.0855210340913834521
0.0633660474588499945
0.0911094113793187166
0.166830815894285056
0.227102436038310929
0.254943114794313308
0.266944473780704072
0.256956282045933904
0.221403073018986207
0.185615453851141421
0.153868619878554602
0.110844206626262487
0.0689556814833948151
0.0213725112565491537
-0.007223422933510526
-0.025008718532381069
-0.0316404745625947781
-0.0446535157157855744
-0.0698161925044955001
-0.0995014377646211701
-0.133760617190600284
-0.179207202751128725
-0.256506107144739426
-0.344325806394085998
-0.461017985827282761
-0.612144564551799331
-0.75589527988550842
-0.591076282151742793
1.73609242050507073
13.9801218669069094
-1.0077059749659818
-0.804546829989970957
-0.718207562845344483
-0.821165947545936969
-0.902746798479628243
-0.800152361926455447
-0.652530624431298056
-0.566599260852584607
-0.516605660759541618
-0.460677729898387678
-0.390806710261973222
-0.326301156213890997
-0.289045824908469196
-0.27379759956908023
-0.269509169724689968
-0.262244672815567847
-0.266716632472273174
-0.267885582009186884
-0.265717565466777383
-0.267870015878816814
-0.274762684217569053
-0.280486611520273654
-0.279947120977918795
-0.274985528480031494
-0.274881683085894279
-0.281474831936487035
-0.295418844517253532
-0.313632981426408275
-0.339796002760056393
-0.373766495253896047
-0.42880678148595508
-0.505943884118100096
-0.605198230225164169
-0.734679583075304343
-0.875158590827635585
-0.904270169728658813
-0.33787571495740254
6.43633121816429821
-0.85592965097566176
-0.89174672068875438
-0.90304968017243481
-0.942064410034360589
-0.990311309169636722
-0.920373998549345096
-0.786513735300602312
-0.741915435934162426
-0.708305652588088419
-0.670541715241815495
-0.61961196850836342
-0.572274684399575517
-0.542312302973267268
-0.526437684940047168
-0.518865779071155719
-0.51436255372922246
-0.509180832888193047
-0.499379692870470016
-0.48711566879071766
-0.478906498335658459
-0.477288154311429236
-0.476217402713311477
-0.470672840876598386
-0.461648633896564131
-0.457376022097029655
-0.460218053281481798
-0.469229596246097447
-0.482766931032520663
-0.502734861767667018
-0.531802486195681601
-0.578393348180867628
-0.646057654814227833
-0.736535579185564449
-0.853454624522421712
-0.990494598161330009
-1.08095620642292767
-1.14999537029984822
2.50864949413916083
-0.92202926503888627
-0.947964933151982048
-0.979016153756792851
-0.998901159606148448
-1.01089229498547306
-0.987136611874899428
-0.921534523696748709
-0.876297864812866312
-0.839235846586881995
-0.807420761014021715
-0.773457604487947648
-0.742762717900653735
-0.723419392741030731
-0.709655344701387358
-0.698924780357431108
-0.690039325886894539
-0.678821758874307513
-0.664667776773168684
-0.648893381285353232
-0.636884003795073594
-0.631744533112797435
-0.629358231749191588
-0.624718009130318164
-0.617063729647016945
-0.610916320152997461
-0.610970775669731903
-0.617507452597293449
-0.629035377380578908
-0.64644691407071575
-0.67328402105422247
-0.715788375342158667
-0.777317295043034706
-0.860226001090591552
-0.968859843632650763
-1.10264861783590229
-1.216226328000652
-1.57127648255168628
0.283555550656400257
-1.0455667803536095
-1.05440580417046248
-1.0736137520694391
-1.0804948704384596
-1.08434796914358622
-1.06135923968118884
-1.02638732436646052
-0.993707131088495066
-0.963179799071033238
-0.93548170945923137
-0.908349476844698023
-0.883897510917516449
-0.866624869117703422
-0.851812829146957551
-0.839489397067350818
-0.82784687535044732
-0.814887372492727025
-0.801021155300217114
-0.786398109955119828
-0.774259361650854738
-0.767356750685094791
-0.763971784860013159
-0.760192798635341171
-0.754410322439563519
-0.74913508029693876
-0.748855692086558999
-0.754438294264079934
-0.764785614636697697
-0.780969920319037558
-0.80636818630689433
-0.845622712207365401
-0.90157272362843488
-0.97744395158860653
-1.07938635470308797
-1.20963448588794376
-1.33618258072914253
-1.81306565329619418
-0.724370658950304502
-1.21345530582252192
-1.16438621338998072
-1.17184963615077908
-1.1712487902700448
-1.17155925263553451
-1.15701753038237265
-1.13368757886870464
-1.10830681733761538
-1.08257931866527035
-1.0584039199954427
-1.03597229623412845
-1.01511532836597618
-0.998843316545711457
-0.98403055758016289
-0.97029024258705332
-0.957067043283388319
-0.943653777980468011
-0.930335625435714686
-0.917465691500957581
-0.906435161954686208
-0.8990615975082904
-0.894614366306436204
-0.890670651669051461
-0.886037922242214449
-0.88230570964231525
-0.882374488740470309
-0.887136229871381188
-0.896321125344856084
-0.911120612395997731
-0.934452683397981487
-0.969803083851096037
-1.01988251399871821
-1.08879865063320769
-1.18431186874293548
-1.30895354775161943
-1.44406728945482632
-1.97115851689336141
-0.900705966724593576
-1.31557716615547893
-1.26330595089607023
-1.27042324712935706
-1.26897882966170061
-1.26849520214666223
-1.259242459667818
-1.24342119630751946
-1.223774329620964
-1.20230107798361607
-1.18126226484629582
-1.1619139409978867
-1.14355743796235942
-1.12758403527148166
-1.1128334301370697
-1.09877301001732341
-1.08511521257322774
-1.07164233478010207
-1.05869819043247793
-1.04679449699088667
-1.0367090966055299
-1.0292618762085628
-1.0240579535505121
-1.01975218224365816
-1.01560183338538046
-1.01259800976802317
-1.01264890036084032
-1.01647603488017402
-1.02434931421067121
-1.03744253180214319
-1.05813228363228373
-1.08916244704161791
-1.13306652960207077
-1.19450806827324674
-1.28230563512527218
-1.39800166356976341
-1.53858370884981044
-2.07663224452514728
-0.844041341195438388
-1.40830465541680305
-1.35936818831531214
-1.37112985247376828
-1.37166477975297019
-1.37241583322465388
-1.36653329936629664
-1.35543927181460155
-1.34012525406076599
-1.32223352718145737
-1.30390813071411182
-1.28648629784948687
-1.26987669204858644
-1.25453217857638544
-1.24001887656324272
-1.2259738104990221
-1.21226246138582794
-1.19896599232947842
-1.18646148445917587
-1.17518444701313185
-1.16558959443844179
-1.15802607497145948
-1.15230889086947674
-1.50624578438084256
-1.45876314177762034
-1.47541370891134016
-1.4784273158930632
-1.48066320455601486
-1.477107899087855
-1.46914711322701064
-1.45705567857690421
-1.44203616535816348
-1.42609403739358775
-1.41031975849257996
-1.39497595916177475
-1.38029158261459184
-1.36604699461471091
-1.35207449273575619
-1.3384490132851008
-1.32541670950342061
-1.31331461598644106
-1.30245690284448701
-1.29311258568612897
-1.28544454284375109
-1.27931388096916665
-1.60014652782145794
-1.56252263944184411
-1.58244214729166877
-1.5883335559378553
-1.59177648279104544
-1.58994046932720812
-1.58406821345440951
-1.57431230209759043
-1.56171285866314458
-1.54777926443640301
-1.53347531739658072
-1.51918546178226044
-1.50507776146875871
-1.49109827723223676
-1.47727514246785008
-1.46382554367792839
-1.45105570852229926
-1.43926599972746172
-1.42868640283707715
-1.4194661200572789
-1.4116648465381918
-1.40516310662424981
-1.69719221489801297
-1.66956455944576843
-1.69234656471669398
-1.70041020115400077
-1.7048142571952114
-1.70413420122149528
-1.69977788513057559
-1.69182929863623888
-1.68116088795668528
-1.6689027306500035
-1.65588063993384282
-1.64250230343562253
-1.62893041189375798
-1.61524291527850972
-1.60162233719690894
-1.5883861354870914
-1.5758650895453814
-1.56432062743075639
-1.55392282385756064
-1.54474882689537885
-1.53679373514031337
-1.52994955049591574
-1.78945246139529801
-1.77754832297804888
-1.76496658749467383
-1.7518910806511574
-1.73851234057674797
-1.7251282133306598
-1.7121251893303322
-1.69984178842554368
-1.68849940748425476
-1.67821915765688323
-1.88663005570922726
-1.87401292922390894
-1.86095081751812863
-1.84782686675374763
-1.83506948301116157
-1.82301447217056012
-1.81184971884433166
-1.80165363526791289
-1.9826104460665801
-1.96976680906973045
-1.95726769284789426
-1.94543634944767563
-0.197762509231629025
0.941308538457473754
3.20328219824078175
4.84854581121650963
5.64751093816960825
5.76147108873774449
6.41400578932555376
10.2915581309591211
12.6905255327414661
12.7836542283796017
11.5242612567523359
16.319390643108175
20.481760348591461
29.7686803753971532
33.2352464006043036
29.2203446338993551
25.3895196194026518
24.4043976626358727
21.8758649663498268
18.5835168578343435
17.2801001725728725
16.8235328558081818
15.5174251896011963
13.7515190065291932
12.4033495511651157
11.1968978970245647
10.064290327040057
8.48831432129461838
6.18686491055800047
5.55475467350099628
4.90147671483791214
3.9380249861027683
2.79833630891909424
1.9086145510874688
1.30656498377746577
3.15125738660426613
11.2345292663640617
26.8604856343292475
-0.415361764920653909
-0.376352754125774014
0.0928183878651436811
0.556618433511904653
0.530382396503921494
0.500036997302101272
0.593529912133954785
0.63411943968065887
0.773274077655972558
0.747311193893387626
0.639164001232107815
0.418650210800531886
0.420720435234786416
0.291948162215793561
0.203372994692372355
0.20753800509721565
0.200532643412423828
0.168155027389772282
0.166778681516415839
0.170028732443037622
0.136457425043577607
0.113964721188025919
0.101067190873508239
0.0919988654765682701
0.0933865232533859224
0.0931260900631655231
0.085004402614488217
0.0659529664040806041
0.0541504833826588206
0.00120690780474524972
-0.0503002921378011281
-0.126695927182335799
-0.205030383113888659
-0.322326023797981365
-0.48869338422071612
-0.357098871278336227
3.40380619191400857
18.2231950907486251
-0.481583146730996337
-0.560312284022194684
-0.656726047176635186
-0.564497117057423226
-0.521115323075358461
-0.479050771590343094
-0.438715221241318121
-0.395822682970769391
-0.362433508021633155
-0.327593951030053954
-0.276363816253619721
-0.248783728234546087
-0.200923651185425323
-0.164801519326807422
-0.14875735002131707
-0.143440858668694049
-0.136000181817976129
-0.13410840816596481
-0.133877798705619999
-0.135644080433248437
-0.136746049425637561
-0.134708706670183864
-0.129670014877999562
-0.11938787896206321
-0.107432801759225593
-0.105215782112289602
-0.114129266172822708
-0.129296697119426651
-0.146808255780378538
-0.180201288699732093
-0.236213370198350231
-0.315736022763804802
-0.414767862103865348
-0.548058168779919308
-0.723483788592603316
-0.765368458108769412
0.186027786511909876
8.56660270985062766
-0.560002668734930098
-0.616127248739626321
-0.704532428981890502
-0.723426403899941173
-0.709238730370552961
-0.674994250536352647
-0.636971824099605177
-0.586411798561669695
-0.548045473691043616
-0.510214993586588506
-0.470775420546054424
-0.438781938698920793
-0.406685117327868384
-0.378128254091995353
-0.362855865980577286
-0.350437137668488496
-0.341180403220385675
-0.334563640777564397
-0.327380185380849342
-0.319895800841729194
-0.314695048080488315
-0.312780064011279224
-0.308169264213484118
-0.299484080889262094
-0.290683010174690337
-0.290773714661568317
-0.297749738171869283
-0.30640724635638128
-0.320932882202136005
-0.347613148044811804
-0.393418117717543925
-0.459051470125906635
-0.546066929114194854
-0.664244437303335267
-0.816843940986556216
-0.931373387720026424
-0.876456882534611181
3.35517920927076529
-0.716230178002015161
-0.752352796238163313
-0.78761305139950788
-0.808264827551558929
-0.804229797482865161
-0.776268713601508731
-0.754771117067947639
-0.720282817896731764
-0.686543145193797222
-0.651875441232687258
-0.617221903295149255
-0.588317272853019269
-0.562770464650575675
-0.54236927897648457
-0.529178406097277731
-0.518259785023839514
-0.509405295035341821
-0.501353759648848318
-0.492136226785183539
-0.483541003588478457
-0.477031928268398464
-0.473667972874707854
-0.469080003113811317
-0.461693932726210177
-0.455426140076609698
-0.45388640948069181
-0.456461455514422521
-0.46199694360321647
-0.473768641320120198
-0.497055668637913783
-0.536453325851871998
-0.593505457601079534
-0.671658233963534412
-0.778717890815674219
-0.918072232959851964
-1.04732205667490907
-1.33669856832633682
0.917861090972520444
-0.842809322026390584
-0.860178247103603244
-0.889881940806563576
-0.90583589214286675
-0.906038944787688538
-0.889692559180005338
-0.865370800294103071
-0.836478776053921846
-0.809377489840524156
-0.783036254451870417
-0.755340634733177696
-0.730855145203234469
-0.710021991846570555
-0.6930131201155878
-0.67975695341271869
-0.668603552130188517
-0.657633805449545084
-0.647180202231060764
-0.636049658675602037
-0.626304202421249956
-0.619419425457867101
-0.614713762641069139
-0.609304075669827361
-0.602078952184198934
-0.595903446565499983
-0.593759236564307402
-0.595697216021524367
-0.601056438063023557
-0.612474778844600332
-0.634212833795825714
-0.669687805197805353
-0.720460844026994618
-0.79077967707457042
-0.889184542835655956
-1.01917694311702522
-1.15428102002432942
-1.60424793836889146
-0.261824408018954458
-0.961778069136350222
-0.972096346519519261
-0.992795033815004224
-1.00551003757321311
-1.00737584377895817
-0.996783993148326219
-0.977811621961812705
-0.954622893449249665
-0.931566669758877808
-0.908629532016641872
-0.8850667791956498
-0.863343738750576351
-0.844703266017638676
-0.828768622674975863
-0.815411793805496998
-0.803470592077789703
-0.791978437695843196
-0.780934219220666082
-0.769851301859627357
-0.760221794170257259
-0.753012190729000053
-0.747662413815215143
-0.74211746702446002
-0.735737188332730607
-0.730463536192528462
-0.728565256228967506
-0.730260112677688977
-0.73545369671117633
-0.74628819315627426
-0.765976417962022427
-0.797202551966576078
-0.841882241152766109
-0.904901536332347489
-0.995334126949025677
-1.11536821273166975
-1.2547574682579814
-1.76961954842085167
-0.571873840536716305
-1.07975533649458777
-1.08259602330222959
-1.0974793893074859
-1.10823687425854578
-1.11136863152216092
-1.10475773177197056
-1.0906321022399279
-1.07222440829692234
-1.05248284363802092
-1.03237133116018698
-1.0120546706307314
-0.992832765242605775
-0.975929948748749609
-0.960855830397976618
-0.947489167146569944
-0.935152154025780002
-0.92334788390331568
-0.912052463910460576
-0.901189036166032631
-0.891729821582208038
-0.884340055096266786
-0.878505365782143
-0.872899988695188034
-0.867130624537333139
-0.862500356029179627
-0.860504162176676468
-0.861632427692098912
-0.866222997691952212
-0.875876760744541571
-0.892950446768882244
-0.919689458738804921
-0.958235982044185697
-1.01365919270644156
-1.09515913450082447
-1.20327334082852189
-1.34404821608302583
-1.8597311824631042
-0.518870118529575652
-1.18932556872750128
-1.18944813540318584
-1.20308205076221397
-1.21365368969685394
-1.21809769317291861
-1.21451899184642187
-1.20430847531958074
-1.18965805432732874
-1.1728721638527202
-1.15521401544119495
-1.13734617652605663
-1.12017027466001795
-1.10457507200296479
-1.09033920753907831
-1.07724824150587217
-1.06491390112514206
-1.05306851536784896
-1.041766764723568
-1.03119189486301699
-1.02186254913618235
-1.01422161883243156
-1.00792828061843043
-1.00214724101788399
-0.9966389238764507
-0.992242673342850767
-0.989980024612672649
-0.990370714761488968
-0.993904940843219453
-1.00183575437936834
-1.01596871444861048
-1.03812352978775446
-1.07031092421825957
-1.11747050200457432
-1.1882908921468549
-1.28166812497136307
-1.41717492602438755
-1.8973309665419249
-0.483107363444329252
-1.29385804601450283
-1.29476709722094419
-1.30976323273878692
-1.32131483121132498
-1.32720671295447268
-1.3260759370500228
-1.31893586458324741
-1.30731995298833592
-1.29318987113623529
-1.27776106262748401
-1.26192609451853399
-1.24641005741025901
-1.23183180119655078
-1.21817490205918944
-1.20529369977789358
-1.19300575851338575
-1.18124325960107845
-1.17009422581377076
-1.15976305311552363
-1.15057705447777159
-1.14276663769789244
-1.1361129723887724
-1.1301034168603572
-1.39709246430613199
-1.40055469771261665
-1.41801547005912409
-1.43103126430870886
-1.43837069145658747
-1.43914887021157911
-1.43436637442899118
-1.42518183389471842
-1.41333452994492048
-1.39987406195229358
-1.38574611114680168
-1.37160047482391434
-1.35790655596382437
-1.34474715372577625
-1.33209596031863908
-1.31992570815848986
-1.30828887043900188
-1.29731183379522186
-1.28717053409200211
-1.27807320584777773
-1.27012668890532177
-1.26317288849116127
-1.49993743725986284
-1.50777652885817126
-1.52808504510303278
-1.54262056932426672
-1.55120888762543507
-1.55342980078355075
-1.55043436222634412
-1.54326772884446672
-1.53327487612177493
-1.52150672935524844
-1.50882761510959762
-1.49582879946055458
-1.48290844920573028
-1.47021882736341358
-1.45783713771475298
-1.44585014945473067
-1.43438097293356615
-1.42357445107439662
-1.41357708587479514
-1.40451482531697214
-1.3964284048609128
-1.38919763770453386
-1.60537808255576553
-1.61699535468572853
-1.64011171636219655
-1.65584420399505783
-1.66535558764166147
-1.66861035804634361
-1.66696353394844321
-1.66139339803124875
-1.65296990749488981
-1.64265408614064357
-1.63121399401536049
-1.6191945476795564
-1.60695559741686833
-1.59470901550677935
-1.5826190844021919
-1.57085416286706092
-1.55958026034307595
-1.54894249329751954
-1.53905916957176103
-1.53000471201605581
-1.52177825884711471
-1.51428404149399931
-1.76330422337173087
-1.75293701838670835
-1.74176798833649404
-1.73013882647016426
-1.71831703154735926
-1.70653463564975327
-1.69501602256598471
-1.68395297898247653
-1.673480049937772
-1.66368861111432609
-1.86360389062568155
-1.85253353244434305
-1.84112464193435521
-1.82966311917298219
-1.81840873538128811
-1.80756647182025043
-1.7972568871464516
-1.7875463480159981
-1.96319885464375865
-1.95207307891619952
-1.94109825934063918
-1.93048324634483048
-0.14367844504781549
-0.205140496536737355
-0.0574527070587150662
0.392485784333300891
0.838388340669833587
1.15882343288544187
1.4750554955860804
1.93382144455204141
2.17911384923532614
2.22110275191255457
2.30720911363474901
2.3489947412125125
3.21598983081752854
5.65586241719539551
5.98751762119098174
10.3827562209344091
11.1784842662482351
10.3508603617541866
10.036683807885634
9.1761181587169105
9.34224792985586028
9.53551269068700158
8.86373861768843874
8.36704499213567487
8.09675718498574781
7.39983296636586374
6.62384388482786512
6.53092730398103694
5.51028969670096735
4.27314583239651036
3.86128265434138518
3.19619252242658458
2.41556972051228369
1.51277017029024208
0.843711680071140391
1.79072432148463911
7.21927176962187289
19.6102346757491546
-0.325099983680295135
-0.377026852393901324
-0.439061193328606381
-0.39316195834337303
-0.321825610274207918
-0.271350400641440059
-0.192870748089468552
-0.0872610221990064994
-0.029578731521551882
0.0128543555493358941
0.0650929305153643556
0.148153336297905169
0.109550820635174295
0.0862683978473033353
0.208278543366283153
0.140192535477050462
0.127939383315606503
0.108950419020176881
0.0713710593478049105
0.0482842976256945833
0.0331746543599144017
0.0317397358492399473
0.0365453577772710814
0.0282759100116068973
0.0195411925104301276
0.0209150634644829081
0.0302898819388354723
0.0216653889302298452
0.00573780357435377253
-0.009661831702253737
-0.0543280248470935645
-0.122065788755683871
-0.222227682315947805
-0.359387258319965874
-0.568650266635199131
-0.677086427519410394
1.35182210841288075
12.1793032047100134
-0.453462130184794365
-0.484896754593449941
-0.525695626530498616
-0.519211748748593882
-0.498457396914035344
-0.477161229218630578
-0.445246484050518698
-0.415647739056494325
-0.395482834447827281
-0.364585237055020328
-0.32018601000543645
-0.282839832552314319
-0.255430625287090984
-0.238628038097047634
-0.202149092173813605
-0.187722485804914796
-0.177116447206053573
-0.172733896916803797
-0.175595403390377491
-0.178153665741596273
-0.175873139148156749
-0.168166339034196838
-0.15852584059251687
-0.150725074809376941
-0.149094613999333186
-0.151262858595971911
-0.151596442836323647
-0.15687495564666043
-0.169231565053822863
-0.190436619476937602
-0.228436984900170559
-0.285075713696932798
-0.366904827624001284
-0.487957806751084355
-0.661604798908307257
-0.796690139868542091
-0.489695845501019578
4.81825854485294425
-0.559989160554944632
-0.587110574449743239
-0.629223307674013244
-0.633696242472685745
-0.615724617478875302
-0.591439946762218671
-0.565031855589475662
-0.544561195549776556
-0.525545503860725405
-0.500277281458513134
-0.4678056884841304
-0.438459670651942579
-0.411508787237570339
-0.391700098246153872
-0.376327852793230666
-0.359199721632897373
-0.344592439504955772
-0.337706374277993548
-0.334044215863885885
-0.330963136498734933
-0.328106762970556742
-0.324034738250996157
-0.317135475441498005
-0.308752093353889978
-0.302983799559674583
-0.302339530390278999
-0.30342382249619948
-0.307403615539602604
-0.318680919602227997
-0.339435222672103298
-0.372236192779021313
-0.420689893073695809
-0.492219362328012111
-0.595748415924463703
-0.742813670885651756
-0.887410992386756803
-1.07583232461072376
1.51337526972975267
-0.66880370806494982
-0.694675065689920324
-0.723963059057823544
-0.73643822112690327
-0.731138260882586821
-0.714386486963550005
-0.695429902152790325
-0.675277066996702757
-0.653910142416593732
-0.630119510956470563
-0.602592781957767998
-0.577461357205469206
-0.555658311153937934
-0.539796809793686383
-0.527331004788854418
-0.513470696787453051
-0.501953839063404295
-0.493207985954964845
-0.485792273672672914
-0.479681648667817595
-0.474742428713560871
-0.470392842149904511
-0.463774277745169938
-0.455981516098154183
-0.448944845762532019
-0.44554296632971907
-0.444873563078150014
-0.447789761089125604
-0.457082100312997175
-0.474940016147040178
-0.503763247592389773
-0.546574038685534558
-0.609832411757219472
-0.701904348815518553
-0.829979533228177191
-0.971897791694692814
-1.36904175727994559
0.266834831598938393
-0.784338427561989904
-0.80531969146844018
-0.828381163324031111
-0.841443806489432289
-0.841979035987680646
-0.832083027736267855
-0.816895663019609697
-0.798979758712412114
-0.779364855373568144
-0.758148230519167576
-0.73484607652890177
-0.713076276498400552
-0.693947944593228727
-0.678631920149447732
-0.666012289080384345
-0.653687501017603645
-0.64250222066867213
-0.632876462385082661
-0.624201216098686618
-0.616885849729507441
-0.61070125121165364
-0.605102066022744745
-0.598483574994195133
-0.591351629711726279
-0.585201929492404571
-0.581599539112045427
-0.580559428217909068
-0.582943915494586351
-0.590879027012179314
-0.606239910317401876
-0.631035167672858832
-0.668056257941745724
-0.723054645563377729
-0.804865490642561299
-0.916697374523751884
-1.05848510268250662
-1.54199535841832969
-0.121071347188824952
-0.899187119347400365
-0.915835729701832912
-0.935589229854509652
-0.948615614389484607
-0.952203512871909297
-0.946778064008741094
-0.935223600609236261
-0.919996417501637187
-0.902640604307038741
-0.883815373177448405
-0.863726195929801821
-0.844539674409438557
-0.827472908914830163
-0.812916526871847123
-0.800273169075633395
-0.78837086577069726
-0.7772964834051872
-0.767231599812631671
-0.757955647301314261
-0.749924282280842736
-0.743117614594923426
-0.737004109401846463
-0.730533477765769046
-0.723835998516474399
-0.718013798248658852
-0.714255165467696851
-0.712982253479121808
-0.71463462724571758
-0.720840397308139313
-0.733380742890774484
-0.753992613456161198
-0.785064897142964568
-0.831925161059258955
-0.903069889424762406
-0.998626378993696107
-1.13762895221395399
-1.6196396206005752
-0.144833902139522408
-1.01207171278027519
-1.0261549664500893
-1.04398273097928085
-1.05723528544664669
-1.06302901655292015
-1.06084664426308839
-1.05245846217816896
-1.03988656334679952
-1.02476498352965173
-1.00807538517091677
-0.990437406434962697
-0.973274091585852985
-0.957789455577065407
-0.94405275031302216
-0.931694736696890513
-0.920188459777870005
-0.909354555240820206
-0.899142591325786111
-0.88964559670757859
-0.881207005914175334
-0.873903757342679888
-0.867298173136451522
-0.860685001025943586
-0.854162722378658978
-0.848446931236647606
-0.84439358857140856
-0.842483156792933729
-0.843125448031067704
-0.847505916620435062
-0.857077834244384329
-0.873312051786051646
-0.898198053186505918
-0.936555481436076476
-0.995828904420244077
-1.07390852418580618
-1.20313980847348878
-1.64025263592760639
-0.13450004538243121
-1.12250654453238208
-1.13574273357331945
-1.15327534741734117
-1.16714067814162425
-1.17467768186925303
-1.17500556000080336
-1.16929787871417279
-1.15919803208751149
-1.14627221362921672
-1.13162455814382956
-1.11607047163884832
-1.10069317742457295
-1.08640092925891873
-1.07334786657456371
-1.06130787544332383
-1.04998626772554537
-1.03924052682587775
-1.02903840166168314
-1.01950333350023215
-1.01087199229632341
-1.00320798027188407
-0.996194942514666559
-0.989387681917506812
-0.982842923051721717
-0.977034142880528811
-0.972531989611751579
-0.969800755666516134
-0.969203920427351262
-0.971616100829939211
-0.978142919129461719
-0.989905206707996532
-1.00843454439543434
-1.03778785321338463
-1.08373025058419925
-1.14338736603579161
-1.25372503018323589
-1.61830083589527818
-0.210856119713865642
-1.23104580360536686
-1.24486554191057053
-1.26338699653259301
-1.27827934103927743
-1.28730900359410572
-1.28962204056724339
-1.28614040106301086
-1.27822211657914697
-1.26732043676896522
-1.25455005151127041
-1.24078998981522326
-1.22693075107961813
-1.21366899208074153
-1.20121242172812415
-1.18947456655936867
-1.17829829052270751
-1.1676199637342819
-1.15745391524487973
-1.14791791250158148
-1.13917119434985215
-1.13124145802905041
-1.12391348391536727
-1.11688961783210372
-1.33885053434339119
-1.35411338313607144
-1.37442423673951875
-1.39058774016801445
-1.40093764119961506
-1.40483094645131712
-1.40316137684867037
-1.39710844670815582
-1.38799749451732768
-1.37689478169117741
-1.36466988717960835
-1.35209262594124913
-1.33973452013424454
-1.32782812035497577
-1.31639374012946053
-1.30539019844314463
-1.29481578881531512
-1.28471846239323617
-1.27520103039341093
-1.26636937809374017
-1.25822792414614826
-1.25062329770331337
-1.44661683622314463
-1.46413125584364323
-1.4866133640180863
-1.50404351525860935
-1.51550270411203147
-1.52062509138388013
-1.5204030069762835
-1.51591793978015676
-1.50834879544154066
-1.49870687731642738
-1.4878039278814017
-1.47632262938337133
-1.46475823650838999
-1.45336598509407922
-1.44224539005298458
-1.4314408821238096
-1.4210026087660268
-1.41099878929726152
-1.40151681451860277
-1.39262251897725475
-1.38430578439016494
-1.37645177346805236
-1.55706895865985318
-1.5756268034123182
-1.60025551379493236
-1.61864097521798245
-1.63091250797151543
-1.63692780668941285
-1.6378333982201112
-1.6346411265563463
-1.62839979108163502
-1.62002407908131474
-1.6102628852513452
-1.59973077650975415
-1.58887252969823467
-1.57796465145113829
-1.56716726564090414
-1.55658673566994454
-1.54631181512273375
-1.53642067422244688
-1.52698631160976039
-1.51804802676249118
-1.50958314697383722
-1.50150240372343813
-1.74086245017578456
-1.73210096630302335
-1.72240192564160988
-1.71218004521875411
-1.70173337123055557
-1.69126845263410619
-1.68093454919976715
-1.67084722215109838
-1.6610838466133484
-1.65170407023129795
-1.844400006652827
-1.83476521509096768
-1.82476131480502946
-1.81463693954598559
-1.8045689194440182
-1.79468830851964545
-1.78506659352737951
-1.77575053799484994
-1.94711700365263596
-1.93734461222634113
-1.92755875768965979
-1.91789830738874079
-0.09296879515529205
-0.0806606135854087691
-0.0681343394001685532
-0.12817789981536909
-0.0990618111575729682
-0.0149954445728942842
0.114188833617377
0.276138702452681573
0.399759138245791568