/*--------------------------------*- C++ -*----------------------------------*\
| =========                 |                                                 |
| \\      /  F ield         | OpenFOAM: The Open Source CFD Toolbox           |
|  \\    /   O peration     | Version:  2206                                  |
|   \\  /    A nd           | Website:  www.openfoam.com                      |
|    \\/     M anipulation  |                                                 |
\*---------------------------------------------------------------------------*/
FoamFile
{
    version     2.0;
    format      ascii;
    arch        "LSB;label=32;scalar=64";
    class       surfaceScalarField;
    location    "0.179999999999999993";
    object      alphaPhi0.water;
}
// * * * * * * * * * * * * * * * * * * * * * * * * * * * * * * * * * * * * * //

dimensions      [0 3 -1 0 0 0 0];

oriented        oriented;

internalField   nonuniform List<scalar> 
20856
(
-4.82702852944492417e-11
2.36452759389088704e-11
-6.24153545091496317e-11
-4.08000148960931253e-11
3.35929301958904718e-11
2.77282300139631061e-11
-7.25210853751121759e-11
-3.29994245822903537e-11
5.15659320790152068e-11
3.42434062491276892e-11
-8.86826585012501712e-11
-2.20431512412914398e-11
6.76128543009497805e-11
3.84460681435025873e-11
-9.80791244534678537e-11
-9.21643979599974137e-12
7.29495233151443428e-11
3.85202099164487787e-11
-9.73199082634429161e-11
2.44592918671752773e-12
6.53396776099213323e-11
3.23832658160832414e-11
-8.70282736104178042e-11
7.24975533421261676e-12
4.30462440950198906e-11
2.0615239655653197e-11
-6.29192422800192646e-11
5.48819787671471912e-12
2.12845338494890817e-11
9.81245312891361245e-12
-3.4560874570647873e-11
2.12738804862082776e-12
8.0099645019460883e-12
3.46214425935400561e-12
-1.39537897273333056e-11
4.3315416096896715e-13
2.31780747353516325e-12
9.8864371674891221e-13
-4.09883619252964319e-12
5.21991917143515301e-14
6.01533546667000922e-13
2.23750012089162743e-13
-9.36063463106892814e-13
1.05056856790133619e-14
1.92375549800239709e-13
5.31101811562801604e-14
-1.92278781330673857e-13
2.88115876992788932e-15
5.45652819010415886e-14
1.17548521438752422e-14
-3.93444483571299032e-14
3.15178676309933971e-16
8.72855446705746776e-15
1.66206718174535704e-15
-6.46109269592068404e-15
9.7877689250313582e-18
7.7380296058069563e-16
1.33616486110778604e-16
-6.09143228666185486e-16
3.51248855175634984e-17
5.63895516675986537e-18
-2.76848133527121975e-17
-1.96956467851343088e-11
1.13306923328255416e-11
8.54318776447283545e-12
-2.6052444800337505e-11
-1.62329272261925497e-11
1.49954096138245722e-11
1.04568596149513398e-11
-2.95416284103130668e-11
-1.2934392925835048e-11
2.13439908368958361e-11
1.27878013604331233e-11
-3.53055822328568882e-11
-8.52006425469368935e-12
2.68820491505810173e-11
1.42076330814316975e-11
-3.85466105993652425e-11
-3.64829594235777546e-12
2.8897660459162473e-11
1.41380743180570028e-11
-3.77737921367077463e-11
6.80126019864594851e-13
2.57269122841525757e-11
1.19295739648254796e-11
-3.34451040141350586e-11
2.480132939111248e-12
1.71608164673791163e-11
7.62874224951701351e-12
-2.39580056397811896e-11
1.92862695383281477e-12
8.66072730263199061e-12
3.6628017911762741e-12
-1.31355559353940288e-11
7.69399785459744693e-13
3.36357526803095304e-12
1.30740470598776674e-12
-5.3126996496031011e-12
1.67832139075482379e-13
1.03732511006490749e-12
3.82349001988586379e-13
-1.57515674499079522e-12
2.84889824049482346e-14
2.95798771351842351e-13
9.08835285700908016e-14
-3.62608759901145382e-13
7.33414718943762578e-15
1.058894933901223e-13
2.4440067849479904e-14
-7.89555574719931094e-14
1.46765951204977594e-15
2.6591039335271832e-14
5.09850061178113059e-15
-1.73370332185816622e-14
1.18348508849656613e-16
3.71719827868860241e-15
6.33887794166862831e-16
-2.62685477081446497e-15
3.47195129591400888e-18
3.20593148574125605e-16
5.00371832601209744e-17
-2.30332905086309772e-16
1.45746030563179012e-17
2.12582016454195128e-18
-1.04347458284300172e-17
-7.97582122568079725e-12
5.33089449329623457e-12
3.28684641304211291e-12
-1.08073547173708259e-11
-6.42176868840292909e-12
6.60726588536642577e-12
3.8986223060096985e-12
-1.19542191024773872e-11
-5.00633181138693879e-12
8.74976290859088875e-12
4.69849331736753099e-12
-1.38399417062123617e-11
-3.27085066123063674e-12
1.05300068099145889e-11
5.16104943688868382e-12
-1.48468296757367775e-11
-1.44134151834543766e-12
1.10580019103312211e-11
5.0922905377426505e-12
-1.43527155239728102e-11
1.45234648493103547e-13
9.83922471410493198e-12
4.29550671894655886e-12
-1.25428322244152078e-11
8.15566339893859414e-13
6.65752503666793725e-12
2.75584798589264778e-12
-8.90271771361079143e-12
6.52888893678139013e-13
3.44710475139154361e-12
1.32914935083916996e-12
-4.85828345282943444e-12
2.67448337053265859e-13
1.40086653425475789e-12
4.78937448691638589e-13
-1.96670977923764393e-12
6.38537088607955806e-14
4.73151557952247579e-13
1.46631767152056606e-13
-5.8565546507040676e-13
1.47494551531824532e-14
1.52944986372109224e-13
3.9805504257256362e-14
-1.38636456612533438e-13
3.82265236791015942e-15
5.52905528491399872e-14
1.09363611179121225e-14
-3.33509283904987018e-14
5.81267231987189315e-16
1.15996476278545108e-14
1.98172447613990536e-15
-7.29905180917086599e-15
4.08872990423085164e-17
1.49811978634113771e-15
2.30410489232286229e-16
-9.86530349455200249e-16
1.19158113458537919e-18
1.28250147290936168e-16
1.81926298654471699e-17
-8.40976253166838564e-17
5.84784658401308188e-18
7.77795294647818764e-19
-3.81835311000505805e-18
-3.18595335404670416e-12
2.46122552030671841e-12
1.27178627410186951e-12
-4.43710627831807562e-12
-2.51658880181104773e-12
2.86727421435231605e-12
1.4574145459976708e-12
-4.77588437238905624e-12
-1.91800610156808806e-12
3.48721004322659851e-12
1.70672755076108284e-12
-5.32725939566759441e-12
-1.24279111780785606e-12
3.96905438107807754e-12
1.83935161787165875e-12
-5.58073358177567332e-12
-5.66028278980789912e-13
4.04294573065354665e-12
1.79400634009287503e-12
-5.3063227135835439e-12
8.54727187430590516e-15
3.58761647518384291e-12
1.50972653205864103e-12
-4.58162344229390988e-12
2.55896167162268072e-13
2.48327401919899093e-12
9.71094768576721799e-13
-3.21987821656607253e-12
2.12773501737408575e-13
1.34351024293939626e-12
4.69346567403813286e-13
-1.74836930131708979e-12
9.0241886154277619e-14
5.88428197723260205e-13
1.73546508587265772e-13
-7.07336987490847266e-13
2.4561924334561412e-14
2.21547143687224486e-13
5.55659616679253335e-14
-2.12767395679567957e-13
6.7940264751894216e-15
8.37266162027979796e-14
1.70127092435002133e-14
-5.36751759006246759e-14
1.64377952580075273e-15
2.55697217070183075e-14
4.42749168121978266e-15
-1.43869576149613129e-14
1.99763549436541226e-16
4.6494189733704034e-15
7.12159578808948417e-16
-2.80386532306439369e-15
1.35928731888564011e-17
5.81905355035742569e-16
8.12519642073898535e-17
-3.52815370338382405e-16
3.9783612280926427e-19
4.98301494363534211e-17
6.4472229574134151e-18
-2.98850024599715495e-17
2.2794980387897185e-18
2.77181941338621878e-19
-1.36141516458451605e-18
-1.99953771432269255e-12
9.95113406961323159e-13
2.01389525395220315e-13
-8.84368141768124968e-13
-1.76492515262937398e-12
9.59281933531511786e-13
3.13832561160915607e-13
-1.2897227212777822e-12
-1.51976477327871965e-12
1.0119643928853339e-12
4.18696888458643254e-13
-1.60570995337668818e-12
-1.25771977782810496e-12
1.10481571506871133e-12
4.96150336220684862e-13
-1.79437476288474812e-12
-9.750601114218506e-13
1.2032980223563239e-12
5.51336838115456044e-13
-1.87526673489331002e-12
-7.22907571417989889e-13
1.27061330360988714e-12
6.08296938200204746e-13
-1.99507806795126777e-12
-4.63460581439307289e-13
1.31376512775031129e-12
6.3727830579246342e-13
-2.01904062972390913e-12
-2.18469648027659069e-13
1.29046078773876943e-12
6.10730388649656838e-13
-1.88657864657604403e-12
-1.53844717872828264e-14
1.14389863495934082e-12
5.13797334821552391e-13
-1.60667554611244583e-12
7.54898535717622032e-14
8.36978195933707947e-13
3.32391359012653328e-13
-1.12075517114126343e-12
6.63613248232484713e-14
5.02705551570268846e-13
1.6247531760068929e-13
-6.06639814797589694e-13
3.00864506792744841e-14
2.55977771757055689e-13
6.36420682677236147e-14
-2.46628087634285519e-13
9.86674439358707741e-15
1.0442683158993125e-13
2.29681858310378433e-14
-7.69685402579778972e-14
2.86303577626332608e-15
4.20071673723593752e-14
7.32284528208646089e-15
-2.15438928966640194e-14
5.71049179607797123e-16
1.04540293467042221e-14
1.60599344887854001e-15
-5.76422535062479385e-15
6.48214828361484874e-17
1.77327659234340373e-15
2.45726134586882869e-16
-9.99063275649023782e-16
4.40454349256911621e-18
2.19888925466969029e-16
2.79944273564171625e-17
-1.2245061153742905e-16
1.29690425421419174e-19
1.88826323044663897e-17
2.23375817972189687e-18
-1.03801125402058337e-17
8.66557582002176726e-19
9.65205165552128493e-20
-4.74456571739226147e-19
-8.3560605385007132e-13
4.83951921158693166e-13
1.00132362885180509e-13
-4.39540861265874603e-13
-7.1276127461781763e-13
4.22204099058795642e-13
1.42047017693196171e-13
-5.8137854284675599e-13
-6.00329838172294107e-13
3.98068165418162327e-13
1.7483881161282447e-13
-6.78668966400477264e-13
-4.87691907193586296e-13
3.95977624517702244e-13
1.97269967307350875e-13
-7.24819632863125913e-13
-3.72851450922372017e-13
4.01500421488507277e-13
2.09876947038542922e-13
-7.2838045933047203e-13
-2.62016016378833916e-13
3.99276457876605706e-13
2.1432921432053752e-13
-7.0706759918029548e-13
-1.63872233934284354e-13
3.76797151551553025e-13
2.1058674873253825e-13
-6.73269518952671107e-13
-7.96507203470090984e-14
3.44559355765509077e-13
1.97293989231481242e-13
-6.14569942256822312e-13
-1.17855545224206086e-14
3.08889648077221553e-13
1.67511352529617628e-13
-5.17126599674104061e-13
2.02511559169099741e-14
2.54609913471456393e-13
1.11745442170278685e-13
-3.60485357096319521e-13
2.03570219179682927e-14
1.75152245902061117e-13
5.7919108802819304e-14
-1.98976151952821839e-13
9.89172039119955024e-15
1.07684253196353916e-13
2.4129869341669241e-14
-8.58853638850292051e-14
3.64076855490643918e-15
5.1146762997500192e-14
9.06245451189265199e-15
-2.77462731791806328e-14
1.07270697628804556e-15
1.76245954720942199e-14
2.74844829470056993e-15
-8.77240704343351456e-15
1.82305112264412154e-16
3.91907813707067006e-15
5.47863265029808387e-16
-2.0797520899883887e-15
2.04603019707849472e-17
6.47843206584996988e-16
8.2757584940920756e-17
-3.415553138664605e-16
1.39623501888161745e-18
8.02441261754707832e-17
9.45591937415412104e-18
-4.15778712466854563e-17
4.13380688170758829e-20
6.91533653402070082e-18
7.585249739268381e-19
-3.53392321824683627e-18
3.18380262009973456e-19
3.29245417326748528e-20
-1.62025538105666539e-19
-5.17444534919810471e-13
4.37674976412280815e-14
-1.65500797302638172e-13
4.04849244932195893e-13
-3.82344507626994541e-13
4.58988942655531949e-14
-1.63458523363613519e-13
3.17545423197784158e-13
-3.04864337406164534e-13
5.62305079330088092e-14
-1.91412706664665264e-13
2.73655133720154052e-13
-2.49159483139999581e-13
6.2705360784879664e-14
-2.17302412222969263e-13
2.47294801739840924e-13
-2.0377537888074109e-13
6.68600291979311772e-14
-2.31607926962710543e-13
2.3145409392860874e-13
-1.62850227302824212e-13
6.94623910501143202e-14
-2.34930100656843553e-13
2.23495784180206005e-13
-1.231705560304888e-13
6.85376435024877286e-14
-2.28040703976734415e-13
2.19013925034423554e-13
-8.58750324604210346e-14
6.56967965350994694e-14
-2.12370980355347262e-13
2.12094171653965055e-13
-5.26464038373564441e-14
6.18703673263786497e-14
-1.90200951896631017e-13
2.01154235445494903e-13
-2.58456882920368515e-14
5.64017761989221765e-14
-1.65485736562305248e-13
1.84917570135666056e-13
-5.48895413042392303e-15
4.7465967819573872e-14
-1.37907127264903615e-13
1.68050644572513579e-13
4.58886902994454163e-15
3.25114896081865983e-14
-9.79059065315228798e-14
1.45053452316619543e-13
5.43437462614476492e-15
1.93185236143183373e-14
-5.50438695052095985e-14
1.06249279932321066e-13
3.30065539882203534e-15
9.3854091334080745e-15
-2.545966491897065e-14
6.24778981460661185e-14
1.3279804884679235e-15
3.52110205724657961e-15
-1.04395559877936258e-14
2.72625613049889188e-14
3.26444766937485983e-16
9.00186415424086095e-16
-3.19384815875323488e-15
8.04109830473804134e-15
5.4359306238162648e-17
1.74981684016312148e-16
-6.81081994184629179e-16
1.74224430538290312e-15
6.11760474623096443e-18
2.64124342863610739e-17
-1.0988136396284622e-16
2.87571510832222105e-16
4.19805188354709598e-19
3.03093253696585264e-18
-1.33759453258421071e-17
3.57331688432766573e-17
1.25637801579210055e-20
2.44409015543731756e-19
-1.14070397077235294e-18
3.08965612995684819e-18
1.06624248657047608e-20
-5.24840168979046263e-20
1.42658871864438301e-19
-1.61937635925218857e-11
1.29248462928491998e-11
9.69796064266950923e-12
-1.35563074190049953e-11
1.91352609481414358e-11
1.17093062783815436e-11
-9.22977182241780386e-12
2.35638629046363419e-11
1.27993442237618842e-11
-4.01601349817160164e-12
2.36675837033446032e-11
1.20796527955484485e-11
4.75577249345415092e-13
1.90319126681079289e-11
8.95618229655311943e-12
1.93490133128610547e-12
1.1391783829537393e-11
4.80964920906939095e-12
1.35185690894291343e-12
5.34159154168010728e-12
1.93368440845137259e-12
4.94973932770031625e-13
2.01372179741364236e-12
5.79108252711040173e-13
1.06912656115931602e-13
6.81185170979621909e-13
1.55288504760183784e-13
1.99542608128689617e-14
2.17938264958457051e-13
4.58999071042148205e-14
5.06945263044587038e-15
7.34359361754241494e-14
1.38042681850526021e-14
8.5370540901674736e-16
1.56409673519756243e-14
2.70054431234850391e-15
5.99945663239515618e-17
1.95027551374457937e-15
3.01937763867649374e-16
1.63114689836771455e-18
1.56405010749007724e-16
2.20048864591777242e-17
6.68798699520738376e-18
8.74655861757620423e-19
-7.11550191037296121e-12
3.9140620101854464e-12
2.66194154090213362e-12
-6.17180064546628161e-12
5.33763315286246653e-12
3.34449664765699135e-12
-5.08150787142646808e-12
7.47989347936459461e-12
4.05337505143775281e-12
-3.48709060965442537e-12
9.04312040697193882e-12
4.42505658396787757e-12
-1.60442897065241188e-12
9.09301604918803065e-12
4.20229940858990234e-12
3.70681611823383665e-14
7.44681055039179095e-12
3.17563910455799688e-12
6.20342410014951065e-13
4.59367172342228338e-12
1.74613591494346319e-12
4.60905356070943112e-13
2.2212806793293171e-12
7.16781653068271229e-13
1.76348200767494712e-13
8.81532893076505178e-13
2.28267995628093536e-13
4.22965393141366226e-14
3.24840088672569016e-13
6.67260900208145623e-14
1.0494130687488886e-14
1.18831856536709081e-13
2.29749612658215524e-14
2.5666841790006333e-15
3.70637247527058263e-14
6.4294390425860722e-15
3.30396001942602603e-16
6.79618885768526271e-15
1.05511939970365236e-15
2.12859851127223364e-17
8.07127923825811448e-16
1.12370101437037758e-16
5.80278256655249613e-19
6.47346513128399147e-17
8.24880375316293286e-18
2.78276983171734589e-18
3.30791502098569451e-19
-2.77264299884745741e-12
1.80926128441142416e-12
9.42891273102694014e-13
-2.32908999809104216e-12
2.27182951877190852e-12
1.1583111803181132e-12
-1.89773186396063142e-12
2.97324193851754673e-12
1.38987183211334377e-12
-1.3086392562495082e-12
3.46850155851553047e-12
1.51224799359814611e-12
-6.32216913373801349e-13
3.46947549228313241e-12
1.4343976151923633e-12
-4.36832485962463713e-14
2.87586855823245882e-12
1.10181620209323918e-12
1.88127196721481331e-13
1.8374922245624725e-12
6.17212986429049766e-13
1.5034278975620112e-13
9.28076239149872789e-13
2.59473377258854491e-13
6.13769693159071333e-14
3.97456761051714743e-13
9.06124778281266718e-14
1.78480640511013421e-14
1.57068280067808881e-13
3.20699412968626722e-14
4.9403786056315e-15
6.33106521540322292e-14
1.09950548677239653e-14
1.03800186510910022e-15
1.66747730365274458e-14
2.61400692991406604e-15
1.14630876712018148e-16
2.75318388550148636e-15
3.83499067257014265e-16
7.27551922888562919e-18
3.21665994320413379e-16
4.05379076192478652e-17
1.99789899215875321e-19
2.59055035464622422e-17
3.00225755445061684e-18
1.11917929466066094e-18
1.21325925911233221e-19
-1.07140148910954313e-12
8.62881933298077345e-13
3.42371510380331554e-13
-8.78707016524323134e-13
1.01514329840064219e-12
4.07297058027675213e-13
-7.02811694273128911e-13
1.19881568605802817e-12
4.7334363347024188e-13
-4.84788200354677082e-13
1.33186235591225292e-12
5.08116833632153793e-13
-2.44585586453346569e-13
1.30643883354402949e-12
4.80785901633904833e-13
-3.6623791992207157e-14
1.10367177757556547e-12
3.74008116090392756e-13
5.31769502635473911e-14
7.39614440415522926e-13
2.1321878580540796e-13
4.74049357781327062e-14
3.98182813807512069e-13
9.66456648707162508e-14
2.08094475944336935e-14
1.85968379647508451e-13
3.68684645480843478e-14
7.11918622449059101e-15
8.30443025053822375e-14
1.47134946741409596e-14
2.07821904551353134e-15
3.0154818756670666e-14
4.79603682761928199e-15
3.58478130704394808e-16
6.76993239584634156e-15
9.4910238992020055e-16
3.79040380511100032e-17
1.06751317832757947e-15
1.34256961990572453e-16
2.4156502384431055e-18
1.24402920603465356e-16
1.42544974348233671e-17
6.68312801304278243e-20
1.00711985621553113e-17
1.06455709830258119e-18
4.37109821510692617e-19
4.33133752906091902e-20
-5.80037051169171261e-13
3.33378245642113335e-13
5.43006292334698093e-14
-5.41484969624819604e-13
3.47857333300560966e-13
7.82706702186751805e-14
-4.82582568841132259e-13
3.76039366191154358e-13
1.04009788038943491e-13
-4.11953326038118512e-13
4.18014640424627014e-13
1.28216056882163093e-13
-3.30971547597735718e-13
4.60517854323733557e-13
1.48745111119157781e-13
-2.56493151761321072e-13
4.93217591302785569e-13
1.63368380791000022e-13
-1.7581421824434513e-13
5.02718775420177865e-13
1.68928209996007253e-13
-9.17399982023995406e-14
4.81705473032696808e-13
1.59430883569058162e-13
-1.98942030160510522e-14
4.19749947533274081e-13
1.27120007675874539e-13
1.36994522506830117e-14
3.02652313055011584e-13
7.66056421292475294e-14
1.4702051576115393e-14
1.80239150500453193e-13
3.61677357032157436e-14
7.4151577882138414e-15
9.0696262972076626e-14
1.67628552280253057e-14
2.79117232253679437e-15
4.1495032474121009e-14
6.38248266877461013e-15
7.28790518800029914e-16
1.25029124056475087e-14
1.76745601394576279e-15
1.15554604723738306e-16
2.58530277306356767e-15
3.2581278227521552e-16
1.21832093974479706e-17
4.01679252404210728e-16
4.58670822252014577e-17
7.82023724074879755e-19
4.69159100138252217e-17
4.90168265669923233e-18
2.1802565466423933e-20
3.81809289141108011e-18
3.68863384055300372e-19
1.66433508296147628e-19
1.51014336466668482e-20
-2.38073312245623189e-13
1.95708990285917143e-13
3.74146058741807616e-14
-2.14221924008958811e-13
1.90475152819962802e-13
4.20967921334152189e-14
-1.87568523759217075e-13
1.89258256492973977e-13
4.54388132362832652e-14
-1.57018674025214741e-13
1.94303077644588252e-13
5.17762148196615262e-14
-1.24259715229806339e-13
1.95901772548826523e-13
5.6189509483426829e-14
-9.20794846065889405e-14
1.93133437697903084e-13
5.90026099934061938e-14
-6.12655681974831014e-14
1.85908649409250054e-13
5.97086447459502893e-14
-3.26778596874174127e-14
1.73826369098737561e-13
5.59773557354771493e-14
-8.96932610339908652e-15
1.53682849314102974e-13
4.48051563075523318e-14
3.1671947702316368e-15
1.18291381123277065e-13
2.75390416002744865e-14
4.48024441993915555e-15
8.32135354812060678e-14
1.55477894816456848e-14
2.57547741284612206e-15
4.44999020303426749e-14
6.94048603955450581e-15
9.95563366505499756e-16
1.7650181973317551e-14
2.53339470193444183e-15
2.30034816184689597e-16
4.6985236667242123e-15
6.0062575199232781e-16
3.60772357314852682e-17
9.41583807396201202e-16
1.08824559893644297e-16
3.82602527761271926e-18
1.45873104765710308e-16
1.53649475799194811e-17
2.47363008498639983e-19
1.7103181137481463e-17
1.65245946447406321e-18
6.94463579510056823e-21
1.39899137769262918e-18
1.25211667794821476e-19
6.12461472700780537e-20
5.15531301874500091e-21
-1.29479537158827509e-13
2.14650650979329833e-14
1.46564740179620814e-13
-1.05040257031942856e-13
2.28567045746134873e-14
1.33939978125929109e-13
-8.97996223587829375e-14
2.3488935867110065e-14
1.30693347788444317e-13
-7.664465625034758e-14
2.36483266368253938e-14
1.28362182914830071e-13
-6.49733913182408795e-14
2.34540663926128008e-14
1.26374765462043572e-13
-5.35376457434571886e-14
2.30841025685410263e-14
1.26154852047721952e-13
-4.17867859855157145e-14
2.25148081150781129e-14
1.25371732994455189e-13
-3.04548318419558512e-14
2.16121025631180317e-14
1.21370675929499863e-13
-2.00243658711714466e-14
2.04159243624061313e-14
1.14563757457998144e-13
-1.09052010931321379e-14
1.86481886172871666e-14
1.05160789807621097e-13
-3.50098893457259271e-15
1.57401486304339944e-14
9.25988478724324797e-14
5.17407329425392482e-16
1.09148408421711696e-14
7.16919131449016043e-14
1.38809407490285187e-15
6.2747158044603437e-15
4.6964559275560577e-14
8.53325667185290051e-16
2.72147985122339806e-15
2.30677547541641617e-14
2.96388697847878891e-16
8.23430193972243235e-16
8.03938766266430779e-15
6.75720638574096538e-17
1.90286628043723017e-16
2.08580356167267171e-15
1.06548559172144916e-17
3.44466554219020119e-17
4.16868451103412082e-16
1.13896362030982374e-18
4.88768651052843755e-18
6.47847728370158303e-17
7.42046912404008644e-20
5.28982816288782072e-19
7.62620394376241256e-18
2.11192671897465393e-21
4.03503504133681397e-20
6.26080334407069728e-19
1.67183479793628525e-21
2.75013495513894366e-20
-5.86610279280970891e-12
4.41330356174382144e-12
2.71448510354802693e-12
-4.82466003570770619e-12
5.88182591853164134e-12
3.09260937014160771e-12
-3.23032164370493305e-12
6.56352431674533198e-12
3.11594872847811024e-12
-1.39759586052488663e-12
6.10150894797786947e-12
2.61342419188251919e-12
1.27493333051812284e-14
4.61745274539963568e-12
1.63941909597197331e-12
3.90556355660523621e-13
2.68437487712126852e-12
7.19916204602266577e-13
2.60948950613028544e-13
1.26787722862904154e-12
2.30366187452503432e-13
9.29873305591239141e-14
5.19601871315964137e-13
6.30382973033692968e-14
2.3873104379460665e-14
1.97954660480590395e-13
2.50157285028783383e-14
6.27180256597869812e-15
7.52087528143830164e-14
1.0981579659651974e-14
1.31151622773632098e-15
1.94401485113921979e-14
2.86390857320947299e-15
1.42098925893334565e-16
3.08003271317267154e-15
4.10628009312258335e-16
8.36371555006219212e-18
3.36028158113977933e-16
3.99177219220869354e-17
2.13048745764676292e-19
2.52022804194191572e-17
2.71920611580367146e-18
1.02043971352609163e-18
1.02239983391496697e-19
-2.35400887297772691e-12
1.3396285828305806e-12
7.1911326884704208e-13
-2.113876221193052e-12
1.77096503059704838e-12
8.71614278718417781e-13
-1.74468319764425123e-12
2.26575044354806551e-12
1.00459847651014252e-12
-1.1992696767710141e-12
2.51476044383390727e-12
1.02596716997024337e-12
-5.6542884839991007e-13
2.36777002208958777e-12
8.77736721975543016e-13
-5.45676120963272707e-14
1.84480339027287088e-12
5.70453544037465542e-13
1.14559283569626138e-13
1.12009633485941527e-12
2.62455114572189045e-13
8.6563854810378771e-14
5.53083052045725844e-13
9.50677921393509148e-14
3.34603850986612086e-14
2.46684713983722972e-13
3.18460879787076805e-14
1.0399582099808936e-14
1.06233831229177627e-13
1.54219951892308995e-14
2.9265815677501214e-15
3.83180751816963954e-14
5.58888458210854806e-15
5.05179229195457721e-16
8.53576566410808413e-15
1.14913926272816274e-15
5.02298155623849431e-17
1.27313368892742031e-15
1.52061745836797794e-16
2.96426125361168385e-18
1.38496476468819637e-16
1.48474125610999342e-17
7.6291088605002107e-20
1.0465143954340435e-17
1.02357084196362257e-18
4.26618762000483351e-19
3.8855599473104753e-20
-8.71424404486317906e-13
6.28178198805813957e-13
2.37845558893740678e-13
-7.63159956439541315e-13
7.62011380196636069e-13
2.87760665927449683e-13
-6.26479167344179889e-13
9.09319593177233138e-13
3.24751660054977202e-13
-4.38795147620739606e-13
9.83047874173897713e-13
3.31028721237996382e-13
-2.20625299868902428e-13
9.3030137816026208e-13
2.88929647733812102e-13
-3.95281473309143344e-14
7.4806360160698666e-13
1.96790784599523911e-13
3.06861969482616516e-14
4.75011878087242503e-13
9.94345201917648846e-14
2.7881488855746699e-14
2.5470500387730287e-13
3.97682580411630415e-14
1.2498621931107683e-14
1.21906931521933282e-13
1.90610526294741496e-14
4.39337628998299086e-15
5.64672510332701717e-14
7.9971192994752515e-15
1.14628075469779885e-15
1.73325702835453727e-14
2.35661765264805741e-15
1.74023450083049241e-16
3.46270665373762142e-15
4.17907796548010768e-16
1.70534213729386763e-17
5.05429707284810444e-16
5.44016462005260025e-17
1.01608224531370797e-18
5.51795327214219795e-17
5.36306945817455923e-18
2.6394509456911192e-20
4.20079867151478819e-18
3.73749003797144211e-19
1.72300308016570079e-19
1.43105972141845155e-20
-3.23825587205042784e-13
3.08934257214553593e-13
8.2408728549227329e-14
-2.7688274045660654e-13
3.55652895652497898e-13
9.84846350391667599e-14
-2.21732115824914988e-13
3.90883487340308845e-13
1.09615119013830706e-13
-1.57017219806804246e-13
4.01963459455946685e-13
1.12081309855222092e-13
-8.27070750653398324e-14
3.8163640178004317e-13
1.00141204135372773e-13
-2.01502873728709062e-14
3.17930656066433773e-13
7.09760594079821241e-14
7.43581124750735356e-15
2.14176676211805765e-13
3.81055144319151423e-14
8.7817984840140425e-15
1.19764426172234902e-13
2.00029514011544619e-14
4.54617466356857266e-15
6.50666525229870035e-14
9.39223711730277518e-15
1.73493503136108173e-15
2.66533805933971671e-14
3.60481787408373299e-15
3.88093151786338627e-16
7.03256694609264134e-15
8.57985647642670484e-16
5.69662339784785649e-17
1.3385596667722315e-15
1.45176807446053434e-16
5.61724479473986237e-18
1.94555970104573557e-16
1.89643137718056784e-17
3.38045765270122732e-19
2.13579501085708737e-17
1.88778226200270152e-18
8.85730874404297043e-21
1.63747950017740775e-18
1.32854849160106382e-19
6.75381440043976795e-20
5.12668136984699334e-21
-1.55055448914712073e-13
1.37312241795008686e-13
2.39725041308121857e-14
-1.49470503445096159e-13
1.42265396545084866e-13
2.61734654628613639e-14
-1.37571406168732122e-13
1.45367008021908875e-13
2.85074542097584814e-14
-1.20889923321328238e-13
1.59731264660525142e-13
3.05745228168563822e-14
-1.00922468031124486e-13
1.71243208870637749e-13
3.45258833106645903e-14
-7.87783934398118396e-14
1.78950987464096175e-13
3.78931027281662375e-14
-5.48474669009810207e-14
1.798974914189743e-13
3.89814673449338256e-14
-2.9881693722377222e-14
1.70033836455510778e-13
3.51098702062861544e-14
-8.91202992215757145e-15
1.42607253433230059e-13
2.61545953218975263e-14
1.38438667288523609e-15
9.75527931353647388e-14
1.73256683311657842e-14
2.75067188938006837e-15
6.26622215054976432e-14
9.18657348054826766e-15
1.68919815012660651e-15
3.20327274204241246e-14
4.20674705550202133e-15
5.72702394728020659e-16
1.09082429667784374e-14
1.34186193202171099e-15
1.23055635443013431e-16
2.67543521324094393e-15
2.92226707498285331e-16
1.8093737008697592e-17
5.01396259125220117e-16
4.91547114542136647e-17
1.80196218060404874e-18
7.30181027321362228e-17
6.46677061325022345e-18
1.09489686175769718e-19
8.0622568346251674e-18
6.49467667055824998e-19
2.89522664308645309e-21
6.22159711460069854e-19
4.61182705108513077e-20
2.57960179602732547e-20
1.79250184972307316e-21
-6.57688975142718505e-14
8.45352466547450688e-14
1.49354250094357269e-14
-5.92066527358393591e-14
8.63469732030813869e-14
1.52050921984674759e-14
-5.24524943403483567e-14
8.62174105541620222e-14
1.53406896176406303e-14
-4.51300229976604988e-14
8.73860938938680833e-14
1.56776780460761829e-14
-3.70793405015314191e-14
8.81707703128867133e-14
1.60546850919040632e-14
-2.86979494323793608e-14
8.67884617541143792e-14
1.62060764337029154e-14
-1.98911180220518446e-14
8.32971528624464728e-14
1.58786716538372043e-14
-1.11147601410957285e-14
7.73071738315226278e-14
1.44208007080099306e-14
-3.73736340588667239e-15
6.76164042266292214e-14
1.14241991888442887e-14
3.91946536493978959e-17
4.95135441458515221e-14
7.29943279059821754e-15
8.70284423039658173e-16
3.01845848450745389e-14
3.95147387868141701e-15
5.32368850355239469e-16
1.29764637454775483e-14
1.61587593460960189e-15
1.75292875303234493e-16
4.06253976727629915e-15
4.50676803815521054e-16
3.77129042360521308e-17
9.69899369457905788e-16
9.67246814147713293e-17
5.60455778543515619e-18
1.81210234600708337e-16
1.63237622214804793e-17
5.64028750202142976e-19
2.64942554992800214e-17
2.16268875941252631e-18
3.459234757787612e-20
2.94201915059577722e-18
2.18943684291662349e-19
9.22526657145146634e-22
2.28437784358392064e-19
1.56751250479075394e-20
9.52108975798066871e-21
6.13288444442270918e-22
-3.59011932810440007e-14
8.70188833007871983e-15
5.02430837544264477e-14
-3.12071417397501336e-14
8.60471929765174257e-15
5.04234537837641865e-14
-2.75780906454032088e-14
8.29058170654500341e-15
5.1147009198128447e-14
-2.42172028918572912e-14
8.12418923750849576e-15
5.23013536615341651e-14
-2.07677810010676457e-14
7.98654090750840377e-15
5.33690061823112517e-14
-1.73491666039161028e-14
7.73206195731338283e-15
5.36068938566256559e-14
-1.38530900596230077e-14
7.45588995629907539e-15
5.31108651635493274e-14
-1.03374327887784125e-14
7.09095725646897108e-15
5.13420541372964393e-14
-7.04298590682755922e-15
6.55640665546471183e-15
4.81937441267634935e-14
-4.05415627773353978e-15
5.82036357109096143e-15
4.39852098724244945e-14
-1.5761600642555878e-15
4.6818152165523545e-15
3.74164228718614989e-14
-1.47557451150787667e-16
3.07826577588842126e-15
2.66203397112796159e-14
2.22257815427623634e-16
1.4414362452514568e-15
1.43270610290804859e-14
1.48461189395964357e-16
5.1509965110333724e-16
5.8367233386673332e-15
4.98742360739277239e-17
1.41381740819684066e-16
1.79760042283899975e-15
1.09078653860486919e-17
3.03567222001144285e-17
4.28380852493093439e-16
1.6435546396780859e-18
5.15063240077279716e-18
8.02806252804707615e-17
1.672554041386947e-19
6.87187420805047445e-19
1.17873528714827803e-17
1.03603940634642759e-20
7.01053249583970383e-20
1.31447371502441283e-18
2.8105751665379083e-22
5.05918702009658231e-21
1.02463759026826522e-19
1.99419053758870535e-22
4.28678567491190093e-21
-1.98002025948090308e-12
9.64336320117894608e-13