/*--------------------------------*- C++ -*----------------------------------*\
| =========                 |                                                 |
| \\      /  F ield         | OpenFOAM: The Open Source CFD Toolbox           |
|  \\    /   O peration     | Version:  2206                                  |
|   \\  /    A nd           | Website:  www.openfoam.com                      |
|    \\/     M anipulation  |                                                 |
\*---------------------------------------------------------------------------*/
FoamFile
{
    version     2.0;
    format      ascii;
    arch        "LSB;label=32;scalar=64";
    class       volScalarField;
    location    "0.179999999999999993";
    object      p;
}
// * * * * * * * * * * * * * * * * * * * * * * * * * * * * * * * * * * * * * //

dimensions      [1 -1 -2 0 0 0 0];

internalField   nonuniform List<scalar> 
7340
(
-1.246232034354539
-1.13115565551035835
-1.01085779338482329
-0.890567094633200718
-0.776554175064907093
-0.67515066888799613
-0.59159859732297837
-0.528930069786807344
-0.486934732000821491
-0.462425917351355853
-0.450771845108898339
-0.447350403550616393
-0.448383669062298984
-0.451143924619556214
-0.453836596849555796
-0.455383851016341268
-1.35477422959751381
-1.24772483845054194
-1.13709711940566804
-1.02724174835375703
-0.923268522329902197
-0.8302934352326512
-0.75252927948248538
-0.692456294106477688
-0.650097354280188222
-0.623155602599472336
-0.608067643094143517
-0.601083221771342546
-0.598970469937712968
-0.599276217162579061
-0.600315097952762944
-0.601040248302207369
-1.46629397544085749
-1.36647864678610209
-1.26433917603516766
-1.16350904560645096
-1.06818001090517312
-0.982517174055123066
-0.909936899353983142
-0.852480654443898311
-0.810306290292668208
-0.781754113090113889
-0.764076820652798694
-0.754240712764128962
-0.749508739547004699
-0.747713313396966561
-0.747310093824572808
-0.747312937548129552
-1.58026924896894916
-1.48699312198718392
-1.39234591637445093
-1.29937552919314725
-1.21154468660809189
-1.1322684889328678
-1.06434076687400236
-1.00945536265536773
-0.967845945839549082
-0.938312526081335085
-0.91873126625326762
-0.90665254637458359
-0.899776440819077039
-0.896213918453521052
-0.894576541626511013
-0.893956571845330838
-1.93810180615579153
-1.86177128005925629
-1.78096950533245724
-1.69626504045481652
-1.60891636705387708
-1.52091695346485878
-1.43483691490484233
-1.35355683556647555
-1.27989570053793522
-1.21615755060200614
-1.16376018803060188
-1.12297615426969788
-1.09294016971544417
-1.07200670489437266
-1.05820053376089485
-1.04960071201584215
-1.04457829370275945
-1.04190346392184874
-1.0407565324195942
-2.04479250113967748
-1.97117645810095032
-1.89403491607159213
-1.81391211467310187
-1.73195082894027252
-1.64987942565795254
-1.56987799821425322
-1.49435899315171361
-1.42566587764998287
-1.36571569634044443
-1.31570577866024752
-1.27592462868440215
-1.24575234613836727
-1.22391191007191313
-1.20881204443880153
-1.19885568834645384
-1.19264977958813922
-1.18911818092300159
-1.18753502690634782
-2.2870878365119216
-2.22129612028937995
-2.15319926180981636
-2.08234091771212793
-2.00873304584497836
-1.9328942467092094
-1.85584804786459734
-1.77909434858507698
-1.70449244157852431
-1.6340760732951547
-1.56980803492517218
-1.51329792963348142
-1.46556600510672208
-1.42690321470915782
-1.39687118803213028
-1.37447846818589481
-1.35844412433809625
-1.34744517004377395
-1.34029830741359746
-1.33607091610472173
-1.33414676306425473
-1.11343631196584902
-1.00324304949012366
-0.894513678858801176
-0.792625105092248372
-0.702709795920642533
-0.62868910380888976
-0.572408427842436063
-0.533239767511030305
-0.508508408930364308
-0.494619762761424941
-0.488033578777327892
-0.485817977518272159
-0.485802557959704395
-0.486517136140778961
-0.487058936986781821
-1.33527748955530989
-1.23530323794548647
-1.13321019686753433
-1.03290375655617206
-0.938795436079244761
-0.855094570408602372
-0.785035603513188907
-0.730251664592650673
-0.690451426403349666
-0.663669505899617707
-0.647074991975986502
-0.637731344238512743
-0.633087293999703982
-0.63117116213519131
-0.630598961774453515
-0.630496519316465887
-1.45179292828889639
-1.35810382663771789
-1.26316397996430263
-1.17024405207982274
-1.08298616595798092
-1.00486123105150682
-0.938557411887494863
-0.885502739682981432
-0.845616469423758566
-0.817457544571292716
-0.798800006065202517
-0.787223671168814199
-0.780535757430369292
-0.776977214162682284
-0.77527410328236801
-0.774601619893581672
-1.56969777498528829
-1.48169546862506429
-1.39311903203936316
-1.30671961792624769
-1.22552541295223882
-1.15241525290430191
-1.08963695021914675
-1.03843403766647557
-0.998856396212935316
-0.969850375174644341
-0.949666955074441099
-0.936321363561449127
-0.927947374241861356
-0.92299778008453226
-0.920320798079322766
-0.919154719223136962
-1.92149479522397515
-1.84745845571532885
-1.76968694644366442
-1.68877035604648151
-1.60594337393187647
-1.52306350737108254
-1.4424570270540924
-1.36665927607431859
-1.29807279071988879
-1.2385880899540842
-1.18928754871663278
-1.15030052436013142
-1.12086052951962323
-1.0995948852562174
-1.08488248783662966
-1.07514710675231506
-1.06904284045433506
-1.06554349036798524
-1.06395902326434588
-2.03164719492240353
-1.96011474134820407
-1.88564981358151273
-1.80881680184490579
-1.73071964558903657
-1.65296716003660937
-1.57753800841049441
-1.50656870398324116
-1.44207696058145229
-1.38566268017849747
-1.33826981872732387
-1.30007443303683723
-1.27052361131499247
-1.24854168607226068
-1.23280865943530515
-1.22200107268715774
-1.2149585739225004
-1.21077816315138831
-1.2088470915717151
-2.27425519946997534
-2.20961560230306553
-2.14294905198120134
-2.07394025393894665
-2.00266798936741086
-1.92966360632921896
-1.85590859824249166
-1.78279832539078265
-1.71202515918084108
-1.64540054818926951
-1.58463010238414781
-1.53107652675444661
-1.4855667826926453
-1.44830278543279123
-1.41889084212127825
-1.39649021805454643
-1.38002876222552651
-1.36840056394437903
-1.36061283709923142
-1.35587919504903587
-1.35368173846672257
-1.09592500624632283
-0.996029170503331174
-0.89884501705694797
-0.808686499828966898
-0.729443459449658826
-0.663806722819883399
-0.612801281283707477
-0.575725204996198059
-0.550521691393309309
-0.534527590942996844
-0.52510565324164582
-0.520019241924444819
-0.517559687686638514
-0.516531505499630339
-0.516183749998578634
-1.31527806607004893
-1.22245264611705018
-1.12897444584229389
-1.03817324469034755
-0.953645768054341536
-0.878659654258998613
-0.815545340250549589
-0.765312515538424165
-0.727568457099593391
-0.700761079516721064
-0.682737437012368331
-0.671263260504270654
-0.664364086604141701
-0.66047686004885231
-0.658476125112713695
-0.6576382188638209
-1.43643621220437812
-1.34888316997235536
-1.26117153057201814
-1.1761152976311231
-1.09672827457223532
-1.02576273164138354
-0.965231438439924538
-0.91608874839610821
-0.878149251156112198
-0.850249854707081698
-0.830660065349627219
-0.817504680562231356
-0.809064027173679201
-0.803932311252261278
-0.801070261597301547
-0.799795051077844876
-1.55804276319099455
-1.47530089329948977
-1.39280296297916295
-1.31293665950158922
-1.23824162852949282
-1.17104453047690349
-1.11308234294489217
-1.06523690583838238
-1.0274605846349476
-0.99888762131465203
-0.97813371237290947
-0.963636951006475728
-0.953915747485530319
-0.94772300539208687
-0.944114657604436025
-0.942458411445483701
-1.90414708641868002
-1.83217822698957544
-1.75727228367405508
-1.68006714427690662
-1.60174313909736488
-1.52398426212940907
-1.44882573464172704
-1.3784196309551926
-1.31474101988900038
-1.25928967215555909
-1.21286987359876952
-1.17552468983284109
-1.14661548777259092
-1.12504038198292622
-1.10950640530445721
-1.09874788672041213
-1.09167076136680685
-1.08742965773254041
-1.08545051361918787
-2.01760434803546662
-1.947979198026772
-1.87606843716849836
-1.80246427635252959
-1.72821602073811809
-1.65478468498887876
-1.58391395725988993
-1.51743714480726299
-1.45703827640878147
-1.40401451017154577
-1.35909464132566993
-1.32238071322470496
-1.293407296088676
-1.27130163367868931
-1.25499844379794134
-1.24342389814481047
-1.23562731044888396
-1.23086132496922929
-1.22861554411459695
-2.26076111158049864
-2.19708722858012129
-2.13169743538897905
-2.06441240171153684
-1.995390790026768
-1.92517973799548425
-1.85470855052056893
-1.78524817412228276
-1.71829981648582497
-1.65543309387026349
-1.59809090097125917
-1.54739814187611979
-1.504014029159638
-1.46807831214857387
-1.4392571897405535
-1.41686318103367848
-1.40002187739074757
-1.3878276292920837
-1.37946145696234179
-1.37427002998723458
-1.37182523202218953
-1.17259319973989906
-1.08205653801252888
-0.991816874500200285
-0.905046055596562482
-0.825020734370551567
-0.754562616765165339
-0.695497190081426186
-0.648418008667052126
-0.61273413072439098
-0.586945780272786322
-0.569123087801369554
-0.557322327748492552
-0.549845499957259287
-0.545350358749082109
-0.542866460956899388
-0.541768048326770391
-1.29779443865997979
-1.21182552513489283
-1.12638908010085514
-1.04420194386640564
-0.968069181308472748
-0.900437736841292913
-0.842963905447196571
-0.79628857270675546
-0.760051892793220052
-0.733091216185038697
-0.713809080001218899
-0.700529240889088856
-0.691735657215875488
-0.686194281755254765
-0.68299207629467551
-0.681529285791840689
-1.42262744883699543
-1.34089647389123012
-1.25991600971760698
-1.18201935686445547
-1.10961164226055464
-1.04481106578116889
-0.989103218591107503
-0.943136623611869229
-0.906717174117758873
-0.878953013332567257
-0.858534038004720501
-0.844030740222525222
-0.834107557511232334
-0.827647026452054346
-0.823804164440077313
-0.822014314150066872
-1.54723972084288697
-1.46945559689698335
-1.39261335782421125
-1.31872224947737959
-1.24984938519652311
-1.18782864218060147
-1.13398344646789839
-1.08894624874632018
-1.05264003123003902
-1.02438763284848888
-1.00312370444020105
-0.987640298939355232
-0.976773724088912276
-0.969525113440555697
-0.965124175901851622
-0.963047843057049935
-1.88772257020150036
-1.817656096894392
-1.74543228846547094
-1.67172173431868454
-1.59762555628003278
-1.52463269751332575
-1.45447867985160229
-1.38894510360586065
-1.32962170555184844
-1.27768215551222886
-1.23372912967301862
-1.1977680464195597
-1.16929162745195647
-1.14744075041139793
-1.13120205514939109
-1.11957054797824673
-1.11166328760032496
-1.1067878900465824
-1.10446850813021014
-2.00411207158878124
-1.9362338911159569
-1.86670030450096913
-1.79612509480142668
-1.72548460906835666
-1.65607928271650051
-1.58941325530568278
-1.52702681914254401
-1.47030068750703391
-1.42027318326813345
-1.37751052583830735
-1.34207633583343378
-1.31359683285003914
-1.29138420053397018
-1.27459334746060549
-1.26236301620574265
-1.25392069383844795
-1.24865213293375032
-1.24613339141931956
-2.2477989576966495
-2.18494773964005118
-2.12069961015436936
-2.05499516360805945
-1.98806633252428466
-1.92047405327929455
-1.85308108450862252
-1.78702736892113756
-1.72362085545008048
-1.66419755325534724
-1.60995965227664151
-1.5618256002158335
-1.52032298371153196
-1.48555643015619454
-1.45725597958655029
-1.43487421359685907
-1.41771044606772345
-1.40503198717793998
-1.39616949563491399
-1.39058458630087589
-1.38792563148889636
-1.15656816441832344
-1.07312293217388466
-0.990968079295228788
-0.912580077211329832
-0.840422313512813046
-0.776550709820885032
-0.722256589928401693
-0.677927367296605077
-0.643122497157720407
-0.61677336352850487
-0.597484461662448174
-0.583815394597638759
-0.574465884699345453
-0.568372019521260263
-0.564739907100956562
-0.563043667410167203
-1.28455319591318995
-1.20456906550412457
-1.12592340124387014
-1.0507867927917216
-0.981324430601728581
-0.919371520374780316
-0.866137685940009283
-0.822065293371935013
-0.786873581311219095
-0.759713586911548777
-0.739407476572856104
-0.724694881498815224
-0.714404251137246038
-0.707553534979288745
-0.703396474781892378
-0.7014319169330272
-1.41180827761438987
-1.33515270948873566
-1.25989347964299458
-1.18793384266866542
-1.12117550115838616
-1.06124871900714712
-1.00927027158287919
-0.965709228671922326
-0.930405921838268091
-0.902694710538718081
-0.881593426844237915
-0.866012272753958201
-0.854908958887713344
-0.847389123285306689
-0.842761274647766956
-0.840554949095578152
-1.53850522811277934
-1.46503928810208461
-1.39302927527957587
-1.32414503250244708
-1.26005592341575934
-1.20220692709712518
-1.15161924581468833
-1.10876858016345858
-1.07358568647319519
-1.04555580565892559
-1.02386917364017838
-1.00759259929855105
-0.995808735651280807
-0.987713062977374046
-0.982673831812680754
-0.980255558524512849
-1.87359188691479317
-1.80523028670809937
-1.73539402336250093
-1.66476534124780562
-1.59435058752245395
-1.52544781309105892
-1.4595231099241921
-1.39804201570054154
-1.34228383504786897
-1.29317589577771419
-1.25118675516899236
-1.2163152341821335
-1.18817016263769504
-1.16609048018045414
-1.14928358384937779
-1.13694948062822165
-1.12837265372335338
-1.12298388937774796
-1.1203867840840287
-1.99235266820851242
-1.926020452069372
-1.85858776710522
-1.79067338769329387
-1.7231759108064213
-1.65723898642630707
-1.59415134268768721
-1.53520077453343262
-1.4815194364894464
-1.43394546939191425
-1.39293159042405867
-1.35852819492575061
-1.33044431695657384
-1.30814440569689383
-1.29096026895620075
-1.27820030337333024
-1.26923506811494979
-1.26355835293915164
-1.26081625929740171
-2.23638490172567828
-2.17423426721911195
-2.11098167650501889
-2.04666752032872568
-1.98158290208636334
-1.91628572772054961
-1.85157818013204833
-1.78846980809765177
-1.72809538757378434
-1.6715882319237283
-1.61995075872824046
-1.57393889781958496
-1.53398457901714913
-1.5001764864446292
-1.47230374498548588
-1.44993539925210513
-1.43251252421459818
-1.41944240938684318
-1.41017715763813589
-1.4042721192603802
-1.4014369983858983
-1.14635012205541109
-1.06834861605249509
-0.99221783058472468
-0.919915092844623139
-0.853339496577522394
-0.794044918211844641
-0.742999471872962669
-0.700496684989773133
-0.666227017481512918
-0.639424009191862819
-0.619057022020412573
-0.604029331224883781
-0.593317234615854949
-0.586055591547860355
-0.581580045536373436
-0.57943633165124897
-1.27571466589735771
-1.20037874567546954
-1.12687528193110298
-1.05695868015777861
-0.992336311559235407
-0.934428339183126733
-0.884161826087829672
-0.841877918734680097
-0.807375045344163267
-0.780030914782329554
-0.758962420571087093
-0.743198380529778935
-0.73180973205926847
-0.723995505203584688
-0.719132006981261229
-0.716788975314353927
-1.40430790344934775
-1.33162529887410974
-1.26075131967345366
-1.19325655426295096
-1.13067307011527873
-1.07429048344686895
-1.02498324730170509
-0.98312092125483852
-0.948588302459733024
-0.920888054945306234
-0.899273865349514256
-0.8828959466295494
-0.870920916730150929
-0.86261613195208886
-0.857403605178647221
-0.854880897926860395
-1.53225025937953152
-1.46218290856349586
-1.39391139569040079
-1.32883983649829363
-1.26833922322623316
-1.21357624501787953
-1.165367532515444
-1.1240958382172026
-1.08971420528959073
-1.06183175319524725
-1.03982534022991069
-1.02295913945834505
-1.01049348730281263
-1.00176621356814355
-0.996248783065034282
-0.993569142656961612
-1.86264558244498812
-1.79569227347090044
-1.72779677684025579
-1.65963737924445409
-1.59213155163172737
-1.52641626870690739
-1.46374459548910174
-1.40534091858941124
-1.35225790110247734
-1.30525204531113426
-1.2647077022281028
-1.2306324390600436
-1.2027257434180878
-1.18047254944087299
-1.16324152172007
-1.15038247004654481
-1.14130381796585567
-1.13552865798020197
-1.1327181358468319
-1.98312747621960828
-1.91805933618123126
-1.85232775438073438
-1.786544644542442
-1.72153862006833203
-1.6583203713958965
-1.59800732339267926
-1.54169217722431506
-1.49032273296305751
-1.44459555313377375
-1.4048886592224954
-1.37125278691961272
-1.34346309896606475
-1.32109749874899185
-1.30361916944381195
-1.29046202027119916
-1.28110346697475252
-1.27511850097848667
-1.2722040460005748
-2.22729145289128594
-2.16570736929814212
-2.10326542404860328
-2.04008149603365174
-1.97648622320773382
-1.91302791254675686
-1.85045550540179105
-1.78966669769058839
-1.73165870429958324
-1.67740680831105649
-1.62776338468177029
-1.58336734796038203
-1.54458546519075135
-1.51150136590753492
-1.48395266548783233
-1.46159623480323719
-1.44397976819792517
-1.43061552076818077
-1.42104679728870664
-1.4148992851986919
-1.41192648985180425
-1.14062835155729747
-1.06623819668941611
-0.99402839899346529
-0.925622766020253396
-0.862571517568297086
-0.806130193687662588
-0.757084240547151732
-0.71568830744679901
-0.681723423389632877
-0.654610458868851053
-0.633543661559580085
-0.617638170890037919
-0.606044020662331762
-0.598023757428533864
-0.592997807289200929
-0.590555504158959077
-1.27054401000283201
-1.19833006959823707
-1.12822156922441841
-1.06170127215862276
-1.0001874737672265
-0.944847557988804931
-0.896444256284385732
-0.855270499067643075
-0.821183712775342411
-0.793705464104978775
-0.77213767147203527
-0.755689610078446039
-0.74358562332089162
-0.735141578424637898
-0.729814286158563807
-0.727216998597810638
-1.39976401519124005
-1.32977383408327121
-1.26182777588708728
-1.19727615334128035
-1.13741291211466211
-1.08331571600702059
-1.03571462984475304
-0.994927596822383964
-0.960876402832863685
-0.93317283438427634
-0.911220496643218358
-0.894321219834622316
-0.881774881875537653
-0.872953984638490388
-0.867355559086859795
-0.864619099421839565
-1.528349483843086
-1.46060072856928813
-1.39484762814553243
-1.33231620544025264
-1.27418207760604463
-1.22143567523491892
-1.1747690031228768
-1.13451330408083573
-1.10064379670447554
-1.07285172817906949
-1.05063351071738409
-1.03337959231311705
-1.02046470713932713
-1.01132005809155467
-1.00548568350356238
-1.00262858641914065
-1.85528679768872351
-1.78933854472108722
-1.72280711261251751
-1.65635890282916232
-1.59084813230327904
-1.52729530475987163
-1.46680966490056308
-1.41045578406485572
-1.35914062621898046
-1.31351460614899196
-1.27391310445648953
-1.24035568930876128
-1.21260313149425003
-1.19023470058352454
-1.17272367955830825
-1.15951724219555374
-1.15010573728045107
-1.14407369781529122
-1.14111749867813073
-1.97685863338695689
-1.912687782164878
-1.84814977233435096
-1.78384546831252822
-1.72055634036725014
-1.65919275183625947
-1.60075716428161985
-1.54621190198106873
-1.49638472520695309
-1.45188258674785953
-1.41303867853786413
-1.37990870366871055
-1.35231340891785257
-1.32990463940441206
-1.31223170957249557
-1.29881105019416765
-1.28919105383008636
-1.28300064993137664
-1.27996764654045769
-2.22101748577839775
-2.15983651577477431
-2.09797083658245231
-2.03558608996114154
-1.97303404168733953
-1.91085243350442546
-1.84975905177710964
-1.79055932355043668
-1.73416149820109355
-1.68143448419002817
-1.63313182552967762
-1.58981713010735048
-1.55181702132460075
-1.51921508482518663
-1.49188298959786225
-1.46953571708344821
-1.45179143699860802
-1.43823203219835416
-1.42846145131251978
-1.42215180912285666
-1.41908263860946193
-1.13812796140528394
-1.06552533375556968
-0.995231660586061606
-0.928712350284780275
-0.867353862178702473
-0.8122741122207362
-0.764176666096921475
-0.723302483675388519
-0.689477567412396408
-0.662211035520787861
-0.640803410738366996
-0.62447013398583906
-0.612444856541307425
-0.604052779902217951
-0.598757005754035676
-0.596171756491311378
-1.26821072315215777
-1.19755341023504425
-1.12911856387338783
-1.06425874517320596
-1.0042542839048294
-0.95015392308429325
-0.90264533119335133
-0.862002137561446169
-0.828112395175239602
-0.800566546443113758
-0.778754640724400704
-0.761971848172870114
-0.749516634991250541
-0.740762529485525012
-0.73520710164179548
-0.73248823803415064
-1.39766143777686147
-1.32902145711861186
-1.2625292350197368
-1.19942856824790245
-1.14089839384840164
-1.08791552841924077
-1.04114261108364481
-1.00087534981339266
-0.967056035618647281
-0.939349792931467698
-0.917231896950588821
-0.900076574386595607
-0.887248465410942266
-0.878172480613005124
-0.872383874073372589
-0.869545558987052991
-1.52650726962579064
-1.45992671441674071
-1.395431503378743
-1.33416096719916188
-1.27719562664065744
-1.22544103195337373
-1.1795298309428488
-1.13977006059664476
-1.10615039185935959
-1.07840286113616868
-1.05608104569184702
-1.038636135061485
-1.02549886902724285
-1.01614741115346785
-1.01015678932159658
-1.00721550342681354
-1.85161339605671826
-1.78618955975894189
-1.7203608220416251
-1.65478348697282551
-1.59028252058432717
-1.52781492092634386
-1.46842040243339422
-1.41308542841145846
-1.36264604712180759
-1.31770121660148409
-1.27856376029655472
-1.24526150830463056
-1.21758608264472912
-1.19516180212069512
-1.17751261779812966
-1.164133882081412
-1.15455733244941428
-1.14839873115703739
-1.14537365641776478
-1.97370751198744809
-1.91000355429707103
-1.84607909221859923
-1.7825276034059645
-1.72011290001786965
-1.65968317189156256
-1.60218871785355721
-1.54852786898468731
-1.49946931410478346
-1.45557591867015379
-1.41715987369511898
-1.38428107945053602
-1.35678348745355448
-1.33435459820321589
-1.31658574733261258
-1.30303447942082729
-1.29328497258448416
-1.28699338014483722
-1.28390438874676782
-2.21782836189611432
-2.15685831445092013
-2.09529271567877506
-2.03332242408886499
-1.97130553107164896
-1.90977238648095149
-1.84944084273283949
-1.79104196150780637
-1.73545380950089867
-1.68349205448912143
-1.63586090628411318
-1.59308650132408447
-1.55547636201170381
-1.52311521119208293
-1.49589220599013206
-1.47355085942839104
-1.45574396783812343
-1.44208819146466416
-1.4322178048936629
-1.4258281677696738
-1.42271307602867148
-0.947980484409179813
-0.831629000851429101
-0.706279185136524879
-0.578252170076206551
-0.456582601226369844
-0.351569123542061268
-0.271257741807385155
-0.219514298149172227
-0.195733224748426693
-0.194242876487716543
-0.206856784057232734
-0.225533180026443514
-0.243930851306960239
-0.258018072921184949
-0.265589215738322615
-1.19938068345310378
-1.09488699299576986
-0.982026322804492757
-0.864094347624436043
-0.746207075358365057
-0.635465890584378745
-0.539494516417809655
-0.46450300811911216
-0.413842228556189906
-0.386921891407433605
-0.37931630187979648
-0.384632685679308306
-0.39638606280185662
-0.40922523873885297
-0.419527616495898426
-0.425194037260402724
-1.3383384886219174
-1.23607936621394554
-1.12845545296333349
-1.01832489489475675
-0.909930874376294718
-0.808712044542419517
-0.720528576745848359
-0.650497758937220505
-0.601239449404543769
-0.572204898866798928
-0.55997483713547469
-0.559539262927719272
-0.565659300780943841
-0.573852070834358186
-0.580930059003198163
-0.584956745720884852
-1.47198249845780427
-1.37386659816836221
-1.27236458495664029
-1.16994553378469934
-1.07005386904425315
-0.977079585193406874
-0.89584606674251066
-0.830337808739992966
-0.782588028381626333
-0.752195092783321417
-0.736506452612697871
-0.731569576254686216
-0.733146333320155996
-0.737500665660155041
-0.741868316090866675
-0.744501436861994104
-1.84907154368117688
-1.77469615121385083
-1.6918274166390268
-1.6028263999398904
-1.50978889944730921
-1.41455784532530182
-1.31931672247063503
-1.22701259894567816
-1.14135282733721155
-1.06624683638110063
-1.0047873078687326
-0.958608661437399423
-0.927438578249320411
-0.909206580610195103
-0.900780147347123972
-0.898727981681060495
-0.89994739833485804
-0.902065187456736695
-0.903529239840588305
-1.97109304827148679
-1.89712814310961919
-1.81696398143345772
-1.73226642266022668
-1.64450689730889588
-1.55530131765832036
-1.46667581024262117
-1.38121442712736986
-1.302030628202544
-1.23229610986247939
-1.17447899586687621
-1.12991320034972631
-1.09841413327814763
-1.0783624033212349
-1.06726864087593265
-1.06235211676697405
-1.06104244003494497
-1.06131574700031539
-1.06181122521367932
-2.21068823998474606
-2.15413451236105491
-2.08907136072117128
-2.01746906046282737
-1.94100453419512964
-1.86085482556030923
-1.77826324727814988
-1.69474896665765451
-1.6122000810069812
-1.53289703565764257
-1.45945343593104804
-1.39447016052883876
-1.33996351117195722
-1.29702978282462
-1.26554776793625168
-1.24425241748167448
-1.23116039549949052
-1.22401543394128476
-1.22069303695765186
-1.21947336491675395
-1.21917592443810729
-0.963120462362553553
-0.842156311229520615
-0.715052997472804375
-0.586742700455953448
-0.464976566008741043
-0.359526170107348109
-0.27877476403101964
-0.22702258858035318
-0.203219541255158398
-0.201611340221671709
-0.214066321655313363
-0.232552337678219478
-0.250764746537502359
-0.264672573165823599
-0.272059868784739978
-1.21524608427817027
-1.10592981349647701
-0.990670994757169576
-0.871787019147094888
-0.75365773564104499
-0.642716084163508228
-0.546610577728730895
-0.471591785774664207
-0.420967334174318752
-0.393976746218010265
-0.386238409370137092
-0.391392223181922128
-0.402954791928967215
-0.41560304679137805
-0.425726078774462002
-0.431233592530397503
-1.34974278137195891
-1.24513514382991319
-1.13602928258976243
-1.02531870870312458
-0.916618614878075499
-0.815252661671869938
-0.727121589496697363
-0.657157565873713767
-0.607896655273518549
-0.57876405161940736
-0.566398905617589099
-0.565805941731630679
-0.571748619150271087
-0.579762632169130154
-0.586672505222438523
-0.590563436606130088
-1.48116450584150483
-1.3815426229643295
-1.27920885704186382
-1.17632533139828221
-1.07616824028933711
-0.983141242056018494
-0.901948245725456399
-0.836489566942036022
-0.788727506821612967
-0.758236664991206788
-0.742420008506809448
-0.737336893925467751
-0.738755213384289178
-0.742949774524456874
-0.747165540044950394
-0.749683608793219491
-1.86277678647913225
-1.78523522340185159
-1.70074799554938871
-1.61046177010853642
-1.51656997871337929
-1.42079405879134391
-1.3251722190689772
-1.2326676795805489
-1.14695507699288912
-1.07184599692236393
-1.01042150236703998
-0.964232074989706978
-0.932972135560318105
-0.914621968769363969
-0.906062363842462637
-0.903870921812300443
-0.904950194437116662
-0.906933331237173013
-0.908301724931285914
-1.98045689957659254
-1.90545075167922184
-1.82432028568309179
-1.73891423095552033
-1.65062735431716145
-1.56100256986266084
-1.47206193457277923
-1.38642164798553313
-1.30716858054598006
-1.23741429906132883
-1.17962292115144107
-1.1350432971444353
-1.10346201872943661
-1.08330276007357895
-1.07208957892186363
-1.06705150665310056
-1.06561911310716084
-1.06577391037254898
-1.0661924275793746
-2.22227406671359251
-2.16252565620267667
-2.0967860509403522
-2.02450720212210111
-1.94750294647410582
-1.86689360561359496
-1.78389165082837686
-1.70003391075882027
-1.617220394729046
-1.53774721225753508
-1.46422291684095685
-1.39920960353418566
-1.34470908854479276
-1.30174248711751828
-1.27017134170519275
-1.24876687847415146
-1.23555879980675187
-1.22829993695511863
-1.22486311834915496
-1.22353593044116371
-1.22318686348034711
-1.13682195793383389
-1.00795699273825412
-0.876322648314504571
-0.742445931618774591
-0.610026477349018048
-0.486091510056994136
-0.379471209177845714
-0.297993225466457456
-0.245664238388930811
-0.221159773672105819
-0.21866913124963272
-0.230104279223560249
-0.247561351471917934
-0.264917778434101803
-0.278231951787063392
-0.285291033630319601
-1.26025562192788487
-1.14034412811481412
-1.01791644280568816
-0.894454324728924943
-0.773537547436631723
-0.661084854402397948
-0.564103201401737864
-0.488587001013880418
-0.437568411794368672
-0.410074053225471413
-0.401665271966749948
-0.406010739956770506
-0.416731060292782174
-0.428660728032520644
-0.438280534273503219
-0.443507926274454456
-1.38349496934423266
-1.27188001435682274
-1.15820581941731748
-1.04434931188631674
-0.93370123504496727
-0.831237291924265209
-0.742523366818711228
-0.672231043822809737
-0.622696339966599788
-0.593198250111300562
-0.580319895657365081
-0.579085996377052936
-0.584344222532432567
-0.591762100219795473
-0.598250489646810157
-0.601906251613014365
-1.50695228255314251
-1.4030318415875207
-1.29752324189501556
-1.19243433317643399
-1.09090781367194567
-0.997121751827523495
-0.915550340800910689
-0.849876870817114383
-0.801930043009801863
-0.771173655789227031
-0.754961903795902556
-0.74937107097287825
-0.750236696344272924
-0.75394129628192863
-0.757807226136780088
-0.76013008070847643
-1.9013730200723995
-1.81529224292135205
-1.7250176032418012
-1.63086546478846706
-1.5340373496620443
-1.43603356563358853
-1.33888597291872857
-1.24544311068815805
-1.1592265854532231
-1.0838755253654877
-1.02232077546498257
-0.976014147618194716
-0.944562043768502058
-0.925907773488108599
-0.91694751745319647
-0.914312441234322759
-0.914991757650931659
-0.916686337148844621
-0.917894169747611843
-2.00827648367059508
-1.92782911781865218
-1.84329757397171234
-1.75526410782062658
-1.66491930315401615
-1.57377106479128193
-1.48379152027962435
-1.39752329857732693
-1.317949611595707
-1.24805597869886609
-1.19020115437156582
-1.14555626885387052
-1.1138396997775355
-1.09344905805891313
-1.08192222429405804
-1.07653035694805488
-1.07477304374019234
-1.07469065114578788
-1.07497815498365989
-2.25661410492969861
-2.18886146734806752
-2.11745595304504652
-2.04191404962351264
-1.96255790748430692
-1.88009183818648618
-1.79567566355571051
-1.71078667206780466
-1.62727550526994413
-1.54739667140564841
-1.47368657506599443
-1.40861459364842534
-1.35410338762694948
-1.31111465838976438
-1.27945667435422816
-1.25788121564278499
-1.24443090749508478
-1.23689240392011568
-1.23319278363770302
-1.23167072257457333
-1.23121576419269196
-1.2004837317908259
-1.06124888938591422
-0.920266727171218823
-0.778990272852738697
-0.641468787620983916
-0.514609994848282737
-0.40659137597355044
-0.32469659264411288
-0.27218785541528967
-0.247294531839519882
-0.243906301824795668
-0.253962804260690622
-0.269848195677227731
-0.285776845992012585
-0.298036400820652858
-0.304521062756961336
-1.30941610518849783
-1.18230648727649168
-1.05347795790093701
-0.92494301598443085