/*--------------------------------*- C++ -*----------------------------------*\
| =========                 |                                                 |
| \\      /  F ield         | OpenFOAM: The Open Source CFD Toolbox           |
|  \\    /   O peration     | Version:  2206                                  |
|   \\  /    A nd           | Website:  www.openfoam.com                      |
|    \\/     M anipulation  |                                                 |
\*---------------------------------------------------------------------------*/
FoamFile
{
    version     2.0;
    format      ascii;
    arch        "LSB;label=32;scalar=64";
    class       volScalarField;
    location    "0.179999999999999993";
    object      p_rgh;
}
// * * * * * * * * * * * * * * * * * * * * * * * * * * * * * * * * * * * * * //

dimensions      [1 -1 -2 0 0 0 0];

internalField   nonuniform List<scalar> 
7340
(
-0.0805032103153573014
0.0345169803682744136
0.154842741045690846
0.275138584451071699
0.389107764980535342
0.490420111136958714
0.573788875118587005
0.636259056346861085
0.678112260048342907
0.702545789684057898
0.714173534827161283
0.717588665078669807
0.716554205887134033
0.713793653603676748
0.711100911166691829
0.70955364933265086
-0.0668438391861815306
0.0401745569844420836
0.15080873463840741
0.260667502323140898
0.364622351941233547
0.457555097625883533
0.535234189770917856
0.595218439217101047
0.637513711730504307
0.664422104530115631
0.679498399827156319
0.686480079402999155
0.688592257679836006
0.688286324099618763
0.687247405743768747
0.686522251857487054
-0.055938540065110634
0.0438616354500170266
0.146000552518539328
0.246829913186092154
0.342151840957038655
0.427794734010687572
0.500337694845741421
0.557755240475635183
0.599902015302972935
0.628439923910766418
0.646112253475357501
0.655947241430764216
0.660678887860186914
0.662474205621771284
0.66287740778723736
0.662874562521974964
-0.0473816711165490692
0.0458871711889686923
0.140532835450001448
0.233501812255732244
0.321328922678216611
0.400596511521518872
0.468508402650346545
0.52337739724408161
0.564975214549733873
0.59450276754305087
0.614081961250962927
0.626160217277149433
0.633036120842918382
0.636598589625663736
0.638235959050022617
0.638855928184366428
-0.282626797210571823
-0.206296719571483711
-0.125496415372097853
-0.0407944878994384794
0.0465506633872757036
0.134548918918500821
0.220627878325137
0.301906058645405373
0.375563472910223795
0.439295029169237461
0.491685582481385497
0.532464859130855728
0.562498546841238012
0.583431195010087333
0.597237103211401887
0.605836814249457789
0.610859209579845852
0.613534036353569956
0.614680967592602934
-0.266712472559282932
-0.193097224441038912
-0.115956707338119386
-0.035835192706059657
0.0461245821646743479
0.128194473762511724
0.208194797912663127
0.283712811052116765
0.352404498802944999
0.412352345615808746
0.4623599381404222
0.502139379253754736
0.532310687926292547
0.554150814914807444
0.569250516664866368
0.579206822199781035
0.58541272171353953
0.588944319186800569
0.590527473098553912
-0.38639174412060906
-0.320601820386268332
-0.252506029640738705
-0.181648458188172213
-0.108041232817060004
-0.0322029612082627079
0.0448427620514695036
0.121595980036081727
0.196197495484254886
0.266613452368527626
0.330881118700702692
0.387390805518475434
0.435122258873025469
0.473784748969427072
0.503816551137588609
0.526209125740858874
0.542243397210354972
0.553242333543630727
0.560389193027932664
0.564616583932677885
0.566540736937422462
0.0517740414999179194
0.161983019877399048
0.270717066428142972
0.372584805751699666
0.462444326598115962
0.536386321785248699
0.59259986842654222
0.631726107000166071
0.656438112897207549
0.670319911939024515
0.676904445376991126
0.67911965755753767
0.679134962957488875
0.678420365542532489
0.677878563080955066
-0.047595020942324949
0.052375760232391752
0.15447460473708971
0.254782959803919906
0.348883281769951481
0.432561709168515163
0.502587086788763626
0.557341726630344425
0.59712343172843263
0.623896979639400606
0.640488490536204158
0.649831463575543222
0.654475280707680462
0.656391347614048493
0.656963538987017315
0.657065980714555686
-0.0415533324376945526
0.0521330277337112569
0.147074733075487019
0.23999517954126029
0.327249830080283299
0.405365748783489854
0.471655563369299535
0.5246978195889066
0.564576244652055137
0.592731720121553951
0.611388020183655234
0.622964005281174571
0.629651778083616609
0.633210290071518189
0.634913397048142647
0.635585880120050239
-0.0368628716776649365
0.0511377787768479489
0.139714702281293984
0.226114121472183932
0.307306943666098731
0.380413480025733219
0.443186068099481911
0.494383835592612397
0.533958312970625348
0.562962881585119312
0.583145841450915525
0.596491225253949819
0.60486514095382371
0.609814721678059501
0.6124917020592483
0.613657780782642326
-0.266047186713694817
-0.192010603387847839
-0.114239193989542354
-0.0333231624047342564
0.0495030144244211559
0.132382726907799314
0.212989099049088693
0.288786225749082914
0.357371247501098555
0.416853656380293702
0.466152144065997032
0.505137926860484754
0.534577369341762587
0.555842775255059762
0.570555050765476524
0.580290399401998336
0.586394660256817191
0.589894009688396559
0.591478476738029224
-0.253579865208401478
-0.182047446290489273
-0.107582648870378508
-0.0307499103697636
0.0473469000146635316
0.125099025095815775
0.200527912168998013
0.271496897731012599
0.335988120927760203
0.39240159326457591
0.439793628190734198
0.477988513164292639
0.50753910676063585
0.52952088704671707
0.545253856095335276
0.556061429737440882
0.56310392635849249
0.567284336871072159
0.569215408429238789
-0.373565283459557418
-0.308926032563390407
-0.242259672877996129
-0.173251079752646364
-0.101979018904415894
-0.02897478082702723
0.0447801235474241874
0.117890268475708132
0.188663298034834892
0.255287761350087794
0.316058053046439802
0.369611449479606335
0.415121072076791164
0.452384923615271994
0.481796751725872996
0.504197307844982734
0.520658743040498306
0.532286936873226257
0.540074662995876364
0.544808304958613099
0.54700576153360414
0.0691003145168023608
0.168999587131056922
0.266182015829192598
0.356329608765906747
0.43555171888910732
0.501164317873460163
0.552152003372763933
0.589218132973073239
0.614417633352836834
0.630410426995766104
0.639832008841585864
0.644918291203243066
0.647377816078067103
0.648405994771081073
0.648753750011744179
-0.0276807218147618744
0.0651452345726403759
0.158625047320932133
0.249425916039183293
0.333949399709428774
0.408927267008429185
0.472031520638310442
0.522256758960334189
0.559996629189077333
0.586802241585300366
0.604825368068328095
0.616299331403601713
0.623198429028733014
0.627085641641990432
0.629086375010030063
0.629924281140931464
-0.0262342826453010533
0.0613185540870911996
0.149030812451997757
0.234086985024655997
0.313472512537036896
0.384434839427000796
0.44496204485699159
0.494101584757407342
0.53203939660538313
0.559938088911723253
0.57952761250764051
0.592682864024408951
0.601123479609061095
0.606255189475512268
0.609117238456160504
0.610392448924252706
-0.0252241750634677811
0.0575174721215305704
0.140015471308857803
0.21988173368896663
0.294576179852069076
0.361772029677863816
0.419732589970736314
0.467576836677370433
0.505352437069295557
0.533925135977924903
0.55467887928247861
0.56917556815925674
0.578896755322402146
0.585089494910552288
0.588697842418051231
0.590354088555409495
-0.248706896329565275
-0.176737963007751075
-0.101831980505416697
-0.0246269211141514968
0.0536969554324101192
0.131455723243508071
0.206614143058276023
0.277019995260131768
0.34069815344936244
0.396148892299875655
0.442568154189396601
0.479913106828542213
0.50882215137133191
0.530397157916926876
0.54593110243597065
0.556689614405127764
0.563766738755382191
0.568007842276633701
0.569986986381180727
-0.239540384245237381
-0.169915310803323727
-0.0980046613546114442
-0.0244005663115994115
0.049847658555337078
0.123278946546211077
0.194149602776834351
0.260626279548949846
0.321024933170963145
0.374048434731321322
0.418968154592295361
0.455681955535540917
0.484655267267825429
0.506760882332444318
0.523064059236181489
0.534638602296972354
0.542435189599430823
0.547201175034432996
0.54944695588555148
-0.360072706257726471
-0.296398856948921707
-0.231009127505596018
-0.163724176032502111
-0.0947026524918264251
-0.0244916565015724542
0.0459794807121941401
0.115439797151614024
0.182388080896922322
0.245254744716998763
0.302596888765086891
0.353289573420578817
0.396673619330275895
0.432609256587617452
0.461430332472827609
0.48382432436572298
0.500665623626391776
0.512859870856546163
0.521226043054015209
0.526417470014014177
0.528862267977861622
-0.00763386072872914746
0.0829032017268457738
0.173143011681593934
0.259912447541950364
0.339934136558796229
0.41038667949172275
0.469446614567890552
0.516522221302227802
0.552204376154946219
0.57799208142085623
0.595814552401089381
0.607615207409198388
0.615092005122901631
0.619587141751246961
0.622071039076820265
0.623169451674453034
-0.0102232850284387031
0.0757456389939570734
0.161182277031536786
0.243368995653305276
0.319500417836489026
0.387129682661311203
0.444601261345142107
0.49127516452406278
0.527511081817001459
0.554471510560225589
0.573753500947907336
0.587033275785362241
0.59582684505499528
0.601368218469888638
0.604570423720734551
0.606033214208727244
-0.0124363434756919466
0.0692945877385467979
0.150274966898704954
0.228171480779079061
0.300578696509801568
0.365378474720534197
0.421085466919850049
0.467051420952961482
0.503470614032526242
0.531234621498278936
0.55165350124084267
0.566156766994899585
0.576079943460313548
0.582540473645312806
0.586383335566682318
0.588173185850185076
-0.0144256493806366459
0.0633584566189405729
0.140200679550828294
0.214091697568736417
0.282964344901969866
0.344984748875280689
0.398829562884107702
0.443866562678085719
0.480172644513516989
0.508424935394072852
0.529688812349998761
0.545172204034223173
0.556038776312647087
0.563287386600127227
0.56768832410100889
0.569764656943058334
-0.232284223488442465
-0.16221779815148471
-0.0899940344790224472
-0.0162835280645839721
0.0578126300100866367
0.1308054692113646
0.200959428445654453
0.26649290401919612
0.325816179195399735
0.377755632269663466
0.421708554901151278
0.457669544148675056
0.486145901898490773
0.507996756333209842
0.524235446036382502
0.535866952182935896
0.543774212416169522
0.548649609954591333
0.550968991869835278
-0.22604902138857047
-0.15817087804873653
-0.0886373301544233494
-0.0180621563400147379
0.052578296260440964
0.12198357883913212
0.188649561390409393
0.251035953484112229
0.307762033681970748
0.357789482997928787
0.400552069975923075
0.435986203615406742
0.464465678806861848
0.48667830209696139
0.503469153002486403
0.515699483857635976
0.524141806168097246
0.529410367066720511
0.531929108580698862
-0.347111094607507054
-0.284259906952244124
-0.220011805755684714
-0.154307381030718838
-0.0873785685922017913
-0.019786310637254851
0.0476066282053716691
0.113660312224134349
0.177066800037502137
0.236490082477461172
0.290727959904631683
0.338861973029417618
0.380364552233873887
0.415131083349649543
0.44343152430972399
0.465813287279393085
0.482977054087098123
0.495655512843387325
0.504518004367305983
0.510102913699285065
0.512761868511110608
0.00837368565073312934
0.091818818479356315
0.173973458565966993
0.252361035443301351
0.324518000695949105
0.388388575217248677
0.442681839960049783
0.487010523962737807
0.521815196658160896
0.548164226594929138
0.567453064122764417
0.581122109860416236
0.590471615849383569
0.596565480528945091
0.600197592902235288
0.60189383258994289
0.00301111200832088633
0.0829952055299032626
0.161640816702170842
0.236777252821978146
0.306239296002383032
0.36819178716038814
0.421425233381854336
0.465497442895430547
0.500689050200841201
0.527848964307356949
0.548155035544839797
0.562867620485163034
0.573158249108367435
0.580008965043524505
0.584166025219582163
0.586130583067024924
-0.00162000407497428153
0.0750355705417815044
0.150294772610856719
0.22225432610553339
0.28901252491297269
0.348939127556223416
0.400917473294533866
0.444478425545904332
0.479781654298215843
0.507492813660423869
0.528594078364283182
0.544175228090828855
0.555278541217956501
0.562798376724644611
0.567426225352885782
0.569632550904444868
-0.00569230158501828672
0.0677736169918456421
0.139783591058204981
0.208667790432921163
0.27275685114929743
0.330605791518950864
0.381193408710718162
0.424044009197707628
0.459226849947492854
0.4872567045191184
0.508943328494423586
0.525219901049007398
0.537003764392650851
0.545099437026815181
0.550138668187598046
0.552556941475497942
-0.218154075104582457
-0.149792485945375642
-0.079956236392633398
-0.0093275738817017867
0.061087154977258043
0.129989902517461758
0.195914580559865881
0.257395649154738726
0.313153798158764374
0.362261690043733819
0.404250786818195706
0.439122280847798918
0.467267341415864734
0.489347020667074972
0.506153916289515782
0.518488019389505062
0.527064846278356369
0.532453610622367068
0.535050715915975861
-0.214290000464853414
-0.147957789835255843
-0.0805251098816485433
-0.0126107416184360888
0.0548867205443947237
0.120823630786210029
0.183911260983198266
0.242861812982585468
0.296543128388151112
0.344117069056019187
0.385130926673388274
0.419534310957152767
0.447618184617116222
0.469918094632885031
0.487102231098190341
0.499862196633671874
0.508827431885732651
0.514504147060895534
0.517246240702600169
-0.335697316261186374
-0.273546691056087088
-0.210294106528951141
-0.145979954288938646
-0.0808953401712518283
-0.0155981717764074185
0.049109369322955454
0.112217735482192785
0.172592150874258693
0.22909930016389915
0.280736764435224717
0.326748615330002878
0.366702926725208045
0.400511015500343071
0.428383755534820498
0.450752100857395643
0.468174975803580973
0.481245090615516569
0.490510342362096119
0.496415380739635925
0.499250501614102338
0.0185880230995562612
0.0965895197755289314
0.172720250075470122
0.245022891786081998
0.311598352432904346
0.370892790181839849
0.421938163109569164
0.464440897897796134
0.498710524505672326
0.525513503540031346
0.545880480517207722
0.560908169150151514
0.57162026542682931
0.578881908455799787
0.583357454463845904
0.585501168348758316
0.0118481540365112277
0.0871840541080775161
0.160687492275682103
0.2306040533891896
0.295226380412047129
0.353134307822111193
0.403400772271240327
0.445684638155009916
0.480187476913887801
0.507531591050553677
0.528600080552377505
0.544364119637506749
0.555752767960052907
0.563566994798099907
0.568430493018841521
0.570773524685649347
0.00587982086456729624
0.0785624042704830272
0.149436363344126633
0.216931103546319587
0.279514561091320779
0.335897117076381091
0.385204315604889991
0.427066608088124799
0.461599207478658347
0.489299447533042164
0.51091363512708865
0.527291553442168048
0.539266583278244727
0.547571368048654028
0.552783894821399335
0.555306602073141087
0.00056237769187743379
0.0706297164119981252
0.138901216570074704
0.203972761248361056
0.264473356033059936
0.319236310175210591
0.367444998148629243
0.408716674569071348
0.443098298796434642
0.470980747815093526
0.492987159965544264
0.509853360571365877
0.522319012700707019
0.531046286432172332
0.536563716934985613
0.539243357343039853
-0.207208014034872601
-0.140254705022262366
-0.072359209624475701
-0.00419981636659939352
0.0633060057989357217
0.129021282980827295
0.191692949737003765
0.25009661769493402
0.303179623401320875
0.35018546745135104
0.390729802900521395
0.424805062553663959
0.452711756981780289
0.47496495063700328
0.492195978291876446
0.505055029954886714
0.51413368203427412
0.519908842019807027
0.522719364153169108
-0.205064947096575828
-0.139996807497547032
-0.0742652267107785508
-0.0084821191895454208
0.0565239029126955103
0.119742149252094379
0.180055194696856852
0.236370337206946224
0.287739776659450108
0.333466951858488903
0.373173842778511511
0.406809713704625264
0.434599401189203205
0.456965001281423977
0.474443330560891274
0.487600479729369818
0.49695903302530009
0.502943999021517096
0.505858453999424973
-0.326603940723884767
-0.265019858199521618
-0.202577913597301706
-0.139393985977195378
-0.0757987137226267538
-0.0123404039965843339
0.0502320022208157108
0.111020809078353641
0.1690288015954311
0.22328069639074391
0.272924118467943844
0.317320153682519479
0.356102035470111766
0.389186134297921316
0.416734834563332046
0.439091265206850156
0.456707731803647932
0.470071979232011439
0.479640702711310818
0.485788214801309959
0.488761010148195618
0.0243092738422311244
0.0986994165939911877
0.170909197127161655
0.239314814601131021
0.302366044757772345
0.358807349400956432
0.407853287857171787
0.449249204606552544
0.483214080396576651
0.510327041993395403
0.531393838591253886
0.547299329130592427
0.558893479339861332
0.566913742571641954
0.571939692710809022
0.574381995841041104
0.0170185814922695425
0.0892325146399001595
0.15934100428970871
0.225861289494386469
0.287375072773691842
0.342714971250068834
0.391118258583895428
0.432292006658321903
0.466378788905384423
0.493857036275162198
0.51542482859516936
0.531872889930877113
0.543976876680115295
0.552420921575444424
0.557748213841441243
0.56034550140218975
0.0104235296756123707
0.0804137069020235823
0.148359760404891877
0.212911377037173333
0.27277461060473146
0.326871798071080633
0.374472876843666203
0.415259905621823022
0.449311097874869003
0.477014665776719027
0.49896700338555211
0.515866280169420155
0.528412618124905253
0.537233515361546621
0.542831940913142574
0.545568400578160362
0.00446303478072395711
0.0722117885597168829
0.13796488717476707
0.200496307483489344
0.258630432010812095
0.311376830586719278
0.358043499612724136
0.398299196917269671
0.432168703583254266
0.459960771886878006
0.482178989294513693
0.499432907688574013
0.512347792860860518
0.521492441908460891
0.527326816496438866
0.530183913580859922
-0.199849289855441425
-0.133901036813975
-0.0673696048889035892
-0.000921395691167766233
0.0645893742458645836
0.128142201098854935
0.188627840070014874
0.244981719662227621
0.296296876060579917
0.34192289493090533
0.381524395939974614
0.415081810805019991
0.442834368531997979
0.465202799421249591
0.482713820442377095
0.495920257804524145
0.50533176271955571
0.511363802184710003
0.514320001321869946
-0.198796130314740555
-0.134625279099341549
-0.0700872693777912503
-0.00578296559979421792
0.0575061620964591597
0.11886975036276691
0.177305337590401318
0.231850599433846144
0.281677775668434827
0.326179913671015398
0.365023821616928867
0.398153796375636693
0.425749091092393062
0.448157860597463764
0.465830790427776253
0.479251449805863317
0.488871446169916957
0.495061850068623743
0.49809485345954263
-0.320329984646831767
-0.259149014705297331
-0.197283335541679067
-0.134898588940101732
-0.072346540718139743
-0.0101649326257088942
0.050928449009891838
0.110128177147759285
0.166526002393293932
0.219253016261910572
0.267555674752947614
0.310870370029358079
0.348870478726298006
0.381472415189439251
0.408804510405505417
0.431151782917173265
0.448896063001483325
0.462455467801656528
0.472226048687481248
0.478535690877143205
0.481604861390538153
0.0268095559197843065
0.0994121822525226295
0.169705853450696054
0.236225161336644424
0.297583646066544583
0.352663392421800614
0.400760835623789613
0.441635016823478777
0.475459932721252643
0.502726464506953019
0.524134089266149572
0.540467366014737993
0.552492643458750043
0.560884720097786449
0.566180494245964727
0.568765743508688582
0.0193517841488036885
0.090009096302527139
0.158443941729839416
0.223303759439684169
0.283308219359869273
0.337408578760819644
0.384917169524974456
0.425560362661279112
0.459450104883872834
0.486995953569283102
0.50880785927764427
0.525590651827395172
0.538045865008776492
0.54679997051447693
0.552355398358204464
0.555074261965849525
0.012526065108744577
0.0811660454480424565
0.147658267162596918
0.210758933515747676
0.269289107401042338
0.322271972296794329
0.369044889208440974
0.409312150281287701
0.443131464406459175
0.470837707073848866
0.492955603050297952
0.510110925613520894
0.522939034589070317
0.532015019386995913
0.537803625926627338
0.540641941012946714
0.00630523145759042357
0.072885786563600799
0.137380997471922339
0.198651533484703768
0.255616873839006997
0.307371468320950414
0.353282669173717534
0.393042439442384872
0.426662108150939245
0.454409638866032362
0.476731454308522984
0.494176364938564538
0.507313630972762275
0.516665088846532061
0.522655710678403551
0.525596996573186703
-0.196175895617077961
-0.130752059311695173
-0.0649233216065818186
0.000654013430066349558
0.0651549797813821691
0.127622579394477714
0.187017097828861029
0.242352071773659999
0.292791452983851674
0.337736283444650953
0.376873739719091161
0.410175991699488762
0.437851417356155292
0.460275697879455603
0.477924882201890389
0.491303617918590729
0.500880167550585731
0.507038768842963283
0.510063843582235221
-0.195645011820632875
-0.131941054128673546
-0.0680165920558404441
-0.00446510325589907775
0.0579496001181137102
0.118379328228308142
0.175873782245181853
0.229534631086034252
0.278593185935931631
0.322486581347919798
0.360902626311038865
0.393781420551088335
0.421279012546792619
0.443707901796844106
0.461476752667395795
0.475028020579173149
0.484777527415515996
0.491069119855163272
0.494158111253232279
-0.31714086184136403
-0.256170814397053415
-0.194605215624516853
-0.132634924034745499
-0.0706180310198042671
-0.00908488643365574014
0.0512466573097412337
0.109645538529701575
0.165233690530131677
0.217195445533299669
0.264826593728978266
0.307600998681789695
0.345211137990316552
0.377572288808452783
0.404795294009981821
0.427136640571628423
0.444943532161878985
0.458599308535337091
0.468469695106337181
0.474859332230326336
0.47797442397132861
0.277415605008805577
0.37238085656021197
0.484795991811573124
0.604643662647619151
0.720972676063485585
0.822004847683064144
0.899065048831164448
0.947961627475100599
0.970108391059942621
0.970956045481860985
0.958140503081685524
0.939414606249036943
0.921007924355475405
0.906919600743610665
0.89934832912336593
0.145851522574576092
0.228062679279526143
0.328089799989368658
0.438330867427206006
0.551391362717117306
0.65902718255304038
0.752727998292349709
0.825908740375696393
0.875058420807821702
0.901107100361910107
0.908378361669600842
0.902959455084271001
0.891181466396248845
0.878337928097592147
0.868035024079277906
0.862368483245727568
0.104145305812184771
0.193706930188516036
0.294085618749200528
0.399899561287299421
0.505598220462513903
0.605104317619577725
0.692058310419499834
0.761131243761378418
0.809623591798608433
0.838213990616962779
0.850276879495488469
0.850662342953175554
0.844530676912655043
0.836335869098808304
0.829257548539013567
0.825230763550276691
0.0781819950420553217
0.169393529764448575
0.266974015533744613
0.367062947794627115
0.465505784226956931
0.557568341628441155
0.638158849133121708
0.703177987609266419
0.750551722730407378
0.780727360047724694
0.796336031457900662
0.801249403706418062
0.79966736614193068
0.795312141307412679
0.790944247099417352
0.788311067260755061
-0.138426602359743384
-0.0905606855277365785
-0.0207690969750217481
0.0615633919481750475
0.151003593958954685
0.244198038035064346
0.338233600746439433
0.429790867987073388
0.514983539971757831
0.589764676047203507
0.650982527875044181
0.696982302505366969
0.728049505709325917
0.746244468404749006
0.75466034199227372
0.756710147719886983
0.755490305329441947
0.753372344254499282
0.751908261997989769
-0.169637208387399541
-0.107074534251373366
-0.0324347327608938696
0.0494838631116113065
0.135750410510122765
0.224112097785278241
0.312240060329661395
0.397394622404429909
0.47638735260627274
0.545990144706415603
0.603710980851933088
0.648210945761060198
0.679669917847975369
0.699706038403856034
0.710795275267201876
0.715710778280275961
0.717020173358449253
0.716746767212650182
0.716251275590670033
-0.286654275392425772
-0.242383075492307504
-0.183030016953667468
-0.1140710807912165
-0.0388657945489934015
0.0406551333112642257
0.122910544293851273
0.206235231459237278
0.288672518943086542
0.367907430045122108
0.441308977484801801
0.506263580369303745
0.560749730206816399
0.60366997861191718
0.635144592168675581
0.656436898855281781
0.669527652394975914
0.676672292703566769
0.679994510705833277
0.681214140334924001
0.681511575854198193
0.258006501112749309
0.359316170351751896
0.474268073081720087
0.594908338816468762
0.71160396818410443
0.813544320147420286
0.89156398644769852
0.94107800811737552
0.963040868740187572
0.963747181184112067
0.950975628426691699
0.932404438456510443
0.914175189448225622
0.900265177073197198
0.892877721309699002
0.125122019916104388
0.21475454484044626
0.318126965369478376
0.429744566196557765
0.543320211812451159
0.651280018839928143
0.745349592884761547
0.818820007121082383
0.868221558423220019
0.894248064098456807
0.901529450688172473
0.896220071517195183
0.884616713640808405
0.871960662654714502
0.861836622424909993
0.856328947305303845
0.0902147644003732374
0.183476913172195027
0.28583245592222567
0.392454078354475377
0.498606326629588648
0.598317538031052032
0.685332957705298007
0.754466164976390963
0.803093428511121976
0.831743341421899651
0.843885396431740542
0.844404476916784774
0.838442993204047471
0.830425455990619343
0.823515152802769435
0.819624080938947674
0.0676718420513342106
0.16108982339023778
0.259767443981185786
0.360448476637000192
0.459239289797821526
0.551384779571250649
0.631990450452085906
0.697020792432792025
0.744466128128353444
0.774724492556767674
0.790436510084423172
0.795485832191802911
0.794059207081011964
0.789863118678431064
0.785647059731405584
0.783128898949979613
-0.161710562518255746
-0.104743878853977124
-0.0312551082881882408
0.0532432713211533903
0.143894994203257159
0.237773038637437345
0.33225825878417492
0.424060191157135113
0.509321830821270471
0.584133076045315724
0.645344438187463232
0.691380952922707182
0.722532394982781656
0.740834965037239224
0.74937957341629724
0.751567468179159315
0.750487574209981356
0.748504221022868954
0.747135778477279411
-0.182409265510162483
-0.116874106821495793
-0.0404275093364386134
0.042555461119577781
0.129494871062318384
0.218332819050818611
0.306805011929326743
0.392156904713464594
0.471225813164614149
0.540859093532871538
0.598565131867610734
0.643085144732130409
0.674627506953733524
0.694768079393795368
0.705974956856037394
0.711011483381123077
0.712443548978306862
0.7122886135069183
0.711870073880797261
-0.300464384102238635
-0.252460162738133598
-0.191475945377619611
-0.121428973796449124
-0.0455032973240468361
0.0345540253561517907
0.11725172815770489
0.200932800138375556
0.283641459149864938
0.363050672592961698
0.436534516063149414
0.501521440953163311
0.556003679277057405
0.598957913278525544
0.630521710347020869
0.651922789238516209
0.665129387729196386
0.672387828207160809
0.675824452747075588
0.67715157825509309
0.677500637037717457
0.0866098757343557457
0.197252848248474333
0.316431353273609162
0.441788072008405752
0.568379926704947636
0.688281285963677214
0.792106915367772557
0.871410635862304161
0.921945426775102939
0.944908722161067249
0.946626285931192468
0.934921212028579141
0.91739218718265958
0.900021784920428281
0.886705815228341687
0.879646538430596481
0.0615945770716270422
0.170455190150019809
0.285489232974907803
0.403959192839283554
0.521489817994142735
0.631615739436835355
0.727002136580849778
0.80130223391908495
0.851349215764490963
0.878048399514765654
0.886070021446212053
0.881593305613902256
0.870838868498048702
0.858902789292873892
0.849282164081562208
0.844054605422444149
0.0457896835632684504
0.151056703761250022
0.260563427239518142
0.37164267258020306
0.480425771311179362
0.58161836054016347
0.669469454706601352
0.73911648765070781
0.788151008210612569
0.817256884618605128
0.829948191831531346
0.831120440326623244
0.825846738906810152
0.818425971259456597
0.811937158335569453
0.808281262465053607
0.0360289270357761482
0.136492472490765598
0.239757679007432112
0.343364080520100146
0.443906015681179766
0.537025244049350592
0.618148515024940171
0.683493016454533753
0.731192207833397334
0.761761874440778586
0.777886881778760531
0.783449803235608977
0.782577401135333584
0.778871574716009873
0.775005362012023635
0.77268242561726852
-0.224460785868019236
-0.146891448866776075
-0.0613820475813744645
0.0297747351778025401
0.124799373204881936
0.221646182193201924
0.31803324036713454
0.410976692432448609
0.496856826912982996
0.571983412255850698
0.633376184529051089
0.679564200518042005
0.710930358525870387
0.72954559897258775
0.738493620152919972
0.74112579566044301
0.74044599137463929
0.738751207153387379
0.73754333305792652
-0.219472022821217722
-0.143791859500170593
-0.0618485242121303083
0.0249272864250540335
0.114522739762095968
0.20519460890647151
0.294862416074092026
0.380927744774901822
0.460365698716441452
0.530169048471007764
0.587959612515045138
0.632558538863946973
0.664244648386996595
0.684620175824578681
0.696141962036753381
0.701532594819418209
0.703289597456499771
0.703371868405646583
0.70308434619518223
-0.34076824559293506
-0.281869255723850798
-0.214085079564580366
-0.13994042639639101
-0.061115102395883171
0.0210649266953491822
0.105312753493155997
0.190095895720588187
0.273538292881395806
0.353372675079799192
0.42705346728852106
0.492106022780273211
0.546603632044567855
0.589582945758904464
0.621235215118358775
0.642808071905733858
0.656257164205060306
0.663795347223402388
0.667494775803950113
0.669016784461425096
0.669471736223019476
-0.000269885766401490484
0.130348940650472339
0.264716301954252275
0.400827225381569618
0.534319964845940243
0.658149318267130523
0.763945087303853354
0.843994131454118501
0.894933683126722723
0.918525010521570096
0.921299844946684821
0.911038281643681169
0.895100470374277202
0.87916208645550864
0.866901320779662976
0.860416483605785154
-0.00181169717754749507
0.120167711101020494
0.245156258115094977
0.370733734736702014
0.492831118712529548
0.605550347058753768
0.702218607575503362
0.777001334384624265
0.827335533942630152
0.854509452573291917
0.863354133169349502