/*--------------------------------*- C++ -*----------------------------------*\
| =========                 |                                                 |
| \\      /  F ield         | OpenFOAM: The Open Source CFD Toolbox           |
|  \\    /   O peration     | Version:  2206                                  |
|   \\  /    A nd           | Website:  www.openfoam.com                      |
|    \\/     M anipulation  |                                                 |
\*---------------------------------------------------------------------------*/
FoamFile
{
    version     2.0;
    format      ascii;
    arch        "LSB;label=32;scalar=64";
    class       volVectorField;
    location    "0.179999999999999993";
    object      U;
}
// * * * * * * * * * * * * * * * * * * * * * * * * * * * * * * * * * * * * * //

dimensions      [0 1 -1 0 0 0 0];

internalField   nonuniform List<vector> 
7340
(
(-0.106272329390912371 0.195538258921859026 0.141551282269266027)
(-0.0907546359200367275 0.213231079345655272 0.143510125779913428)
(-0.0722701934748110619 0.22885596338401118 0.145420081249691802)
(-0.051339382725679332 0.240848294896919973 0.146594797730687371)
(-0.0288164332450512525 0.248234923855141176 0.146612624697019328)
(-0.00550304285607629284 0.250282885929737686 0.145189966805476911)
(0.0175760697895912046 0.245976071354065351 0.14181815662670394)
(0.0382584823960443673 0.234499000335345292 0.135634632881580119)
(0.0536485184491649475 0.216950859948016911 0.126370406809145658)
(0.0618128004344874193 0.196288273591632367 0.114800902440409788)
(0.0626763964153651543 0.175773287465093103 0.102387528920574067)
(0.0575279738064008311 0.157733624975896297 0.0906037731934120905)
(0.0480910497591278824 0.143276301310508225 0.0805099840954166812)
(0.035884549079466449 0.132663638018384961 0.0727010851126892732)
(0.0220226680231911769 0.125778864595437967 0.067444232336042409)
(0.00740076356175671263 0.122108211573367542 0.0645329080246723474)
(-0.0980634413402007576 0.197131258675461274 0.134530308676583055)
(-0.0831222955900114274 0.212441846480641211 0.134957321394834212)
(-0.0659328753176975785 0.225693166369178827 0.13534771386020189)
(-0.0468604386823886082 0.235689492433757558 0.1351831183832852)
(-0.0266198002600827391 0.241596153034357386 0.134092346457493794)
(-0.00601157560497853766 0.242787725268167776 0.131789000324023325)
(0.0139870337470530057 0.238609721976537653 0.12790425559918403)
(0.0317042237829806908 0.228661025890539715 0.121914977844885364)
(0.0450160171486777005 0.213840232232304472 0.113706601912974548)
(0.0524406082245221644 0.196346324017271479 0.103845446795545263)
(0.0537969295445587109 0.178689485274497017 0.0933812737227788375)
(0.0499421482389638891 0.162810841566897679 0.0834181880920434743)
(0.0421641920396336259 0.149793963260006768 0.0748090297842931573)
(0.0317041925688927723 0.140053481190657969 0.0680843763618519948)
(0.0195567838885882528 0.133647803588393649 0.0635212434266108766)
(0.00658826011638964822 0.130114212011622515 0.060969439493941735)
(-0.0905929926262342006 0.198028776124561351 0.127364555848973382)
(-0.0763739501060630571 0.211326436762679787 0.126559595298184169)
(-0.060449832412551599 0.222619760031038116 0.125758520798829321)
(-0.0431041092071226817 0.230984241745228247 0.124562494257276071)
(-0.0249309372598242457 0.235719552118489023 0.122652832339408449)
(-0.00666779934415191039 0.23631423654426631 0.119769358271712173)
(0.0107871895116301714 0.23235273691579017 0.115635449232935394)
(0.0261074870338044926 0.223682205653171595 0.109927527246427334)
(0.0377039053083284004 0.211055628923346755 0.10261551756753079)
(0.044434813077877125 0.196150598062846543 0.0941272310454325384)
(0.0460818751733035256 0.180923720025715218 0.0852307889163586574)
(0.0432173700295414923 0.166986997912213053 0.0767606794826097144)
(0.0368089623509599145 0.155350254667333404 0.0693999983379013918)
(0.0278683349696083292 0.146502341255761503 0.0636091547808771141)
(0.0172702509466558657 0.140616560652038286 0.0596546605190950846)
(0.00583091997056530299 0.137253998303575486 0.0574235008541766762)
(-0.0839711982878478258 0.198378245434567974 0.120118075766264334)
(-0.0705252639164697381 0.209982074649592398 0.118350982013233644)
(-0.0557895895735897179 0.219658339274105358 0.116644685860140859)
(-0.040001570181533927 0.226685195899564262 0.114683236250567214)
(-0.0236591582336121431 0.230490870688357552 0.112195138983113257)
(-0.00741824992383151305 0.230672566053839539 0.108952968789134436)
(0.00792004901760506863 0.226974216991329664 0.104745360273006932)
(0.0212855919314715245 0.219391202437009103 0.099367747977259141)
(0.0314657041502775375 0.208565155532425744 0.0928321701048663572)
(0.0375709792956170352 0.19580435217217651 0.0854686343484672151)
(0.0393806621133694149 0.182651116230069244 0.0778487809875904602)
(0.0372812182737983916 0.170442418667316825 0.0706095380926310134)
(0.0320074020126254327 0.160093755887415201 0.0642979690675123117)
(0.0243853789796463806 0.152119602130005471 0.0593071021876078325)
(0.0151766140225775854 0.146764363334282527 0.055882279275179525)
(0.00513519223516415834 0.143597534360650092 0.0539349370441397219)
(-0.112020754861214739 0.161511733632269394 0.123139446739448571)
(-0.101082757437922541 0.174500774053415825 0.119124177025522374)
(-0.0899059593551633229 0.18685849430431517 0.115755818812799643)
(-0.0781180495168478511 0.198303338610214042 0.112903900604191018)
(-0.0654509933294143004 0.208471230434044308 0.110403076722900201)
(-0.0518196718722376271 0.216802986438305118 0.108027885602203833)
(-0.0374274195054743464 0.222733080768734076 0.105518026004641483)
(-0.0226956002292187445 0.225805892238113842 0.102641277375089102)
(-0.00819826699019677446 0.225711454248838345 0.0992017713363926162)
(0.00536286527042474648 0.222301015660520962 0.0950353925501226104)
(0.0171155997017606587 0.215655798774519708 0.090009228037611827)
(0.0261169527410859657 0.206327027764585835 0.0841528327449675706)
(0.0316665638632029553 0.195354950076265216 0.0777241239264950395)
(0.0335583974588684053 0.1839714787364507 0.0711550336720708915)
(0.0320576761347274308 0.173288813074821857 0.0649365190112768109)
(0.0277289334036917058 0.164122798002905385 0.0595073913350234948)
(0.0212497967411207772 0.156981616400280827 0.0551996707832405481)
(0.0132806518614613355 0.152147474007236189 0.0522329933073797589)
(0.0045066721098153753 0.149184118829830764 0.0505358191150064029)
(-0.105557974145187861 0.164306034763497949 0.117973660613000589)
(-0.0949351672440558736 0.176347337081132094 0.113273581633190276)
(-0.0841707486452930032 0.187617759033602949 0.109272348333829386)
(-0.0729450763265434565 0.197881785576041774 0.105834773909909349)
(-0.0610465630057826919 0.206838720656562142 0.102790355339448497)
(-0.0484341375220538051 0.214059157420268487 0.0999353272289106032)
(-0.0352893969401862767 0.219098418218328123 0.0970478750986553673)
(-0.0219715795137095521 0.221599169207940622 0.0939278943899878732)
(-0.00897855841449703845 0.221329245652287676 0.0904067905778478953)
(0.00308122019039746425 0.218214531946270079 0.0863543698488566519)
(0.0134902192623747863 0.212382918461945375 0.0816810083667141584)
(0.0215035757388380364 0.204310756528687409 0.0764208488997150936)
(0.0265653363849895456 0.194840140106778192 0.0707771189098342773)
(0.0284913674259768754 0.184968668410339321 0.0650804690265098656)
(0.0274668116873809966 0.175625605163939658 0.0597127160902885049)
(0.0239306650360877893 0.167530161697891034 0.0550266215266170672)
(0.0184422307386881701 0.16116555493317769 0.0513008258089665409)
(0.0115742232676350823 0.156828410191364009 0.0487284322855878332)
(0.00392709039295355365 0.154112202289817174 0.0472493172247058155)
(-0.121048223570791577 0.142113807536132064 0.125698370042436447)
(-0.10987838101477744 0.15475076463059137 0.118636478072085466)
(-0.0993854336542558392 0.166637744633765905 0.112518371600139125)
(-0.0891428914876166573 0.177757756596849947 0.107294687074650036)
(-0.0788444199459322759 0.187993992510252866 0.102814245436589402)
(-0.0682056438544077215 0.197175564055564551 0.098942575172452446)
(-0.0570595961816158237 0.20506277520332164 0.0955071569913280849)
(-0.0453970091492031519 0.211318215110410768 0.0923204232944863507)
(-0.0333801799786822562 0.215597059639907107 0.0891893169252414297)
(-0.0213155865979487574 0.217626655869677221 0.0859394349273828878)
(-0.0096326566197815211 0.217241383456959397 0.0824239210345660556)
(0.00114290355355527867 0.214420695084960145 0.0785357975418739251)
(0.0104141835019244816 0.209318462582072706 0.0742117132969166426)
(0.0175855796306352494 0.202348342110405671 0.0694838141571483547)
(0.0222135260915062999 0.194194790833192577 0.0645118221237721279)
(0.0241375893220347817 0.185667066219279919 0.0595509627928366286)
(0.0234889300834625267 0.177538481309764823 0.0548999213602690411)
(0.0206123370901812458 0.170435597429057367 0.0508429362556709896)
(0.0159723245685833848 0.164806054138205982 0.0476133456513842396)
(0.010087995487849501 0.160942718534288542 0.0453797102249395151)
(0.00343206453475934474 0.158292781180877029 0.0440950040974957894)
(-0.0879311495281938083 0.198650721276832726 0.128728645273772063)
(-0.0697653444256370187 0.210400932697222348 0.132349931996145753)
(-0.0497691192227319654 0.218919662295237155 0.135101985537256164)
(-0.0286388834854683222 0.223345319400682585 0.13649047752282098)
(-0.00722907105106117276 0.222956706249813119 0.136079485972903924)
(0.0132249700745333335 0.217091216054521752 0.133241730103921568)
(0.0307823268825098903 0.205838618079568714 0.127304433958164598)
(0.0434308429124515283 0.190640399319864096 0.118349097780454313)
(0.0500725625942351898 0.173818906372121912 0.107377645857147819)
(0.0508934219292932477 0.157588087595081611 0.0958197789162937991)
(0.0469207210267906308 0.143435490197524579 0.0849753297837301663)
(0.0394303719081159632 0.13206826047143394 0.0757364599000720506)
(0.0295654533531187202 0.123671072831461379 0.0685991134060884855)
(0.0182152271370298671 0.118187232575664908 0.0637919562567726417)
(0.00613496287111458833 0.115225428315669842 0.0611268727287618829)
(-0.0968076729358364196 0.185086347336802626 0.119149007984671707)
(-0.0816932061508296864 0.197355807239909392 0.121274612402120063)
(-0.0648298231221697691 0.207603954098453169 0.123254390101614694)
(-0.0465705128343257557 0.214933645965821263 0.124543145692861928)
(-0.0275203341991152942 0.218640853240386401 0.124710625262919289)
(-0.00848951203621282208 0.218175676919044437 0.123383386499175463)
(0.00946975764172898471 0.21313315190369958 0.120136077421091586)
(0.0248744385130057546 0.203645393355904869 0.114563552914256253)
(0.0361895612073679929 0.190793443540765467 0.106763975590759869)
(0.0425010776006581742 0.176359713561609011 0.0974589885988490223)
(0.043838161925183014 0.162140994170474478 0.0876963384507044308)
(0.0409158319936414258 0.149462617237362261 0.0784793504767456185)
(0.0347251851491645266 0.139066745245551904 0.0705507490828997247)
(0.0262296039692701509 0.131255863365158876 0.064367482493907377)
(0.0162367257872743885 0.126094610001202478 0.0601716098833075044)
(0.00548064692847539253 0.123206290310295563 0.0578233105467204841)
(-0.0905957027750227684 0.18530304271392517 0.113129257028877439)
(-0.0762329836642306052 0.196205424193586275 0.11392076971438593)
(-0.0605624570537982229 0.205183233493184597 0.114606497292876461)
(-0.043860745952714858 0.211529376162048727 0.114757680415405156)
(-0.026648827157196249 0.21466258758547202 0.114013243637021172)
(-0.00964500977856672104 0.21415872486044929 0.112062302562849894)
(0.00624666552766489636 0.209781468689144657 0.108605947695353172)
(0.0198607323604319194 0.201694316542094354 0.103398937114483336)
(0.0300094729153487713 0.190740033118824592 0.0965429615619973619)
(0.0359432766523425096 0.178312804626705596 0.0885724290978729817)
(0.0376100705451511211 0.165874394709410539 0.0802660020982724209)
(0.0355101671841707225 0.154582075224698579 0.0724011635839868911)
(0.0304147497270172498 0.145162073181065721 0.0655897468731182764)
(0.0231311933705433403 0.137981605699690035 0.0602386815294096781)
(0.0143816917042469197 0.133189002937507295 0.0565851086205014578)
(0.00486386429021371317 0.130405761504215401 0.0545230367314181591)
(-0.0850310318144919391 0.185396484344276608 0.107013994929173129)
(-0.0714231991909356906 0.195127040246053346 0.106744974444120094)
(-0.0568487834650075879 0.203037185677388488 0.106422132858750976)
(-0.0415386877429635218 0.208561347533261804 0.105703920878614271)
(-0.0259422272025486289 0.211227654083267546 0.104291042924397073)
(-0.0106813952748441854 0.210714496666353085 0.101927167690070264)
(0.0034706441470769428 0.206894065259236093 0.0983961346550836086)
(0.0155797116575627573 0.199950002126272119 0.0935483543267203455)
(0.024713715707650314 0.190561759229522398 0.0874798712668252154)
(0.0302606352197905132 0.179836531661553445 0.0805947535313231017)
(0.0321300885003963643 0.168967092955449538 0.0734797070556705012)
(0.030676281505668139 0.158952152416594439 0.066740560142476188)
(0.0265033925710867722 0.150475679809500246 0.0608784098366369764)
(0.0202872991376179257 0.143934481182664858 0.0562477867138990173)
(0.0126665915654278621 0.139531801010955442 0.0530704482823966817)
(0.00429196596534611469 0.136876944375152382 0.0512627029183041483)
(-0.115563683920621829 0.153131415074922755 0.106458887185440207)
(-0.103932739993421508 0.164564953203107489 0.104076855161465157)
(-0.0921947287290550838 0.175385505874115 0.102277483292021215)
(-0.0800069971755208026 0.185355250736274374 0.100914779569204638)
(-0.0671453543212646303 0.194079954878129818 0.0998111661879449302)
(-0.0535838435943574443 0.201088778594940565 0.0987128005304467593)
(-0.0395229405504218118 0.205924791513781708 0.097342225357695808)
(-0.0253487829886992963 0.208214252110191345 0.0954507017718875944)
(-0.0115960539099228405 0.207717719687859015 0.0928270921691660839)
(0.00107618077263561818 0.204376459671822858 0.0893108531807208644)
(0.0119083913035633454 0.198383844622151473 0.0848094620177566316)
(0.0201597975500988486 0.190301894388834048 0.0794087124531742961)
(0.0253311078194913726 0.181022584195646208 0.0734184875294879302)
(0.0273183230423904196 0.17152641891570175 0.0672865143412760131)
(0.0263760209398822554 0.162671442686083356 0.0614875183498664879)
(0.0229816503972317364 0.155086154593299191 0.0564306208181100249)
(0.01770229362916741 0.149171561595649593 0.0524203378101166378)
(0.0111004033502667254 0.145162244858028283 0.0496580663674712347)
(0.00377242248668460851 0.142649533568107417 0.0480756180667794575)
(-0.109807771598171011 0.155214577572199086 0.102507622816082139)
(-0.0984713874258808242 0.165997966337281339 0.0994383321012182325)
(-0.087121925069562331 0.176052851014492528 0.0969542863657304466)
(-0.0754689964484611814 0.185167073722321135 0.0949231477558768744)
(-0.0633342067151636684 0.193033802151158618 0.0931728872328925761)
(-0.0507085104370552028 0.199283298896276051 0.0914878643576692435)
(-0.0377704848027842072 0.203548405212106598 0.0896378119433211967)
(-0.0248508091143399036 0.205538060227045294 0.087414411782740592)
(-0.0124080179780044417 0.20507800956547631 0.084642712219232169)
(-0.00100339924852677759 0.20215576123738091 0.0811994925314315635)
(0.00873853562587065952 0.196966760398529783 0.0770263069443103687)
(0.0162228007534137471 0.189984803295006055 0.0721973794845756356)
(0.0210422931447729229 0.181938429349684128 0.0669525911982037092)
(0.0230929035503899746 0.173641011048520422 0.0616374795120809837)
(0.0225603998693192781 0.165828630836896029 0.056625915610236735)
(0.0198257390882679713 0.159069559113839742 0.0522513994086878791)
(0.0153670101168344037 0.153752835065196797 0.0487730374154558693)
(0.00967929762033003724 0.150127023569410989 0.0463702503794720389)
(0.00328661244610498971 0.147806594161627891 0.0449854450265271127)
(-0.127508079011070002 0.134712756126614569 0.107604766795901058)
(-0.115519736100303194 0.146216074583752909 0.102589774152596208)
(-0.104203078684147327 0.157056253017496594 0.098278775863178125)
(-0.0932188335797879408 0.167197647159825435 0.094648296608674673)
(-0.0823076784763463604 0.176515149328236892 0.0916201092742141704)
(-0.0712101979117363004 0.184838958045426272 0.0890651045982317757)
(-0.0597824105328376987 0.191937856837285842 0.0868204632823961209)
(-0.0480316902839232965 0.197514764909755669 0.0846993352211209694)
(-0.0361146423059708829 0.201281879905994887 0.0825072983883752276)
(-0.0243136131224458811 0.203018102606432993 0.0800676468962965987)
(-0.0130215089845644345 0.202603073581489435 0.0772331887454840715)
(-0.00271689187728920561 0.200057087050347221 0.0739049505577038385)
(0.00608117641180432045 0.195573262393355068 0.0700448871329744371)
(0.0128898628561033672 0.189555941245201448 0.0657156427597276327)
(0.0173777159247390511 0.182601949181402434 0.0611030574515429026)
(0.0194477038865597252 0.175385481747450361 0.0564758975827188148)
(0.0192372758242312369 0.168533860430500032 0.0521293036910034785)
(0.0170532563391781952 0.162553798064266619 0.0483348179978426162)
(0.0133011346934048414 0.157812439189702058 0.045311856572098505)
(0.00843921840243446256 0.154557162582256574 0.0432189720108090425)
(0.00287350696398203922 0.152244088962269597 0.0420123650118911854)
(-0.0836295155400665208 0.184412251475312927 0.114944588585995849)
(-0.0660227454293206562 0.192400249433340942 0.119078205379218399)
(-0.0472186977735318189 0.197525414968788088 0.122217363897739226)
(-0.0278169648002359327 0.199111455919886493 0.12380753956441605)
(-0.00871196232819786143 0.196648847399089027 0.123322420211622666)
(0.0088543284434636424 0.190031446274494836 0.120223124570177239)
(0.0234191680283967682 0.179854825588801642 0.114248986143528755)
(0.0337519066655435629 0.167397549273473389 0.105802689188477489)
(0.0392920152583068963 0.15424508737301551 0.0958862699191867507)
(0.0402752560030238474 0.14178495453886919 0.0856879019936394454)
(0.0374452838248115205 0.13094188205924745 0.0762241322604776672)
(0.0317132126521016203 0.122180936731475676 0.0681885896168986511)
(0.0239319603538099522 0.115654154321479949 0.0619782970010281445)
(0.0148148006679223922 0.111358496108568905 0.0577874417757910513)
(0.00500184568745523639 0.10899822943758869 0.0554932986514956594)
(-0.0942726242798124225 0.173983849329090584 0.104840292536230978)
(-0.0790855209140936821 0.183223463901983269 0.107735993443561051)
(-0.0626917054849804034 0.190512567411419365 0.110339786603228587)
(-0.0454092882898889175 0.195221894791956951 0.112141443909846622)
(-0.0277760955162862991 0.196811102645106373 0.112683639626410231)
(-0.0105790027126319713 0.194909151383433732 0.111556801182378679)
(0.00517968834918929727 0.189460099270548132 0.1084009476611274)
(0.0183470242422207677 0.180905726077737083 0.103054489675594288)
(0.0279175487717982194 0.170224911007417101 0.0958111088589551491)
(0.0333721593329015659 0.158708750940090543 0.0874063262388844187)
(0.0348155794279070771 0.147560676341510572 0.0787431924520904519)
(0.0327952907898188817 0.137658599971996615 0.0706381900250211275)
(0.0280490207674975872 0.12951278374706679 0.063689489085451842)
(0.0213164053473376761 0.123355933534798734 0.058271709106514552)
(0.0132539824790820233 0.119263963601197232 0.0545908653957426632)
(0.00448381022373109828 0.116928486458952735 0.052556343878025838)
(-0.0893901996836047735 0.173934703678022273 0.0992349744283626822)
(-0.074977715239105347 0.18240874092684467 0.100853881210150514)
(-0.0596770647828372483 0.189068160610018854 0.102245413941715879)
(-0.0437513478848809562 0.193395757057806039 0.103001710702747551)
(-0.0276715344606827708 0.194954774506978623 0.102750258218335888)
(-0.0121114941843275814 0.193467824055900905 0.10117033963535732)
(0.00209774758879061746 0.18891908518303363 0.0980127140600773605)
(0.0140305266751366634 0.181661162416862421 0.0931803662689748569)
(0.0228677335104799165 0.172467047580498911 0.0868960597081175484)
(0.02815094080295856 0.162393196703328968 0.0797093230146992959)
(0.029906651768104385 0.152471213810535272 0.0723113016845490925)
(0.0285384936229557649 0.143506253909924025 0.0653553357617060598)
(0.0246424524787602593 0.136016576123870719 0.0593485814948918541)
(0.0188554160759699038 0.130283888043444346 0.0546318776062386935)
(0.0117730283469179783 0.126441345515670489 0.05140899125375889)
(0.00398991983808387983 0.124162626301032572 0.0496109977600234786)
(-0.0848948344672166288 0.174009750124832191 0.093713411224113724)
(-0.0712254963373384758 0.181809023536971009 0.094308291678307371)
(-0.0569234999736642974 0.187910877686264077 0.0947422730528116874)
(-0.0422135634498382525 0.191891204628215489 0.094685395405147435)
(-0.0275048062356027523 0.193399780215193634 0.0938367350382530302)
(-0.0133688288812574829 0.192231188183221047 0.0919429858827065238)
(-0.000501332406693637267 0.188399601793420302 0.0888252996281333196)
(0.0103432621359440535 0.182204223243668445 0.0844278243570912301)
(0.0184959624002030559 0.174272118590290875 0.0789240435581575195)
(0.0235611946198273185 0.165469989603803186 0.0727298948549997687)
(0.0255212460416192784 0.156675461544280581 0.0663784139426724373)
(0.0246765986970616004 0.148611995525086082 0.0603920312357488845)
(0.0215105791845206507 0.141784383848941903 0.0551962394392404854)
(0.0165700168966137415 0.1365009603390131 0.0510937965821982656)
(0.0103889812891086591 0.132934596213279521 0.0482774760891422142)
(0.0035265026984018003 0.130731754531398181 0.0466925136074436004)
(-0.117688711895607381 0.146448683403241187 0.0906518397666965514)
(-0.105462761793408244 0.156402343244952557 0.0894363785954830626)
(-0.0932336958812614164 0.165702049484897918 0.0887038748937776372)
(-0.0807234680989112885 0.174125956718466507 0.0883260429999784408)
(-0.0677715349203607542 0.181328303418313547 0.088103061934389007)
(-0.0543910625134258197 0.186938771223185696 0.087784116510691651)
(-0.0407782993011413797 0.190608758981614113 0.0871006958324081343)
(-0.0272858878512097745 0.192061999530431848 0.0858084669563473068)
(-0.0143984729139930573 0.191149524177935015 0.0837050926358398478)
(-0.0027013655939812295 0.187906108566379348 0.0806582003559531968)
(0.00718360408048734911 0.182595210189863189 0.0766372889041716521)
(0.0147073542009443399 0.175736505377548397 0.0717793801242059548)
(0.0195333036836541733 0.168045797559018384 0.0664023928947647113)
(0.021621348220833822 0.16027049533965404 0.060920718059719374)
(0.0211981363064247218 0.153053884994987455 0.055752357176711384)
(0.0186580162017644588 0.146873478901716203 0.0512518584231899041)
(0.0144708542866435509 0.142045710348836368 0.0476837808648507555)
(0.00911385483179910985 0.138767360337756634 0.0452251931314438249)
(0.0031028118163508563 0.13665330965770725 0.0438307093622387137)
(-0.112593489888344972 0.14798100668529951 0.0874213017083459998)
(-0.100672243514704149 0.157523478176145842 0.085556951033462933)
(-0.0888406131787319031 0.166333316154124611 0.0841591119784293601)
(-0.0768594614253006736 0.174212838204790221 0.0831125228130235594)
(-0.0645970767047944067 0.180891353157400375 0.0822412305113933151)
(-0.0520690504437737595 0.186071791822081362 0.081335719077847618)
(-0.0394489371798549746 0.189470308931185327 0.0801756540533235529)
(-0.0270389408001598767 0.190872485349778492 0.0785603842670360014)
(-0.0152511072054795534 0.190173903038186043 0.0763262047536585053)
(-0.00457961442198433211 0.187423811472856444 0.0733717009032892609)
(0.00445885608285479657 0.182859434610696675 0.0696812963625668969)
(0.0114112913449170884 0.176919220405310107 0.0653643763415936579)
(0.0159943692146763787 0.170199438588092333 0.0606658454230016228)
(0.0181587488154977827 0.163339125889897852 0.0559102177059469518)
(0.0180775118694053716 0.156906275705760101 0.0514323062170000678)
(0.0160748324185210206 0.151343495235783693 0.0475261711934619815)
(0.0125558905945548048 0.146962600944215011 0.0444203306016277416)
(0.0079469230711003442 0.143972315381661609 0.0422741990574717619)
(0.00270023703205087874 0.1420043459834118 0.0410481321432556584)
(-0.13211529238035763 0.12918798243309032 0.0903747874267239737)
(-0.11949819892849714 0.139612119029131149 0.0869135656502295073)
(-0.107541162903477983 0.149419811921948587 0.0839917727983347795)
(-0.0959696430426321828 0.158551713114216758 0.0815870246549702527)
(-0.0845708957903422986 0.166882920436498217 0.0796479955559925845)
(-0.0731297333609533529 0.174250288809024018 0.0780672847375271511)
(-0.0615343094668213061 0.180447367395353581 0.0766860770210452958)
(-0.049805315706071468 0.185232615198062528 0.0753291449018658327)
(-0.0380941263748231229 0.188381261642960068 0.0738134186402738673)
(-0.02665870078618977 0.189731368704756403 0.071971806082803208)
(-0.0158506087499307446 0.189215292861860507 0.0696695743199546441)
(-0.00608834458752435109 0.186893402132672526 0.0668257460699706041)
(0.00219503306092856329 0.182981707067757432 0.0634328092137561861)
(0.0086239702584651988 0.177854078342541716 0.0595786204901892491)
(0.0129613699936133586 0.172008882848279726 0.0554525701838863849)
(0.0151567215336339683 0.165989794707681021 0.0513094237558471278)
(0.0153437953914346246 0.160293990940782782 0.0474173897660650628)
(0.0137915339793572046 0.155325344081790495 0.0440194871570055227)
(0.0108515295616138305 0.151382636422766031 0.0413118214920927332)
(0.00692734843866108299 0.148674356841247191 0.039436768706098857)
(0.00236055416238475013 0.146660328399425277 0.0383656741794427686)
(-0.0951568846535953972 0.162644382500290591 0.0961559870887241236)
(-0.0792746541273270655 0.169386463397200204 0.100336825327426576)
(-0.0624289061052322319 0.17417679020374624 0.103984573481855233)
(-0.0449783817148095566 0.176546544795770338 0.106547531656389333)
(-0.027476560438559762 0.17610424331385055 0.107503255821325611)
(-0.0107465294173980513 0.172647724455493368 0.106403097592042944)
(0.00420453844440146773 0.166380000263796207 0.102971826528863261)
(0.0163880694050038342 0.15791685683245088 0.0972711119508417321)
(0.025066500000562153 0.148174291401725111 0.0897955781288360816)
(0.0299452373845866711 0.138169276865297674 0.0813688660943704956)
(0.0312203396178353625 0.128764974376868124 0.0728741505388892929)
(0.0294134264683807364 0.120554492067495383 0.0650529069015650524)
(0.0251759956305388985 0.113864712763582093 0.0584214536856027394)
(0.0191518316553686806 0.108833130474654316 0.0532887180430458712)
(0.0119193547925634281 0.105494495310559058 0.0498156828254872064)
(0.00403549200587501652 0.103617723184378438 0.0479432941598949697)
(-0.0913247497668179947 0.162713700126223743 0.0903133205316183213)
(-0.0762427790236583497 0.169243002273314069 0.0931823923362832957)
(-0.0604515214923406555 0.173986050667429393 0.0956277587198748474)
(-0.0442528554065876462 0.17653405716059456 0.0972064757116608419)
(-0.0281348241743371377 0.176559915661938044 0.0975013328227620629)
(-0.0127907698419892635 0.173908414038339815 0.0961682588195817145)
(0.000953117145103155039 0.168728520037407292 0.0930090133634889071)
(0.0122730490570834086 0.161491369418039932 0.0880634012196804816)
(0.0205268337685446771 0.152944405105393477 0.0816907133085832127)
(0.0254190713774901308 0.143971606175480826 0.0745173153096091168)
(0.0270594986104808512 0.135368882609571639 0.0672434694450989856)
(0.0258538940767602185 0.127724696094221046 0.0604876601160789021)
(0.0223497542832288773 0.1214014662448651 0.0547076843029173782)
(0.0171187169459056931 0.116587870350441325 0.0501986720886903326)
(0.0106984658029659185 0.113368589032663378 0.0471294882960952982)
(0.00362865719369445932 0.111483340651967772 0.0454601450488861941)
(-0.0876530402768457423 0.163070450812411255 0.0848551401289873858)
(-0.0733199722754368094 0.16936045973482608 0.0866553590761860448)
(-0.0584913919078029337 0.173994939409351901 0.0881273528432462705)
(-0.0434234937683266806 0.17662524189873488 0.0889133599497859556)
(-0.0285412800458325136 0.176981103665999923 0.0886795705676443335)
(-0.0144309640101634371 0.174942825409953845 0.087158966473370611)
(-0.00178197437781590223 0.170628736884996801 0.0842049555592965515)
(0.00871744283223216399 0.164418150604911495 0.0798480814300426001)
(0.0165181895148011904 0.156931924130284312 0.0743564084361907074)
(0.0213434482671869506 0.148930103480162002 0.0682094598289944842)
(0.0232455157521031658 0.141129309909623551 0.0619620665686091004)
(0.0225391690673404713 0.13409036414759351 0.0561247043142523022)
(0.0196826493413735648 0.128189174282330898 0.051095025947959595)
(0.0151802865545990016 0.12364853225808628 0.0471454558145929445)
(0.00952597669489274948 0.120590853699821726 0.044443183022669433)
(0.00323646001016630967 0.118725368975454673 0.0429612047402312125)
(-0.0841289839694817909 0.163568041472101161 0.0797296876531586318)
(-0.0705055463378451014 0.169609851365388475 0.0806595986427213196)
(-0.0565640601830035006 0.174103404793749278 0.0813447423322377627)
(-0.0425240832804011232 0.176755055614059992 0.0814946169627436545)
(-0.0287533585272434569 0.177344703712739443 0.0808422892081101241)
(-0.0157482469141947481 0.175783577198483282 0.079177905184638589)
(-0.00408850079067437505 0.172175452174972321 0.0763900329140148049)
(0.00564813708495350009 0.166839900665700841 0.0725051350343212803)
(0.0129943595767943142 0.160298411030582483 0.0677272788162980866)
(0.0176999628549600954 0.153197754902889283 0.0624253115361450006)
(0.0197818399159930824 0.146173106204267905 0.0570396110224491507)
(0.0194861607989106622 0.139746538382000463 0.0519890385511235509)
(0.017197290834200199 0.134293690922312581 0.0476144131594450903)
(0.0133585016172256613 0.130058464260802142 0.0441611974682287953)
(0.0084182377801952351 0.12719060455852163 0.0417883836201638839)
(0.00286481256302254612 0.125364010411661952 0.0404769996263823276)
(-0.118805191002225558 0.140667453096472411 0.0752718870169596932)
(-0.106094400327619701 0.149263997463303766 0.0748191744652375867)
(-0.0934753172517332337 0.15714525395410936 0.0747354673232703964)