/*--------------------------------*- C++ -*----------------------------------*\
| =========                 |                                                 |
| \\      /  F ield         | OpenFOAM: The Open Source CFD Toolbox           |
|  \\    /   O peration     | Version:  2206                                  |
|   \\  /    A nd           | Website:  www.openfoam.com                      |
|    \\/     M anipulation  |                                                 |
\*---------------------------------------------------------------------------*/
FoamFile
{
    version     2.0;
    format      ascii;
    arch        "LSB;label=32;scalar=64";
    class       volScalarField;
    location    "0.270000000000000018";
    object      rAU;
}
// * * * * * * * * * * * * * * * * * * * * * * * * * * * * * * * * * * * * * //

dimensions      [-1 3 1 0 0 0 0];

internalField   nonuniform List<scalar> 
29184
(
2.77600788251653808e-05
2.5941933766123503e-05
2.43309697707532629e-05
2.28861173509394965e-05
2.15978253445203346e-05
2.03972283390991864e-05
1.92541539000245727e-05
1.81462798912373694e-05
1.71045909044654519e-05
1.6070035472659539e-05
1.51448319342555814e-05
1.416546861685248e-05
1.33821443036484626e-05
1.22976978936206311e-05
1.17580695499814881e-05
1.15116048841454427e-05
2.63215216239695678e-05
2.4402957202281682e-05
2.30637219524646949e-05
2.18691711138471925e-05
2.07507368610272084e-05
1.96486178640184279e-05
1.85779720471394002e-05
1.75440342476549474e-05
1.65664427778379036e-05
1.56253966071654954e-05
1.47453967694550463e-05
1.38909774768111261e-05
1.31003927102175604e-05
1.21644006789300211e-05
1.14462951797297295e-05
1.07110135912819335e-05
2.49711111287927714e-05
2.30769710893737566e-05
2.19244615027008878e-05
2.08582853464809909e-05
1.98189304652310333e-05
1.87918302570790063e-05
1.77910967560664628e-05
1.6823164593272349e-05
1.5913131826634859e-05
1.50459253344960987e-05
1.42397283032835232e-05
1.34911873301027579e-05
1.27984695944463296e-05
1.19905904222792221e-05
1.14101255269920525e-05
1.04992756774370438e-05
2.37240876234375434e-05
2.19341897230611686e-05
2.09087606002038968e-05
1.99462847500763709e-05
1.89814428321407045e-05
1.80201991966533706e-05
1.7080428040906294e-05
1.61695854827495393e-05
1.53170256258679328e-05
1.45088271495153281e-05
1.37700217413652019e-05
1.31147147349567308e-05
1.25180035357311149e-05
1.18458063475291775e-05
1.14156316394940842e-05
1.02998197894222753e-05
2.25832834994744797e-05
2.09277460060068243e-05
1.99964865889302674e-05
1.91174861289048887e-05
1.82192662705439637e-05
1.73161677834477815e-05
1.64291580780843864e-05
1.55667863339713283e-05
1.47614593521814666e-05
1.39994503547829791e-05
1.33206659328426113e-05
1.27456942966217911e-05
1.22435033776244865e-05
1.17118344721381874e-05
1.14217568978959265e-05
1.0054868372068858e-05
2.15428985927934954e-05
2.00270596497380941e-05
1.91730531312636786e-05
1.83632909883224273e-05
1.75247447164794089e-05
1.66735034745720321e-05
1.58320582657916498e-05
1.50100003807935839e-05
1.42414695384158383e-05
1.35140064207797587e-05
1.28857852280177357e-05
1.23772214391518427e-05
1.1964267381989548e-05
1.15880286923729522e-05
1.15278274808868559e-05
9.7545354882459423e-06
2.05948476586144932e-05
1.92134883993176728e-05
1.84262341021896965e-05
1.76759159937144277e-05
1.68914238140323185e-05
1.60868732935149508e-05
1.5284740025285413e-05
1.44950326554453027e-05
1.37522156793737203e-05
1.30485473589527737e-05
1.2460053818625103e-05
1.20011123454586509e-05
1.16689005307953489e-05
1.14829781856011579e-05
1.18253519959513611e-05
9.41978725443573803e-06
1.97315982753459764e-05
1.84748255919470844e-05
1.77461177042456074e-05
1.70488426606091949e-05
1.63145497258367712e-05
1.55525638253360725e-05
1.47841980745548958e-05
1.40184519336267355e-05
1.32900678401430404e-05
1.26016480426777527e-05
1.20404296178973384e-05
1.16078626933921029e-05
1.13476218496280109e-05
1.13925617566505981e-05
1.21643242794032726e-05
8.99957636090332421e-06
1.89473491312433859e-05
1.78027239757682107e-05
1.71244506976686464e-05
1.64767328487010653e-05
1.57909156259380654e-05
1.50682807415112002e-05
1.43283775675556464e-05
1.35775561751044343e-05
1.28539752203041733e-05
1.21754016166874531e-05
1.16248193050542534e-05
1.11899794754875325e-05
1.09951767065621218e-05
1.13088856392143302e-05
1.20337438369308382e-05
8.43541623026544018e-06
1.82381317714540936e-05
1.71907637576475122e-05
1.65541377090811321e-05
1.59558545368010096e-05
1.53189830148396076e-05
1.46329988690535303e-05
1.39162085757069381e-05
1.31715683788328533e-05
1.24473815407283814e-05
1.17758478411948356e-05
1.12144427456950321e-05
1.07480856109885533e-05
1.06150575572710331e-05
1.12937244078270761e-05
1.16084473890663705e-05
7.68479460306863053e-06
1.76006655682664591e-05
1.6633421104055768e-05
1.60299542927986204e-05
1.5484738458544425e-05
1.48989373619537329e-05
1.42470562834705406e-05
1.35484985219418227e-05
1.28037296707838089e-05
1.20801005045023302e-05
1.14147824075955647e-05
1.08206065530768282e-05
1.03063788688631258e-05
1.02558327457814885e-05
1.13321305439390934e-05
1.12427921513421922e-05
7.14378454845421672e-06
1.70312578260787004e-05
1.61260315410643917e-05
1.55504786546901924e-05
1.50647046414194983e-05
1.45330207430930982e-05
1.39129272319408626e-05
1.32296002042488471e-05
1.2483518280965578e-05
1.17690702028169538e-05
1.11108539386302588e-05
1.04715299303990622e-05
9.92176735609976119e-06
1.0021506014481748e-05
1.18058450079355496e-05
1.09287502908870851e-05
6.80388981111517338e-06
1.65273326826092199e-05
1.56679181121198831e-05
1.51198278651831025e-05
1.47004554531877832e-05
1.4226800749255261e-05
1.36368166521109946e-05
1.29694905154700581e-05
1.2227845607097524e-05
1.15380103598361396e-05
1.08915127475761361e-05
1.02194309778292944e-05
9.69143881889854194e-06
1.00684274737724585e-05
1.31453618775632041e-05
1.15007949335218996e-05
6.73232836238051439e-06
1.6092077206223339e-05
1.52658703261931269e-05
1.47496941553696533e-05
1.44017422048831207e-05
1.39915721951427353e-05
1.34311972521128528e-05
1.27868084105469384e-05
1.20618350237134084e-05
1.14163157312006637e-05
1.0796762163828741e-05
1.0132843072427668e-05
9.72608786757396654e-06
1.12246239572162827e-05
1.81401973418325918e-05
1.5278705888472354e-05
6.73293693759325425e-06
1.57339895306766196e-05
1.49358128768060975e-05
1.44614821633422006e-05
1.41864835735358246e-05
1.38470988142962194e-05
1.3319264502702856e-05
1.27134663219725188e-05
1.20204625057782303e-05
1.1446587304226973e-05
1.09026943667713937e-05
1.0391431983668823e-05
1.04002293323743293e-05
1.77043648140630784e-05
5.62418413752526037e-05
2.61803430449225093e-05
6.78769883620447529e-06
1.54759354781916282e-05
1.47141806915507552e-05
1.43003511297480533e-05
1.41026752037625063e-05
1.38486369638203931e-05
1.33677264380589115e-05
1.28250363049090438e-05
1.21913223655255028e-05
1.17219200611476829e-05
1.13129101656003541e-05
1.10439401123338047e-05
1.34619050309486181e-05
3.87375434993425961e-05
0.000124722679015030119
4.2628888637926081e-05
7.04755816750028694e-06
2.77978954511511064e-05
2.60068639297705483e-05
2.44234345842710894e-05
2.30087526217147575e-05
2.17525440380236233e-05
2.05886288707330084e-05
1.94878428123143761e-05
1.8436445752755241e-05
1.74558890642254634e-05
1.65238324071432862e-05
1.56930449789464236e-05
1.49073937205387679e-05
1.42846972924583174e-05
1.35805068704455033e-05
1.32975995201025396e-05
1.48699420962331661e-05
2.63607557803081271e-05
2.44687017862111987e-05
2.3156977018593426e-05
2.19906961786415712e-05
2.09018840241532158e-05
1.98343828798774682e-05
1.88058575248494388e-05
1.78245346271996386e-05
1.69138075548654761e-05
1.6062653784606825e-05
1.52942487487626221e-05
1.46089046966107422e-05
1.40304537270410101e-05
1.34452208260170986e-05
1.31268659299107341e-05
1.32924206935421964e-05
2.50115860572399366e-05
2.31427640575948519e-05
2.20167972524234932e-05
2.09776259906001891e-05
1.99667821667917995e-05
1.8973062473510241e-05
1.80134504566822887e-05
1.70969986258370459e-05
1.62544804684263878e-05
1.54758905756908364e-05
1.47859314617242223e-05
1.4210176147673912e-05
1.37419344746902175e-05
1.3275452678956439e-05
1.31730229066324175e-05
1.27394583104681944e-05
2.37655766963136657e-05
2.1998917046560307e-05
2.09994265832480278e-05
2.00626254992056421e-05
1.9124681826597774e-05
1.81952911226903614e-05
1.72951756625618141e-05
1.64341938322565762e-05
1.56489586950920964e-05
1.49285375411465452e-05
1.43092957665457235e-05
1.38306291211218222e-05
1.34676810145160792e-05
1.3147443759014013e-05
1.33307357930753426e-05
1.22588821490180113e-05
2.26253292106410454e-05
2.09904713655792564e-05
2.00850484519623705e-05
1.92301753308885276e-05
1.83567178863969025e-05
1.74836301141607681e-05
1.66342364171401681e-05
1.58194135108483609e-05
1.50806477464241249e-05
1.44054280256035064e-05
1.38492218994399636e-05
1.34539486948805829e-05
1.31932862127807458e-05
1.30297523193258787e-05
1.34431269676230268e-05
1.17134289875980313e-05
2.15848567208204441e-05
2.00867093227682335e-05
1.92593681749980773e-05
1.84718200255866898e-05
1.76552355569956006e-05
1.68318558399952122e-05
1.60252558573497009e-05
1.52475724712360191e-05
1.45445259474842865e-05
1.3902639958986779e-05
1.34000269112579481e-05
1.3072471995144015e-05
1.29078154600293108e-05
1.2922234503713073e-05
1.34806625078212366e-05
1.11102015337433632e-05
2.06357835262925411e-05
1.92685239925106389e-05
1.85105177791639054e-05
1.77798491388692758e-05
1.70135939397304441e-05
1.62345281042728272e-05
1.54635052382160857e-05
1.47139519976553539e-05
1.40355291414238844e-05
1.34162484363659685e-05
1.29564539550055619e-05
1.26781770400742371e-05
1.25991503279603858e-05
1.28398972250605883e-05
1.33859499175546327e-05
1.04910438337638586e-05
1.97702624136633718e-05
1.85230692600734882e-05
1.78291294386616373e-05
1.7147580064370696e-05
1.64265496952445619e-05
1.56877055850851581e-05
1.49452933186815756e-05
1.42141766320045953e-05
1.35497048728790101e-05
1.29452440894388405e-05
1.25161434517615492e-05
1.22603829935157313e-05
1.22545877992287292e-05
1.27755234175263849e-05
1.30494874206716241e-05
9.83585743283748423e-06
1.89815793138772783e-05
1.78415579117239141e-05
1.72075574102711315e-05
1.65689803619096315e-05
1.58900866359618716e-05
1.51887210496059491e-05
1.44672525522637078e-05
1.37442406569862036e-05
1.3086243392598583e-05
1.24933015427178623e-05
1.20783109330123326e-05
1.18088097186939023e-05
1.18649512851776416e-05
1.27077139992315686e-05
1.24062676513901982e-05
9.09632439073155547e-06
1.82645610311612592e-05
1.72169678305149012e-05
1.66388735087841637e-05
1.60389726800246166e-05
1.54017099556609856e-05
1.47359403415742302e-05
1.40263850718424435e-05
1.3302851344620803e-05
1.26509384031855637e-05
1.20700198191849433e-05
1.16440038289856098e-05
1.13201147515043667e-05
1.14229900453708589e-05
1.26974678971092858e-05
1.1743495166772571e-05
8.1915210146294315e-06
1.76145079962771486e-05
1.66435517946290046e-05
1.61169212756058039e-05
1.55544765629070133e-05
1.49607055218620227e-05
1.4328873685472416e-05
1.36219863323370795e-05
1.28955944941157034e-05
1.22592047573873427e-05
1.16916798826039039e-05
1.12234386894184462e-05
1.08182812555311097e-05
1.09815805683145743e-05
1.28017430253883649e-05
1.10937082624597168e-05
7.47626673435337508e-06
1.70264125385642592e-05
1.61178590299164666e-05
1.56384596265410289e-05
1.51157701073562132e-05
1.45683801098591852e-05
1.39697272047724206e-05
1.32594116641103959e-05
1.25384267089203199e-05
1.19352323886641304e-05
1.13792672388494686e-05
1.08378565883370858e-05
1.03482418075366352e-05
1.06249362055674126e-05
1.32335575289101224e-05
1.0677098852289611e-05
7.01952958203848434e-06
1.64963433769401318e-05
1.56406820759162545e-05
1.52051904245699241e-05
1.47281004066959041e-05
1.42292712895137642e-05
1.3667210706828897e-05
1.2953965887558445e-05
1.22575857778284445e-05
1.17085246647751286e-05
1.11580776141033552e-05
1.0535429433503968e-05
1.0014092563896685e-05
1.05304584201287301e-05
1.47941209788025299e-05
1.06635105231461621e-05
6.73482312448819496e-06
1.60249204262870924e-05
1.52201245953361981e-05
1.48260913228375706e-05
1.44034340210074603e-05
1.39551419165360376e-05
1.34414106499123262e-05
1.27328451667434171e-05
1.20873447184352387e-05
1.16103168874560802e-05
1.1061299014255645e-05
1.03787605160627854e-05
9.90420175517899552e-06
1.11782588706160448e-05
1.69447979163298876e-05
1.18254519657329866e-05
6.70000966814866967e-06
1.56237235788916002e-05
1.48747950779081965e-05
1.45216413504126976e-05
1.41623601617460937e-05
1.37717171191209798e-05
1.33257040281900775e-05
1.26344219771214714e-05
1.20700698377854414e-05
1.16798549354206275e-05
1.11593485061692215e-05
1.05562695101302743e-05
1.04348918128176098e-05
1.67438108243800078e-05
3.80813588005084186e-05
1.74722462578778029e-05
6.51088140200642885e-06
1.53247367700960309e-05
1.46446005893547356e-05
1.43402120942616599e-05
1.40596617084861231e-05
1.37489193856791613e-05
1.33938405190427842e-05
1.27411395566166787e-05
1.22905002147454936e-05
1.20073400419229899e-05
1.15579333613267338e-05
1.11445142469934163e-05
1.32313190929310257e-05
3.59959988124421073e-05
0.000103284093058542259
3.41502223416504248e-05
6.58085667122446883e-06
2.78590271915921197e-05
2.6091199932987241e-05
2.45338253482724165e-05
2.31494357168049534e-05
2.19268948061514665e-05
2.08023636247558806e-05
1.97484198851737202e-05
1.87575180904968108e-05
1.78479160300271006e-05
1.70176802876242979e-05
1.62987065461753419e-05
1.56932610155764016e-05
1.5255982124787562e-05
1.48919579194070318e-05
1.51742629517463119e-05
1.84437700746426701e-05
2.64217247985922448e-05
2.45518823775079769e-05
2.32655274918281189e-05
2.21273480670422634e-05
2.10699295095895009e-05
2.00401554444474627e-05
1.90582052457014765e-05
1.81356814522449457e-05
1.72989726782400314e-05
1.65446120851762342e-05
1.5898313105273221e-05
1.53864746920449979e-05
1.50318133285993299e-05
1.47855597712169974e-05
1.4819280111189672e-05
1.58121075692942859e-05
2.50724300903988352e-05
2.3225628207091956e-05
2.21227167398459875e-05
2.11096386801088751e-05
2.01289853186185367e-05
1.91718158930164815e-05
1.82582049687439941e-05
1.74001840879976865e-05
1.6632736665631964e-05
1.59502971847487317e-05
1.53868993177358014e-05
1.49887377726374172e-05
1.47590106793865612e-05
1.46438379801325196e-05
1.49149149152002938e-05
1.47035068655677176e-05
2.38279654276670135e-05
2.20818790055053367e-05
2.11023896694385812e-05
2.01894806065543023e-05
1.92801644008751071e-05
1.83858416286353425e-05
1.75309245910958749e-05
1.67280424352162429e-05
1.60182695302662951e-05
1.5393018029665285e-05
1.49027912480033164e-05
1.46056876939376349e-05
1.44922705628825938e-05
1.45441082626814328e-05
1.49061609094768093e-05
1.38202449798060095e-05
2.26915949980920356e-05
2.10748434000827086e-05
2.01851035933054976e-05
1.93515506995167548e-05
1.85047668415959645e-05
1.76648330177024441e-05
1.68596921926250114e-05
1.61028064691161882e-05
1.54394129596380962e-05
1.48578219306212851e-05
1.4431919162977845e-05
1.42212327426693939e-05
1.4216568009723355e-05
1.44541147527369038e-05
1.47605387293997315e-05
1.29533674368803853e-05
2.16582888372706684e-05
2.0174544365539347e-05
1.93567770842629675e-05
1.85876155310751964e-05
1.77952519061796874e-05
1.70023648232552517e-05
1.62389687666705073e-05
1.55195378158085115e-05
1.48918202265097357e-05
1.43416526383645738e-05
1.39696701359583043e-05
1.38272126563314106e-05
1.3924896656918747e-05
1.43687441194374618e-05
1.44279270001006835e-05
1.20604860099349333e-05
2.07206539277788916e-05
1.93623164112932051e-05
1.86055590631804464e-05
1.78902413344427387e-05
1.71448466893713316e-05
1.63921178709342807e-05
1.56633943429912164e-05
1.49739621367898142e-05
1.43718680408969999e-05
1.38417158540764524e-05
1.35111769860952976e-05
1.34164529124870538e-05
1.36046853593639001e-05
1.43114354059930397e-05
1.40685742239958876e-05
1.11858450910590982e-05
1.98716224126848685e-05
1.86252768773090833e-05
1.79219429292455045e-05
1.7252926968165733e-05
1.65473185251898287e-05
1.58281667917242731e-05
1.51287548408889708e-05
1.44635051929200801e-05
1.38777669142768734e-05
1.33571565302117467e-05
1.30532688029258546e-05
1.29762577836728487e-05
1.32362936132311555e-05
1.4259681814700478e-05
1.34904174254168737e-05
1.03125444100870546e-05
1.91048787213861979e-05
1.79539004161181941e-05
1.72979584078072663e-05
1.66691376932541332e-05
1.59961012441705085e-05
1.53051952442544323e-05
1.4632783271585702e-05
1.39876680697390185e-05
1.34095830405723696e-05
1.28885459062763579e-05
1.25918924921011416e-05
1.24918501520997527e-05
1.28054892705746829e-05
1.42263462958711314e-05
1.27083360131606102e-05
9.30806357768925717e-06
1.84142807716216983e-05
1.73396693443682763e-05
1.67259920767556763e-05
1.61317590292765671e-05
1.54847742475818386e-05
1.48200407198641926e-05
1.41763214887476829e-05
1.35480885418459163e-05
1.29693052347857406e-05
1.2439337394025225e-05
1.21267849524887915e-05
1.19617564382008105e-05
1.23160975494164599e-05
1.4212386678353149e-05
1.1913330646642889e-05
8.30374372940491682e-06
1.779229768230607e-05
1.67741869550284566e-05
1.61984007973314872e-05
1.56338333377701861e-05
1.50092711167197725e-05
1.43738584441999931e-05
1.37638632808973614e-05
1.31486257397740205e-05
1.25627102541747888e-05
1.20197122097608863e-05
1.16663260583778935e-05
1.14014813659193807e-05
1.17969397522394595e-05
1.42078219783743848e-05
1.11358279116739904e-05
7.6600545812880446e-06
1.72294952854034771e-05
1.62500761202936878e-05
1.57091448510877876e-05
1.51710975073304257e-05
1.45711650864124205e-05
1.39735931613307016e-05
1.34032917027700832e-05
1.27964557192742517e-05
1.22033631633389227e-05
1.16500836207968428e-05
1.1234296835526607e-05
1.08529805018336189e-05
1.13297942968391521e-05
1.416636948624458e-05
1.0529556243568203e-05
7.14201241026252886e-06
1.67158616945020903e-05
1.57637451710455907e-05
1.52571084905246167e-05
1.47465028302999035e-05
1.41803563922138462e-05
1.36321040459989242e-05
1.31061452374149524e-05
1.25049367961610934e-05
1.19154360306483892e-05
1.13646487274204543e-05
1.08802219378002038e-05
1.04070836817660018e-05
1.1063160953284174e-05
1.45995476141411232e-05
1.0360410700235904e-05
6.73450229958336815e-06
1.62446193710832459e-05
1.53206059472203336e-05
1.48514874823575887e-05
1.43749301629843066e-05
1.38561684461568668e-05
1.33686679531290443e-05
1.28900561218905586e-05
1.2297848258429653e-05
1.17351628661136469e-05
1.12107163479842601e-05
1.06777425555349959e-05
1.01831988697232088e-05
1.15414038260508341e-05
1.62271912373768718e-05
1.04430968213857932e-05
6.57317657633376631e-06
1.58199697037970597e-05
1.49414445444234009e-05
1.45177387361553813e-05
1.40856219618465931e-05
1.36275863288980008e-05
1.32114366540592335e-05
1.27828155799827172e-05
1.22140556144305382e-05
1.1717426859350326e-05
1.1276540560483567e-05
1.08205449935988405e-05
1.05871703927584886e-05
1.60428285574162295e-05
2.70911365544838108e-05
1.39269666151694713e-05
6.34748177701380925e-06
1.54735814029724604e-05
1.46772400579657952e-05
1.43130946372035218e-05
1.39401561972773501e-05
1.35575947111646839e-05
1.32250104693771924e-05
1.28544250827100366e-05
1.23465689553959259e-05
1.1977254986480441e-05
1.16889549431278697e-05
1.14070348717284341e-05
1.27983006422353298e-05
3.38984550048455953e-05
9.42099169891722903e-05
2.38104216687252094e-05
6.31838073052074116e-06
2.79400712284901303e-05
2.61895369913078717e-05
2.46571059211484709e-05
2.33025281447591326e-05
2.2113995062326607e-05
2.10296037811542357e-05
2.00241454919752655e-05
1.9093942099646496e-05
1.82579977067535801e-05
1.75252835741713663e-05
1.69223761073605961e-05
1.6480102245338435e-05
1.62310921520899691e-05
1.61827580097285414e-05
1.68723878386570542e-05
2.11107258154746335e-05
2.64971144201454679e-05
2.46423023700260262e-05
2.33819693401674449e-05
2.22731837639696665e-05
2.12482718099839584e-05
2.02572960577195786e-05
1.93229112326677612e-05
1.84597855899670888e-05
1.76975784262752205e-05
1.7039842644560818e-05
1.65164117266561959e-05
1.61717814123172933e-05
1.60342643615933556e-05
1.60784487389196165e-05
1.60795830917865276e-05
1.77838302973291434e-05
2.51408483286182357e-05
2.33092421130845925e-05
2.22321435910426477e-05
2.12477047336349283e-05
2.02988946065627262e-05
1.93795026979472696e-05
1.85124777797239957e-05
1.77126463387020749e-05
1.70196883021428114e-05
1.64341727585957646e-05
1.59972950901727285e-05
1.57726150288033145e-05
1.57769956777039777e-05
1.59707029595626955e-05
1.60849285504708075e-05
1.62111554086986403e-05
2.38884240014662704e-05
2.21574513156750087e-05
2.12041279052764198e-05
2.03194191810540202e-05
1.94410797126705149e-05
1.85833383423294323e-05
1.77735648078157117e-05
1.7027233431857853e-05
1.63912358698356627e-05
1.58622456375114891e-05
1.55010191251287331e-05
1.53828038542913854e-05
1.55157103460016919e-05
1.5903852894573038e-05
1.59690011679865067e-05
1.50003772030597116e-05
2.2742396917852874e-05
2.11410113570012597e-05
2.02786238612888833e-05
1.94729601503656127e-05
1.86560995083837808e-05
1.78513704148681498e-05
1.70895014979135312e-05
1.63871331316680949e-05
1.5796009327899519e-05
1.53093974446751242e-05
1.50137599538947607e-05
1.498478484839147e-05
1.52349436360321474e-05
1.5853821321565543e-05
1.57405794706180469e-05
1.38787311607542966e-05
2.16971881192862372e-05
2.02300651241882088e-05
1.94417985395224726e-05
1.87000088830742457e-05
1.79362932411258624e-05
1.71771876618880214e-05
1.64549230295765442e-05
1.57874872706632851e-05
1.52298155826765788e-05
1.47730983875127e-05
1.45314597654850239e-05
1.45715783054934483e-05
1.49365808986439477e-05
1.58067980456416253e-05
1.51546697772061863e-05
1.27807058766324863e-05
2.07451662667995655e-05
1.94064651639543795e-05
1.86819461938234092e-05
1.79927587933313769e-05
1.7274722811360215e-05
1.65547336774166184e-05
1.58647721841609659e-05
1.52239815102464895e-05
1.46891626532642496e-05
1.42511284043617448e-05
1.40502010198669452e-05
1.4136199457842129e-05
1.46045875632649229e-05
1.57898625270726978e-05
1.44952726054829845e-05
1.16665876365844611e-05
1.98793720998054939e-05
1.86580330704711424e-05
1.79892005155500665e-05
1.73440217467200951e-05
1.66652901163662541e-05
1.59787897547737562e-05
1.53151101422191756e-05
1.4693765625172173e-05
1.4172688559384439e-05
1.374414605613955e-05
1.35690207663820391e-05
1.36700730732438564e-05
1.42070176402723839e-05
1.55998700911441578e-05
1.38855252702333371e-05
1.05519801330243088e-05
1.90944744671947004e-05
1.79755801810224806e-05
1.73544899289673298e-05
1.67466894078148477e-05
1.61022862504047266e-05
1.54450706820745041e-05
1.48036762994744053e-05
1.41962532211960978e-05
1.36822575202919921e-05
1.32558682425509748e-05
1.30871734972718575e-05
1.3159854460381233e-05
1.37414376337342301e-05
1.51853284781120263e-05
1.30595237743391165e-05
9.61585819602324014e-06
1.83859731728461591e-05
1.73507342427213765e-05
1.67687739725341876e-05
1.61939139547741556e-05
1.55808447381945553e-05
1.49513041977670783e-05
1.43312212602247777e-05
1.37342419092601704e-05
1.32232459599158428e-05
1.27924746364955175e-05
1.2604698371553929e-05
1.26017815974833952e-05
1.32153504291863229e-05
1.47108789696050165e-05
1.21713415632023798e-05
8.62494461686097453e-06
1.77482547137591926e-05
1.67755271483645219e-05
1.62239460625241857e-05
1.56803772415035066e-05
1.50984374966260766e-05
1.44991752423024194e-05
1.39028548032238945e-05
1.33143116742266596e-05
1.28049965654741703e-05
1.23638223636788376e-05
1.21275822442050583e-05
1.20071323046089617e-05
1.26584186229424442e-05
1.43167913598209939e-05
1.12871449161398847e-05
7.89503521537285729e-06
1.71746161930790973e-05
1.62433025179347683e-05
1.57149468293897186e-05
1.52047518802622647e-05
1.46573023076548719e-05
1.40963968653704535e-05
1.3528275202630307e-05
1.29465267142014521e-05
1.24415508647705349e-05
1.19862928947126391e-05
1.16730136900875631e-05
1.14056662244757998e-05
1.21079819495993516e-05
1.41467736280302487e-05
1.05715568927936568e-05
7.34025646463214354e-06
1.66585797730619658e-05
1.5749764240381409e-05
1.52425859595885481e-05
1.47723081150488593e-05
1.42669922973057614e-05
1.37577089344978513e-05
1.32206168230125401e-05
1.26442272220335127e-05
1.2153209831221675e-05
1.16845934495366354e-05
1.12771996411092309e-05
1.08586795161395679e-05
1.16813340477343189e-05
1.40650787476776394e-05
1.01460475858209385e-05
6.87859412237910246e-06
1.61954869986297841e-05
1.53000012317614165e-05
1.48184163537875312e-05
1.43984094950291264e-05
1.3945773687458578e-05
1.35040212211174195e-05
1.29957647241321529e-05
1.24261867160795493e-05
1.1968948744297708e-05
1.14968665477559819e-05
1.10078811478388553e-05
1.05056227407570736e-05
1.19304716560883422e-05
1.52375158345913517e-05
1.025835644054686e-05
6.59643311823794016e-06
1.5787345344327472e-05
1.49135630359340102e-05
1.44678759665569067e-05
1.41088076861437521e-05
1.37202741238429951e-05
1.33601962342905654e-05
1.2874168713872653e-05
1.23229584757407073e-05
1.1933997034461093e-05
1.1503482389217433e-05
1.10653087644501173e-05
1.07581362654655548e-05
1.57215933002774145e-05
2.1895297823160044e-05
1.18897046024833155e-05
6.52882911658142567e-06
1.5462118343384624e-05
1.46374118888451125e-05
1.42458746860563083e-05
1.39573544288139553e-05
1.36461036128796366e-05
1.33786440620833947e-05
1.29156947845670449e-05
1.24192026481956018e-05
1.21553676065887101e-05
1.18377674507756796e-05
1.15653474207295382e-05
1.25004591589311902e-05
3.15475061909572952e-05
7.42801646687319246e-05
1.99311372519180789e-05
6.34638411828987681e-06
2.80393646485242025e-05
2.63010470246254396e-05
2.47905155476998489e-05
2.34629569749862543e-05
2.23068099713978068e-05
2.12614692772669466e-05
2.03038035614828825e-05
1.9432411782744726e-05
1.86694592440686365e-05
1.80280681729305415e-05
1.75388597203287855e-05
1.72462369665422144e-05
1.71907899036256153e-05
1.74107464458505522e-05
1.84222247746376276e-05
2.34807588706097627e-05
2.65902684872816638e-05
2.47449479553021786e-05
2.35063015781625703e-05
2.24236059888251245e-05
2.14299515037598002e-05
2.04771658515574571e-05
1.95895031748954486e-05
1.87837161973455492e-05
1.80938132484333794e-05
1.75262583925424171e-05
1.71171207292169701e-05
1.69290159233867649e-05
1.69876315617799329e-05
1.72866543236170038e-05
1.72802510621852496e-05
1.96241976577341035e-05
2.52290373160173197e-05
2.34063697210268304e-05
2.23488434209253248e-05
2.13893126764887534e-05
2.04711542655772354e-05
1.95891744017653089e-05
1.87678042780279984e-05
1.80242336182367981e-05
1.74032401781975098e-05
1.69072543882779962e-05
1.65889938919677274e-05
1.65289089511465666e-05
1.67464094422971532e-05
1.71955452735561324e-05
1.71497748244549607e-05
1.76115625658902051e-05
2.39738504070301301e-05
2.22501668771823459e-05
2.13130238825904759e-05
2.04518655809871871e-05
1.96037066313292172e-05
1.87825985088003755e-05
1.80171196402414331e-05
1.73254132870182567e-05
1.67596630548628054e-05
1.63180933857724548e-05
1.60777671145280433e-05
1.6129150990819573e-05
1.64855718264315043e-05
1.71541368040757467e-05
1.70441656335370659e-05
1.60932289889478765e-05
2.28281758953193455e-05
2.12305879015054065e-05
2.0379466520612891e-05
1.95959488178023869e-05
1.88091126179767073e-05
1.80403118889585108e-05
1.73210974436635802e-05
1.66710025272431786e-05
1.61469265211588105e-05
1.5744377532075833e-05
1.55699028997519292e-05
1.57112369068013519e-05
1.61951670663724143e-05
1.71067653447614656e-05
1.67502779871818514e-05
1.47205906583602922e-05
2.1787497576912378e-05
2.03177399469230619e-05
1.9533990513694436e-05
1.88132166065885456e-05
1.80799846301272972e-05
1.73563191644145064e-05
1.66747754772057145e-05
1.60563212372366845e-05
1.5560877665592919e-05
1.51837289060307164e-05
1.50608064193322406e-05
1.52666015848345184e-05
1.58748186483082318e-05
1.69321197232018858e-05
1.59264220361242347e-05
1.3440515436572308e-05
2.08453716061596293e-05
1.94930082340298668e-05
1.87643101924799769e-05
1.80958514663688868e-05
1.74098431029356873e-05
1.6725291262225052e-05
1.60737772374737935e-05
1.54773322271692009e-05
1.49978564386601289e-05
1.46336663347113478e-05
1.45455743476607453e-05
1.47878525005141062e-05
1.55065387026898208e-05
1.66459049149039764e-05
1.50778821014198567e-05
1.21453577755878761e-05
1.9996005781181621e-05
1.87430418160709848e-05
1.80598247841913917e-05
1.74368870654650387e-05
1.67936819984105822e-05
1.61435977942202711e-05
1.55154631739833926e-05
1.49314616083329667e-05
1.44558961905597286e-05
1.40946077587411175e-05
1.40224702188906401e-05
1.42658664621715578e-05
1.50464493335118076e-05
1.61504039029591635e-05
1.44290904709437099e-05
1.09050371272688426e-05
1.92350429883464925e-05
1.80565530916788794e-05
1.7410875806955134e-05
1.68302352988662506e-05
1.62283818872917795e-05
1.56099563174355014e-05
1.49992915979679262e-05
1.44176722783435062e-05
1.39356715279426884e-05
1.3570552716655563e-05
1.34905363942383503e-05
1.36870933104561343e-05
1.45161330291330851e-05
1.56246789616936013e-05
1.35916376558174922e-05
1.00345659477915699e-05
1.8558179549462396e-05
1.74223403080495558e-05
1.68086861633316341e-05
1.62717029592626961e-05
1.57138831207398936e-05
1.51260942738042516e-05
1.45268279897127996e-05
1.39367577715196915e-05
1.34417060046621322e-05
1.30693163048131112e-05
1.29501731252102733e-05
1.30502521806594863e-05
1.3907911982230337e-05
1.50175891029874817e-05
1.24847799914207673e-05
9.1773582583606374e-06
1.79575959036859449e-05
1.68304998533221447e-05
1.62471275932955199e-05
1.57605790853350309e-05
1.52541022277158419e-05
1.46965758879543922e-05
1.41013301385113646e-05
1.34921820799073519e-05
1.29843659071636347e-05
1.26035086220741313e-05
1.24081791172983864e-05
1.23714799776699384e-05
1.32817558513163902e-05
1.44868236315079917e-05
1.14898673883163776e-05
8.21872231680178766e-06
1.74209063497423409e-05
1.62765852931498817e-05
1.57251230555684708e-05
1.53022751477055062e-05
1.48565189797480973e-05
1.43280395432289689e-05
1.37276163725140594e-05
1.30921378529407979e-05
1.25819086701065933e-05
1.21932698932083072e-05
1.18876332948418756e-05
1.16915072838042426e-05
1.26631674206445922e-05
1.42201499469573244e-05
1.06602275973814334e-05
7.51425010009320839e-06
1.69356691969896614e-05