/*--------------------------------*- C++ -*----------------------------------*\
| =========                 |                                                 |
| \\      /  F ield         | OpenFOAM: The Open Source CFD Toolbox           |
|  \\    /   O peration     | Version:  2206                                  |
|   \\  /    A nd           | Website:  www.openfoam.com                      |
|    \\/     M anipulation  |                                                 |
\*---------------------------------------------------------------------------*/
FoamFile
{
    version     2.0;
    format      ascii;
    arch        "LSB;label=32;scalar=64";
    class       surfaceScalarField;
    location    "0.119999999999999996";
    object      alphaPhi0.water;
}
// * * * * * * * * * * * * * * * * * * * * * * * * * * * * * * * * * * * * * //

dimensions      [0 3 -1 0 0 0 0];

oriented        oriented;

internalField   nonuniform List<scalar> 
20856
(
4.78311449195639392e-13
6.67869761535511167e-13
-1.410949473950778e-12
1.09514676204925448e-13
2.5011677003971382e-13
9.19021062965471442e-14
-3.69846168009975259e-13
3.18591775913359272e-14
8.92621551923251973e-14
2.58320719144934682e-14
-8.75013603258467601e-14
9.32390365517583871e-15
2.78498268715083468e-14
6.55165874195197624e-15
-2.03022926900371758e-14
1.87611590194585534e-15
5.89727954488476826e-15
1.20384764576606407e-15
-4.37142026036321e-15
2.6719756952452871e-16
9.50757219759158398e-16
1.67837754986677265e-16
-6.7929837710694395e-16
3.14559094181420947e-17
1.30010967504514419e-16
1.98721877816184009e-17
-8.4656408390014922e-17
3.14732825017359782e-18
1.55044922828870924e-17
2.04260740028103862e-18
-9.03888228377401838e-18
2.65547302826721144e-19
1.6125372560945668e-18
1.82096811707542174e-19
-8.34742236860850299e-19
1.85558774041247644e-20
1.44970128638463668e-19
1.39831748088449342e-20
-6.63264068241488086e-20
1.04382373566186189e-21
1.10984854048846501e-20
9.14392181554369883e-22
-4.48388631274147477e-21
4.51789270211769962e-23
7.07040462485356561e-22
5.0003238464593785e-23
-2.53317396758278311e-22
1.39350567115767256e-24
3.61490500106119676e-23
2.21917895537845654e-24
-1.16103718997149633e-23
2.64204408329077527e-26
1.39659779356411022e-24
7.58059508494281896e-26
-4.09539573878673136e-25
4.28965793151036962e-28
3.63828085075422298e-26
1.79219558980108031e-27
-9.99354685483683579e-27
5.03476965189177867e-28
2.2890150377277093e-29
-1.42277933962225662e-28
2.03397260524568455e-13
3.31923781617808732e-13
1.30616408041089322e-13
-5.48363017370547409e-13
5.53967961464082219e-14
1.29120471319392192e-13
4.13958484285885671e-14
-1.4813314973997723e-13
1.71665957821783306e-14
4.93432892949684484e-14
1.206448433444265e-14
-3.7375698421137142e-14
4.36210630683331439e-15
1.33799181196978988e-14
2.80846260276845194e-15
-9.27307667119230903e-15
7.60289419313665257e-16
2.58773185554357487e-15
4.70892820902378513e-16
-1.80971569036803925e-15
1.06203152526924912e-16
4.1075116916397143e-16
6.51377345139380757e-17
-2.67607058061917615e-16
1.25897816765952524e-17
5.64708531795054842e-17
7.77988943169148442e-18
-3.33147964676062808e-17
1.27084746476654815e-18
6.79349669195992689e-18
8.07855280380106048e-19
-3.58622179683201108e-18
1.08125199737691446e-19
7.12724536094779989e-19
7.27358484596591648e-20
-3.34213619548655739e-19
7.61525811258109639e-21
6.46034095188873105e-20
5.63882648880109885e-21
-2.67931900819791926e-20
4.31589614911786793e-22
4.98432622427785177e-21
3.72140313484512517e-22
-1.82701782314205751e-21
1.88136968581299535e-23
3.19872160071230774e-22
2.05310343710371602e-23
-1.04085226194362724e-22
5.8427973786853167e-25
1.64686397351653016e-23
9.18901100069825563e-25
-4.80916801955690732e-24
1.11519506713444228e-26
6.40498448247220514e-25
3.164072631741282e-26
-1.70941225685679229e-25
1.55408405678305069e-28
1.67946292567370676e-26
7.53753361782394059e-28
-4.20191401383799584e-27
2.29907599986194583e-28
9.40218714490826522e-30
-5.82546546705721539e-29
8.50702353595650466e-14
1.69829290937843771e-13
5.53122910073553682e-14
-2.11760387474985026e-13
2.72390531506140692e-14
7.19388236687691366e-14
1.85405070867528569e-14
-5.85789676652154066e-14
8.25087107736764108e-15
2.46478731676983095e-14
5.33467361963584968e-15
-1.6244523892432216e-14
1.76561365571391995e-15
5.80901056222883734e-15
1.08715109340341823e-15
-3.93927390037496127e-15
2.93484876080969983e-16
1.0796739976492386e-15
1.76894091456180462e-16
-6.99000829046468391e-16
4.10319114550748562e-17
1.71259891764740878e-16
2.45682022790044087e-17
-1.01781694214370752e-16
4.90235088202545897e-18
2.37254280741035815e-17
2.96161001491922e-18
-1.27354814235390053e-17
4.9890416237266769e-19
2.87888671360474818e-18
3.10495387901984867e-19
-1.38244683293255018e-18
4.27793361003922612e-20
3.04545579384925763e-19
2.82198819610811753e-20
-1.29954196747605895e-19
3.03535813460680703e-21
2.78218499375050285e-20
2.20799099625780438e-21
-1.05075535719542488e-20
1.73246065768242256e-22
2.16247123175645838e-21
1.47033645542109356e-22
-7.22553670015143757e-22
7.60336891238149883e-24
1.39753262551832771e-22
8.18233665954637787e-24
-4.15023799851269517e-23
2.37675573792915348e-25
7.2432069280321953e-24
3.69231954788161035e-25
-1.93268655728106364e-24
4.56517564693532822e-27
2.83494168978820785e-25
1.2811877716220148e-26
-6.92054408347922957e-26
5.38361086074012801e-29
7.47962364535477863e-27
3.0740791094646851e-28
-1.71296283632366061e-27
1.01273370102201147e-28
3.8363921817995303e-30
-2.32619514716733019e-29
3.83665907456946007e-14
8.99635528899958965e-14
2.45718482508732341e-14
-8.1365493013576481e-14
1.27118033348343216e-14
3.72664144914490764e-14
8.20780510300906382e-15
-2.46844212184331056e-14
3.36477895616069957e-15
1.07681564033030254e-14
2.06925130456324323e-15
-7.06051506180116656e-15
6.67603689585397948e-16
2.3655852267734965e-15
3.98770571506701516e-16
-1.51141943617529834e-15
1.10001302477821249e-16
4.34769528328948744e-16
6.45998285703589413e-17
-2.5879438387100437e-16
1.54661847476797932e-17
6.93119369135292559e-17
9.03637757939254859e-18
-3.76538869577456746e-17
1.86186647001012637e-18
9.6800504782940347e-18
1.09908926983049102e-18
-4.74403199428385468e-18
1.90924995182071245e-19
1.18429260942008405e-18
1.16284208995895876e-19
-5.19190451365651309e-19
1.64922230707347932e-20
1.26273122412254977e-19
1.06649382964217472e-20
-4.92116739864953325e-20
1.1784576761589084e-21
1.16225846378130675e-20
8.41940974325439117e-22
-4.01190017318301581e-21
6.77138763302246428e-23
9.09811922795605453e-22
5.65558450631125415e-23
-2.78117764660700441e-22
2.99092053326959129e-24
5.91936641562734341e-23
3.17365677378427805e-24
-1.61005355122463959e-23
9.40747351739750318e-26
3.08747107295392515e-24
1.44348534687077967e-25
-7.55417609929372022e-25
1.81790649580626739e-27
1.21576278816253855e-25
5.04592871667301391e-27
-2.72412673918379477e-26
1.76730176691632657e-29
3.22666296684388896e-27
1.21913992752720528e-28
-6.78737764837435727e-28
4.33041848415223437e-29
1.52218228870240336e-30
-9.03287816184591483e-30
2.38632222292882754e-13
3.40836108864191299e-13
1.39707857692010413e-13
-5.45969228717892209e-13
1.10902880653046887e-13
1.93088959286656306e-13
6.31261082111418258e-14
-2.41288828317232205e-13
4.43135916591375569e-14
9.74567891505587607e-14
2.78776333299690754e-14
-9.27020744788732708e-14
1.6576952074149571e-14
4.66253863870952295e-14
1.04769723268800889e-14
-3.21148897005293461e-14
5.29187763234106775e-15
1.65722876486477147e-14
3.26348495314990644e-15
-1.02825043143498328e-14
1.25488194998392463e-15
4.32537455073809168e-15
7.47626132085705229e-16
-2.71498191622191817e-15
2.44072742328028066e-16
9.26287399095515737e-16
1.41827259640799932e-16
-5.4920321993486498e-16
4.02994813979983091e-17
1.70318323610714114e-16
2.30567232101002349e-17
-9.31295682131509665e-17
5.70198878544014381e-18
2.73373998754496458e-17
3.24974405790375961e-18
-1.36058462892285273e-17
6.91235919884241224e-19
3.84790968753807173e-18
3.98598468440292956e-19
-1.7264451623435648e-18
7.1382025608190856e-20
4.74408451845823036e-19
4.2535452480587859e-20
-1.9040881938907813e-19
6.2086929013592152e-21
5.09596855352309232e-20
3.93491169450409397e-21
-1.81904802350826649e-20
4.46620816847584606e-22
4.72399967916974595e-21
3.13317278837124021e-22
-1.49470866335457575e-21
2.58284154557824126e-23
3.72312113290018956e-22
2.12242291764433071e-23
-1.04433149529980709e-22
1.14793525375046843e-24
2.43799301258540256e-23
1.20069407470804873e-24
-6.09206723069427572e-24
3.63239735935038084e-26
1.27946419431494952e-24
5.50326015102710673e-26
-2.87920105564426457e-25
7.06071597277583409e-28
5.06789590786980285e-26
1.93763054805506058e-27
-1.04536567017244325e-26
5.80197376639737196e-30
1.35270695164132328e-27
4.71297333235407517e-29
-2.62121032747478976e-28
1.81797278756964418e-29
5.89892209568508285e-31
-3.43576264793549472e-30
8.92745238158848383e-14
1.43953107960073115e-13
5.33151791381163395e-14
-1.96163300963829503e-13
4.21016950809239859e-14
9.51940110871889335e-14
2.70698447734772543e-14
-8.95828935317598507e-14
1.81760298547820098e-14
5.03072502193867036e-14
1.1493165566639386e-14
-3.51639835797782457e-14
6.89510381433586556e-15
2.12654192046001904e-14
4.30079801677733158e-15
-1.26821111989618159e-14
1.9536393851930134e-15
6.56039343239961653e-15
1.16874892471685051e-15
-4.07735248314467826e-15
4.49889449166666864e-16
1.64348813397912223e-15
2.6053232106522096e-16
-9.75543062077940594e-16
8.72809766638007542e-17
3.49928341263518168e-16
4.93524451553747902e-17
-1.93332613250799403e-16
1.44743098383174954e-17
6.46556619711596832e-17
8.06649952581020574e-18
-3.27807653797703885e-17
2.06024641996804939e-18
1.04548200795573344e-17
1.14515019197723826e-18
-4.81486764342628419e-18
2.51351940749653308e-19
1.4829837747864335e-18
1.41554955542981591e-19
-6.15109253924313388e-19
2.61240895191513804e-20
1.84218596600264227e-19
1.52272154991417171e-20
-6.83301843237646298e-20
2.28683553033388414e-21
1.99324807551740162e-20
1.42017435889793109e-21
-6.57637913677779306e-21
1.65544988191608227e-22
1.8606972648642953e-21
1.14012148633829104e-22
-5.44475520582769848e-22
9.63300592742996363e-24
1.47630048208184853e-22
7.78624725619953934e-24
-3.83313410210117138e-23
4.30732256468394538e-25
9.72913374257939073e-24
4.43974088636926303e-25
-2.25274390847941665e-24
1.37102524675912907e-26
5.13721241698695897e-25
2.05024658897686311e-26
-1.07227196899854396e-25
2.68036783996679584e-28
2.04680532197840343e-26
7.26948682540011334e-28
-3.91905783054126518e-27
2.2137149574583173e-30
5.49407068315143031e-28
1.779583630915446e-29
-9.88735193628107083e-29
7.44303606484347157e-30
2.2472231477439639e-31
-1.29548707718601173e-30
7.82003888090172766e-14
5.87232594517543885e-14
-1.92943447931416326e-13
1.94237782535343069e-13
5.1762271001251209e-14
3.8079232586598332e-14
-1.12133945522374794e-13
1.39522341780929884e-13
3.14854649804779039e-14
2.20327485562450844e-14
-6.04760502379049268e-14
9.44280684863308063e-14
1.69252266541568392e-14
1.15064189850526359e-14
-3.03735001929399806e-14
5.66537473065740837e-14
7.25339047797247525e-15
4.64032610817114759e-15
-1.40784863174194683e-14
2.7199821701449804e-14
2.45360302377935699e-15
1.48561620504888745e-15
-5.01598983365481754e-15
1.00402569642788984e-14
6.72158229162516552e-16
3.90161937499414921e-16
-1.41476010219294272e-15
2.99001982623065501e-15
1.5384370706327541e-16
8.64938753398886404e-17
-3.28718544886242126e-16
7.44554141365062348e-16
2.99420986902277047e-17
1.64480648628851321e-17
-6.4895108361412613e-17
1.59050224684349289e-16
4.9943357107184235e-18
2.70672003278449133e-18
-1.10506736929580698e-17
2.95542471654533162e-17
7.15568332953979147e-19
3.87279534500270998e-19
-1.63404053042715571e-18
4.80752864269211567e-18
8.78938100632081747e-20
4.82700355324625396e-20
-2.10314897468022144e-19
6.8584179040348002e-19
9.19723093058289632e-21
5.23655146076605965e-21
-2.35445982345282061e-20
8.5652360239357895e-20
8.10485266200192202e-22
4.92578460682141834e-22
-2.28395501958365348e-21
9.31357085075217845e-21
5.90555276407140096e-23
3.98836777932562308e-23
-1.90603806616115157e-22
8.73396531929578942e-22
3.45842880367052914e-24
2.74681816223870936e-24
-1.35250544871497076e-23
6.9587251122077692e-23
1.55607811060824654e-25
1.57902253000431613e-25
-8.00992761081432904e-25
4.60367056938977981e-24
4.98304385230009844e-27
7.34780773093453158e-27
-3.84032638786669799e-26
2.43955090676398771e-25
9.79949927283253106e-29
2.62370176708101381e-28
-1.41301137074686985e-27
9.75208182706128167e-27
8.15871365829589688e-31
6.46385212609698003e-30
-3.58643502992565803e-29
2.62563649152298594e-28
8.2959279558511014e-32
-4.74046012951811386e-31
3.57082386952590189e-30
3.91668037402897043e-14
9.47054578274216618e-14
2.3094944702704315e-14
1.1799021073297846e-14
3.31503464024140566e-14
7.15164381767444958e-15
2.66116535441698274e-15
7.97757209099853027e-15
1.54273258131147815e-15
4.32457691727097605e-16
1.44098488899561944e-15
2.41458431105303651e-16
5.7715524067497874e-17
2.18462410461231504e-16
3.16588180670960284e-17
6.57233136192396101e-18
2.88624450798300298e-17
3.60408965649830364e-18
6.38144040520826657e-19
3.34206693346293573e-18
3.57511406432607955e-19
5.22609409133532114e-20
3.3770040519569692e-19
3.07944977372674896e-20
3.54479179737552898e-21
2.94942883263085841e-20
2.28655770864462199e-21
1.93555118068076883e-22
2.19335642574164354e-21
1.44670393352758145e-22
8.13098463548277287e-24
1.35708970519923578e-22
7.65812575893697186e-24
2.43370727872655649e-25
6.73727594729821363e-24
3.29117811862085657e-25
4.47695878626772435e-27
2.52673231746380562e-25
1.08893897178283112e-26
4.37334872979971303e-29
6.38970045574204031e-27
2.49433220984410665e-28
8.19298124355835885e-29
2.96987678248695577e-30
5.99914188553736324e-14
1.21734148024373265e-13
3.15800525069620095e-14
1.97345521378360244e-14
5.25151873697640424e-14
1.15010252261025632e-14
5.43273918241851437e-15
1.59928600336548755e-14
3.15828357471504359e-15
1.07636822677753229e-15
3.48579926728285864e-15
6.01050424950159864e-16
1.7040268868407179e-16
6.16067402291039369e-16
9.24936217138180923e-17
2.28738003450735635e-17
9.38139793254709128e-17
1.22356531920916827e-17
2.6291426665653599e-18
1.25103227052603636e-17
1.40872257718198404e-18
2.57613858316572872e-19
1.46251666038174116e-18
1.41276077268340823e-19
2.12799697134721647e-20
1.49123140379268777e-19
1.22965375463312451e-20
1.45524154036778455e-21
1.31357757270250174e-20
9.22228876115812936e-22
8.00820012793152872e-23
9.84783319863299254e-22
5.8914651605359883e-23
3.38939310462304054e-24
6.14017991738931233e-23
3.1476911534734554e-24
1.02183264991824986e-25
3.07070314697211965e-24
1.36479527699158731e-25
1.89298601985158728e-27
1.15971485479978812e-25
4.5537037523882918e-27
1.48270704774562838e-29
2.95274561212443502e-27
1.05138954162599026e-28
3.78626455095734422e-29
1.25389766784114166e-30
2.77128804902693359e-14
6.87479106960648064e-14
1.55231189390343647e-14
9.08679025444238917e-15
2.61003028251302618e-14
5.25039123001522372e-15
2.18610222897909148e-15
6.92927128814083042e-15
1.22553687142207281e-15
4.12379454539481647e-16
1.44168944959235363e-15
2.23226350896896143e-16
6.52187794088300047e-17
2.5405026619466181e-16
3.44378779447144544e-17
8.82430076672945577e-18
3.89852898278103355e-17
4.60162220214345405e-18
1.02318133599756525e-18
5.24752561165815191e-18
5.3543398835791644e-19
1.01108872151547179e-19
6.19066273404353521e-19
5.42508440770037102e-20
8.42007027393729034e-21
6.36680468557172838e-20
4.76908586082636245e-21
5.80296735313343766e-22
5.65428729229603094e-21
3.61154107192359499e-22
3.21720179829306559e-23
4.27198514760003591e-22
2.32897109565151119e-23
1.3714186953843669e-24
2.68329262499901453e-23
1.25566041146648624e-24
4.16313511101826341e-26
1.35134896553664056e-24
5.49153685378209706e-26
7.76351707194795411e-28
5.13788924016134296e-26
1.84715836340362455e-27
6.11850841452020336e-30
1.31649236991933576e-27
4.29665338173221575e-29
1.70381607468238204e-29
5.17636294175234367e-31
1.25514769834814167e-14
3.52654071482849148e-14
7.08216666398988281e-15
3.63555353585177319e-15
1.13480707361060789e-14
2.05312900780473783e-15
8.20411953078541217e-16
2.80138771203561688e-15
4.45407826616947397e-16
1.53217727392269943e-16
5.74724172235592005e-16
8.05206682711653529e-17
2.43614413484265164e-17
1.01723381709735945e-16
1.25135101705429441e-17
3.32235934604086661e-18
1.57428218009186069e-17
1.68831316332473175e-18
3.88383069067946963e-19
2.13797675086012445e-18
1.98400810592567628e-19
3.86877166668760547e-20
2.54403004865816263e-19
2.02995921323303997e-20
3.24684879040486568e-21
2.63806061760721459e-20
1.80171602534271669e-21
2.25432069374950639e-22
2.36134215750412521e-21
1.37728980049097192e-22
1.25868314501069467e-23
1.79744268321008482e-22
8.96311739581540772e-24
5.40202011111375449e-25
1.13700305011398874e-23
4.87497487677276249e-25
1.65064722062762375e-26
5.76463652889270309e-25
2.14983322856959682e-26
3.0977125686957092e-28
2.20581154088531852e-26
7.28782359619615578e-28
2.4560708428502507e-30
5.68677857478537358e-28
1.70736227742989514e-29
7.40146611386333204e-30
2.07825128317758682e-31
6.48727100437180499e-14
1.24314484282886559e-13
3.49571242481730632e-14
3.21263010385009383e-14
7.69924928366983027e-14
1.80562399072014285e-14
1.41658655587175401e-14
4.03056510475655874e-14
8.12272251618702811e-15
4.96075252500588523e-15
1.54184186651282329e-14
2.8442154504137413e-15
1.34347907073262406e-15
4.52362988793594359e-15
7.35732893829652171e-16
2.97547384162005732e-16
1.08716515111652114e-15
1.56628686665993554e-16
5.56588137432371623e-17
2.22903481646054025e-16
2.84060184892520898e-17
8.9063177451675509e-18
3.97188100995187966e-17
4.44968476386841857e-18
1.22359760592483023e-18
6.19796097758972918e-18
6.05754638934801478e-19
1.44118330589646375e-19
8.4875126163197387e-19
7.18425035885343166e-20
1.44636674542209667e-20
1.01813176211841916e-19
7.41877881929879362e-21
1.22278185269510207e-21
1.06403494100407093e-20
6.64544546502720316e-22
8.55034640536138132e-23
9.59608636543671313e-22
5.12641640717064883e-23
4.80670093915753328e-24
7.35711454741839615e-23
3.36596343514998895e-24
2.0765181183521613e-25
4.68570940848075118e-24
1.84644360889190735e-25
6.38534112861727511e-27
2.39112337884811598e-25
8.2087792363614381e-27
1.20570084963502896e-28
9.20637850982056508e-27
2.80376537137772947e-28
9.61880767892506613e-31
2.38762841015048573e-28
6.61405420491935683e-30
3.12489798640400982e-30
8.12917572827674803e-32
2.54450201665993723e-14
6.72987367993501061e-14
1.56678232323557281e-14
1.33234239122586941e-14
3.91444067279580789e-14
7.97268537286524125e-15
5.55900059846350928e-15
1.74507108289379129e-14
3.28661811287254163e-15
1.8106789905439581e-15
6.03463675514183125e-15
1.00871221748231036e-15
4.78173381747623636e-16
1.70437640668220067e-15
2.53752189795156717e-16
1.05600470422686693e-16
4.06924913860846856e-16
5.39218137913252764e-17
1.98356059363112774e-17
8.37984166635498058e-17
9.83215386797435619e-18
3.19341121147884096e-18
1.50441981381819944e-17
1.55170439391025774e-18
4.41676057854711924e-19
2.36676960353569334e-18
2.12979583838990078e-19
5.23816159379877326e-20
3.26738686739655232e-19
2.54752105233329688e-20
5.29356786344428336e-21
3.95046378125995147e-20
2.65353440296200031e-21
4.50616647359515695e-22
4.16029132496908125e-21
2.39777616024329779e-22
3.17232785636580198e-23
3.77982257545020081e-22
1.86595960474398879e-23
1.79516012807975293e-24
2.91851336144422597e-23
1.23582740462748335e-24
7.8049002060053936e-26
1.87140048997657855e-24
6.83626470848665385e-26
2.41491001234916064e-27
9.61159810297628263e-26
3.06329221452758281e-27
4.58722922976157512e-29
3.72354105393498496e-27
1.0539479646931389e-28
3.67878435441406828e-31
9.71399118955243316e-29
2.50288964047891438e-30
1.27834127044543846e-30
3.09389300058036033e-32
2.32568990487775006e-14
1.8981402296308934e-14
9.13313713124135056e-14
1.66990895937457788e-14
1.23612509036438267e-14
6.30775477711047579e-14
1.01168343357994979e-14
6.94646871918781926e-15
3.8947228114184386e-14
4.9851438830478553e-15
3.09848714206498158e-15
1.97801883445116497e-14
1.9537853620617209e-15
1.11947306420754886e-15
8.14012987382905592e-15
6.18820303946552987e-16
3.33328107347216803e-16
2.7376992308280054e-15
1.62372794435379466e-16
8.3401122549896344e-17
7.6873843986756389e-16
3.59514203493165396e-17
1.77855366589787158e-17
1.84021303133167711e-16
6.79101446917937792e-18
3.26483184663281857e-18
3.80980112075864186e-17
1.10065612226658145e-18
5.19386624734397781e-19
6.88051287099090119e-18
1.53318607867816698e-19
7.19044645009918592e-20
1.08885378949942579e-18
1.83157085896356205e-20
8.67755270936245e-21
1.51168722187281605e-19
1.8643953853952993e-21
9.12055783917346089e-22
1.83747387643881544e-20
1.59843398356990013e-22
8.31672898301372569e-23
1.94476395134176655e-21
1.13316808292921569e-23
6.53127196685921988e-24
1.77515610921333014e-22
6.45599571385208047e-25
4.36462134380443333e-25
1.3765721752886138e-23
2.82533933442471662e-26
2.43523967990930068e-26
8.86208497292796854e-25
8.79689097974761615e-28
1.09996947163550847e-27
4.56846514473470062e-26
1.68118384963233085e-29
3.81198975898449571e-29
1.7758904568966987e-27
1.35945730079245343e-31
9.1119558759795316e-31
4.64753375306936508e-29
1.13430358680464361e-32
6.14062551193645212e-31
1.16901185172674357e-14
3.10456945285807396e-14
5.79171224199071809e-15
2.84943788660381378e-15
8.24562807627868534e-15
1.42312205284395417e-15
5.20812429260351623e-16
1.65673961804935509e-15
2.49641187604347102e-16
7.84613695737713007e-17
2.78332590194877196e-16
3.63028089508923649e-17
1.01023213489496936e-17
4.0656113634899032e-17
4.57160596839560186e-18
1.11585984100500371e-18
5.21282712573180615e-18
5.0224888529419612e-19
1.05160241387149979e-19
5.86403107390750792e-19
4.8136118516729179e-20
8.36072598601349008e-21
5.75647894260982632e-20
4.00932021184463011e-21
5.50612322526043603e-22
4.88411053066501215e-21
2.88091178851239821e-22
2.91909023560121691e-23
3.52817117842342526e-22
1.76512679211988359e-23
1.19046016774537585e-24
2.12019436140771239e-23
9.05329848816331023e-25
3.45831342250098516e-26
1.02205135392640056e-24
3.77124591037195133e-26
6.17278956357071485e-28
3.72083255672087398e-26
1.20966478465774522e-27
4.65828587202413431e-30
9.13117077270992411e-28
2.68614599020936297e-29
1.13282277038684941e-29
3.10379680006893136e-31
1.74539672022419739e-14
4.46597906338377931e-14
8.33706340423055455e-15
5.12803455291731156e-15
1.4707250934690036e-14
2.57309911991550205e-15
1.13664414193826882e-15
3.56264795312543771e-15
5.50543764224754421e-16
2.03289475333730211e-16
7.00584734564797244e-16
9.44405469525295578e-17
3.08114196939803863e-17
1.18225840085733092e-16
1.38565858618947698e-17
4.00617317509520791e-18
1.74405341833557669e-17
1.76625882394825893e-18
4.46843429756503974e-19
2.259423631730191e-18
1.96364063499629107e-19
4.25055303339353566e-20
2.56687014400750138e-19
1.9034427225948999e-20
3.40948813728929825e-21
2.54334810019519466e-20
1.60266257457512525e-21
2.26442827608248223e-22
2.17703160009971528e-21
1.16362461455840769e-22
1.21022629647007407e-23
1.58588778591500936e-22
7.20114382305932707e-24
4.97399353725209337e-25
9.60655864024053967e-24
3.72908866969027642e-25
1.45583249360712966e-26
4.66631045518512365e-25
1.56768787431084329e-26
2.61751139838450514e-28
1.71123188960817814e-26
5.07232337762396005e-28
1.98902370025940463e-30
4.22912549253241542e-28
1.13550495710850955e-29
5.28063669034375173e-30
1.32746878520172292e-31
7.5071278490200381e-15
2.13978977301429452e-14
3.79943163537458507e-15
2.01700135974339695e-15
6.27235617741180094e-15
9.90193125026677356e-16
4.30986940548044584e-16
1.45733966392694997e-15
2.02047378991016559e-16
7.71044408323316276e-17
2.85838929270799138e-16
3.47288735059007905e-17
1.17836549340195248e-17
4.86220881544028629e-17
5.14969536292165841e-18
1.54639908403529998e-18
7.24417417654294517e-18
6.63938208386510844e-19
1.74060543149222033e-19
9.47754425892535466e-19
7.46397303788624666e-20
1.6703257930699246e-20
1.08684306128138154e-19
7.31319801922762452e-21
1.35114260936577906e-21
1.0865008531719295e-20
6.22187075767272332e-22
9.04632696330599613e-23
9.37919517320084605e-22
4.56335826429042477e-23
4.8723552964020889e-24
6.88768806814576555e-23
2.85192682584069098e-24
2.0174854254147789e-25
4.20435801132035444e-24
1.49085961616736235e-25
5.94747802932795477e-27
2.05721893099490573e-25
6.32377492454933715e-27
1.07670824707077659e-28
7.59713844071756111e-27
2.06327650179781574e-28
8.23456128990215252e-31
1.89014077654447839e-28
4.65482546638318121e-30
2.37438212118260968e-30
5.47941051464027328e-32
2.90939011835942462e-15
9.06918797893177399e-15
1.45772789088277017e-15
7.47723227764339066e-16
2.50462056744118209e-15
3.55472499064802961e-16
1.58730201498434196e-16
5.7506884675983854e-16
7.20165075286399871e-17
2.85601367058974365e-17
1.13311786097310977e-16
1.24730589922964145e-17
4.40079233861647798e-18
1.94442476385680688e-17
1.86841940148665045e-18
5.82520996366849231e-19
2.92442553019705724e-18
2.43441744767367773e-19
6.61314005748980859e-20
3.8615047652550104e-19
2.76556237147974227e-20
6.39944444503415268e-21
4.46775176218183302e-20
2.73772508791058988e-21
5.21853660291773086e-22
4.50469788526539356e-21
2.35279969294981317e-22
3.52104970738205016e-23
3.92062229026059885e-22
1.74271363391227356e-23
1.91046998401259928e-24
2.90161580490901723e-23
1.09956430041130957e-24
7.96686282502025207e-26
1.78429167436325305e-24
5.80073307835967701e-26
2.36473184155070918e-27
8.79201793827148487e-26
2.48182945836315133e-27
4.30937156220099445e-29
3.26862990694694889e-27
8.16315639651952766e-29
3.31647828176409744e-31
8.18457655644051538e-29
1.85541026264965527e-30
1.03421890427057085e-30
2.19861666556035922e-32
1.68049931912850737e-14
4.83206249151759047e-14
9.28571079317817053e-15
8.62427108471537171e-15
2.62037986149167182e-14
4.71973857988988203e-15
3.40723743080424546e-15
1.08431239263841884e-14
1.76718204785831707e-15
1.05994884026183833e-15
3.55849192137459054e-15
5.14751178098584418e-16
2.68932607790100677e-16
9.62450582291133479e-16
1.23590481300301656e-16
5.72150057752940092e-17
2.20981169151756683e-16
2.51282903301810083e-17
1.03614349392351377e-17
4.38363067622542494e-17
4.38767937207154265e-18
1.60874763548023958e-18
7.58644886846207312e-18
6.63411479892989048e-19
2.14636324738356777e-19
1.15103447840919787e-18
8.72800945226995738e-20
2.45616713675343697e-20
1.53299063029594633e-19
1.00129003345997235e-20
2.39561490938014651e-21
1.78859175029549295e-20
1.00095668786689447e-21
1.96864546957972529e-22
1.81812824172116484e-21
8.68615026755517892e-23
1.3381918394439642e-23
1.59487100629736384e-22
6.49566130103410549e-24
7.31278486915794996e-25
1.18924257779178092e-23
4.13676973449599688e-25
3.07045309821965483e-26
7.36536887219272555e-25
2.20188599503298343e-26
9.17406777111903161e-28
3.65395180840744519e-26
9.50012705651739686e-28
1.68255592371248327e-29
1.36725641429385413e-27
3.14921970042863929e-29
1.30321773337784626e-31
3.44485154270204713e-29
7.20949914847024961e-31
4.37829125052836539e-31
8.59931708752597783e-33
6.74955003844213085e-15
2.25689814532337435e-14
4.09738201863930089e-15
3.23896596581277028e-15
1.07377881910504937e-14
1.77609577387521903e-15
1.22562513641918645e-15
4.15500865011322273e-15
6.15272803397100831e-16
3.74483411797796007e-16
1.32725966412413233e-15
1.75631049637805943e-16
9.48052528569187589e-17
3.57209436493229575e-16
4.21304447945546865e-17
2.02496407923507082e-17
8.23610380458919996e-17
8.611567494341893e-18
3.68939895021171833e-18
1.64588654228408756e-17
1.51496796438428045e-18
5.76768563113302301e-19
2.8721518739307786e-18
2.30998203801339748e-19
7.7508783949982562e-20
4.39468762670400935e-19
3.0662221373925643e-20
8.93514703151773994e-21
5.90212932081080959e-20
3.54984620325478352e-21
8.77936637903162051e-22
6.9428761592977195e-21
3.58153841580745138e-22
7.2674496046785831e-23
7.11421337610247574e-22
3.13695338548028366e-23
4.97545287865382825e-24
6.28917590849034593e-23
2.36768457231499019e-24
2.73780028824958372e-25
4.72465292572829103e-24
1.5216438779648033e-25
1.15722258608878642e-26
2.94696733560601824e-25
8.17037468692498901e-27
3.47984544311665219e-28
1.47187752507449075e-26
3.55413761288833019e-28
6.42164259251265965e-30
5.54289623090598889e-28
1.18708459560644734e-29
5.00075707520291891e-32
1.4051074233018142e-29
2.73635845150896517e-31
1.79599000982554881e-31
3.28326695185799876e-33
5.99160521968087462e-15
5.14423612038204776e-15
3.14165599875813425e-14
4.2401135378504443e-15
2.95715828939003857e-15
1.96817779308792751e-14
2.44119575028507489e-15
1.45000534447746694e-15
1.0738692734491044e-14
1.12397493887169905e-15
5.92628119000219946e-16
4.92439399700141861e-15
4.1634208836597097e-16
2.0124100222150164e-16
1.87474966263905133e-15
1.2645281676221165e-16
5.72226236872604544e-17
5.96594593922186995e-16
3.20716448137983281e-17
1.37693604038546422e-17
1.60926323569518441e-16
6.88563568372235157e-18
2.83214796544862401e-18
3.72821788300290277e-17
1.26280711829007907e-18
5.02162617377684814e-19
7.49270682645843231e-18
1.9885267359992509e-19
7.72388575132046529e-20
1.31518262132191268e-18
2.69259498324230544e-20
1.03473004239387176e-20
2.02396213607966088e-19
3.12795720408684647e-21
1.20929350098122808e-21
2.73330103537611622e-20
3.09706796662562181e-22
1.23179121279681949e-22
3.23233427058716441e-21
2.58314232563739837e-23
1.08929750916890982e-23
3.32879384660966213e-22
1.78154310247050477e-24
8.30095055195197171e-25
2.95672100183372859e-23
9.87307897752002369e-26
5.38519884022239803e-26
2.23104129669206545e-24
4.2016384538033392e-27
2.91757134574743143e-27
1.39732596437941876e-25
1.27162398270900628e-28
1.27967676288967117e-28
7.00560772436553689e-27
2.36120771370198165e-30
4.30598438615196217e-30
2.64747063595164937e-28
1.85443861924550773e-32
9.99243249681588234e-32
6.73284982777699257e-30
1.20771597480573897e-33
8.6419490641616869e-32
8.58346253770481983e-15
2.24331756357978592e-14
3.43688743235679708e-15
2.26709449952303804e-15
6.4368361214030607e-15
9.21858790329054962e-16
4.6407867684199838e-16
1.43201921605308818e-15