/*--------------------------------*- C++ -*----------------------------------*\
| =========                 |                                                 |
| \\      /  F ield         | OpenFOAM: The Open Source CFD Toolbox           |
|  \\    /   O peration     | Version:  2206                                  |
|   \\  /    A nd           | Website:  www.openfoam.com                      |
|    \\/     M anipulation  |                                                 |
\*---------------------------------------------------------------------------*/
FoamFile
{
    version     2.0;
    format      ascii;
    arch        "LSB;label=32;scalar=64";
    class       volScalarField;
    location    "0.119999999999999996";
    object      p_rgh;
}
// * * * * * * * * * * * * * * * * * * * * * * * * * * * * * * * * * * * * * //

dimensions      [1 -1 -2 0 0 0 0];

internalField   nonuniform List<scalar> 
7340
(
0.514847864437834146
0.512059565845509046
0.503299012943610791
0.491213264908762104
0.477659411241460108
0.463870385031646515
0.450612476938631878
0.438333807128362285
0.427283150355561858
0.417585312873748782
0.4092894383684752
0.402405091658443959
0.396926162060899257
0.392840602228746949
0.390133367840777567
0.388792764925435297
0.487500763701059048
0.488257192995714129
0.482943262598811596
0.473943368494492867
0.463024655877097568
0.451419264863344161
0.439936313258016687
0.429085798336047597
0.419176796642947713
0.410383563934989093
0.402795264122388363
0.396454907477508278
0.391383242549822652
0.387587942061884405
0.385067512984773319
0.383818458361779857
0.461489705115261661
0.465208612320365977
0.462886033494609495
0.456656614071642153
0.44817210643641886
0.438630654331811531
0.42885861367310385
0.419407261557894651
0.410630593794033882
0.402743390035750604
0.395870120181222751
0.390084034299433891
0.385430249561924232
0.38193441743365103
0.37960724282984698
0.378452828121795037
0.436827332963900028
0.443003654609439135
0.443259148518560298
0.43949534393693851
0.433234246817597368
0.425620530835145061
0.417477883622796808
0.40938004219405677
0.401712115326225361
0.394721162011790749
0.388561888466061711
0.383333905974184763
0.379103565846724777
0.375912324939240261
0.373781742381076476
0.372723097350083521
0.335641371712746717
0.372298788922340862
0.39767288616206331
0.41349820688654032
0.421697730593763642
0.424160931162023414
0.422573208682198553
0.418323899492211437
0.412492799680328703
0.405884974506683094
0.399081420568268674
0.392486912628466023
0.38637294517043913
0.380918946377576506
0.376246615607992441
0.372440200416908507
0.369554725392208017
0.367621373523813966
0.366657758507774045
0.312854360746120719
0.348758474267135687
0.37448883009393924
0.391472150142337272
0.401320047719377071
0.405658869196165006
0.405976827784938377
0.403533380416996268
0.399336431168205719
0.394160536769771919
0.388581980480030398
0.383015535029037291
0.377750201876938474
0.372985093795328682
0.368859849343131374
0.365473191153507682
0.362891360415911912
0.361153951969425402
0.360283833080576266
0.191128215384512801
0.246793593127780236
0.291935019453128275
0.327003471272637847
0.352864793723257575
0.370701687046658734
0.381879363607033284
0.387801094973583615
0.389776866613746109
0.388942563022753429
0.386231313592345527
0.382379207549011058
0.377948670095515471
0.373356613809210758
0.368903669996806571
0.364804076112874687
0.361211496504180885
0.358235899970212657
0.355952457623778917
0.354407500484760329
0.353619484379210203
0.470093447297208755
0.467294359514667523
0.4607863072132386
0.452216228760871919
0.442737623659729351
0.433122722611332112
0.423871859174720422
0.415301935253068633
0.407607498460829998
0.400904248222487158
0.395261084965069009
0.390720556713265055
0.387307689891267348
0.385033915695886353
0.383904694485837417
0.444161158165150505
0.45001612668877522
0.449871060022472125
0.445774041549955646
0.43929471550178395
0.431576876706222079
0.42341677652826043
0.41535453946569495
0.407747923165125814
0.400826157007948491
0.39473382748272362
0.38956474156267018
0.385381963108248349
0.382225747612936428
0.380118042444445414
0.379070486467302514
0.422232503790050562
0.430358920889435947
0.432539451288173171
0.430626249560973173
0.426094135819892528
0.420052951223023552
0.413303783752888843
0.406411214638923657
0.399762752848936032
0.393616391012787448
0.388142652544287647
0.383457783390679374
0.379642998716374525
0.376752050931282056
0.374816189829754898
0.373852876462809458
0.401217619027375794
0.411236358794062284
0.415432861356222982
0.415476123153506849
0.412734983636701469
0.408269636860639273
0.40287094862129269
0.397114238091873184
0.391406910326253521
0.386029751484668782
0.381175284158465577
0.376978969171020917
0.373537553922346444
0.370916550234678899
0.369155469151956739
0.3682773664204535
0.295989670234373448
0.334399392536794238
0.362273220178984057
0.381152142110968151
0.392726744129058003
0.398654818662271981
0.400433787448295997
0.399322027791625123
0.39632109942550714
0.392199918095299582
0.387533466941149596
0.382740488093884723
0.378118327831547529
0.373876988313671832
0.370167744919860764
0.367100341969301414
0.364750381116604905
0.363164664226580058
0.362371087679422332
0.276664962560611793
0.314300938413926645
0.34233209162118089
0.362047197519363539
0.374881309613428026
0.382282043582916842
0.385586357230617516
0.385943112056157611
0.384289930504367439
0.381364937638326962
0.377733889406457968
0.373819412169313636
0.369929825253859978
0.366288538934507746
0.363059408622972091
0.360362560369392793
0.358281858699399547
0.356870410304775065
0.35615994792118133
0.156012893198361063
0.212460724802778833
0.258835234615938548
0.295605208374489115
0.323597581370185683
0.343897024096970594
0.357734666368932308
0.366375372405850386
0.37100812507190295
0.372676640477060284
0.37225220775165252
0.370436137249745889
0.367778027841679511
0.364698250104332544
0.361511401498313623
0.35845069365317056
0.355689509836308759
0.353355804423961029
0.351539830825089328
0.350299533477153813
0.349661025403894821
0.432121993012275496
0.434586173662697473
0.433029103438223262
0.428910489599786671
0.423305469922255817
0.416982823439963901
0.410483112661049809
0.404178487021531918
0.398321559950296888
0.393084992547986067
0.388588806916980944
0.384917216089105618
0.38212737431484689
0.380254804935926893
0.379321291243189973
0.404940126002033107
0.415292623609640921
0.419731577644102183
0.420007199435773915
0.417511089514025435
0.413300504767807331
0.40815304397551605
0.402630293080091517
0.397129199366654084
0.391925575074439703
0.387212107550297391
0.383126383927200442
0.37976745982943716
0.37720371404010028
0.375478391452848947
0.374617542336942888
0.386601437714190865
0.398621904132132998
0.404808280585419289
0.406760008931977335
0.405788299022746601
0.402915745859195762
0.398914536645320728
0.394356769451976952
0.389657209144231298
0.385111095640150225
0.380928882718058748
0.377263474858042847
0.37422664710540765
0.371896604040523659
0.370323459383973042
0.369537421208543215
0.368818849021663009
0.382233359440123932
0.389944839291942569
0.393409038400036937
0.393849250892273406
0.3922420836993466
0.389343363152116428
0.385726496174486511
0.381817266799757526
0.377925668212816424
0.374276666491221432
0.371035991484048977
0.368326210075017202
0.366234052495586992
0.36481565894631085
0.364105267326222837
0.260455484950370131
0.300173321210651767
0.330132312379460446
0.351662074768292754
0.366219876866214877
0.375245214569969787
0.380057662478256564
0.381789188633155696
0.381363680294256768
0.379512541478068843
0.376802820263268834
0.373664665076235969
0.370417591990123141
0.36729753454639219
0.364480706776302343
0.362098741141132108
0.360245597552506736
0.358982548693696946
0.35834713098224541
0.244209666933804054
0.283149486309378418
0.313093281602375373
0.335173768917023662
0.350647970130266995
0.360789991178769032
0.366790544312350197
0.369690330604015183
0.370356639539910659
0.369490326863306295
0.367645536406649986
0.365250835421770059
0.362630763177531845
0.360029209793781946
0.357630626052272249
0.355573764756543564
0.353958279774881313
0.352849674940682589
0.352287859385825686
0.125354363933454255
0.181995380485637293
0.229122184292354758
0.26718794183763217
0.296950693751930783
0.3193801563607222
0.335570054237334325
0.346647743064001923
0.353683175935980254
0.357628587574029433
0.359292989317108014
0.359342370038110426
0.358312726387986946
0.356626222319844866
0.354608799592844415
0.352509673765223186
0.35051926972887465
0.34878138885593446
0.347399741249175886
0.346442746969331972
0.345943492443683165
0.386603967458014619
0.399340159864590927
0.406216423354457179
0.408841829557226089
0.408511893927238412
0.406227024649289836
0.402745548001871179
0.398635075496909241
0.39430809781641607
0.390061983110421728
0.386115505212563714
0.382631233846577878
0.37972835917918546
0.377490969927920084
0.375974860758660157
0.375215683390787813
0.371079823516911378
0.385195131639475663
0.393500630182529842
0.397492024607279837
0.398403402820171948
0.397211387024704154
0.394671591163979818
0.391358656065537602
0.387698552852774492
0.384003478636663342
0.380504809004803823
0.377376036499656065
0.374746249255826391
0.372707663823586166
0.371321796247245262
0.37062711667405035
0.355725311676988898
0.371019793158003264
0.380602394325525673
0.3858544796098895
0.387941715958206812
0.387805921299252898
0.386189658284039172
0.383667781462986412
0.380675313818716776
0.377536516933259902
0.374493580930332304
0.37172926750388674
0.369381023054243363
0.367548099196850997
0.366296958735315425
0.365668807609580093
0.340657336873179284
0.356936796255779842
0.367640404678049593
0.374037607429707042
0.377221020982001998
0.37808999260961873
0.377366394421425055
0.375619340050443173
0.373287960777495265
0.370704678170039881
0.368119990110274853
0.36572433909513169
0.363662255031977355
0.362038934425171988
0.360924931488383394
0.360364063350525954
0.229903806343212141
0.270584015752177331
0.302226213335270277
0.325963888145061442
0.343044168001639671
0.354714491514347974
0.362136358783417767
0.366327055058381257
0.368138735349631596
0.368267320283998834
0.367270864008666154
0.365587182372151265
0.36355248987099531
0.361423083582412541
0.359395724944006512
0.357620852164280911
0.356208429391368042
0.355232187367604813
0.354737884262228742
0.216272637595534389
0.256173990091300818
0.287657310217566298
0.311706366893152065
0.329416320845783761
0.341905137161422568
0.350231180635337647
0.355336107614055707
0.358022140432844083
0.358955134269148435
0.358677204660967086
0.357620078999680457
0.356120298341202957
0.354437939248587075
0.352774586031099513
0.351285015280458413
0.350082541480406684
0.349243257330354662
0.34881409524974033
0.0994759091971010451
0.155967285241830206
0.203515444858136801
0.242543908146848758
0.273730313131196501
0.297932158263346347
0.316116525393854153
0.329284561017455624
0.33839676473054453
0.344320862081395118
0.347808039391364565
0.34949104073281978
0.349892105135263254
0.349433204078051951
0.348448577943045068
0.347200233444020623
0.345892810036499854
0.344683602905085595
0.343687815435929078
0.342982801712716667
0.342607773071642641
0.356388724565674941
0.372546995376169143
0.382917672140079768
0.388884284372943478
0.391606858548739833
0.392017244399143927
0.390858648834284339
0.388713623043055512
0.386021286613716041
0.383111688242980919
0.380239329209901222
0.377600362735462158
0.375341481854808201
0.373567823372489116
0.372351292993804983
0.371738869527849847
0.34339997692686286
0.360497581006190115
0.371887510677011701
0.378865573722848181
0.3825355462404606
0.383803298475392518
0.383401567776674501
0.381910485135768141
0.37977509035525997
0.377333960621692832
0.374848028624055807
0.372519005586513796
0.370499894504299432
0.368901958430916554
0.367801384212289639
0.367246633185675908
0.330389654164114588
0.348292482092250444
0.36060022256321661
0.368518760114639021
0.373092843331420954
0.375194864952345886
0.375539466799424959
0.374699877110207691
0.373123959594751808
0.371156698220456549
0.369064353435054504
0.36705330298859401
0.36528176281902186
0.363866023514639925
0.362885650604013399
0.362390563051727232
0.317476184947592166
0.336047304668780467
0.349163004644901798
0.357939976220365719
0.363361787912586831
0.366261824583227313
0.367331268663853572
0.367132608654474224
0.366112738030828389
0.36461982690229322
0.362923766234428513
0.361234773210591109
0.359715348090990261
0.358485674720815661
0.357627770561565195
0.3571929858646819
0.204949224798865681
0.246321327604427737
0.27926742522063297
0.304754521739025952
0.323858665541760571
0.337669063827483296
0.347215781114768918
0.353419646546090371
0.357071595189905444
0.358836033686651568
0.359260992494393638
0.358787903424518162
0.357764566037943932
0.356462872633552363
0.355096171110751202
0.353830303256027157
0.352788144254225777
0.352053272087108793
0.351677959290224773
0.193420269230960423
0.234011903369789387
0.266684852347350398
0.292295000041925768
0.311802957719573171
0.326196307459248824
0.336421780813616011
0.34333701945323486
0.347688580768615307
0.350111386393855528
0.351135388413012395
0.351192769541300853
0.350628354734839554
0.349714718540335145
0.348667259253484074
0.347653747925672107
0.346798417888188826
0.346185756695508051
0.345868407442037118
0.0785910705258419662
0.134781963653742398
0.1825415142610671
0.222263803424356393
0.254549152418798219
0.28015749362216058
0.299949026053218937
0.314817705000518477
0.325630506035572087
0.333182940990873422
0.338176436572119488
0.341214341161465651
0.342805668513665174
0.34337063580316568
0.343249189504099717
0.342713199159629056
0.341978593573713963
0.341213418319290362
0.340542014866190068
0.340048944672422526
0.339778609112316721
0.333546609832752416
0.352209002271540006
0.365154973903674351
0.373606018499558934
0.3786158020411865
0.381059483849955249
0.381664537793717451
0.38101967518326546
0.379580249276399051
0.377699003919497567
0.375656130038356573
0.373671838350760899
0.37191244980885213
0.370498451049266653
0.369514179989087754
0.369015873570045616
0.322389965976911996
0.341685562553570743
0.355363862502680761
0.364574011992576219
0.370319356433557567
0.373449145085438527
0.374675288999840983
0.374577999377036785
0.373613482967367627
0.372138324742491533
0.370434683192788272
0.36872485099352259
0.367179349951302136
0.365923504683048961
0.365044586827607764
0.364598899872183302
0.311093359592298058
0.330929363636370377
0.345269981088207722
0.355190119138764193
0.361641993767818637
0.365443368947651559
0.367284865134620275
0.367735124576970496
0.367248879204791767
0.366185007022382547
0.364827162569753116
0.363399304800012868
0.362075149078797676
0.360983581455033953
0.360213863538797363
0.35982258839554826
0.29977001702329853
0.320047156897566631
0.334970137353330366
0.345540352285189201
0.352657963811921438
0.357104749221967055
0.359546232816310929
0.360537039739770526
0.360527456263097956
0.35987607593042259
0.358866973465981953
0.357725320995515128
0.356627115412440798
0.355703541423796399
0.355044979619209389
0.354708556185291346
0.185989760953508054
0.227838174094439794
0.261733238520311495
0.288515175524699574
0.309131107725709786
0.32455074746288165
0.33570401624391949
0.343437594019267656
0.348494525665035304
0.351513254266035746
0.353031811452240885
0.353492322762788524
0.353250219431772539
0.352588920359843017
0.351734361585333
0.350863882284953466
0.350109744259330558
0.349562705888653846
0.349280165247261021
0.176031831930272969
0.217097022911151682
0.250634643496133069
0.277401862095443152
0.298256482910638554
0.314086342510384364
0.325752146834817402
0.334046523519442196
0.339672364207506683
0.343239320981571838
0.345266186196089064
0.346183922544313905
0.346342790573552106
0.346024591374875623
0.345455086746351114
0.344811611948769192
0.344226308177570439
0.34378989215445388
0.343559680059181805
0.0628364116687235019
0.118710796384203232
0.166561346182554804
0.206760341159741373
0.23984411831944244
0.266496234491859219
0.287494254564111873
0.303648960654169686
0.315754545267192599
0.324550226791998297
0.330698195276148021
0.33477795327597426
0.337287027994537414
0.338643181632602763
0.339190019253214015
0.339206536140535586
0.338916920389945198
0.338497019820945821
0.338077858099693318
0.337749524111693566
0.337560828224505283
0.318277518632245182
0.338568891455726884
0.353202241874977729
0.36329229579558775
0.369819783279718428
0.373620447969829961
0.375408610264296838
0.375773762691057611
0.375180283627683853
0.373995571059955512
0.372516402695505455
0.370978121647714654
0.369559340652586832
0.368390513328938407
0.367564556189187319
0.367144494463616466
0.308301943379155119
0.329036042417423846
0.344221254567906032
0.354909526863088631
0.362036416586288323
0.366412311643040223
0.368732935693046215
0.3695758531803644
0.369403103952060441
0.36858269910775221
0.367410619084654
0.366122466882389586
0.364900008071942117
0.363877664259397438
0.363150094134538692
0.362779222490184461
0.298120134844001683
0.319227626119279184
0.334912483343665468
0.34616254221053383
0.353868050964284864
0.358809468241928775
0.361659453098703898
0.36298133543466865
0.363232919246495867
0.362781772258138013
0.361923070400768432
0.360892431413575798
0.359873615656836177
0.359003528044163134
0.358377714281732318
0.358057576691047486
0.287838963204563203
0.309242701333139691
0.325364889785710709
0.337130166672781895
0.345382860308101503
0.350869542812866086
0.354237040075059628
0.356032831217443446
0.356708083110905794
0.356627863845458359
0.35608582701618785
0.355317201700005469
0.35450668238571259
0.353792314656058204
0.353269843698183206
0.353000708223939641
0.173259579879866871
0.215406145850193603
0.249917154409064229
0.277551425878632352
0.299168854732693168
0.315659496139365725
0.327886333289378218
0.336646191075425927
0.34264943115801183
0.346515909721249515
0.348775429817524241
0.349869411532736818
0.350158023112784822
0.349932542226289611
0.349427343033440307
0.348827052575502561
0.348269707666513717
0.347850742893411391
0.347631578932306451
0.164340407694907931
0.205700860729059964
0.239800392991111666
0.267330617608525112
0.289079520449267213
0.305867897499518204
0.318498515033410423
0.32771998562816762
0.334205361592561701
0.338546458654214399
0.341253432715356742
0.342755519146418774
0.343406310599058129
0.343493830095647934
0.34325065499158508
0.34286008185300243
0.342459144198049348
0.34214276669978555
0.341972076764388733
0.0522987424257152292
0.107922714119990534
0.155804365852913435
0.196301019592637432
0.229904023597165358
0.257245237155760809
0.279045975251343059
0.296060666857394905
0.309034038375107067
0.318666882894106052
0.325594508066480104
0.330379785509084312
0.333511751587741767
0.335405850560790197
0.336407805873401466
0.336801240060587148
0.336815619149945233
0.336631635469434309
0.336384575166114308
0.336168420804833556
0.336035618270239589
0.310650519405193948
0.331739116510310239
0.347203836729684023
0.358105279213990713
0.36538703390212296
0.36986524536203097
0.372246342818973397
0.3731183199964479
0.372949585394165672
0.372115246033095037
0.370920369605929612
0.36960749390152442
0.368361137993666821
0.367316736154494561
0.366571440768417134
0.366191361255166048
0.301249665872413419
0.322691117294215568
0.338621604312267732
0.350043636093203159
0.357858728136585702
0.362857984480030094
0.365727803827243181
0.367042933055298559
0.367268012415776557
0.366777111031034553
0.365873215348139547
0.364798345928614987
0.363739595656944803
0.362835746889002275
0.362185008056958913
0.361851984440583863
0.291614185263824544
0.313349402857272974
0.329701086531495102
0.341612915968638298
0.349944175612344976
0.355456726894041841
0.358813315509822151
0.360573436499918298
0.361196033348767487
0.361053299654743587
0.360446482367407006
0.359616964820008211
0.358753113615609742
0.357995411250702444
0.357442357494592688
0.357157902940271499
0.281846374101741681
0.303808230402461465
0.32052684880286253
0.332888100983091351
0.341708370004316198
0.34771661396000314
0.351549692601101693
0.353750574036720222
0.35477041135541787
0.354977779033118224
0.354671578741083182
0.354092058559424161
0.353427697307408473
0.352819387315700728
0.352365433487007773
0.352129844364120426
0.166881984142966455
0.20917012225053222
0.243981744481047591
0.272037166211152925
0.294152228734905041
0.311176819044582109
0.32394015283134997
0.333213947167371682
0.339692214528862779
0.343985188515295692
0.34661784575068405
0.348030823233516862
0.348586899081190671
0.34858172495547729
0.348253823592940881
0.347790817524081641
0.347333055695048853
0.346978334137120814
0.346790670156834402
0.158476317815721912
0.199976818084091373
0.234351398412750211
0.262259535024605861
0.284453711097377382
0.301720942821558147
0.314834584601934198
0.324520877296870902
0.331437986024239073
0.336168714581189354
0.339218413581724776
0.341015090635560958
0.341914154159878358
0.342207032176694403
0.342129546612427893
0.341867364224827219
0.341559535920045232
0.341303262980490629
0.341162182812129788
0.0470316711133489038
0.102516378994745153
0.150404050434625541
0.191042678620345685
0.224900148528894617
0.252582833014870056
0.27478371154669412
0.292228728411342675
0.305637206255446103
0.315690229092004226
0.323009696294056958
0.328150215451205929
0.331596300437348668
0.333761951486513941
0.334993963019753538
0.335578360933041386
0.335747037739097975
0.335682655073075875
0.335522412632216216
0.335362491270941032
0.33525764477068809
0.772236733374517148
0.725472253578197446
0.677949062003296743
0.632879128767666388
0.591968608568011478
0.555908177967120665
0.524803919634964755
0.498449127419086979
0.476485741403683327
0.458508011773044899
0.444131797721936672
0.433028972230091236
0.424935485014572956
0.419646431995687241
0.417033567965852392
0.757620242234749552
0.724814280240003717
0.686332043959993698
0.646178254153824572
0.60725734152327715
0.571281561237110713
0.539090231788866836
0.51097844636847578
0.486916921256100588
0.466698519431295811
0.45003974619177517
0.436646869820113692
0.42626108352818376
0.418668994942436035
0.413698671753978675
0.411240798885746717
0.706169894160729283
0.680396003670882599
0.648968856222003621
0.615278950968276672
0.581902113789759534
0.550489102560081212
0.521957256301339712
0.49673069226585459
0.47491437193155861
0.456424605758238122
0.44108411641367834
0.428684336103497377
0.419028669920164132
0.411949887722899755
0.407306665648218047
0.405007785996184422
0.658777669654557529
0.638856949416441888
0.613455685926725169
0.585419827133712989
0.557009792885746036
0.529779013494171336
0.50467109000198862
0.482191569519209939
0.462544640529244266
0.445746728419393279
0.43171074426873346
0.420303178051739001
0.411382120334214174
0.40482171891089741
0.400509327485503941
0.398370944167997398
0.607284458629180457
0.620142419478102447
0.622416548548144544
0.615080703891293434
0.600064271487499745
0.579813767063028562
0.556709394965885229
0.532726963606433013
0.509301638074393326
0.487367135593694989
0.467475450882507082
0.449902773989228899
0.434744832303259943
0.421988287270558204
0.411561698430431167
0.403371132025675538
0.397327909589454242
0.39334627472828132
0.391368215017258436
0.560300963549172026
0.574118457674780647
0.578694971752036658
0.574758749954872861
0.563868558573107914
0.548019162005978999
0.529207903393701939
0.509156240416086314
0.48917249942820501
0.470157153725961507
0.452683279499682178
0.437076775348436031
0.423493986958650093
0.411979834526623845
0.402513214053695612
0.395041143826982522
0.389508498218700649
0.38585458781747034
0.384035010283635903
0.466502178032334514
0.495260983881254724
0.517615410994076819
0.532181438835923837
0.538628029290075472
0.537517801702886655
0.530102400141373553
0.518015239098984615
0.502937404457545423
0.486363859606892268
0.469476998249469646
0.453130609784318739
0.437900151153672368
0.424143004110575872
0.412058696955234671
0.401736222336729731
0.393196572124046462
0.386423648908306938
0.381390794023672319
0.378059196053265545
0.376395956991150138
0.763356935952049231
0.717870726269177251
0.671506321488763769
0.627462979639193619
0.587449678430622679
0.552162318773410488
0.521712133133231837
0.495899609447837675
0.474376574995037159
0.456750055522181453
0.442646492820874815
0.431745460778840129
0.423791039026006344
0.418593683596036326
0.416034967288545221
0.748135459713759499
0.716590596226258203
0.679261791533206982
0.640160948460443135
0.602182249789552593
0.567033352310404415
0.535556283586450355
0.508049926575691035
0.484492103200735436
0.46468445803695535
0.448353300304419389
0.435216503868821603
0.42502159700112524
0.417561476542345045
0.412678262680433006
0.410271844082626125
0.697467309519559375
0.672820819154898997
0.642428960493608314
0.609688546872078629
0.577168182347001624
0.54651146921412741
0.51863598453103843
0.493967458065990184
0.472616662292156486
0.454507748937055422
0.439472082926554986
0.427311461550027472
0.417835383638443691
0.410881121549255657
0.406320171097233562
0.404070134729230201
0.650809765823651021
0.631898878570222755
0.607427189230535514
0.580246002870469568
0.552610915134459479
0.526068522171453723
0.501560898568876645
0.479593333478015582
0.460374664516687571
0.443928427437324635
0.430175345018258548
0.418989987771448802
0.410236750527341654
0.403793058767034418
0.399557851354102378
0.397465828450372094
0.596491605551439763
0.610696674383468641
0.614123789254647723
0.607789389435947069
0.593683686635783525
0.57427031977850751
0.551935649838238396
0.528653004013793337
0.50585223697910231
0.484464492363175459
0.46504059372805312
0.447860773999554873
0.433026690783207213
0.420531482513405386
0.410310388856968744
0.402275731558812966
0.396341250903163411
0.392431451473557569
0.390496655371474877
0.550504825330353387
0.565512405359274051
0.571117451835429613
0.568090014760925133
0.55802457820813911
0.542930880997290699
0.524813481032971985
0.505393571594323965
0.485975615126962357
0.467457196280980203
0.450410149755353928
0.435163671231449278
0.421877873223498734
0.410603048141608862
0.401324624074176628
0.393996583411886203
0.388564897713372326
0.384977298477135799
0.383197651852619448
0.454690938550369517
0.485003095315804988
0.508643669182266001
0.52429513268347816
0.53168253918136954
0.531407962940431133
0.524748270072025513
0.513350537970632459
0.498903385906031505
0.482903054178633495
0.466529808829897419
0.450635240579988272
0.435794249880613882
0.422366314221503003
0.410553701508779845
0.400450801774723419
0.392084238311475708
0.385443829339358168
0.380503704315772573
0.37723169782001631
0.375594851957923637
0.781326367437913283
0.744503978821091428
0.701898476516264025
0.658156067183163884
0.616400364102343334
0.578337255003151918
0.544686215980351385
0.515587492910724476
0.490873533484648905
0.470229752296756009
0.45329561008917546
0.439726541011864314
0.429224999256969442
0.421553274469471495
0.41653777822354987
0.414069982049005081
0.728329828793888079
0.699443099343504349
0.664628871207053384
0.627841187074447027
0.591902776818189369
0.558511464257859247
0.528523298587506796
0.502256424088922904
0.479713429227299037
0.460723684827740732
0.445040537847936402
0.43240633288771152
0.422588470832838181
0.415395686367991401
0.410684607323860418
0.408364331619924026
0.67952755073538551
0.657211227927649633
0.62903475808269993
0.598339628698840831
0.567639288395416997
0.53856492783166332
0.512040452248337385
0.488504478235951778
0.468087484913909613
0.450736593419433729
0.436305301178381177
0.424615324196423616
0.415493488125221133
0.408790934985266141
0.404392292230743799
0.402223598397966897
0.634529324766128444
0.617687869227110276
0.59517532596317102
0.569805697290345692
0.543795547433031379
0.518676259934653938
0.495391758723612075
0.474456261490162345
0.456094557868824746
0.440348818763610483
0.427157378480103933
0.416410942842330267
0.407989087225239522
0.401781492592992451
0.397698800338916858
0.395683296221410297
0.575021522604517332
0.591758323321245006
0.597363316207840001
0.593001480606386799
0.580742748850477497
0.563066572236873064
0.542341294775118388
0.520510761897776564
0.498989104425240748
0.478707168368571967
0.460222307539203568
0.443827484027054797
0.429638970093829731
0.417663725045334666
0.407850365691221128
0.400124585587069481
0.394410877938453142
0.390643896155820458
0.388780657972927879
0.531026853289140566
0.548323647741976061
0.55589922798435254
0.554649187917451214
0.546234661400665567
0.532687172665491149
0.5160036362428434
0.497882369187678475
0.479613976889968596
0.462094796973560151
0.445901459435500247
0.431372880566331884
0.418680452608842901
0.407885407108915909
0.398984605189564134
0.391943672522543474
0.386717891170739458
0.383263530534822316
0.38155025263609188
0.431229706174368677
0.464790978063258919
0.490955390472749775
0.508682156996569157
0.517857492835266942
0.519185437683168938
0.514004631031678039
0.50398727061529458
0.490819335015828195
0.475981037069555357
0.46064108835350831
0.445649337373072107
0.431583959352671742
0.418811442482313057
0.407542580960571055
0.397881017596755926
0.389863466946804738
0.383489543468673588
0.378741087670223409
0.375592977470904976
0.374016853785487935
0.750292842675670424
0.71752501777076827
0.678888580982597745
0.638852026306398812
0.600391265423841691
0.565159384344205318
0.533884855379435863
0.506744187305374849
0.483617479223303171
0.464241693867747773
0.448305253750745702
0.435505895020087963
0.42558071630209271
0.418319152952925877
0.413567518906688192
0.411229354222737375
0.700199655129278731
0.674902120001020456
0.643581230829305628
0.6100599035349763
0.577048545186749196
0.546199101701367207
0.518366335285205038
0.493891444700303051
0.472813414514608621
0.4550031885262108
0.440254163326464665
0.428344013175687488
0.419070008491323642
0.412264968890633021
0.407803626103938166
0.405606177591829764
0.653990000999602472
0.634872354730074528
0.609785762530140274
0.581979435956660462
0.553884172728760782
0.527091027185960348
0.502516834603617735
0.480615334318454268
0.461545608342726787
0.445288101251087254
0.431728307754315976