/*--------------------------------*- C++ -*----------------------------------*\
| =========                 |                                                 |
| \\      /  F ield         | OpenFOAM: The Open Source CFD Toolbox           |
|  \\    /   O peration     | Version:  2206                                  |
|   \\  /    A nd           | Website:  www.openfoam.com                      |
|    \\/     M anipulation  |                                                 |
\*---------------------------------------------------------------------------*/
FoamFile
{
    version     2.0;
    format      ascii;
    arch        "LSB;label=32;scalar=64";
    class       volVectorField;
    location    "0.119999999999999996";
    object      U;
}
// * * * * * * * * * * * * * * * * * * * * * * * * * * * * * * * * * * * * * //

dimensions      [0 1 -1 0 0 0 0];

internalField   nonuniform List<vector> 
7340
(
(0.139258517849776359 0.149206280893395049 0.105552145739600117)
(0.137669596253383486 0.131100811892180175 0.089368923909710074)
(0.1322633903636449 0.114969826474873943 0.074662979023346468)
(0.12429760797511813 0.101250278610623204 0.0617926438021030172)
(0.114836863487519203 0.0899089348787183856 0.0508229153669575232)
(0.104593257602937181 0.0806639343376846507 0.0416495304736779204)
(0.0940313914353165387 0.0731808467341487773 0.0340929800455124429)
(0.0834492335838068755 0.0671452697120293873 0.0279394186770944297)
(0.0729940447660279018 0.0622840480968051488 0.0229723044316908279)
(0.0627174478019401904 0.0583829065214050494 0.0189993736455057183)
(0.0526370050666726541 0.0552852413314544808 0.0158621913302704268)
(0.0427542410369226647 0.0528737177197674754 0.0134329429612148887)
(0.0330509718259485719 0.0510552163261679612 0.0116091993470858537)
(0.023491911013762419 0.0497566180704810818 0.0103111132840764206)
(0.0140331454997766249 0.0489255731905404445 0.00948041995784826459)
(0.00466565688536830798 0.048405321724118891 0.00905898578679708959)
(0.130611904779602106 0.151219187658318766 0.0970921359422893399)
(0.129612189044954057 0.134743859166325808 0.0826734970734355618)
(0.125159724127567179 0.119712448010688532 0.0695211639752789795)
(0.118275186435039009 0.106644002052556364 0.057913227801010686)
(0.109847148974129477 0.095607536516504818 0.0479233479752831232)
(0.100511973602493213 0.0864370190641196717 0.0394921421286755295)
(0.0907230694360034035 0.0788982175780309491 0.0324880751592986558)
(0.0807836268235823385 0.0727322057903254521 0.02674076449819731)
(0.0708557427117946781 0.0676991121417170882 0.0220711257280611049)
(0.0610138205423988236 0.0636180632281685143 0.0183159722940213314)
(0.0512968587768560524 0.0603600937213670669 0.0153373668622950911)
(0.0417226380380949155 0.0578195380920123458 0.0130218159987202826)
(0.0322862627311616204 0.0559021796744496313 0.0112775361493596925)
(0.0229641770726669615 0.0545309650915358768 0.0100327634037174103)
(0.0137229870343722089 0.0536526128178134443 0.00923477526085227964)
(0.00456303739262004394 0.0530909475732609659 0.00882897246595255522)
(0.122803338197468428 0.152812972091305205 0.0894109932298911975)
(0.122190678988650367 0.137763704181209756 0.0764973460144083711)
(0.118487176337134237 0.123788904554588519 0.0646843982668262318)
(0.112500691996299987 0.111406097126157982 0.0541923358906778868)
(0.104966106278565618 0.100742389063184612 0.0450944913662559843)
(0.0964528364321440429 0.0917284321125221708 0.0373556335641494416)
(0.087385955430631615 0.0842098484937691405 0.0308764792460091038)
(0.0780587214558351866 0.0779827191420955218 0.0255220361459933959)
(0.0686441675962254083 0.072849301484297399 0.021145843845214056)
(0.0592367208502093887 0.0686576441863783887 0.0176096363365863193)
(0.0498913296065784453 0.0652935051334600225 0.0147928273696075266)
(0.0406369060834085444 0.0626575809556943752 0.0125943951183212152)
(0.0314792022181742612 0.0606595318661294139 0.0109322047954156648)
(0.0224060360658093101 0.0592256687588753675 0.00974213901044604022)
(0.0133931292414731645 0.0583062198659784897 0.00897723178956158843)
(0.00445318425049252928 0.0577064973112156182 0.00858767111259617355)
(0.115713592966456891 0.154096843399051608 0.0824311950582837238)
(0.115359026782833357 0.140318206892121988 0.0708010847003826826)
(0.112237345457587775 0.127336625083666444 0.0601491772759018689)
(0.106989589331234647 0.115634791133419734 0.0506465178388983556)
(0.100225766883867376 0.105386465833829851 0.0423567037623099676)
(0.0924498376583953452 0.0965906635580844608 0.0352578841167642196)
(0.0840512938138865268 0.0891526083563306954 0.029274599776489843)
(0.0753077549288181658 0.0829235169574639996 0.024299151624442801)
(0.0663946953418679403 0.0777484798404631805 0.0202102998225661135)
(0.0574176516864465594 0.0734979128666091996 0.0168901081468836797)
(0.0484433804606127644 0.0700663660737902982 0.0142336649201873361)
(0.0395117939502344154 0.0673609731756621283 0.0121520604032190113)
(0.0306394379164935705 0.0652993258134835913 0.0105725255940373377)
(0.021824584768501798 0.0638149238130525237 0.00943812807671894072)
(0.0130503175654875948 0.0628628660975547454 0.00870717495947048725)
(0.00433931618773511669 0.0622291370041838654 0.00833431436664814132)
(0.0921439535135046284 0.18922871873756747 0.111128078360659729)
(0.100838904434707097 0.179418790443872933 0.0990337097639070602)
(0.10657221691223677 0.167773141615796373 0.0872964828683689964)
(0.109248850962487487 0.155199838619858976 0.0760700808918834404)
(0.10905391190890433 0.142527997235602388 0.0655467164967146187)
(0.106384234155691121 0.130453045375768212 0.0559094297882818669)
(0.101747296387979219 0.119411711590651656 0.0472856514684071305)
(0.0956495039758957638 0.109601834129308476 0.0397262873619096402)
(0.0885323853368818747 0.101068017769450874 0.0332168906553398646)
(0.0807477731029846851 0.0937618602682947638 0.0276986868633569139)
(0.0725539297240499065 0.0875793773302699224 0.0230842749684081958)
(0.0641232030220151017 0.0824008910623384577 0.0192724928415598934)
(0.055567479035689496 0.0781188373784499068 0.0161628114781392322)
(0.0469624024625262051 0.0746411529994856077 0.0136642921227583328)
(0.0383567593969889528 0.0718851697277227419 0.011698862024622168)
(0.0297758383198468146 0.0697769640490424059 0.0102021426158863913)
(0.0212267098774912392 0.0682558702536972678 0.00912380076240440832)
(0.0126996052643229967 0.0672799334799554227 0.00842716384513627487)
(0.00422474823377663733 0.0666166358391267477 0.008071395797107285)
(0.0881205984020128341 0.187394551682376037 0.102575807582575285)
(0.0958015829198545915 0.178348135220470494 0.0913053942823964237)
(0.100888527578303966 0.16767598205184342 0.0805035387113110235)
(0.103310405093358065 0.156129919954867635 0.0702606159823325194)
(0.103210717989177247 0.144436733248131666 0.060702517200051348)
(0.100897486412649603 0.133192541737387427 0.0519559615110015693)
(0.0967683470158765269 0.122784762068034042 0.044113403094414784)
(0.0912469844817628273 0.113421542923069663 0.0372136559513555898)
(0.0847180232972590819 0.105178845958359315 0.0312452198229543968)
(0.0774953290094697461 0.0980443136030147433 0.0261603071247297758)
(0.0698155953436888632 0.0919497833708264461 0.0218867412795493294)
(0.0618449878719369364 0.0868051099748053667 0.018339782567635271)
(0.0536988102576720638 0.0825230437056061195 0.0154337842726591998)
(0.0454589816602039357 0.0790252761556988481 0.0130898254611900126)
(0.0371806262909621099 0.0762400003869373455 0.0112391242253920554)
(0.0288953334714929788 0.0741020619946101133 0.00982464933020683884)
(0.0206169646184787524 0.0725565448553908143 0.00880214690255065255)
(0.0123427466033436059 0.071564699802810966 0.00813982731452652861)
(0.00409489044970512677 0.0708982431267964064 0.00780113071029403526)
(0.065237552350177877 0.196314068759131877 0.117471218516139619)
(0.0756781565368011 0.192236031628489845 0.105818849100586101)
(0.0844682169336264249 0.185785152392522052 0.094775444036691997)
(0.091258087315514394 0.177392219430724501 0.0842672037452517342)
(0.0957559404243490675 0.167569629940812315 0.0743074578906725153)
(0.0979251700998766961 0.156950032990629734 0.0649351148075857226)
(0.0978732071668946685 0.146160486357782976 0.0562265971227149386)
(0.0958302509361501909 0.135693536073006021 0.0482672927854352687)
(0.0921157293484933665 0.125897536148850492 0.041122763161408539)
(0.0870863349004888515 0.116983460290469909 0.0348202087058148632)
(0.08107464921485312 0.109047794851699617 0.0293482586966912207)
(0.0743578987002051772 0.102106320342563867 0.0246663472216473063)
(0.0671505121100848534 0.0961215880549244617 0.0207138028592275536)
(0.0596103769525974103 0.0910304915864446756 0.0174191788876510226)
(0.0518538776543827906 0.0867653844787074913 0.0147092881926371294)
(0.0439672537560347604 0.0832618344368658697 0.0125154057580358011)
(0.0360099848913761483 0.0804591150477906858 0.0107767562249880388)
(0.0280176640171024005 0.0783008108390076674 0.00944288715019859365)
(0.0200091874622178763 0.0767373962135684401 0.00847527553713235682)
(0.0119975571895066489 0.0757317883399454828 0.00784694777249923467)
(0.00397991628522832881 0.0749579045751515988 0.0075261840529479828)
(0.122635876649789893 0.117776429552789108 0.0833091985580873412)
(0.118836459855386919 0.104838951041728953 0.0698018918757311174)
(0.11267829471286453 0.0936728795352873567 0.0579495832220055102)
(0.105004361481990938 0.0842850462068778367 0.0478119682281586897)
(0.096413261856722568 0.0765005758788431661 0.0392989726345528631)
(0.0873194687131354369 0.0700944413630141122 0.0322585787853343631)
(0.0780011264113071173 0.064845270207344749 0.0265048557856611862)
(0.0686115881834096081 0.060555942007309474 0.0218440199516423683)
(0.0592286998324379754 0.0570721261887265491 0.0181026833348770302)
(0.0499019159206947338 0.0542804923278355431 0.0151386304883063746)
(0.0406610048172660471 0.0520923225148185315 0.0128374082461150951)
(0.0315114822165726213 0.0504330371515018319 0.0111068633872447343)
(0.0224392922603254344 0.0492422744639225488 0.00987430570474427845)
(0.0134203071919850713 0.0484770289422987166 0.00908570812902372363)
(0.00446401068744621023 0.0479875580067576635 0.00868454176569192875)
(0.116192728515194924 0.135697755610571902 0.090561384508089926)
(0.116169750456090307 0.122363993548191358 0.0772958730666694627)
(0.113079493828993211 0.110108906645027815 0.0651631901917351652)
(0.107725405397773158 0.0993194230150726831 0.0544294773785878039)
(0.100836613936725258 0.0900782305473608186 0.0451632055214396394)
(0.092952097136333886 0.0822851015112271572 0.0373145591871338542)
(0.0844728541316258075 0.0757800891827266343 0.030773189187745055)
(0.0756757308458703704 0.070378667943682513 0.0253897063837855846)
(0.0667223254398097987 0.0659107826580149631 0.0210017812939083948)
(0.0577067619323462441 0.0622510475032051896 0.0174611749761843273)
(0.048693774316792858 0.059307719858694749 0.0146441519708037787)
(0.0397242428216774551 0.0569987053484992401 0.0124493311283582764)
(0.0308130722783630587 0.0552461836422910857 0.010793859735436279)
(0.0219551159292450324 0.0539860060585995657 0.00961178738810903981)
(0.0131348689658565363 0.0531751263433098351 0.00885394785006202861)
(0.00436939362793020702 0.052645495273827933 0.00846747403649862965)
(0.109854963302215169 0.138663278751251617 0.0836037313659463432)
(0.110122723426279892 0.126306684565835048 0.0716938559003952314)
(0.107586560100899647 0.11473963727961918 0.0607641185855573515)
(0.102914516539054826 0.104384289587853812 0.0510308551680344336)
(0.0967171098672470336 0.0953587219181299683 0.0425657873944225787)
(0.0894799000687964419 0.0876292148188209524 0.0353425877586914378)
(0.0815793140821563928 0.0810922985911869121 0.0292783257121320417)
(0.07328211987537947 0.0756033372208890775 0.0242535458482833408)
(0.0647572470968023617 0.0710245168162647461 0.0201345586139950392)
(0.056112639813306546 0.0672519689023735601 0.0167955254372449299)
(0.0474229723152211277 0.0642036689223731416 0.014128353164700902)
(0.0387358887174053534 0.0618013347161107118 0.012042786143167155)
(0.0300739790892057025 0.0599700757994401437 0.0104644377718924007)
(0.0214413305148118336 0.0586488135211576736 0.00933400057654275306)
(0.0128299714481699325 0.0577978925436385127 0.00860740857490870266)
(0.00426754219489169136 0.0572305336290645922 0.00823574315093266417)
(0.104023727471493632 0.141192746379311396 0.077237697602561356)
(0.10447195389208723 0.129721565273062445 0.0664921290663299386)
(0.1023734490568802 0.118840980695526663 0.0566130339129150978)
(0.0982704571946402261 0.108945292847919178 0.0477736107468521021)
(0.0926763619773117442 0.100184374250134267 0.0400401172033710145)
(0.0860269474615482227 0.0925767424079390888 0.0333991844601409932)
(0.078668587256824421 0.0860642496748265234 0.0277879615784623543)
(0.0708534429095508123 0.0805443074296051387 0.0231104783595717789)
(0.0627507329745764786 0.0759101236320007811 0.0192557092675071893)
(0.0544753776455184704 0.0720720469423771354 0.0161163382181247136)
(0.0461096077269921717 0.0689529674937907622 0.013598339127382281)
(0.0377085285551948535 0.0664797007501549686 0.0116221234186178295)
(0.0293027562977310092 0.0645846900597551732 0.0101214796464977781)
(0.0209047367867234817 0.0632134521809108313 0.00904340495969498809)
(0.0125123313063610249 0.0623305823401765074 0.00834863283984143417)
(0.00416174175229017292 0.0617300199052984097 0.00799236045938231214)
(0.0804749572415431325 0.171840862304006942 0.103188695119811158)
(0.0893615796202770485 0.163663750025602878 0.0923880619283428822)
(0.0954304344614184397 0.153930162777788371 0.0817204881607652422)
(0.0986440024009841571 0.143396418101630674 0.0714030484924244035)
(0.0991951171794978048 0.132730164352987262 0.0616667125896069729)
(0.0974376846506239264 0.122502496300675057 0.0527113671569064135)
(0.0938079963315809201 0.113071202622951505 0.0446716054877022289)
(0.0887403589377076807 0.104608810794925927 0.0376041105368278353)
(0.0826215985805005687 0.0971693721734709914 0.0315023780121650859)
(0.0757660799950448383 0.0907297853293055206 0.0263176970020210857)
(0.0684089361381103739 0.0852216340483137186 0.0219720653522042925)
(0.0607155871747050019 0.0805643819889028112 0.0183729898605432609)
(0.0528042888034135002 0.0766842002610104018 0.0154291268333135827)
(0.0447625454691549102 0.0735135950900593083 0.0130588009402381432)
(0.0366513081204061161 0.0709872265641230266 0.0111917328759269449)
(0.028507763803554749 0.0690445248477205564 0.00976895066177824525)
(0.020351609267027497 0.0676360371876777305 0.00874334229528837478)
(0.0121865915908515535 0.0667289949173742458 0.00808039661140290237)
(0.0040551458580234262 0.066098614875716763 0.00773947300204603453)
(0.0771610652796061169 0.171604359158270409 0.0953644969664000919)
(0.0851703486975512319 0.164046541280502278 0.0852917785231224468)
(0.0906764435011658126 0.155071684311688163 0.07546999266033666)
(0.0936523721876150461 0.145315408748242475 0.0660497679685400352)
(0.0942544740389589797 0.135382267947910445 0.0571969689548764426)
(0.0927641122629667692 0.125768009129831188 0.0490567492001944272)
(0.0895301201357707466 0.116796973397745238 0.0417322002678250509)
(0.0849224848865817172 0.108653407642287009 0.0352695680340144452)
(0.079281735015645019 0.10141565398537708 0.0296649217499927939)
(0.0728902082300777743 0.0950883482548058739 0.0248789259220012771)
(0.0659648676075134943 0.0896307213063211872 0.0208474232267008182)
(0.0586652406319006781 0.0849845482053191992 0.0174934367062748175)
(0.0511105425589781434 0.0810909511351929624 0.0147393987855813022)
(0.0433912718147869345 0.0778925858878113109 0.0125141381288199592)
(0.0355721615731166702 0.0753325396633051925 0.0107551289071353348)
(0.0276952078761210051 0.0733574471109124104 0.00940960829341764941)
(0.0197859863481731589 0.0719228283900446852 0.00843595052990662661)
(0.0118542570560885557 0.0709989028192409832 0.00780442038274644506)
(0.00393312717210553102 0.0703648148712749388 0.00747853320332138652)
(0.0540042576789509371 0.179884750317438974 0.107846019862469611)
(0.0649463539613115981 0.176732306890388852 0.0978949548085105148)
(0.074169672939533221 0.171439098534555051 0.0882224792175866079)
(0.0813885536777314705 0.164415031636829689 0.0788182025347103216)
(0.0863655085442214809 0.156107979877171205 0.06975472805679786)
(0.0890981174787151275 0.147064378246125754 0.0611288292720112147)
(0.089710296803511877 0.137818473357950444 0.0530544935093939449)
(0.0884179442633091367 0.128787736984403822 0.0456369710660935318)
(0.0855070397095224199 0.120270804692244354 0.038953991753398004)
(0.0812937602704359857 0.112455802517790332 0.0330409547264836415)
(0.0760756029497486885 0.105437447123006636 0.0278937699889087315)
(0.0701041363068284351 0.0992429451117251837 0.0234792651962119001)
(0.063577788964472276 0.0938557444189905971 0.0197440434676690799)
(0.0566485647652999746 0.0892381360793598755 0.0166239917468455067)
(0.0494347499950271926 0.0853457358286298096 0.0140531880923161386)
(0.0420282979454084452 0.0821317478572503451 0.01196923645608736)
(0.0344962580293528762 0.0795482371440658781 0.0103160176271136286)
(0.0268837700750374636 0.0775491702585728443 0.00904614552800554576)
(0.0192210714629473881 0.0760945502250634925 0.00812319003476672657)
(0.0115328028838964126 0.0751557496749324927 0.00752224210058689488)
(0.00382567829683211997 0.0744135119144792995 0.0072126923397847955)
(0.109180446592661018 0.106238165433378162 0.0742748740990980261)
(0.10679152601830369 0.0959972854752862842 0.062459311589730282)
(0.102217118151099434 0.087002930368745901 0.052049077791718093)
(0.0961115083416905075 0.079292085069005605 0.0431009880416236071)
(0.0889778291330337312 0.0727730071159094632 0.0355469703205068058)
(0.0811879776037409823 0.0673079144618663749 0.0292676500789604763)
(0.0729989187503767706 0.0627516573592105109 0.0241106283172804678)
(0.064569115441955191 0.0589723898185966905 0.0199145204741063148)
(0.0559994500716546398 0.0558662554371542122 0.0165345704940406263)
(0.0473643840566534205 0.0533543060673636743 0.0138501763601096006)
(0.0387154482341350997 0.0513703132508748009 0.0117618211560951424)
(0.0300782482910545643 0.0498555349320778246 0.0101882988646059408)
(0.0214580140689080746 0.048761834528941006 0.00906570829670776991)
(0.0128488807027856491 0.0480557205747946872 0.00834670751756322847)
(0.0042761307025456826 0.0475942464171680013 0.00798218681471308741)
(0.103248617513761076 0.122127044377847702 0.080795264352554616)
(0.104080954419627239 0.111509115531180425 0.0691578431798437199)
(0.102184309277462998 0.101641441983991415 0.0584812992005774579)
(0.098184555946734392 0.0928214994109667485 0.0490049930503885789)
(0.0926561453999087958 0.0851379783458251771 0.0407905780876993002)
(0.0860586693815213882 0.0785480167735708862 0.0338013965577415032)
(0.0787482296580108987 0.0729518926869855422 0.0279507196857494492)
(0.0709759971856372546 0.0682284039871227377 0.0231149010737967189)
(0.0629037638178406161 0.064268604334920168 0.0191579281715844318)
(0.0546425968104083948 0.0609926967542425008 0.0159553311566379037)
(0.0462768276858068553 0.0583374817740145851 0.013401531786768589)
(0.0378652138538648209 0.0562396705496758659 0.0114080103174070465)
(0.0294399496959577428 0.0546363143383440941 0.00990161646457785732)
(0.0210130497757899208 0.0534759001131708614 0.00882429783167439086)
(0.0125855763338839372 0.0527255579743499611 0.00813296785443843283)
(0.00418866088596664236 0.0522249763813116691 0.00778173332453252313)
(0.0982027952073875471 0.126156965412302924 0.0748297071121327567)
(0.0992251706971320757 0.116148259806328646 0.0643328863181955313)
(0.0977185740807746811 0.106693095722379921 0.0546722551573818882)
(0.0942132542660699956 0.0981110748594358623 0.0460436855039132731)
(0.089202682105883252 0.0905197353015581019 0.0385113239890439024)
(0.0831032646202073538 0.0839208644297533141 0.0320587084213828574)
(0.0762481515361663614 0.0782528438488142991 0.02662058536173946)
(0.068879411436114063 0.073423329835656248 0.0220977538534523135)
(0.0611625141855601934 0.0693468457015086193 0.0183778308572500639)
(0.0532160944154425539 0.0659581651831050164 0.0153543364461142563)
(0.0451296534774370886 0.0631998904927000144 0.0129342686896971523)
(0.0369658953294040582 0.0610110929239026517 0.0110384795895665227)
(0.0287626522659913536 0.0593313246082345438 0.00960121435192767478)
(0.0205393912249113089 0.058111882257409056 0.00857024593344960471)
(0.0123032630117060632 0.0573229769612498552 0.00790699215726017868)
(0.00409412704888942498 0.0567857331036226987 0.00756927252649277401)
(0.0934830338663139165 0.129681953199493938 0.0693110395157102571)
(0.0946162576203742889 0.120255674872848092 0.0598115768081716459)
(0.0934179819220978536 0.111236254004736662 0.0510509673244170584)
(0.0903306465800537001 0.102932536027479066 0.0431873035606939321)
(0.0857786571519630475 0.0954843853735015957 0.0362834856901152053)
(0.080138018010989423 0.0889299982972119735 0.0303343119818139731)
(0.0737159326616353278 0.0832424207128831806 0.0252904933920315711)
(0.0667412233156652324 0.0783600423050115347 0.0210722586961508765)
(0.0593771694740737391 0.0742174444053201182 0.0175859387631170441)
(0.0517454485977870624 0.0707573000931645685 0.0147401464298912779)
(0.0439398831258209013 0.0679250943978877697 0.0124534666697704161)
(0.0360281581175671134 0.0656644095679606715 0.0106557687530523838)
(0.0280540374265507014 0.0639214437488270504 0.00928833426778203838)
(0.0200436320340813927 0.0626532819470222435 0.00830444965439395763)
(0.0120086679262550872 0.061833661154866576 0.00766983052947253947)
(0.00399583417075607267 0.0612640968367963931 0.00734606268230006063)
(0.070308395476787966 0.156288143536534418 0.0919848304181000997)
(0.0791837408684608612 0.14955284559077589 0.0826500817076222111)
(0.0854373465039825752 0.141523847081091086 0.0733136747011340489)
(0.0890682782112689891 0.132805400246906263 0.0642158749884628455)
(0.0902523942292415421 0.123928788465349576 0.0555895338528949734)
(0.0892939034560604056 0.115344784359956501 0.0476257801105223755)
(0.086558112644578869 0.107342507476147792 0.0404520305175995881)
(0.0824110642246770886 0.100077770335969665 0.0341250430224558921)
(0.0771894425030432985 0.0936144268348117065 0.0286451732595004102)
(0.0711733129735078046 0.0879517663181075132 0.0239746439918592305)
(0.0645765071418940018 0.0830528251082025964 0.0200487186577045472)
(0.0575574966179844272 0.0788705358208688645 0.0167891799646192608)
(0.0502385120283375119 0.0753587663672162233 0.0141178195228500517)
(0.0427157993084548646 0.0724701170147502433 0.0119634292520658866)
(0.0350606562291566892 0.0701542254588574943 0.0102637118116856562)
(0.0273218055383880887 0.0683629085900081951 0.00896621553077439626)
(0.0195313866388259691 0.0670574744246176246 0.00802948657128621512)
(0.0117059772820706492 0.0662138863682659451 0.00742355588397525853)
(0.00389675710320530654 0.0656146031429861859 0.00711383448674838756)
(0.0676065563974815875 0.157446047485133606 0.0851326664344330269)
(0.0757417334967597639 0.151188190965901303 0.0764296511232763487)
(0.0815122963785204491 0.143723618489143445 0.0678296187626427349)
(0.0849219615724835508 0.135567120239359296 0.0595136124788828366)
(0.0861166040096620206 0.127209082813540597 0.0516557718169599472)
(0.0853443431709532546 0.119051511586013001 0.044399810944087223)
(0.0829047961962619123 0.11136340604139898 0.0378478823674439635)
(0.0791152861653477146 0.104310125734083242 0.0320483297022398778)
(0.0742749256524604384 0.0979734903198917623 0.0270035470386375404)
(0.0686368208663375307 0.0923734819491242864 0.0226835719781399645)
(0.0623994753857064766 0.0874935163022969031 0.0190354553908094679)
(0.055715353554125796 0.0833026931554852468 0.0159940684742647388)
(0.0487053130495412601 0.0797656376164695979 0.0134925753949232587)
(0.041465939523820966 0.0768423464971295656 0.0114683639400630956)
(0.0340704653923842721 0.0744888924820297088 0.00986564919270111959)
(0.0265714247177666098 0.0726629296046884116 0.00863747035793659308)
(0.0190061451018770748 0.071330011311998287 0.00774740124244776944)
(0.0113963626281201862 0.0704688005656640276 0.00716983649046763153)
(0.00378216549628603927 0.0698651785954676058 0.00687394053153310945)
(0.0445982499674020469 0.165341657574691103 0.0953707895920262172)
(0.0557627605703619814 0.162881677389841689 0.0870752428650593546)
(0.0651820726012712903 0.158550030328861669 0.0788580976436594749)
(0.0726316624160910362 0.152710299851859355 0.0707322085980931214)
(0.0779352075815204215 0.145749842675111985 0.0627934358630466427)
(0.0811119041958387188 0.138118181013456381 0.0551719819326609295)
(0.0822825764700568646 0.130257191726429578 0.0479939844042005237)
(0.0816433813279944381 0.122515024787652776 0.0413690923415725512)
(0.0794452090502833497 0.115145380443492484 0.0353780289710646928)
(0.0759635122139785124 0.108317650446393812 0.030059980201089409)
(0.0714620873861899486 0.102125978436738152 0.0254171764272808284)
(0.0661682980237999485 0.0966076734975349766 0.0214249403039915784)
(0.060265234254225003 0.0917644411790054793 0.0180396554842536319)
(0.053898118507745861 0.0875803303422228174 0.0152070847681061092)
(0.0471848903023709826 0.084030384263208649 0.0128699178231591362)
(0.0402212453830861905 0.0810825377974388473 0.0109726261700285009)
(0.0330813376418649385 0.0787000968613578017 0.00946481820078762422)
(0.0258204274055977845 0.0768468062601851687 0.00830439751152131297)
(0.0184802892401038921 0.0754918514990959855 0.00745978029860323855)
(0.0110967095137058519 0.0746145532067336165 0.00690978654338295951)
(0.00368174494712982794 0.0739020839514976657 0.00662918782699319434)
(0.096342270077231229 0.105461435678407017 0.0737663778965429728)
(0.0977244426861474391 0.0967381366512945484 0.063032682244694202)
(0.0965022146536373138 0.0886493510665367496 0.0532108654824927085)
(0.0932329635229226933 0.0814016961090504171 0.0445134679051767679)
(0.0884292973976764374 0.0750550937197034945 0.0369939412126493034)
(0.0825182634259308406 0.0695787210410853396 0.0306102984073185862)
(0.0758330038226732311 0.0648993857235610899 0.025275879061284548)
(0.0686099687199125952 0.0609295815187543138 0.0208739337686807344)
(0.0610092803846939008 0.0575870062563462806 0.017278310989989637)
(0.0531475626783972643 0.0548063813116122719 0.0143734091987516265)
(0.0451175385136975554 0.0525362681559808781 0.0120604711249207401)
(0.0369883440509028438 0.0507296668812040052 0.0102567507409618008)
(0.0288029555342151737 0.0493415956336220596 0.00889463738821161254)
(0.0205831988966974598 0.0483340046902088968 0.00792114241775648126)
(0.0123386811556807884 0.0476808470669130915 0.00729683790450122959)
(0.00410856134391158513 0.0472445460316123778 0.00698092767818078892)
(0.0921747973653537223 0.110875932685678733 0.0685974759186597643)
(0.0937282650079032387 0.102463188806899169 0.0588933764891898387)
(0.0928246079734530438 0.0945309456076750543 0.0499656263768959025)
(0.0899499672924849031 0.0873174450611162029 0.0420064429192119199)
(0.0855606737788817406 0.08091699476729447 0.0350734044592005689)
(0.0800511125148929692 0.0753286781068665257 0.0291468040564292936)
(0.0737369834894539833 0.0704980178231389837 0.0241634629825820263)
(0.0668455473684375912 0.06635257420068226 0.0200276023053419169)
(0.0595366468568992308 0.0628299637046972337 0.0166316767324204764)
(0.0519332185645430058 0.0598854367676735916 0.0138755490800407458)
(0.0441344860554253177 0.0574793705497950932 0.0116727040697673333)
(0.0362138104403145963 0.0555652868110717846 0.00994967681020755661)
(0.0282179892427853463 0.0540932474282587936 0.00864542242781145623)
(0.0201734810065942391 0.0530218926358384385 0.00771138488820491061)
(0.012095408812603705 0.0523261399781512829 0.00711133198398322328)
(0.00402757421265369578 0.0518517735461265644 0.00680706919065396897)
(0.0881939462074831926 0.115670576448135498 0.063743244895585624)
(0.0898474270057389168 0.10759524540737786 0.0549478915465716478)
(0.0892006243945082378 0.0998749372037997241 0.046829142724191572)
(0.0866717315287793555 0.0927581013090175571 0.0395494723847156227)
(0.0826620775839813221 0.0863615879093454636 0.0331682990028883545)
(0.0775304592501621925 0.0807128942047611181 0.0276798917557876945)
(0.0715712131469990881 0.0757819702358700498 0.0230366044113606179)
(0.0650035145067154874 0.0715171846483293322 0.0191610339779317608)
(0.0579882965206818882 0.0678737420567470801 0.0159636019515183997)
(0.0506517829887783502 0.0648170729985776545 0.0133582268746422622)
(0.0430950087726972852 0.062310547738471618 0.0112686374515595707)
(0.0353928466573231112 0.0603084094350429326 0.00962907048695607615)
(0.0275956812817258063 0.0587623782791491869 0.00838437041228897589)
(0.019735816152971479 0.057633681550600252 0.00749051119493977964)
(0.0118333973023983501 0.0569003553442425647 0.00691485861959490432)
(0.00393960745916132043 0.0563899711810351562 0.00662231596133471857)
(0.0844009217560999087 0.119936801940337096 0.0592076436255572214)
(0.0861024179532889483 0.11221498380381166 0.0512164837952222007)
(0.0856574529712858801 0.104743713086028867 0.0438238152902962752)
(0.0834246731204902059 0.0977697307590824627 0.037164674151396751)
(0.0797566257979647752 0.0914255838625789297 0.0312970736488089041)
(0.0749785098680319506 0.0857633547117725159 0.0262230352840726599)
(0.0693621847269058484 0.0807797798198816308 0.0219066611262087388)
(0.0631149420167005232 0.0764454321238078188 0.0182853496075987762)
(0.0563939565772738349 0.0727276896950565382 0.0152840571924472354)
(0.0493258070138600721 0.0695954723766756544 0.012828727422396994)
(0.0420133420255470319 0.0670132774941205461 0.010852485415823173)
(0.0345341722896643014 0.0649389457966833006 0.00929683580025964483)
(0.0269427154073676733 0.0633301571658463902 0.00811222553768198469)
(0.0192765255296113297 0.0621535263037077054 0.00725905156112701538)
(0.0115594241038609966 0.0613903012059281925 0.00670821349260845422)