/*--------------------------------*- C++ -*----------------------------------*\
| =========                 |                                                 |
| \\      /  F ield         | OpenFOAM: The Open Source CFD Toolbox           |
|  \\    /   O peration     | Version:  2206                                  |
|   \\  /    A nd           | Website:  www.openfoam.com                      |
|    \\/     M anipulation  |                                                 |
\*---------------------------------------------------------------------------*/
FoamFile
{
    version     2.0;
    format      ascii;
    arch        "LSB;label=32;scalar=64";
    class       surfaceScalarField;
    location    "0.720000000000000417";
    object      alphaPhi0.water;
}
// * * * * * * * * * * * * * * * * * * * * * * * * * * * * * * * * * * * * * //

dimensions      [0 3 -1 0 0 0 0];

oriented        oriented;

internalField   nonuniform List<scalar> 
20856
(
4.35287206034164666e-06
-7.71071477157222013e-07
-6.69341402382647174e-07
2.27229665531658034e-06
-5.78671874682000967e-07
7.93006751658535292e-07
-4.54696220677288194e-07
1.26742002962164685e-06
-3.56296605043648773e-07
3.62059857322932328e-07
-2.57351382384679585e-07
8.37972146294832298e-07
-2.1064658480706307e-07
1.87369946382319576e-07
-1.22705174913687011e-07
5.88970384403595135e-07
-8.55251187690300118e-08
4.09022137693161553e-08
1.21526869638222046e-08
4.53976913059787997e-07
-2.26727992575822951e-08
-5.77622155428434945e-08
1.01333818907045418e-07
3.86468577330267006e-07
9.54651982275454107e-09
-1.21110345085915542e-07
1.53808901612444746e-07
3.11539769141449901e-07
7.64081528818289686e-08
-1.70416905949041161e-07
1.86803509130856269e-07
2.57442804230463439e-07
2.23790303854263599e-07
-2.30233432172446855e-07
1.96807767834001001e-07
1.45361113109839672e-07
5.36192429156950873e-07
-2.31147791033923493e-07
2.01000170584936225e-07
4.91221366702322086e-08
7.12675779316111625e-07
-2.34178560256132454e-07
2.53442766341745872e-07
1.02720191488792208e-07
4.31698091722445033e-07
-1.47944712566237402e-08
2.15186676832654082e-07
1.7266284353388958e-06
7.5978907495005676e-06
-4.56335446056206966e-06
3.05738932197563823e-06
2.63162719310644845e-08
1.43129483076149915e-05
-3.48365925468692042e-06
2.1343934583515005e-06
-1.06244438189869939e-05
9.68634181413910027e-05
2.67346672636149827e-05
-2.16696869909259644e-05
0.000864602374102653925
0.000126159593225853351
-0.000119287967894936926
1.57785951965977553e-06
-2.01478887549019401e-07
6.87211057641237339e-07
-3.40093724765564398e-07
1.00083972217942181e-06
-1.43344438301959269e-07
3.48118779667256439e-07
-2.13950382818264071e-07
6.63508069910228514e-07
-1.18636603986657125e-07
1.91570665786924913e-07
-1.13244142590465255e-07
4.27247987106507108e-07
-6.56792106430640084e-08
8.04991538252964515e-08
-2.81773338672019086e-08
2.87862318019354573e-07
-2.68345962741833229e-08
-1.42907039968854155e-08
5.77464694108262793e-08
2.16816422522281597e-07
-7.64914996569363308e-09
-8.12124307361371151e-08
1.09083611080873744e-07
1.8082250066079898e-07
1.08099403660759795e-08
-1.13170581224760103e-07
1.28976366712089462e-07
1.5759516916699377e-07
6.84257845158825221e-08
-1.5676672442486881e-07
1.63309366964026542e-07
1.36066192457765964e-07
2.33631934833993202e-07
-2.62509529539265298e-07
2.20140250238685565e-07
1.22411443980944848e-07
5.85569761270394465e-07
-3.53918392676925728e-07
2.47824969077529486e-07
5.87379677673275364e-08
7.88907408001582531e-07
-2.8088540738934969e-07
2.47506409688374591e-07
1.80215551107902035e-07
8.09431569996327894e-07
-5.03592082544409959e-08
3.196875774511654e-07
1.73539008106316161e-06
1.06089313944503491e-05
-5.98001490351251325e-06
3.3359381470528808e-06
1.90522278866172126e-08
1.75212844028258819e-05
-3.4286881308380144e-06
1.71949090779587889e-06
-1.50963407782141673e-05
9.47844607968034302e-05
2.35468646758969584e-05
-1.8618658370894325e-05
0.000836956671457520147
0.000122868199646697927
-0.000119323003548176532
5.63867799394600558e-07
5.09680880432469911e-09
1.99996776554334673e-07
-1.15587624804297318e-07
3.78406544780952382e-07
-3.49607700061137488e-08
1.32271353189435653e-07
-7.7600337479136983e-08
2.67109582556437946e-07
-9.86655252147496022e-08
6.0385859048705255e-08
-3.11872309205804877e-08
1.83810255128403817e-07
-8.16746182049503277e-08
4.12787895435500097e-09
5.22940675213615538e-08
1.1620566305801953e-07
-4.3349372673615643e-08
-4.70391001886421392e-08
1.02274330320001013e-07
7.37290346177955922e-08
-1.65782618280593117e-08
-6.16505261406814805e-08
9.15223797893654906e-08
6.01090135754679838e-08
-1.73874958810805167e-09
-8.71557347939790958e-08
9.24280781405281697e-08
7.17872386095652183e-08
6.06820383817501716e-08
-1.62483854572826506e-07
1.5874432447172e-07
6.42692575517846553e-08
3.01399642558293455e-07
-3.24090703219878736e-07
2.65568126679153763e-07
7.7107980788570308e-08
7.10143252507259732e-07
-4.64500724571474008e-07
3.13776987385016362e-07
1.2445311843340303e-07
9.26290429709270912e-07
-4.22911994990985773e-07
2.8066841870815323e-07
6.14946655784353436e-07
1.83508840404665043e-06
-5.97290509477500388e-07
7.82690534953152419e-07
1.21469499632505254e-06
1.48520599818442725e-05
-9.62288257761625588e-06
4.93140387785190455e-06
-8.4689390612764354e-07
2.21014690797364158e-05
-4.20975833393544483e-06
1.40257142517868936e-06
-1.77290608094869684e-05
0.000108455678906151462
2.41021578023116169e-05
-1.86604943306805705e-05
0.000806969082007587724
0.000119594041525632969
-0.000116162567679757955
1.07658238539961375e-07
2.25117398838086027e-08
4.17447490472896545e-08
-3.18534049452432118e-08
9.54254383962102985e-08
-1.14946636590012612e-07
3.5484897486550323e-08
-1.79904910898036559e-08
1.35966376775543501e-07
-2.77089856960926012e-07
-9.2848915137838069e-10
8.45310410424067649e-08
1.33675975095911685e-07
-2.95442875098168475e-07
-5.17747401314229076e-08
2.42620698787951104e-07
7.99066784432634309e-08
-1.68612989253029271e-07
-5.97514025003421561e-08
2.17916358807748094e-07
3.84084846760594173e-08
-6.10960755917348486e-08
-6.25368586617677442e-08
1.27883692652472791e-07
4.58122823275251521e-08
-1.35267414468723098e-08
-9.80783363062579848e-08
1.8283665838044796e-07
4.22993718344612342e-08
9.580544791031463e-08
-2.09435300220537256e-07
2.4737569854442825e-07
2.84503125594712275e-08
4.26571779627232168e-07
-4.26368569505555396e-07
3.50252145391230544e-07
9.01853995431492247e-08
8.62835996170265001e-07
-5.19703876108702444e-07
3.6178960551772624e-07
3.4470469199195317e-07
1.37886838060495295e-06
-8.90660051990562292e-07
4.70679365159373222e-07
9.13065837181653252e-07
2.83678872445047569e-06
-2.59551412924319743e-06
1.25179085591511025e-06
1.74307328691212699e-08
2.06078899214220738e-05
-1.28671397231003524e-05
6.86808112227283044e-06
-2.1601004080669017e-06
2.63417912766408737e-05
-4.02137959856301777e-06
1.33015333469649836e-06
-1.79688098291402752e-05
0.00013064416391011472
2.8939058612344926e-05
-2.23011351401163745e-05
0.000778230361003976585
0.000116596745728780437
-0.000113908412902776282
1.20321212357380681e-07
1.41442986218421693e-07
8.66366387627267196e-08
-5.92277221252929581e-08
-5.05445831310687017e-09
1.43594755993321434e-07
3.80286001735523798e-08
-1.0527671026682237e-08
-6.72160258511431308e-08
1.05982970321741866e-07
2.1766103956251283e-09
1.3155070037903406e-08
-1.17606434876794483e-07
1.15769827027489804e-08
-4.6072645273047014e-08
3.01756403107652341e-08
-1.0688080122344824e-07
-3.31607794466092301e-07
-9.94712585035252609e-08
2.00584688144065718e-07
-6.65134168697599215e-08
-8.05057430771389496e-07
-1.93589866372621565e-07
5.43182100670768374e-07
-1.06973463093681026e-08
-9.9577125167807747e-07
-2.31408103541753597e-07
7.70395487720592531e-07
1.89555829210292858e-08
-6.8558383893804873e-07
-1.77229767368761281e-07
6.06787207161720429e-07
1.98674709322795667e-08
-3.00542427443507542e-07
-1.26838251295063872e-07
3.33587873660952486e-07
2.10665205334664143e-08
-6.25681350524279462e-08
-1.55370825824620743e-07
2.92192261369955848e-07
2.23591228464716964e-08
1.76438372026353108e-07
-3.71244596526630165e-07
4.26976091652777042e-07
3.29513267293722488e-08
6.87901453488474996e-07
-5.56790776560829521e-07
4.82857181949754818e-07
1.46299141518546861e-07
1.02217898900409249e-06
-5.15499775421912307e-07
4.08763134694659292e-07
5.83379248240575673e-07
2.15502687736236122e-06
-9.74428707779903673e-07
8.06256835882068164e-07
1.24310268256874175e-06
6.74031539986576691e-06
-5.48177907730921191e-06
2.92476592030076443e-06
-5.84834158446257321e-07
2.83151936098024413e-05
-1.48857643838459944e-05
8.52701768806718205e-06
-2.3492532632977563e-06
2.86121931268695751e-05
-2.38090553176036008e-06
4.62877648746019257e-07
-1.85650528205524017e-05
0.000137347036201976378
3.94187664200261521e-05
-2.53232173873305975e-05
0.000748638735033641521
0.000114096416444451731
-0.00011123774806357222
-9.08341651500157232e-08
1.96014117079382285e-07
3.40007711942560059e-08
-1.29756411840534401e-09
-2.99022665145371361e-07
2.66352136820364928e-07
-1.8067514463183454e-08
4.23673558749805235e-08
-5.02518091568232304e-07
2.66450240265591817e-07
-1.47581453161027083e-07
1.23510957149444461e-07
-5.17902669612637536e-07
-8.06659406432716377e-08
-3.02879970711124254e-07
3.17627338194214224e-07
-7.36740050091806818e-07
-6.04288113750455049e-07
-4.90838992574857878e-07
7.67324844649586669e-07
-8.36964102002402294e-07
-1.66342664476763644e-06
-6.66627528093619283e-07
1.32631479814933361e-06
-6.65524303843400643e-07
-2.56209467214153597e-06
-7.7905692612528624e-07
1.9519386284023155e-06
-3.24159068625338186e-07
-2.34189424118898972e-06
-6.19517403972479778e-07
1.80268735077362629e-06
-1.10636971025441429e-07
-1.17585100124398812e-06
-3.38718608318222057e-07
9.60763754372319043e-07
-3.52847489824289606e-08
-1.24196549099302294e-07
-3.00588199463271064e-07
7.0977504669208465e-07
1.26201077269324877e-09
3.88581688945933664e-07
-5.21742614194737339e-07
6.91079486952364201e-07
5.7123933027900899e-08
9.07964040506518956e-07
-6.50610274022085182e-07
6.03279451939460765e-07
1.74308388198744482e-07
1.37729237794293816e-06
-6.78377106090889071e-07
4.93608914353123763e-07
4.69083529796671815e-07
3.1918758323956693e-06
-1.94957507110529067e-06
1.05608182634337178e-06
7.9736805834014614e-07
1.60459782739102365e-05
-8.70243565991977843e-06
5.62009973985198279e-06
-7.4844063112136162e-07
3.30664074820758303e-05
-1.31848083603077358e-05
8.55033257558935304e-06
-6.24123090668074359e-07
2.81172459361802873e-05
-1.15995433094859018e-07
-8.21209160218945473e-07
-2.01155645644761485e-05
0.000123996610556158877
4.83900449062389947e-05
-2.5688077036667771e-05
0.000715998124732822945
0.000111979823825922485
-0.000108611205034890698
7.53754661755122127e-09
3.16437114319415522e-08
-2.24400236191982684e-08
7.2577217164966279e-08
-1.24626499583083271e-07
2.53724477314648016e-08
9.62988913662905167e-10
1.90504550375383674e-07
-3.85509512300345594e-07
-2.10350700818805229e-08
5.27633710913685406e-08
3.99255685017781717e-07
-7.07896972559521437e-07
-1.72476041636790163e-07
1.67103331935122541e-07
5.26922893681546977e-07
-8.93624100630350776e-07
-4.1688105942872185e-07
4.12893811471209346e-07
3.16097781014316209e-07
-1.01212835997287184e-06
-7.20822615868542848e-07
8.52567684561377525e-07
-3.08856927309226474e-07
-1.33765244308098385e-06
-9.95623997808341076e-07
1.50754689952639746e-06
-1.48543315565406412e-06
-2.12080124168979466e-06
-1.38966194873354053e-06
2.95414195349996188e-06
-3.14584210499706225e-06
-2.37339122007604146e-06
-1.77205381177574157e-06
3.87980213791403169e-06
-5.15840778192636413e-06
-1.77901242094239783e-06
-1.70502142613920265e-06
4.46199914002733848e-06
-5.5955187560306879e-06
-8.38689473153745951e-07
-1.14098612104636056e-06
4.2482928004626517e-06
-3.53244788391437927e-06
-2.42857388921245044e-07
-6.68599603020373664e-07
2.46778545456283632e-06
-6.95972028192614818e-07
-5.41718228785172213e-08
-7.28816640428477147e-07
1.13825143981706651e-06
9.11138017524277605e-07
5.35432751559029553e-08
-1.02622665960517227e-06
7.31231347992798192e-07
1.45671406736316501e-06
1.26302006056008555e-07
-1.6835146067493602e-06
8.16613307215891688e-07
2.74970868708867712e-06
2.38319748309035436e-07
-5.87066254695673795e-06
2.04608838619456579e-06
9.16396167311943338e-06
-1.66496266913300381e-07
-2.09753921445822736e-05
8.94032831888761959e-06
4.05108584636044937e-05
-6.31825413470441143e-07
-1.77106224556452495e-05
5.31102650544447415e-06
4.44893179919018673e-05
-2.12679751520093622e-06
3.40680403386319757e-06
-1.82201869537406143e-06
2.66505093395020603e-05
-2.15040167329473398e-05
4.0293003100817497e-05
-2.27634645107695795e-05
0.000106754159467372387
0.000109615616942167844
-0.000105946739399171669
0.000680951884045522936
2.98823100037427151e-06
-1.01220131638734217e-06
7.50575249523830333e-07
1.29549665257602926e-06
-5.12515326751419205e-07
4.41420504563281218e-07
8.84426802521460884e-07
-2.71368493904819983e-07
2.12943743418194458e-07
6.32676776946390259e-07
-1.05758185723123405e-07
8.66732864454800675e-08
4.91500448094234862e-07
-1.96329120053033589e-08
-1.31193374987788365e-08
3.991666686735817e-07
1.94193548661717762e-08
-7.85120320172877361e-08
3.08522199867442202e-07
9.48509070957070206e-08
-1.40471487616985768e-07
2.07965606979921324e-07
2.5688925148454467e-07
-2.29917032728574004e-07
1.54321507113758042e-07
5.83220145406310376e-07
-2.97768652579867459e-07
1.45634353927172457e-07
7.15876178744133143e-07
-2.11442218590719922e-07
-1.22922853014687685e-08
3.37632973933849389e-08
-4.02737047823508301e-07
2.16923647593835219e-07
1.63787498005138439e-05
-6.84598510254099288e-06
-1.50723776243461909e-06
4.29279238002045705e-05
-1.11833181620768045e-05
-2.37443934402519643e-05
0.000145500512248412483
3.32734758777150733e-05
0.000875304408550763133
0.000116978926316691284
2.87221282787118805e-06
-5.56851506748303393e-07
9.81373899255645463e-07
1.0600494548053162e-06
-3.27435707081871734e-07
5.72317719368179616e-07
6.4715015263296013e-07
-1.58407502113305445e-07
2.2265210042560472e-07
4.17046833295881994e-07
-7.51190671947844682e-08
1.08530814196334516e-07
2.95764505035267202e-07
-2.09729897782154594e-08
1.19673049490988274e-08
2.3054764469787779e-07
-2.72383711999056804e-09
-4.95410515783195928e-08
1.80542843805034874e-07
2.32585768525279185e-08
-9.06713072499115591e-08
1.53150919366654824e-07
8.03600539130955415e-08
-1.54283813538235192e-07
1.22959425647190124e-07
2.77081831856328884e-07
-3.15451362437034696e-07
1.19375039232699278e-07
6.63935679635067343e-07
-4.6264999012349708e-07
4.95337534890494435e-08
8.69717939421584362e-07
-3.075383949436449e-07
1.54296117399520131e-08
1.51570223857500198e-07
-1.04351245289963169e-07
1.83640543902157461e-10
2.89843079010422265e-05
-9.71023618753257862e-06
-2.03336722374085704e-06
4.94857321872572671e-05
-1.00765043085183528e-05
-2.67320679588455391e-05
0.000136273006294390886
3.04217292955281891e-05
0.0008462899312410455
0.000113581772616790297
7.00348455786000096e-07
-8.33249306061509227e-08
3.18149206945205183e-07
3.77098814291205686e-07
-8.45839079259866535e-08
1.92908097994933877e-07
2.31484610500795709e-07
-5.92184080311740474e-08
7.62889894842554218e-08
1.45794885024361299e-07
-2.40492539593044814e-08
1.38184297466775701e-08
9.19914407405479101e-08
-9.57363558237507728e-09
-2.57962271638367798e-08
6.28162049743900786e-08
-4.64686641989595834e-09
-5.08740731965338085e-08
6.07207537784887207e-08
7.93142068916446183e-09
-8.84787228132485668e-08
6.82512594991564563e-08
7.24325075867762335e-08
-1.85881158883017805e-07
5.69691427126404212e-08
3.52322254736491592e-07
-4.18282016599555614e-07
9.20431496814793091e-08
7.92942606133121321e-07
-6.59332664226059214e-07
1.4189240629216165e-07
1.37600781971228051e-06
-4.81647993809721993e-07
2.72048103031466326e-07
1.57175237558883556e-06
-1.84230622830778876e-06
-7.49440086094427141e-07
4.41839513777155473e-05
-1.36921091501338118e-05
-3.35059983444212005e-06
5.33138438196056565e-05
-9.5592351045494264e-06
-2.6871621793192673e-05
0.000154163784351418932
3.07569102383202525e-05
0.000815017920522672756
0.000110566332370741035
7.51280729012224947e-08
-9.73691231937307017e-08
1.01942890009341939e-07
7.02012026647913463e-08
-1.41176340851224075e-07
4.98724956197813202e-08
6.87262176765463337e-08
-9.39814745122349677e-08
2.66590592206443309e-09
4.82882401056568706e-08
-5.20041329651466387e-08
-2.49687769967618941e-08
3.05790594827698704e-08
-3.42455122484040032e-08
-3.77034174137456846e-08
2.27456642322496738e-08
-1.8758372514640567e-08
-6.09250404433182353e-08
2.58635191947238431e-08
-4.39026458527341023e-10
-1.13158837083371897e-07
3.39307342219541337e-08
8.52323630843859337e-08
-2.46582124803512981e-07
3.86142811180255157e-08
4.75869786556340402e-07
-5.64102050569359507e-07
1.25746530590376071e-07
9.57694417165459551e-07
-7.57985205800816179e-07
4.6658247258347447e-07
2.14121345146831194e-06
-6.64277600657055308e-07
6.09138991322375664e-07
6.43514548018895805e-06
-4.08251438271335437e-06
-2.7418846873127398e-06
5.83238913192842391e-05
-1.96581259346783084e-05
-3.7136351046134422e-06
5.79586989553927193e-05
-9.80365215921286238e-06
-2.77830463124009474e-05
0.000181694402953256359
3.74198926293450347e-05
0.000784056738457124432
0.000107993095685466367
7.723035065125176e-08
1.10464175120270395e-07
1.50717016582236119e-07
-9.246258042515634e-08
1.06106378041324096e-07
1.20806514139705473e-07
-2.22453529350186132e-07
-2.69130445317022364e-08
8.91694949529639874e-08
-1.86770610481142203e-07
-3.17109213236703002e-07
2.89326459105718642e-08
-6.7341800195434136e-08
-4.18270840849396621e-07
-5.6913319650678025e-08
7.97707252765690208e-09
-3.06849889511356324e-07
-1.32031017226916429e-07
2.83256129875979825e-08
-2.42951331110420908e-07
-1.01811921103337123e-07
2.0394632153383039e-08
-1.54319483877316465e-07
-7.41250927497237243e-08
1.1776245118445022e-08
-5.99348619475125341e-08
-9.73340972858057489e-08
1.24303115792916917e-08
-1.43726160301731473e-08
-1.65903711842025882e-07
2.24373844860732757e-08
1.45392717191255317e-07
-3.68386499220376411e-07
6.84113496228531692e-08
6.58598897510929589e-07
-7.57250519999702071e-07
1.64406672972571885e-07
1.23618220355106867e-06
-7.73611690893921878e-07
2.65324064576788536e-07
2.98924538644618244e-06
-1.54470208379492035e-06
-1.56103747885509518e-06
1.85259382791530389e-05
-8.23722240298901964e-06
-5.41604522325260274e-06
8.12427016930752325e-05
-2.83160797401235326e-05
-5.05018792962733387e-06
6.3803238157346043e-05
-1.18105923500626436e-05
-2.7499147827780157e-05
0.000218964721719059257
5.47699372611360226e-05
0.00075316031097869625
0.000105890492713201176
-2.60251840610839896e-07
2.24143159028190757e-07
1.17870149309521543e-07
-5.714553559450733e-07
2.26388166602807377e-07
9.42405534743446276e-08
-6.98104355129260993e-07
-1.42575768957647057e-07
-1.9596832509017696e-08
-7.24696021431020117e-07
-5.74833156767613e-07
-2.2013528614770064e-07
-5.26769484672047831e-07
-9.22894655354043333e-07
-4.02070618983527348e-07
-2.76393721065174315e-07
-9.053866611118571e-07
-4.90213050803568927e-07
-1.09056656114400023e-07
-8.78028096374906269e-07
-4.1700167279886019e-07
-3.68740156670876182e-08
-6.48859948739084975e-07
-2.50074485674420529e-07
-3.2024193393905884e-08
-2.08784273725016723e-07
-2.26559910822394641e-07
-3.50778266490780344e-08
-2.25884269364375266e-08
-3.24222667792002554e-07
-1.01831969188668226e-08
2.54210891245801286e-07
-5.42706473216367986e-07
6.69241812168656526e-08
8.68398494660847863e-07
-8.60314306103804902e-07
1.13173129598206188e-07
1.83491512347472545e-06
-1.08464387286298837e-06
-6.81570309832382921e-07
6.14058487712685103e-06
-3.89436506066796788e-06
-5.91490241985346817e-06
4.42481080227222849e-05
-1.51251132607986568e-05
-6.91697462115118878e-06
0.000111484163373520758
-3.52170257087680393e-05
-4.83593163688569209e-06
6.72614093469231034e-05
-9.05125315704723592e-06
-2.64595131785101864e-05
0.000197627455848902432
6.87957797866163085e-05
0.00072211075240999692
0.000105217424660620165
-2.64935778415930201e-08
5.01982329740433259e-08
8.75708358213489569e-08
-2.52345940288858295e-07
8.77049663302881357e-08
2.47037102292842997e-07
-6.13141252160105571e-07
8.09791856043156127e-08
4.41098345817919662e-07
-9.14142564418306998e-07
-4.68238055094190714e-08
2.65241494680025927e-07
-1.06776893222687812e-06
-3.24104679059027638e-07
-3.2004454899148185e-07
-1.28603467505162068e-06
-6.75807886906461701e-07
-8.1809086118620213e-07
-1.36007187327382674e-06
-9.06270482434717614e-07
-1.29989248448959318e-06
-1.22604079381470133e-06
-1.06887536338917473e-06
-1.77119004092031163e-06
-9.27327396081443869e-07
-1.06054010422334231e-06
-2.14552916496266095e-06
-4.98062218240914911e-07
-9.54329908645678796e-07
-1.95230188059578007e-06
-2.57546098208882673e-07
-7.89570251983487843e-07
-8.28823554574685287e-07
-1.78444911440116707e-07
-6.48497247666508504e-07
-1.58406980004379958e-07
-1.10295162038033938e-07
-8.51128425367084362e-07
3.12742139052409644e-07
-7.83045522694173857e-08
-1.34575381928418313e-06
1.3068982413557621e-06
-5.70062369183459847e-07
-2.35184289669860169e-06
3.69361239416287761e-06
-4.48577722428256666e-06
-7.7269561669181239e-06
1.74258810050221803e-05
-1.28355781465711108e-05
-2.7587852081458592e-05
7.63363399043667063e-05
-6.30392986367003643e-06
-3.15621439515022554e-05
0.000132007328416230366
-2.05458723752636402e-06
1.89242272565798582e-06
6.01182094575590948e-05
-2.858861688997747e-05
6.09963576269723171e-05
0.00013477329148616396
0.000105087494074082298
0.000685670994139298429
2.19183892166731751e-06
-8.09629876337320182e-07
5.13058787052320494e-07
1.14847056247121082e-06
-4.37702683199907558e-07
3.95185524437839956e-07
7.97639611576892865e-07
-1.9966022065015878e-07
1.85190171943696153e-07
6.02275488753367893e-07
-7.11232017850331751e-08
1.03340745938158287e-07
4.77334863612435008e-07
1.95912915143769468e-09
2.28873584306375657e-08
3.84263179994013617e-07
4.20043017654131603e-08
-4.30733230752990502e-08
3.06082893630126826e-07
1.25336209044142959e-07
-1.22317024882642851e-07
2.61120387662539986e-07
2.96144944751384019e-07
-2.74656808159791138e-07
2.08706594103775724e-07
6.12259325332201972e-07
-3.92069912592097194e-07
1.63964732914657682e-07
7.87109218748111815e-07
-2.38055562670625257e-07
3.78673665423157486e-07
9.26741613615590115e-07
-2.8098645750088244e-07
-2.89784469080985173e-06
2.59151365286527818e-05
-1.2445297411570991e-05
-7.84622858986668474e-06
9.9968595786776714e-05
-2.67151040114139269e-05
-3.19760637603662632e-05
0.000243024416168754917
2.00903679374833907e-05
0.000894521166804453614
9.54580012076065311e-05
2.21080211457069895e-06
-5.19246663633233585e-07
5.82578026561634572e-07
1.10982995649936889e-06
-3.29523646986996135e-07
4.82745268676121543e-07
5.05964373097347108e-07
-1.41839000498455256e-07
1.90100863063846083e-07
3.60433813142913801e-07
-4.68849565438109399e-08
9.2703225002612278e-08
2.73117844696466608e-07
-2.24940942781024171e-09
3.04919759898444372e-08
2.22725831989203405e-07
1.09296820709330905e-08
-2.34264621419539927e-08
1.74730497546373103e-07
3.88590714959204961e-08
-7.15937682142782438e-08
1.52435981198117843e-07
1.08274087582627925e-07
-1.73732682201643442e-07
1.33003747381790095e-07
3.48653784930653632e-07
-4.23295594401074167e-07
1.29618354637813854e-07
7.6057459633593108e-07
-6.93293802893835181e-07
1.43317482638171444e-07
9.72436054583704721e-07
-4.79004739109179714e-07
4.30037067926614835e-08
4.31102361965957939e-07
-9.96949465828379278e-07
-5.98209769587248171e-06
5.36153927918224451e-05
-1.93983612577244893e-05
-9.11723753785733524e-06
0.000121229037009528201
-2.96198036947715367e-05
-3.71924434359575216e-05
0.000216170187715478699
1.91723545348462766e-05
0.000864988665753024344
9.22960926803748614e-05
5.65139230120210283e-07
-8.3911513336357125e-08
3.43954085070682783e-07
2.89355905214456579e-07
-5.73577754509468954e-08
1.74671358151862596e-07
1.6455345370464481e-07
-3.22090504053637074e-08
8.19171910162682831e-08
1.09038103798098481e-07
-7.13277465064949167e-09
2.19822470482204844e-08
8.27451514225529034e-08
-1.3792996193288167e-09
-1.54387945064179149e-08
6.85597781736037587e-08
3.10226603493704669e-09
-4.74284991693865748e-08
6.88344120966018893e-08
2.24998569212745083e-08
-9.83885885846513458e-08
7.63765656854640793e-08
1.10717907270389506e-07
-2.28533325908755881e-07
6.34271590091857254e-08
4.53123711348805242e-07
-5.50579512892240764e-07
1.23036368934451091e-07
9.62452072757005936e-07
-9.7765328951251702e-07
1.03477334351692726e-07
1.35179947797398733e-06
-9.42830327379951453e-07
-1.86569913040527414e-06
5.1608175873236523e-06
-3.86986066320477712e-06
-8.93810190244169501e-06
9.12193442290338766e-05
-2.77962044218483244e-05
-9.62018900541294005e-06
0.000154895662120155308
-4.05670612738844578e-05
-3.90303764797394638e-05
0.000251650464655045415
2.09797001900400055e-05
0.000832150205139014858
9.07899539345639645e-05
4.30357029859716954e-08
-6.1572353331607695e-08
1.43606684236617954e-07
3.77339898446563568e-08
-1.03525346492210826e-07
7.06799959467214493e-08
4.60276985774368821e-08
-6.90177693120046114e-08
1.34961395531941227e-08
3.06962896440945686e-08
-2.1800112407074058e-08
-1.56109441532286889e-08
2.17518135499552076e-08
-1.08152224487270006e-08
-4.17922350572550863e-08
2.20995171836806738e-08
-6.6434872692928307e-09
-7.18600767299420448e-08
2.82847114427535832e-08
1.31841912808998394e-08
-1.30948081249863276e-07
3.81123825968412258e-08
1.23921676091144006e-07
-2.96864127490268931e-07
5.4245126125350031e-08
5.74971226185072907e-07
-7.42918003520898468e-07
1.4863775003538454e-07
1.22787919124197268e-06
-1.1905861145804504e-06
-1.39322353591344331e-08
2.17217190407968957e-06
-1.25783548928370367e-06
-5.78055351998416571e-06
1.54563811489897764e-05
-8.06596604131658057e-06
-1.10359053332138397e-05
0.000124656208187640203
-3.31232121409743169e-05
-1.13780325304663427e-05
0.000206425017143363623
-5.71047005469978877e-05
-3.79329446574648368e-05
0.000315585216319317122
2.81382660254013169e-05
0.000797949632100933715
9.01461312220549647e-05
8.33497689768574694e-08
1.36880444845172189e-07
2.01176864753891363e-07
-9.65608135951804027e-08
1.33037442716151233e-07
1.81038060890473524e-07
-2.55735382314501708e-07
3.42820348593862608e-08
1.65460749080823902e-07
-2.49100329867254115e-07
-2.94316122569349573e-07
1.52471036788765512e-07
-1.16187716259079966e-07
-4.20667524681568647e-07
3.06386431498608899e-08
-9.2346518908797741e-09
-3.11596585663037338e-07
-6.02842637043797612e-08
5.69201855618448607e-09
-1.24028027582955811e-07
-4.62569665628043095e-08
4.78555952719999646e-09
-4.99143219977011753e-08
-5.87058109756776663e-08
4.08660018997193681e-09
-2.93868622345352466e-08
-9.8007553929881524e-08
2.82967817283853273e-09
-1.85364511105536525e-09
-1.83468356935159611e-07
-3.02438399179690155e-10
1.58177175171227208e-07
-4.48124196793637201e-07
5.52294829513632651e-08
7.20234064679932944e-07
-1.02600989992777871e-06
1.14153511875178956e-07
1.69019826839535983e-06
-1.31131221473941327e-06
-1.19484595588685083e-06
4.8282204518852396e-06
-2.95426978798132835e-06
-1.10157392784109616e-05
3.1565593539289007e-05
-1.29250839653853757e-05
-2.05146504460165979e-05
0.000154129372624652733
-3.98223314671886772e-05
-1.83006686894079304e-05
0.000258608966357985889
-5.78724275428014459e-05
-3.72045721040164959e-05
0.000367957731866105128
4.25807437731702255e-05
0.000761255066502723862
8.99190128220493483e-05
-2.46593480196881755e-07
2.581461176913581e-07
1.75333613226069572e-07
-5.94603518892744609e-07
2.64671159349450982e-07
2.14762515930074194e-07
-7.68568123405753478e-07
-1.43738478059598853e-07
2.06678716167549916e-07
-8.08746358644767101e-07
-6.70925076818821157e-07
2.79155968050431552e-08
-5.61901348108889991e-07
-1.03946413194483515e-06
-2.11905770594669755e-07
-1.87948965923634044e-07
-9.80547379411201671e-07
-3.31530398663929272e-07
-3.73147860486392903e-08
-5.06282651076336077e-07
-2.45541514339303929e-07
-2.55748558063621631e-08
-2.45106314087526004e-07
-9.76102883647697601e-08
-4.44698490975489286e-08
-1.12138942135502571e-07
-1.58038401721117821e-07
-7.96353044697829376e-08
-1.79021562553099252e-08
-3.22846786750603537e-07
-9.23084301114853051e-08
2.1816040844075292e-07
-6.82845062912053881e-07
-3.37246343427733045e-08
9.34475038681461499e-07
-1.23074802015119628e-06
-2.36887170326274765e-07
2.61574267594484885e-06
-1.87080843053610222e-06
-4.62034004169985285e-06
1.07564030833776517e-05
-5.01197555241365349e-06
-1.8880269955490022e-05
5.45355817515764081e-05
-1.85229240209445066e-05
-2.57225814777186317e-05
0.000182997820168673194
-4.67612207747150396e-05
-3.98591169582593471e-05
0.000194589000661282149
-3.56718240636469419e-05
-3.60457132036428227e-05
0.000358559679938531578
6.5439970316715358e-05
0.000721215209589369391
9.03288516829995903e-05
-3.00836975463069482e-08
7.13859813209150935e-08
9.59679429991633774e-08
-2.51271671589315417e-07
1.32357471170179467e-07
2.6518628308810712e-07
-6.13120704067762146e-07
1.90989797995944221e-07
4.63959405876468552e-07
-9.69928964488332763e-07
1.65784373470192304e-07
2.77005365398647201e-07
-1.20617717908849324e-06
-2.95587082213425202e-08
-3.96077646969880804e-07
-1.4580673996396514e-06
-3.82440773932384514e-07
-9.94280789286958705e-07
-1.24405711529818487e-06
-7.20269432378283625e-07
-1.78212597133257407e-06
-8.37618199131771629e-07
-9.31383512839019593e-07
-1.92770724872939724e-06
-4.16958223209476021e-07
-7.67566718714530991e-07
-1.42366170625250944e-06
-2.81448339537617773e-07
-4.00879334852147855e-07
-1.01114196921580264e-06
-2.63413485607365653e-07
-3.39319992305767851e-07
-6.33894479287161072e-07
-2.87302551540710391e-07
-5.51271704676790204e-07
-1.76527553053585525e-07
-2.80023287133337863e-07
-9.34249424509580335e-07
1.3880755730064454e-07
-4.37924980608822248e-07
-1.67841254049231636e-06
1.31469936917050839e-06
-1.91148373872515117e-06
-2.97145224313319035e-06
4.78140541320309618e-06
-1.09246423818884383e-05
-7.84153142254337594e-06
2.06514818998965497e-05
-2.79677506131417768e-05
-2.41841708327295009e-05
8.7033673926589642e-05