/*--------------------------------*- C++ -*----------------------------------*\
| =========                 |                                                 |
| \\      /  F ield         | OpenFOAM: The Open Source CFD Toolbox           |
|  \\    /   O peration     | Version:  2206                                  |
|   \\  /    A nd           | Website:  www.openfoam.com                      |
|    \\/     M anipulation  |                                                 |
\*---------------------------------------------------------------------------*/
FoamFile
{
    version     2.0;
    format      ascii;
    arch        "LSB;label=32;scalar=64";
    class       surfaceScalarField;
    location    "0.720000000000000417";
    object      phi;
}
// * * * * * * * * * * * * * * * * * * * * * * * * * * * * * * * * * * * * * //

dimensions      [0 3 -1 0 0 0 0];

oriented        oriented;

internalField   nonuniform List<scalar> 
20856
(
0.00070406044713400577
-8.83700584513907774e-05
-0.000100358509887881473
0.000673223631136164844
-9.41558923151011038e-05
0.00012472258497009934
-9.98205369043236157e-05
0.000631672065404469824
-7.56343587701375553e-05
0.000124470600628642911
-0.000104130779066198686
0.000577117434352446951
-1.98876459407400859e-05
0.000112813984050081688
-9.08098539001270163e-05
0.000507217997414655228
4.43326911346059752e-05
7.87158276564063766e-05
-4.83030112361737565e-05
0.000431989975986572512
0.000112166070808652124
2.6526694692261974e-05
4.9335648943490339e-06
0.000354375546243617106
0.000179541787557599723
-3.20527407945038484e-05
6.67575776834327176e-05
0.000280272097405851047
0.000269483114879602408
-0.000117255198693227034
0.000143920603849040179
0.000212193695633356886
0.000393649268745972889
-0.000228284786319021328
0.000231699895942485219
0.000161497193875995962
0.000542180015521566958
-0.00032072669824360152
0.000304451267015086815
3.89450677969305594e-05
0.000951492527722156518
-0.000397159854675730101
0.00037666585161645204
8.46715826134105082e-05
0.001518115826048348
-0.00086133688925009097
0.000780970558389148801
-2.68033656607810942e-05
0.000361806168709923742
-0.000944853034795476235
0.000938653952930735094
-6.88350714778883334e-06
0.00079136117910244704
-0.000145144018295438967
0.00015791566735209658
-2.35098415124140132e-05
0.000816992886530310317
0.00020520543291499202
-0.000181167094655229329
0.0012261161566826577
0.000177702681152125549
-0.000173898663963402672
0.000615419120015172141
-6.43217772585280437e-05
0.000140086825101405453
-0.000110868739515646172
0.000561143805513152766
-6.45628021247906571e-05
0.00013935668758085644
-0.000114674761815521928
0.000513306139726861206
-4.90208524773877815e-05
0.000143061836865497708
-0.000121837266440554047
0.000451748119275203184
8.68447542283621763e-06
0.00011665812976323551
-8.3670303297297857e-05
0.000369304452625726057
8.35162128406921785e-05
4.9654048674042684e-05
-6.39221859473609098e-06
0.000289857784163630703
0.000137314707458314648
-2.08429043643272081e-05
7.51412537273130494e-05
0.000225362469161084658
0.000199057836756599897
-0.000109565007079617124
0.000154544579536596721
0.000161953343957462934
0.000303902726450365999
-0.000210534252186403176
0.000239524404763400279
0.000101954260336156394
0.000447496896238355204
-0.000314041347670595747
0.000320192737556052216
4.51955574087619055e-05
0.000607660135272285228
-0.00039435327841896541
0.000385632304322549809
5.43612527216511183e-05
0.00099097593805895761
-0.000456709949600422839
0.000408059127350575293
0.000277217543849258338
0.00135466107333869759
-0.000829954021785096556
0.00077055583914347641
-4.14463304742562327e-06
0.000611812271507438266
-0.000855859218054089263
0.000887219393082648317
-2.06720333542750791e-06
0.000735572777780911383
-0.000184284458999751049
0.000237995771823564141
-3.0715876204888545e-05
0.000816474688040508658
0.0002052551428325051
-0.000176088828941188883
0.0011914751828320119
0.000174992580135199788
-0.000171067634709015062
0.000400380548206331498
-3.2304545966786369e-05
0.00013611511817962244
-0.000102122876254413276
0.000372449511235642698
-6.96980801873472094e-05
0.000154844932359732182
-0.000121776814674639822
0.000343729386992763818
-6.59102359141218805e-05
0.000145068484193887554
-9.94553857634669218e-05
0.000279505795068164396
-7.07636599729758462e-06
7.14090284914829158e-05
8.577964897205402e-06
0.000204696977509863343
6.24504735845032649e-05
-2.3127599492223591e-05
0.000119002614425028674
0.000138802366435775485
0.000126184666812989614
-0.000127298096919422439
0.000204322091675201962
0.000100236842405175029
0.00018271088246577121
-0.000215618250882590467
0.00027053017835307905
5.31520957939344324e-05
0.000313286214550500001
-0.000309184347722230458
0.000346887125422781089
-5.40646382328012606e-06
0.000483855964313589966
-0.000383424505111136396
0.000405624911065675421
-4.12484958438574508e-05
0.000635195810050976674
-0.000449205786565133223
0.000457510971736434105
-1.55889688692851145e-05
0.000995886229600173589
-0.000477099477664124705
0.000446531108093929218
0.000183714254262601286
0.00115852748535165938
-0.000690984989791489069
0.000687814470863726941
-2.50628530533108662e-05
0.000776638091823060399
-0.000764697138514190623
0.000808648196322629621
1.14050135910178274e-06
0.000641519266196571847
-0.000189938819560063487
0.000257786883110833458
-3.12712895600336443e-05
0.000814512885285908366
0.000206297693648398303
-0.000171924222968813608
0.00115571737972337244
0.000172355638690876214
-0.00016786911944579466
0.000155425074600492366
-2.11136062246476019e-05
0.000112850322415755937
-7.98285565168646777e-05
0.000147522266852007208
-0.000102555806213005287
0.000109124064237452347
-6.83568603920082981e-05
0.000129037712475264365
-0.000141366565223113513
3.56780237823677644e-05
5.82677383857288517e-05
0.000105290626248877208
-9.82883697629454193e-05
-5.92591250595264109e-05
0.000174219277890173417
7.70747131792202163e-05
-1.21911705822890767e-05
-0.000155129056356284573
0.000257988340290365721
4.46167650645798252e-05
7.85892053836309356e-05
-0.000227317205128821934
0.000307369893262903469
2.30548441722626171e-05
0.000154347912104132285
-0.000302043966761918181
0.00035196577963608793
-1.7876921319746124e-05
0.00031249592417094017
-0.000390759077430397343
0.000432483103200568641
-8.12712483152635353e-05
0.000507283754359357723
-0.00043264230637146678
0.000472612964180956017
-0.000125271806117845097
0.000646320534653168884
-0.000468454766741687161
0.000501332891764982879
-7.90651210778144982e-05
0.000952362772759645336
-0.000488995212043153858
0.000486311215945533061
9.72294403348296344e-05
0.000954440415741688664
-0.000585667653860229851
0.000613461099296448383
-5.15407935163963676e-05
0.000876179029042107194
-0.000656472578705759812
0.00070570313593602428
-1.04215288427265691e-05
0.000543193450346858195
-0.000176034611731380329
0.000233241335311429066
-3.04165951011186263e-05
0.000797629164087286513
0.000207620889609976987
-0.000170741859708692796
0.00112000744337019485
0.000169934340811378877
-0.00016464085158241092
0.0001448519884802815
0.000152573046898285552
0.000131225822274410567
-8.96978450852406017e-05
-3.43490107655383421e-06
0.000173911523476064209
8.43709416273703085e-05
-4.12417291898542777e-05
-8.87160742936102134e-05
0.000116680377600908306
2.97958783411374918e-05
-1.27735685250664455e-05
-9.1296595067352952e-05
-3.90720771633063516e-06
-2.87327162005480071e-05
1.4112063051734413e-05
-8.16266303987511115e-05
-0.000148467659051412673
-0.000103312061913649408
0.00013956013363867429
-6.46825366949137595e-05
-0.000237349976184496146
-0.000153861804741252405
0.000232901570449813781
-4.88876170995861743e-05
-0.000208278582057560028
-0.000200084537490725814
0.000294281008715530058
-3.02194115219708307e-05
-0.000122468935190780807
-0.000249553435379291607
0.000341164921671502873
-2.37867048722711322e-05
1.32267254751202432e-06
-0.000299247279677787809
0.000370079496963930069
-2.76312315992887245e-05
0.000111722197227885525
-0.000362856334279671919
0.00040932591709348518
-5.86381276926055026e-05
0.000302025475630546812
-0.000433218891522709794
0.000474698110590164373
-0.00010964974732976603
0.000519843983276960914
-0.000471144190281110151
0.000509593789147877061
-0.000155491596417246108
0.000651904818505582889
-0.000483971186946841828
0.000524232888857387885
-9.92174718761754722e-05
0.000892425596802661077
-0.000505336859571258465
0.00050900384726899027
-3.76465175154886724e-05
0.000873040398979203032
-0.000531483207207986575
0.000551314087203028666
-5.84972982221020348e-05
0.000833009961036386545
-0.000572745668878613351
0.000636765217743485643
-1.70046097497878672e-05
0.000454239159353353266
-0.000159618043112778147
0.000207081335187755283
-2.98375006790525853e-05
0.000771130143239734606
0.000207551887831987987
-0.000168219784159562069
0.001084392889745027
0.000167446979065105596
-0.000161670102371443993
-0.000117009920407103754
0.00029636165562385206
6.03834422894108328e-05
-2.09073719898146041e-05
-0.000257261966927414929
0.000300394472834436478
-3.78049181514012952e-05
5.15751357565207914e-05
-0.000291039728089601403
0.00016241699295574665
-0.000134065757767671065
0.00012210946236784401
-0.000267138104625759651
-3.01329636025763484e-05
-0.000202828778543931096
0.000205156796570689549
-0.00023836106676319342
-0.000213840257499959858
-0.000232515604545030985
0.000269111456321074723
-0.000214273739651524178
-0.000314659978604825603
-0.000257810477334995884
0.00031103348902853555
-0.000182025264738320668
-0.000298176764519807798
-0.000287533912954205913
0.000345184470314033819
-0.000138810818578075123
-0.000213519278077508787
-0.000327891005369530851
0.000375725680003126329
-0.000104609348377873533
-8.07124424659716943e-05
-0.000357749223479586107
0.000405582361875862427
-8.12749354298675935e-05
5.69979624809502285e-05
-0.000405451992745392109
0.000436845496612096006
-8.4536666627946019e-05
0.000280006396663321996
-0.000461126277722336301
0.00048640677905001004
-0.000125874977664628448
0.000526234598415015122
-0.000489626643392178677
0.000524571777049956324
-0.000192727603567977783
0.000671640793672975797
-0.000483474622347224929
0.000530595449848375264
-0.000158737775432421909
0.000837038346588157714
-0.000510545368290302604
0.000531943068094924013
-0.000126107912670805634
0.000819231831442155268
-0.000491290565626986567
0.000512470078984388695
-5.30282898138358474e-05
0.000696865894396391655
-0.000513763329070048968
0.000576828467602752892
-9.84943997537300869e-06
0.000362283675866146334
-0.00014408044920885283
0.000192857194696465927
-3.03851733335167712e-05
0.000749314659553886172
0.000210583959852889065
-0.000168233433983283501
0.0010477188407732054
0.000164923564124649588
-0.000158634410213971542
1.87306115465419275e-05
0.000123594698634101209
-8.26015964780277138e-05
0.000245454649793661571
-0.000170486112340741087
6.06202010283263831e-05
-1.65910131386927273e-05
0.000366025485561361429
-0.000333871763592721025
-3.74317163253517652e-05
6.95213901574985945e-05
0.000427658742167124338
-0.000398378248518754959
-0.000141241153251284342
0.000159642017285518869
0.000346501080298954425
-0.000384517503916660967
-0.000220909310680866161
0.000238768062805800316
0.000130698808390550031
-0.000361320293534714049
-0.000260824582446056821
0.000292134982357376914
-8.46406485307453309e-05
-0.000337877891939248741
-0.000288592930088176565
0.00031718365221215111
-0.000265873391161496444
-0.000312203699609329608
-0.000296051831661279423
0.000338471829266423236
-0.000382753419622982628
-0.000274243519631813567
-0.000324067576222221074
0.000358146990109776552
-0.000370216367428535982
-0.000228187537506972907
-0.000355556585055343509
0.000379871045862082248
-0.000283890539694592477
-0.000182409515422886413
-0.000394234294742222741
0.000400110415432978182
-0.000132366325833092576
-0.000142864086351931037
-0.000420911660548423518
0.000424579493768626913
1.37871291517293725e-05
-0.000118464259950544742
-0.000449363381051787766
0.000465683892701641009
0.000239290933066535136
-0.000149287991662312036
-0.000483343625919885323
0.000519849708803236227
0.000520551666658505916
-0.000211107362395750381
-0.00047618649203212633
0.000526918840784648635
0.000682728614543182252
-0.000194023390226582339
-0.000482164564756996147
0.000517488219733090423
0.000784630676935333228
-0.00018062883932200394
-0.000455447665643827322
0.000463111054367871199
0.000798175327388106677
-6.86157689652119331e-05
-0.000449579497539280581
0.000559282109536286647
0.000475151126277817946
-6.723302666985587e-06
-0.000173212551922794612
0.000153117890238531714
0.000320484565817394785
-3.31510140846435347e-05
0.000212494607242836502
-0.000170709220375875434
0.000733956825011990383
0.000162208959513536119
-0.000155887266525495664
0.00100824633369081497
0.000665626388454075655
-0.000112890695035358001
0.000153507320257073322
0.000635076588263873421
-9.1383571728724587e-05
0.000147506965924195087
0.000579517142482433175
-2.88248531769533418e-05
0.00013328305404630708
0.000514443210058445634
4.15786129202165073e-05
0.00010522107418797201
0.000433995542028717328
0.000127552292672970536
5.74367404606960781e-05
0.000349153938792359385
0.000217114323851068353
1.23788351902131608e-06
0.000260623765442597735
0.000321749999819475772
-8.77166982543906937e-05
0.000179074022590791827
0.000442507197605776221
-0.00020826778469897327
0.000135873631268538804
0.000585821837056964799
-0.000312243293929711
3.36595821200863575e-05
0.00098772639988932041
-0.000381159383155827271
1.07865228128192394e-05
0.00157842503383058162
-0.000867056269347259829
-0.000134597934737706832
0.000459363258971781316
-0.000917637829142230904
-6.40588148447864149e-05
0.000815005290765978834
-0.0002033437150082012
-4.31859653960557947e-05
0.000920337082472801288
0.000176416753450550282
0.00121735215081916152
0.00016457551013927631
0.000618366698670001487
-0.000103543654421034284
0.000173945400393840698
0.000573730029759809794
-0.000101380492089528612
0.000172483158135793843
0.000511868646179767205
-4.8125564384942187e-05
0.000161666825117997697
0.000442977026681870632
2.58245921934020992e-05
0.000130902378015208587
0.000362602173601546125
9.4953395428229166e-05
7.66553310354405455e-05
0.000282201400935509555
0.000173117552860418717
1.39946557648666656e-05
0.000207085736332864907
0.000252957490561795718
-7.02900084042199804e-05
0.000131490308409565386
0.000358111326818208063
-0.000171298013966766558
6.02384691082807731e-05
0.000471739125311664573
-0.000272018220152457526
3.35853831726099991e-05
0.000570440546324320059
-0.000352320201763887974
-6.48085974408492817e-05
0.00105354349964914768
-0.000424135492737756051
0.000193605094525564365
0.00134580179330697001
-0.000855734180664535229
-0.000125783327990256372
0.000688494468666783982
-0.000765600873315351637
-6.799591929030847e-05
0.000783796706243378573
-0.000210863496205075716
-4.72954460693465674e-05
0.000927588140133547368
0.000177302963315052406
0.00118274383883371363
0.000162305524783693293
0.000423954087434743406
-7.80585995764330348e-05
0.000191089754529333219
0.000368005761087865661
-7.84268721964901728e-05
0.000187841773753822061
0.000324830462681267287
-2.09756269425429194e-05
0.000161097057705342965
0.000263062041620735067
6.36113923364037194e-05
9.53912684082894861e-05
0.000189583405442226427
0.000130499299897227262
1.48043398014402891e-05
0.000129462186366862862
0.000182538336801141385
-7.65946395468437933e-05
8.41468469797447934e-05
0.000249783586655129915
-0.000167125704569353906
2.84883124785175678e-05
0.000356285074096149811
-0.000251700406036581628
-3.88077662256812816e-05
0.000471396320696067369
-0.000315784475750082014
-0.000106863162101794346
0.000560589378378442086
-0.000371299246652516998
-1.20595971179081118e-06
0.000927765527741158816
-0.000456981726237000951
0.000220862830738559595
0.00110753688802857548
-0.000674785290198759023
-0.00012217642428067547
0.00090775720265653774
-0.000640920603958985914
-6.495909435593741e-05
0.000742398084513121561
-0.000205758246560956281
-4.90378851176160127e-05
0.000934321348980465729
0.000183643339613137732
0.00114568324269770892
0.000160378392888169808
0.000125966588222998067
-0.00011283344038768931
0.000188709888720406253
0.000142437531050390977
-0.000114551033469751582
0.000128781401028691279
0.000148545713449361474
-5.36195227437339631e-05
6.22156156973508774e-05
0.00011349275780768141
4.24643588306086375e-05
-3.05863107552543147e-06
7.66954251628332946e-05
0.000103494688189124633
-9.13271304906094355e-05
4.79486293871108922e-05
0.000161661966462932073
-0.000177693999717093377
1.85465181314451938e-05
0.000235181363071891342
-0.000258037818168085171
-2.52379244147271313e-05
0.00033186051057980284
-0.000322546551786141245
-8.43688448134978741e-05
0.000454331487740306081
-0.000356444259660750615
-0.00013806334542585587
0.000535629657164143121
-0.000389801138223523993
-0.000107940074261686833
0.00086920412054056987
-0.000460553408999055266
-2.77310355710121419e-05
0.00100420664381561595
-0.000562545870222039626
-0.000159347925055926531
0.00095429935864230122
-0.000571397725954987277
-8.14675220185363325e-05
0.000687768329919877285
-0.000199285526392754852
-4.74107632248182336e-05
0.000919356990086112025
0.000188529001668738658
0.00110975688193764525
0.000158449972780054358
0.000102731512163142574
0.000107718629626852935
0.000205674338228748838
-8.93524720540550598e-05
9.12761023976381913e-05
0.000200834340793036147
-0.000168553230412259256
-3.446123820559912e-05
0.000115658279682083899
-0.00012355196552571622
-0.000177603843499116989
-8.9614451357262234e-06
-5.24244691536017893e-05
-0.000203659352328988653
-8.53315913395646768e-05
2.8239500991044899e-06
-0.000139123938059589779
-0.000123606017291955881
2.46242874581554643e-05
-4.53476851940868241e-05
-0.00013407124641173036
1.92593005904528782e-05
4.04896760539950781e-05
-0.000181185709819476953
-3.86423070232654812e-07
0.000132507017815846234
-0.000250448678388677493
-1.97031225351111989e-05
0.00021462430168043455
-0.00032297564667862393
-5.1271150543987728e-05
0.000305652916862474459
-0.000375435622067636415
-0.000106975095532990384
0.000451337667197869224
-0.000412443250841563905
-0.000191333753141511361
0.000553067844039017791
-0.000417050306902353872
-0.000198146128619698398
0.000836469090311932578
-0.000465789392835508679
-0.000167292300965387144
0.000946040895868263242
-0.000504170858238503451
-0.000186699639581973343
0.000892690970835497083
-0.000491729467311255442
-0.000104108940698429526
0.000631333169946719439
-0.000185773461070670113
-4.67501522703933951e-05
0.000881365303386418475
0.000188184394033437266
0.00107404784793235482
0.000156406043798014606
-0.0002214193357675193
0.000241660336897664754
0.000149617308771211779
-0.000343575804808604515
0.000128651512756446134
4.69767427767894759e-05
-0.000331839042500176235
-0.000101007494745289811
-7.92553776038682574e-05
-0.000263851127846586187
-0.000285869439860141647
-0.000162552366177340374
-0.000189300531254224199
-0.00029907447358681476
-0.000211652822647355563
-0.000130192888331535288
-0.000218957968710774286
-0.000237083423225698838
-9.02822992390495149e-05
-0.000128112076919677275
-0.000244679109370751042
-7.78327660184068915e-05
-3.35604934012809566e-05
-0.000266291131484523128
-8.19957935772720959e-05
8.63272783435460221e-05
-0.000307404586922662543
-8.83690600032599363e-05
0.000183481690335685332
-0.000367928807475199936
-9.40123088598616708e-05
0.000272594633607535063
-0.000422426334905776231
-0.000124457866693295925
0.00043694182290214263
-0.000444789861022617909
-0.000237253167925456892
0.00061071999977320348
-0.000428333116503141424
-0.000262333006988704222
0.000810522588753373029
-0.000459520949880528771
-0.000241714526586434529
0.000893960301218236619
-0.000459827953666445076
-0.000203147748049702624
0.000773482983589255215
-0.000433121476238737752
-0.000114950950776535955
0.000535728981676549367
-0.000136673642587745408
-4.84704218016311953e-05
0.000831844440429958874
0.000193624134656300475
0.00103633751910796237
0.000154163366863455109
-3.26700932099277224e-05
0.000180286032000497428
0.000233948016129235389
-0.000259221607607214668
0.000137941245305383387
0.000341332476131462617
-0.000413364334334822463
4.53629714279490986e-05
0.000313009166785460603
-0.000445301448957912999
-7.16663572591678206e-05
9.10143577994759398e-05
-0.000411826673924712595
-0.000164387724334332338
-0.000191003613760360163
-0.000353854791640156386
-0.000229680473894071943
-0.000374986105382523784
-0.000299527915819805307
-0.000262149570468238986
-0.000379844929723947031
-0.000260526999010165735
-0.000275553434564127626
-0.000278456907360429635
-0.000217757439035871334
-0.00029417547406997732
-0.000200774319406555159
-0.000186200958210296915
-0.000321729340081766116
-9.89445464048124617e-05
-0.000171772685695369132
-0.000360386014741922447
3.80522870011798281e-05
-0.000167757449567381653
-0.000381168165541082124
0.000139724541712799542
-0.000158217417974790433
-0.000414014335345432776
0.000227704596566849943
-0.000192913272074813621
-0.000446637818478439646
0.000434929563724730656
-0.000275359619761773237
-0.000432539285843672151
0.000649519552947836485
-0.000301108358156186476
-0.000430713172063539192
0.000784821712583944758
-0.000261391785516242904
-0.000418945797028581963
0.000817742317255750091
-0.000176707317527107784
-0.000361057392193140725
0.000600276528823842637
-0.000101460601260229208
-0.000139767510199243698
0.000427036966119195979
-5.15603450902042432e-05
0.000200829071076688478
0.000793609258038556692
0.00015181358014753848
0.000995172864938104976
0.000599393749345883127
-8.45691137477190308e-05
0.000174502518081790675
0.00059020323362440777
-5.98033890859461163e-05
0.000166652012658392011
0.000549240319191012807
9.85509230663067504e-08
0.00014717418577612785
0.000492913358936722563
7.00588176086472343e-05
0.000116465555081582983
0.000417951726046405191
0.000152347647828528069
7.41838799727050595e-05
0.000334950151493084174
0.00026330632112736823
1.80372699458792115e-05
0.000243520664228561801
0.000380883807202252352
-6.66503677946640488e-05
0.000163860302393217339
0.000480090880258916017
-0.000171648721372854077
0.000139271037508777905
0.000572841295286180855
-0.00026364442956643109
0.000104662768503599864
0.000960214907729307226
-0.000360487291158411772
3.06871075391068507e-05
0.00138376116357291634
-0.000853162000053107232
-0.000245490546385267227
0.000697914800537261263
-0.00081886434981081062
-0.00016317750410565487
0.000874297358501276525
-0.000297941366094641228
-6.10195298926262847e-05
0.000974972151292098372
7.21149198189344469e-05
0.00121412114625121304
0.000130811605248195466
0.000558960858040932307
-0.000103182278248680013
0.000200206076040674192
0.000528811018920199733
-7.39583672124972252e-05
0.000192021979058898119
0.00047662017682614658
-1.85864989451926853e-05
0.000172641539676210909
0.00041239319470783172
5.98674758588685799e-05
0.000135361655145512812
0.000342347809781766172
0.000129637076478480062
8.71228919642863368e-05
0.000270482217100258347
0.000208918361710104544
2.92902948641032531e-05
0.000200690269249375106
0.000302700419233637211
-3.98897854006207778e-05
0.000127229068941343761
0.000405845312453639623
-0.000122795881287655407
5.90896486099396726e-05
0.000474282064696585949
-0.00019807216294812736
2.52507450412757886e-05
0.000506275182632449678
-0.000251914928963940224
5.29715818811587265e-06
0.000918330144432111424
-0.00036229644616241302
6.15316716910490041e-05
0.00124055889730561968
-0.000768763510462899488
-0.00026237711475243314
0.000912237037489472885
-0.000656014636385709115
-0.000179443140756397094
0.000877626320007649668
-0.00029712555134190575
-7.05737570360119793e-05
0.000982193155357568301
6.12124505548573351e-05
0.00117918919033707442
0.000126663821959279398
0.000405187520132666533
-6.61299122003623958e-05
0.000226228740998594789
0.000332154715977654746
-2.12509429674726213e-05
0.000208167181173103579
0.000274788666764521727
4.1109426304859627e-05
0.00015876757787403994
0.000224114775804072299
0.000113627397067818893
9.23045921343697241e-05
0.000174862895799983854
0.000167776294681193632
2.59168176949084003e-05
0.000135080498209847388
0.000214096944399578794
-4.19869992024232022e-05
9.71103499979823076e-05
0.000289245795950696181
-0.000115697902744674478
4.98686938035530858e-05
0.000379052409530040361
-0.000177662970957092892
-5.88752484612469732e-06
0.000434566224254333419
-0.000220312760695369882
-6.76325863069654942e-05
0.000442506117137859154
-0.00024578515824936624
-0.000113683907898609173
0.000862905173789134091
-0.000355506305499375588
-0.000100367642529337864
0.00112372161507823644
-0.000571264197138093865
-0.000287225201692683661
0.00100416232495560221
-0.0005459883464412294
-0.000197135778479131095
0.000860237153434790288
-0.000278458173880242273
-7.47614755228960277e-05
0.000985860826248050525
5.76016375687257937e-05
0.00114050091937622014
0.000124305232414219689
8.6013969336174592e-05
-3.72685711793103205e-05
0.000242277919710147909
8.08465235143807765e-05
-4.58551394306134315e-05
0.000158551567885931876
9.61981425074485936e-05
1.67131785377647461e-05
7.12586222009729554e-05
9.1591443405635977e-05
0.000105024935459628097
1.01487607113348106e-05
7.75247795419552774e-05
0.000148092881611364184
-5.75762206561252675e-05
6.05506717429122728e-05
0.000189426473653746486
-0.000136047758510368481
3.89903739055087728e-05
0.000253091342331460969
-0.000200322691803331483
7.07171957277807922e-06
0.000332131768509916778
-0.000243706761328303976
-4.40994795251805895e-05
0.000394081773151864481
-0.000264791112652705692
-0.000135923303022464982
0.000433678812439096471
-0.000289148827654724843
-0.0002088134722912652
0.000849493695769638186
-0.000374253396746951274
-0.000237205376008350151
0.00109154265737750208
-0.000501974897837903825
-0.000311724673172434665
0.00098949286075316386
-0.000482208447057976225
-0.000210344756942132621
0.000817143885249256054
-0.000257571870706468844
-7.43314088891256869e-05
0.000963931993135226737
7.44443858201659437e-05
0.00110135304842891107
0.000123266451451994625
0.000117318144959839844
0.000123319745742698242
0.000246534414382793238
-7.36120861337057308e-05
0.000143052803327237235
0.000270375480736223615
-0.000174233800554890645
1.90951973562521218e-05
0.000215255738719381698
-0.000155011495721368289
-0.000161657451266863721
9.62040835076552882e-05
-8.2529342189664227e-05
-0.000199732958431313471
-3.93885660075101308e-06
-6.25899766941826364e-06
-9.13547006707114126e-05
-9.18112342328120936e-05
2.31487968462913734e-05
4.32070987906695958e-05
-0.000101663864961686293
2.43513779418654879e-05
0.0001096963344943711
-0.000143994541040518177
1.35831206842421562e-05
0.000159952602706306239
-0.000210208523252623932
-2.97429911857926638e-06
0.000210144615648366108
-0.000263465710845738554
-3.18320191543547003e-05
0.000280264668798710923
-0.00029470708353539866
-7.90751890410444397e-05
0.000369316121897904218
-0.000340442226824620383
-0.00019485923001196588
0.000483518878663251534
-0.000351107831906115743
-0.000293271896094516845
0.000871215793258450191
-0.000389099462060979819
-0.000309393464628766217
0.00104960403649594384
-0.000446109743284800388
-0.000320443874687055216
0.000932823815822037797
-0.000424009603580725967
-0.000210028871532515741
0.000728384160565707104
-0.000207429318313435257
-7.14269005581365571e-05
0.000920644857645807214
9.28697302133803574e-05
0.00106318495310103712
0.000123147364165118083
-0.000207818094074627748
0.000263465052372378839
0.000228425844357956636
-0.000336566651552602401
0.00014816128800119549
0.000170616810968303152
-0.000339843805438594989
-0.000116457354895978422
5.95741425986337093e-05
-0.000276787993706104237
-0.000329359693713030801
-5.79064208690808758e-05
-0.000187160224339182773
-0.000336644685829373474
-0.000164370489659835763
-0.000101488445090563745
-0.000201597905165715711
-0.000212511476646922532
-4.24314757802630885e-05
-5.28700888069998402e-05
-0.000207658812865078548
-4.10990657842714432e-05
2.97433660745537165e-05
-0.000187673360319558794
-6.46206004359808168e-05
0.000105196945815334229
-0.000229128902624051395
-0.00010020842801533185
0.000156599926729389486
-0.000278797235952853021
-0.000125681284908583317
0.000220538885886790921
-0.000337232441146920127
-0.000146684681938499383
0.000340373505226930213
-0.000394850982618197288
-0.000264993138789032881
0.000558572264566290552
-0.000385077279400542524
-0.00035374395059327554
0.000890109236453898601
-0.000389661476337119076
-0.000336164668948965518
0.000972618937045533903
-0.000400421466119441202
-0.000306783228486003155
0.000828052701605068225
-0.000357731700020385538
-0.000203658057303725412
0.000633214910048233819
-0.000144629726635050267
-6.81850553651036948e-05
0.000866539939828369146
0.000112256385774043085
0.00102601540934531732
0.000123147811901011501
-3.34015699976554671e-05
0.000218171333453160072
0.000249813818615565513
-0.000247284694055760251
0.000207946563826575981
0.000354229639526613049
-0.00040237397275987675
0.000152712352365661251
0.000311204959305424198
-0.000443253791338809537
5.16673521725320137e-05
6.57075132349647944e-05
-0.000418547423647198068
-6.6956895183453244e-05
-0.000238594214585576372
-0.000345933916217736862
-0.000176666375563495659
-0.000454987371663677061
-0.000268255478436990775
-0.000237169589014351228
-0.000439302661149555814
-0.000195907637516798405
-0.000263842984590658704
-0.000285654654014330634
-0.000135661905404910389
-0.000265430876349527381
-0.000141859932228621024
-0.000127508213791568785
-0.000247182081284120256
-5.29582148907473712e-05
-0.000157522986343841618
-0.000257437499151726634
3.2259673608412353e-05
-0.000195862136785657876
-0.000281539487045456838
9.53058146808831485e-05
-0.000206477560943389308
-0.000337520621247918025
0.000154660935424658292
-0.000233420911023349178
-0.000395963772216000227
0.00031664314236105011
-0.000326438065303163234
-0.000393165404705808261
0.000612217592292450949
-0.000352363177790625552
-0.000367424992652146392
0.00085274682781718604
-0.000317530968819822548
-0.000346556333451700747
0.000865396606498303991
-0.000282161109283324751
-0.000288850252081152014