/*--------------------------------*- C++ -*----------------------------------*\
| =========                 |                                                 |
| \\      /  F ield         | OpenFOAM: The Open Source CFD Toolbox           |
|  \\    /   O peration     | Version:  2206                                  |
|   \\  /    A nd           | Website:  www.openfoam.com                      |
|    \\/     M anipulation  |                                                 |
\*---------------------------------------------------------------------------*/
FoamFile
{
    version     2.0;
    format      ascii;
    arch        "LSB;label=32;scalar=64";
    class       volVectorField;
    location    "0.900000000000000577";
    object      U;
}
// * * * * * * * * * * * * * * * * * * * * * * * * * * * * * * * * * * * * * //

dimensions      [0 1 -1 0 0 0 0];

internalField   nonuniform List<vector> 
7340
(
(0.320934136556100702 -0.428558876731976457 0.792140298549088184)
(0.257798587129439261 -0.406973719976683079 1.13550459594763797)
(0.310867548648505854 -0.315822143063689942 1.40730056998526165)
(0.421662661645024583 -0.147554549043778321 1.51938649859045682)
(0.619945145368184347 0.0516634901224198792 1.52483442169458794)
(0.89915865800678163 0.24355349014379496 1.38095990433293414)
(1.12428619602706137 0.367086703618133003 1.09420996055865438)
(1.23242303147566035 0.558812394080329344 0.741257148109821906)
(1.18230009818457282 0.781986434716555046 0.358002956337268474)
(1.01084589915146617 1.05391263155615422 0.0856484528864500105)
(0.371448421771093107 1.28365238440769014 -0.00947365523008908417)
(-0.0424637925889554679 1.23733838721165124 -0.787469217328246041)
(-0.336805296261066589 0.810867497804914961 -1.89797474592043502)
(-0.611768693831178378 1.03719135016250297 -1.13163286896938109)
(-0.20168985679778173 1.34416606375168102 -0.0440540585706735779)
(0.0202940493830997791 1.54432611676488274 0.160799831591139725)
(-0.567193561033707772 -0.227561370477453007 1.58347724303365966)
(-0.49490811447082883 -0.149176790856167474 1.63850479298550078)
(-0.245088244928003407 -0.152330676738899273 1.57428632409103453)
(-0.00561290272207196073 -0.177551930718166717 1.55251897654641424)
(0.314536487955255961 -0.095553402910220811 1.40889180097470534)
(0.51653998763088782 0.0821053382659297226 1.24576578076111888)
(0.637233363350333315 0.302811545729188725 1.03728302905817937)
(0.686761110961838117 0.589193548317045512 0.783731107332728993)
(0.634807379953233442 0.899967133956615206 0.441832462002421766)
(0.540290649751601681 1.2170556423631258 0.11733292935925696)
(-0.0983921324669921882 1.44087918298766082 0.0385100946782986689)
(-0.278305298616840446 1.20961911519518317 -0.845416165095680516)
(-0.515495247827267966 0.822374807715507639 -1.68414054256383361)
(-0.683783339487450625 1.01574923651820237 -1.08587844248476073)
(-0.284273998004822614 1.30647675038791489 -0.0736990908384512894)
(0.00436899595571911895 1.48745300877142306 0.144939748065987473)
(-1.41710420267838333 0.0688893335340775154 1.73300360789276353)
(-1.38402640555220002 -0.0813321626543913878 1.39024249259951582)
(-1.0781053812475716 -0.200907437512140269 1.079752966628299)
(-0.677361600614086568 -0.248282156382051533 0.916514405687553824)
(-0.253143575796998255 -0.177212292782483571 0.831622968992053901)
(0.019888427151566121 -0.0250224754128383492 0.715958388172979077)
(0.122425171737589947 0.197111025277126928 0.642862214439756219)
(0.118402129621678343 0.562812609103320094 0.587882618686922598)
(0.0247942163343794486 0.963329247338968297 0.397689762362388288)
(-0.0386991367015981913 1.36886085559127091 0.160498087262935962)
(-0.556987999054813443 1.41360933367509811 -0.195743468528731979)
(-0.560136214301014679 1.03957768435817255 -1.19759898314956326)
(-0.679517422061800214 0.820336637199029495 -1.54620828021084256)
(-0.724755399385124677 0.989009842670792061 -0.968142397610679772)
(-0.328737094831480448 1.25474902016248646 -0.0373754835654501738)
(-0.00476737653630135427 1.4163385411582885 0.135547259954130306)
(-2.21019034694161931 0.331517015764758227 0.764240474010318027)
(-1.93831104475342575 0.0308731828065207103 0.444043161701743128)
(-1.64056115180693762 -0.223170482724539682 0.317369660694775013)
(-1.31272512551024501 -0.339440179334400738 0.246950793253637724)
(-0.924399552753362164 -0.274181691964910601 0.273567951611281501)
(-0.561759602975668959 -0.0797837849085427653 0.318132758383903258)
(-0.402085444404710612 0.177872981829470311 0.346807633400946835)
(-0.403453422683958896 0.590966974479622431 0.382278809771903982)
(-0.512442650522481391 1.06455411808173483 0.302035558412808269)
(-0.618385241698761412 1.34987069701410767 0.00988935954421951008)
(-0.828729577350959867 1.20748247673989484 -0.638421101268729085)
(-0.760838057873635454 0.854280366758766285 -1.36554144899963115)
(-0.780047916212422421 0.759789459042337634 -1.35685852990406164)
(-0.716382328045550132 0.933216392791673011 -0.773535173582147517)
(-0.342137791221253762 1.17734347077752921 -0.00209111466220410908)
(-0.00976388692327541212 1.34001904938893479 0.130992552262679363)
(-2.30103235522413296 0.706694874707983756 0.966454247856640358)
(-2.50689933738217441 0.969888259068966363 0.704038674197333458)
(-2.42921567562166008 0.796898057268890514 0.312501657647019981)
(-2.25141487207141067 0.405449926781260239 0.126675655090420225)
(-1.97843902060939625 -0.020898439466780272 0.031249979365084439)
(-1.72183582832809812 -0.30960360182233515 0.000548300104351619189)
(-1.49291409299342637 -0.443805649623422172 -0.0283311203221707636)
(-1.2533649546359642 -0.355727511613724789 0.00358710194045848418)
(-0.934947809787963435 -0.100354040276745174 0.0779574350681216111)
(-0.779866929315900181 0.230284297562232371 0.155803208363124113)
(-0.802880761853482561 0.66267406092424086 0.20550772572632664)
(-0.905303882151251238 1.04215485431461796 0.0715400329366368548)
(-0.954624196538199743 1.13702564291906416 -0.351512133217062095)
(-0.95606300305466374 0.916893248482587131 -0.932385953281412605)
(-0.857537381586676473 0.698266781215410304 -1.28526863574427952)
(-0.846274401130657106 0.668083985600421482 -1.12407772588464949)
(-0.696206506137536429 0.867340104341401741 -0.606079213276864981)
(-0.354519161548796979 1.08907515015725642 0.0138790182272441262)
(-0.0133178391394624014 1.26322809472651842 0.130995241776317356)
(-2.44919951290199345 1.15286273493003044 0.336537213444329186)
(-2.43951118350296525 1.24775494334078885 -0.0381151932828578677)
(-2.31414408130188631 0.862748484353696776 -0.204789999775395304)
(-2.04696466273714073 0.352748640571722283 -0.207106191912442172)
(-1.7823069436413066 -0.122764771001982714 -0.17293797642626163)
(-1.60946043834909247 -0.431245906313756588 -0.156299902128728435)
(-1.4662890635422956 -0.559953952710991465 -0.156257054702160225)
(-1.35232800411114562 -0.43542558099955686 -0.127069729637745765)
(-1.19898383783791007 -0.118589002254700274 -0.0461445646317130906)
(-1.07038364089398796 0.224528544332429747 0.0296488687002046322)
(-1.1058025588804441 0.637657601500015492 0.0142891353741103691)
(-1.14480681278308039 0.874407446688242995 -0.209840902621209052)
(-1.09780279222844701 0.843803313045660364 -0.597157132818770253)
(-1.00209970956772221 0.649244006344472102 -0.96966000911695327)
(-0.910375351426096602 0.532848463270768402 -1.10807557641467413)
(-0.838570004867714047 0.589323769495311733 -0.895060656743096872)
(-0.665182975100589213 0.806707778015029131 -0.45328808548566224)
(-0.363583410891280323 1.02885564351595016 0.0258601532733995221)
(-0.0180497768994604853 1.18031101656768289 0.129540212841211949)
(-2.1536667897663202 0.51530856638019118 0.326353976180169536)
(-2.23682046011611524 0.810403150067301348 0.0608470220935931616)
(-2.32112512808635252 1.13142154113605153 -0.164058236849628697)
(-2.22523460493830472 1.17078009226226643 -0.417222873522980486)
(-2.02739960420746579 0.759744320595759248 -0.480323143200489189)
(-1.78080968143786711 0.229433798204379147 -0.462817852099592697)
(-1.59856743527509315 -0.221222510182844334 -0.42908081165201134)
(-1.47473705394024179 -0.519521565749193281 -0.358378556823732208)
(-1.38884260091257472 -0.667042978011310628 -0.298450846008848747)
(-1.35269963459098563 -0.521684231117890862 -0.252878682464211968)
(-1.36100143207022706 -0.141758226245623231 -0.175724218327178411)
(-1.39149837650677366 0.260968648885920806 -0.114446205036932189)
(-1.36686751273742479 0.493822579702200226 -0.19921534201264593)
(-1.31523665100448928 0.53155665734490487 -0.407113813118896495)
(-1.19452048508772046 0.410689536245445852 -0.662055448213727415)
(-1.03814309786736469 0.27660525636499822 -0.865386495679930978)
(-0.926930893785857579 0.345608989589593185 -0.915658897774064728)
(-0.824317868564139355 0.533403953260737196 -0.707178982441637682)
(-0.644727573502999918 0.751889725533120279 -0.323945820761058656)
(-0.383536210329883054 0.971737708438852987 0.0338956610049902518)
(-0.0262290899993729149 1.09462296325056041 0.125666067109849094)
(-0.568587338732571501 -0.345476255965947721 0.769973815256054794)
(-0.203426236140535371 -0.236445396523318252 1.03807797144542113)
(0.0824030531670226912 -0.112653784194406761 1.21883637735186889)
(0.384822432023749217 0.0474126138326233099 1.23377768764732565)
(0.692839266058133951 0.254370911895131113 1.02505721606798206)
(0.915168267987312212 0.435458267308774016 0.708961388269319426)
(0.998082103874584181 0.593469966918254932 0.388182486311556108)
(0.991160240482252819 0.765777378579843626 0.138032366477976842)
(0.855553940646255784 1.03986863448101952 0.0953973327793334186)
(0.413522296799685884 1.34501044681105353 0.159452431344140222)
(0.151225246206468489 1.36409314404248661 -0.641081190500591425)
(-0.326735841369537039 0.82590552305894871 -1.62006254878178102)
(-0.678796159977696045 1.11112612003333489 -1.2200241509173384)
(-0.180424068387450676 1.36011116003996357 -0.221109258447895751)
(-0.0535264553037415602 1.52409256697105766 0.0888415162887520593)
(-1.21732068343571354 -0.212933673574951188 0.866407755534715829)
(-0.865625142993966867 -0.132820033141141491 1.06373247435112561)
(-0.510543971909610983 -0.112641393112479393 1.1614179974805916)
(-0.222775761465997091 -0.086522717321795159 1.26953554488761378)
(0.130503368299723949 -0.0104181061210122383 1.24919956048898118)
(0.384188453453769174 0.19200842942499502 1.16972487545519854)
(0.595710416065912574 0.43300386487135667 0.945061090172044205)
(0.726441785227969317 0.672309839022335765 0.624748974333090623)
(0.715385749955620431 0.866796281199677887 0.29201868237880757)
(0.601276732561802474 1.15955365169738145 0.18238346869032232)
(0.149977138011661792 1.49871857879718151 0.298969891844080848)
(-0.0593911525566730852 1.35451818549248837 -0.524598944393726452)
(-0.515579996705226584 0.904234387716246091 -1.4412411509778591)
(-0.738340285516186912 1.10046650651840849 -1.1825439689956847)
(-0.26365576769341581 1.32464060436996922 -0.262651897092013809)
(-0.0706593887545946542 1.48297697937361961 0.0727017342204512862)
(-1.60918365614984737 0.176600139586678584 0.805097538239033517)
(-1.37790715197580149 0.0719375997020076791 0.770256654056496015)
(-1.0821780705116395 -0.0408264832660209659 0.741356972685170423)
(-0.776562126236379435 -0.112417915238556557 0.704361698287190308)
(-0.431575105089167022 -0.0869115043498608769 0.714150694759378979)
(-0.0686501612093965152 0.0938437681426261272 0.795479065125648588)
(0.160630542563330453 0.353281012723868637 0.754342971415564612)
(0.342008080334153475 0.651632362925389064 0.605038170150361099)
(0.366493255034553878 0.919888934782254641 0.351000288600018251)
(0.303782425491698371 1.25103154779007708 0.249930856464090023)
(-0.154624852480426844 1.58589220333166092 0.268660501981212774)
(-0.356236313328740284 1.28017297934389762 -0.784356133090449825)
(-0.656890284252724665 0.928626570641158833 -1.3419905798583418)
(-0.737723883071729203 1.05667596940242015 -1.07007308424723369)
(-0.319514995847098082 1.28894273362940148 -0.267159234270127444)
(-0.078808022974875741 1.42528222989800502 0.0675551762264882671)
(-1.87512392480371082 0.52094314929393859 0.146126411640722792)
(-1.70303396140469743 0.261080742425548795 0.136111540937213255)
(-1.5122473791271247 -0.0304608213978175002 0.171116080905158674)
(-1.3051511628887551 -0.213802993142412412 0.15705852319847885)
(-1.05542188569569362 -0.238626907326809551 0.153331279166903284)
(-0.70033795545377675 -0.0679050854356150341 0.222837188267514225)
(-0.328247658200225556 0.217951602080367235 0.377828719444193162)
(-0.0796657251131341337 0.571305022010268226 0.399460006788764865)
(-0.00671940619848843124 0.925040065248798449 0.302705224294536668)
(-0.0350615393062503611 1.33530622427439205 0.324200215343368736)
(-0.420587678301000412 1.49226227781147447 -0.000899895543808690301)
(-0.61026826564446357 1.06489189592399836 -0.98725020186008694)
(-0.715226307647625514 0.877794104028579047 -1.22239466645228623)
(-0.730194288062702146 0.995746814890902221 -0.918165146191978754)
(-0.352046370034401923 1.25115791560317446 -0.244581243414325716)
(-0.083362323501265656 1.35629646123602177 0.0649573926466366913)
(-2.09985711763876459 -0.170070442336226563 -0.165805388173469348)
(-2.11515612230051131 0.273568090837885802 -0.333144039426160055)
(-2.02071473280179648 0.539421572632868385 -0.406607938513093847)
(-1.95440981895000609 0.668841735418542749 -0.256967166934552904)
(-1.80686070967682477 0.275159122906515452 -0.169259189406732402)
(-1.6328318284909813 -0.0862980676203209673 -0.0483146116194972247)
(-1.46152595834651522 -0.322269856030634294 -0.00695391749670985684)
(-1.2897831832661899 -0.412583808775673133 -0.0126851755741875342)
(-1.05996384645838004 -0.29703353277734823 -0.0198177347413522262)
(-0.710030483574108473 0.0456714235519065093 -0.0174098638974616443)
(-0.440671320167559721 0.477099361703186897 0.182526717132581895)
(-0.342344153920323913 0.91157022163723056 0.263619251992201153)
(-0.363863466447680195 1.28220327690016855 0.264405219509214695)
(-0.594067692966676497 1.24826084475472321 -0.284475021152886365)
(-0.688385572253838895 0.872359157601170554 -0.958903175519479456)
(-0.735544896328207964 0.789669913721870342 -1.06690435052729748)
(-0.721432895413255615 0.951583370935257133 -0.747593321564696711)
(-0.369410179405773864 1.20825436144189258 -0.19881534851279789)
(-0.0843220641344788469 1.28241695530298383 0.067858549157252937)
(-1.98675087309343623 -0.135188960416391779 -0.17825536728997507)
(-1.97205096065829832 0.18560763796219848 -0.309330140107144935)
(-1.96635953978679656 0.515268478615547476 -0.418828796535549441)
(-1.89608946612632145 0.591343444473027668 -0.438983867983470666)
(-1.73425969201451169 0.240670648472052606 -0.293829301050357428)
(-1.57496947262174469 -0.120346972011565551 -0.172337875844999294)
(-1.4529815368801593 -0.3870895655119031 -0.0724601957694439025)
(-1.33961695680330517 -0.520726169624681434 -0.053673938659801454)
(-1.20630122450770938 -0.447859609572418382 -0.0345136348513523719)
(-0.997596360622118095 -0.136749035940015945 0.0283585850693994189)
(-0.740454800422266413 0.307611045915165748 0.139450762400689487)
(-0.654271506382880563 0.842646690983889113 0.276396018969879087)
(-0.660092149646973825 1.11918754020321765 0.107381967971252185)
(-0.725308965581845544 0.951245873524003582 -0.427328396053460846)
(-0.75196286759207398 0.678193742804023558 -0.842294526676048427)
(-0.767571180068758241 0.699491353574559271 -0.890907612331179655)
(-0.707407152954089735 0.91412557676142725 -0.582580964983940186)
(-0.378775916974151583 1.15738670596601856 -0.144536519465611524)
(-0.0851874862253236831 1.20235231491135086 0.0740220662274767432)
(-1.78753883007201875 -0.352599318781815274 0.111239304126570682)
(-1.85205241101245544 -0.329008302535027053 -0.0182425279183272143)
(-1.92294346619040502 -0.161609364194011673 -0.140831437349971)
(-1.91604062526899366 0.107256656670430967 -0.264530791389384956)
(-1.89015254232370622 0.447722757670517391 -0.370504698294954748)
(-1.77423261974363378 0.492866662390480048 -0.428706238778823356)
(-1.61956818139210812 0.178020502246875378 -0.385224212628327345)
(-1.48703516484907228 -0.149738631167347896 -0.298465914735196847)
(-1.40333884890773941 -0.406161654586764287 -0.196216930864755917)
(-1.32574605561422332 -0.588689464390440342 -0.131750212118989629)
(-1.25653755794544297 -0.54119521738949139 -0.0896635577312573928)
(-1.18378253759746332 -0.222345900219705628 0.0235510738907908496)
(-1.06922687219736878 0.371316534766162942 0.217761150471778769)
(-0.978467892605125122 0.698404228091311197 0.177869188867364136)
(-0.930616663783054965 0.757707315135393356 -0.0805212173183473129)
(-0.868455328017874173 0.518443734708239345 -0.449710711906905647)
(-0.824618956568612727 0.452321485166941262 -0.717486146770568767)
(-0.803761314823995598 0.628291521384863549 -0.720508440765699532)
(-0.692341450027689542 0.872943562603909706 -0.440177008554787919)
(-0.38689207688906474 1.08838464477161478 -0.0897176163522685477)
(-0.0890522320452543786 1.11722592791536202 0.0806520574071758478)
(-0.841721685740189351 -0.504248873779166384 -0.192967234580496472)
(-0.439288262850470956 -0.326751740976577998 0.444014459251601323)
(-0.0736709537243173673 -0.222943379525179203 0.672026244414029472)
(0.209657193459463154 -0.136152491537639142 0.797734495082111472)
(0.482249802472138334 -0.0167162028114239136 0.639096718231341621)
(0.686638933397792472 0.100938507913271525 0.401229618239426156)
(0.837043553823442199 0.247607265299871204 0.194052887845907129)
(0.937801378245859074 0.504213163121542074 0.074492852288124245)
(0.88139053308346238 0.836764148979775024 0.112418393219289259)
(0.737789787221165394 1.19817765032794421 0.182488530972909513)
(0.429090410695193269 1.33418404281137826 -0.402727508813809476)
(-0.14861319754594926 0.882667413554899527 -1.29841648194631665)
(-0.590807837906535682 1.12978540915218151 -1.28036698843692998)
(-0.210132997510693809 1.38438440962740605 -0.452964369439337988)
(-0.092075232400573595 1.48157968935018114 -0.024764904167721976)
(-1.36965515498686896 -0.601019270992797727 -0.51414738931691939)
(-1.04329372187447245 -0.314407211615194804 0.0321089429029510209)
(-0.682246888043837929 -0.220161506514838096 0.584411382817752623)
(-0.382855558364743498 -0.157133208987473794 0.877010380067457795)
(-0.0777016021458547257 -0.0820475861643089194 0.967386667900621111)
(0.195123361094651226 0.0388174045306177162 0.905575731833417552)
(0.420777808357996053 0.200409351431793781 0.6876848684455239)
(0.567758302113389735 0.350210262868933198 0.425861501948955723)
(0.674248060796674542 0.570758630526150057 0.228122196651840581)
(0.67470120308350201 0.91283193447725941 0.215716610436600287)
(0.558697063655865134 1.3200919335726371 0.346806226340928503)
(0.300334242854036537 1.50655594707996299 -0.221994431043901208)
(-0.36983799999790834 0.969211834798692773 -1.15546999147253282)
(-0.565372696111805184 1.11759466776443928 -1.21263449054249906)
(-0.299580841537032128 1.36672976997954754 -0.501317905251342011)
(-0.104328819452853383 1.46282925098183125 -0.0410428526276811964)
(-1.49638092264492162 -0.422702062766732611 -0.458724640495109526)
(-1.2600608704808296 -0.166208514291254161 -0.160854010446436047)
(-0.989711322787251158 -0.127982371587688853 0.323034543670333019)
(-0.765408220711159437 -0.135664683504965355 0.544286926086698708)
(-0.538907352905175441 -0.0908232823948323109 0.668091477579671023)
(-0.234722140930352208 0.0316860252851328961 0.737566084888252593)
(0.0551049816082039012 0.200058716485027016 0.655119705730438429)
(0.275208999695524203 0.382402140645234756 0.476270914124436062)
(0.408326761514993253 0.613738832463339379 0.296242139309773667)
(0.457603497024736572 0.943638203695345901 0.28786704163144089)
(0.342632418469885847 1.42882307632951644 0.456929229202987286)
(0.153025379164295594 1.49249204976710637 -0.109707951291359546)
(-0.451267398218851257 0.994117851893575155 -1.06328608815739645)
(-0.537716492433439663 1.06861570888068269 -1.10314063182266642)
(-0.36355500918767486 1.34702939323508741 -0.503084194910239813)
(-0.108095406852205742 1.42559070017138789 -0.0470351859822130264)
(-1.57717206028279011 -0.361236372333594569 -0.359377881455692882)
(-1.4382047069225754 -0.135802100095466283 -0.339915769377302446)
(-1.25256754532670622 -0.11680042099008589 0.0276149190537346712)
(-1.1157769914156499 -0.188240518763672926 0.221231450517314188)
(-0.976228119370710856 -0.217541014875050814 0.28111691265019656)
(-0.735214611704555598 -0.134117572934856794 0.311882483252184595)
(-0.362824910154520119 0.0791923740459038461 0.366542307610742024)
(-0.0463899761592175969 0.317777072631062085 0.343727231470090822)
(0.141665265146028618 0.591936141221496737 0.278023131013767133)
(0.251043867435880363 0.975625171204994479 0.341754637371596059)
(0.148570333427214707 1.46347703491743508 0.537903846603202562)
(-0.0373982364365203143 1.41964608553247285 -0.184048920110528952)
(-0.476227650014703519 0.961193746165678209 -0.960154607215775946)
(-0.535029603020924394 1.02517398694624995 -0.966305094602275538)
(-0.403663605537405934 1.31601060853848462 -0.469530520824284647)
(-0.108359241387341113 1.37400626179429808 -0.0451127216902557568)
(-1.74229427165007755 -1.14849856096572678 -0.0601890401461660923)
(-1.7481355265574352 -1.09167181276727399 -0.189470655457167708)
(-1.67143220301524975 -0.806546998645824242 -0.232900578400846325)
(-1.59961645111847672 -0.400602920223457282 -0.273706694179405963)
(-1.47986384504988244 -0.223031957769153355 -0.342211170750537252)
(-1.33397047281846759 -0.177720010578235776 -0.184471432988532802)
(-1.23264175263667974 -0.241561762514058309 0.0309632159694248829)
(-1.1576651256207926 -0.330418410554663367 0.106797204379311644)
(-1.00949118846181074 -0.326592803807927268 0.125604738465594723)
(-0.736996966773410089 -0.1645659170806128 0.141015737047691214)
(-0.347329329613782767 0.161015794217618496 0.158592907130508887)
(-0.120868445698475671 0.536682815351042675 0.237721309173766548)
(0.0233854703393737151 0.976251889673762641 0.390889700651353422)
(-0.0594269377233055882 1.40361063326613067 0.521744061774320311)
(-0.197548079734228943 1.21666240034720308 -0.283306872160358325)
(-0.501261366123187391 0.87665168745258748 -0.836073755844075395)
(-0.564241698984116913 0.996369734298846121 -0.819231603746971127)
(-0.432533967845586675 1.28148124644690475 -0.410698205465611088)
(-0.108997680659442986 1.31063784291965812 -0.0300590810324009791)
(-1.63759814711361051 -1.07814236869980729 0.0207991749213510928)
(-1.73631743951554673 -1.08760614405059397 -0.131820426249863676)
(-1.6911670797890801 -0.894190478817140755 -0.200800189755007213)
(-1.59855024614234842 -0.548937315652296531 -0.221452130817139992)
(-1.48397273813526498 -0.319999306462724176 -0.289475940501579321)
(-1.36483023360341771 -0.239043857541941129 -0.314475395602690611)
(-1.28321746232837897 -0.245278097518732502 -0.158269239522034505)
(-1.2459965783930731 -0.375478608275473635 -0.016286266401401097)
(-1.17236506645435878 -0.446882902765134371 0.0492073009956274302)
(-1.01223454261555035 -0.362946430126065867 0.128097720650942104)
(-0.698966365852624949 -0.0482920259049432476 0.225134282608888014)
(-0.395504111988032814 0.403887289131348415 0.31789110592378611)
(-0.269952779120751329 0.940721418039386914 0.526680960613706173)
(-0.274183289965654997 1.24014892165024748 0.453534591579777935)
(-0.32721655748353673 0.991032055842198223 -0.312265646474341851)
(-0.557877272327661711 0.774474515016251974 -0.694759835154618477)
(-0.616111385790801935 0.96824307384416175 -0.678144438925901816)
(-0.44895451256381036 1.23756443788358217 -0.336795049432917271)
(-0.111851766262005436 1.23147676612566914 -0.00860282156915426893)
(-0.883127592652071414 -0.528981852765412208 0.3166051399976193)
(-1.17133065299795991 -0.754893975881234636 0.290443532625756395)
(-1.4741320165357934 -0.992044515511821823 0.100792277058243757)
(-1.67194877711465151 -1.07287088656431262 -0.0765973484250486447)
(-1.69061283935070028 -0.966570537993635792 -0.17300411879671157)
(-1.60636840813939008 -0.704589695298382446 -0.210954483211816729)
(-1.49092476536668572 -0.481450862434187499 -0.250607290640895486)
(-1.37551922094260282 -0.365351725226662039 -0.303965366651921254)
(-1.28693425771293835 -0.28275010691046748 -0.310618089245965123)
(-1.25017356418687697 -0.377509183146171212 -0.166286907214128199)
(-1.21502848032154143 -0.510210082236530749 -0.0750068589619306558)
(-1.14226330867805537 -0.496595806914450821 0.0429479164336053765)
(-1.01154586731132357 -0.196806229187512061 0.242886256980303306)
(-0.74899511209941283 0.418637476531152075 0.555546323304572653)
(-0.610497568135802027 0.831952407138715322 0.534620776229610906)
(-0.552238923323669972 0.919142002865415586 0.267717630308134003)
(-0.533605804314048138 0.655035897131034495 -0.324558569698131849)
(-0.652311576138804194 0.692816609958867624 -0.595936204326793062)
(-0.67464144230153078 0.951819661463014666 -0.554782594399089612)
(-0.460190226206804553 1.18232723248549965 -0.258557531198522927)
(-0.117104972908920982 1.14460736833156407 0.0154245877983941529)
(-1.00161008419946773 -1.12585044572913073 -0.787152697950307845)
(-0.77667218918114056 -0.808122753182542009 -0.632936991307907926)
(-0.450923860149108457 -0.623111882542160433 -0.277131234655932313)
(-0.0419252175091063412 -0.507347709076225284 0.136425485515248773)
(0.180018637495478639 -0.44982795468932113 0.343077525406238926)
(0.336131588622383348 -0.432171661458719769 0.29728014387412921)
(0.511548036672846318 -0.305293448257913713 0.136531348318920082)
(0.726835808842571263 -0.0765521010212501657 -0.00624953952439998711)
(0.894105608602618673 0.219242998529592614 -0.0209960983383698369)
(0.932041272316562308 0.533661629102952673 0.0493564860507523448)
(0.883295737828547645 0.821922832253398239 0.0339659107981216263)
(0.712383137768423436 1.08532303272476915 -0.25329381647150212)
(0.162294849401641572 0.873177890989639827 -0.941736510712194441)
(-0.162211352601272674 1.07632236125447589 -1.19228767816726156)
(-0.203359848801467208 1.36951533498260503 -0.681207135251973961)
(-0.0723890755713106626 1.43040530351647699 -0.191924330117419717)
(-1.24210246365251664 -1.17203344877754323 -0.487962971456983585)
(-1.0565169208843197 -0.778814181190802146 -0.399665158598304315)
(-0.759023245063349838 -0.568094108611016391 -0.0810772584167423899)
(-0.398756197209372609 -0.442075612336912838 0.416885769554800611)
(-0.157372858338282351 -0.322054003131736821 0.604093615652570803)
(0.0415089485024714086 -0.237792875307605206 0.550093278517101325)
(0.246108760532680715 -0.157575876640799362 0.36887402343831488)
(0.464255494368405186 -0.0206137823855503111 0.180924625961260854)
(0.663896036683533808 0.233773127182520163 0.0931862241871610625)
(0.778035793132233366 0.559062334286594909 0.144844506779879256)
(0.777977077363112168 0.910311313594609817 0.218098731493319958)
(0.67309101497729118 1.18569555951507621 -0.00992541602306422355)
(-0.0229697026714921759 0.940805414259325845 -0.739272180559886194)
(-0.166634063924402553 1.05692747072698245 -1.08216455856334282)
(-0.282974120545751329 1.38620072673858963 -0.697603152574807761)
(-0.0869652248904813491 1.43487912380017879 -0.210453585225925777)
(-1.38131182853024437 -1.24546134042974832 -0.300073583864752358)
(-1.23382014128347017 -0.802768572573743122 -0.282331453740918448)
(-0.980813482672501902 -0.559617563676804819 -0.152963836336283271)
(-0.693672447996060093 -0.398136584664144699 0.251464702169774124)
(-0.477487666110702369 -0.261131421904271521 0.527286352042641848)
(-0.279175332061007309 -0.174703407664262594 0.536771717829878869)
(-0.0264089029530282654 -0.0937264501447670484 0.40545715000516136)
(0.210720918688975134 0.0192469124835168426 0.261891552308779585)
(0.426755624029349134 0.23774720939905436 0.168681545402120325)
(0.586292953754790513 0.563910408121700568 0.21013412321751157)
(0.636435572366530589 0.967391583173904057 0.335447403274952316)
(0.595849197331688618 1.26765189820958324 0.175439407608957237)
(-0.0957714194004917752 0.974676163112390137 -0.59133340029572401)
(-0.186526118634644217 1.00301245519039828 -0.953973082018522489)
(-0.342104147005261094 1.38335780557643662 -0.673970690069456313)
(-0.0975285032169037336 1.41972718551938404 -0.21575397591075926)
(-1.45854625908117841 -1.31380633117881351 -0.1906880611710427)
(-1.3407384555890709 -0.901865598184244943 -0.181610022390233217)
(-1.13964881531267626 -0.621124744963194475 -0.207627703384297368)
(-0.918775652744130533 -0.415887751931423189 0.00372338513601287377)
(-0.724372244556841238 -0.263824494722714631 0.272884122820830077)
(-0.531267620167211185 -0.167475454579823158 0.314637212740496719)
(-0.256936510246574046 -0.0680438811129964322 0.24526871654803889)
(-0.0240451513442995757 0.0300410961000775745 0.182528565510777979)
(0.187932685066747263 0.230675902343552369 0.161406148358636398)
(0.385665804874180396 0.550249101932255513 0.248982003807286578)
(0.463723467218762675 1.01280866773620137 0.418600771022144491)
(0.508660094285640518 1.30187500209812712 0.27187870793512986)
(-0.121098989721024231 0.914158365359512004 -0.454587941492146541)
(-0.242738162007530039 0.957859578616448104 -0.816996755191361723)
(-0.385431626753147794 1.36791622898224752 -0.622887572845930659)
(-0.107438474658972882 1.38721950635918745 -0.205546143182016222)
(-1.41884418635931797 -1.26274992692747001 -0.151054931146428401)
(-1.5184949089564741 -1.43441365225289319 -0.221952374170823308)
(-1.53214352586725933 -1.47352686012359513 -0.201362312403361748)
(-1.49518185318549213 -1.35432975407289913 -0.147802775345387882)
(-1.41356519075715203 -1.04535107057594612 -0.130136366786725632)
(-1.2572946935265894 -0.735686728691373859 -0.170102126940058052)
(-1.07877534065646619 -0.468106145679105468 -0.13231179804601842)
(-0.92113036326467157 -0.284255267986134819 0.0565770545290976354)
(-0.760540366530585432 -0.193039887130724425 0.136843500286383979)