/*--------------------------------*- C++ -*----------------------------------*\
| =========                 |                                                 |
| \\      /  F ield         | OpenFOAM: The Open Source CFD Toolbox           |
|  \\    /   O peration     | Version:  2206                                  |
|   \\  /    A nd           | Website:  www.openfoam.com                      |
|    \\/     M anipulation  |                                                 |
\*---------------------------------------------------------------------------*/
FoamFile
{
    version     2.0;
    format      ascii;
    arch        "LSB;label=32;scalar=64";
    class       volScalarField;
    location    "0.0899999999999999967";
    object      alpha.water;
}
// * * * * * * * * * * * * * * * * * * * * * * * * * * * * * * * * * * * * * //

dimensions      [0 0 0 0 0 0 0];

internalField   nonuniform List<scalar> 
7248
(
0.00116151867176647345
0.0159948855521936245
0.000523937676822452069
0.000963312445483351619
0.0685186026785190305
0.000667502305521579763
0.000655246508032457527
0.000603660412266092579
0.000631238568510072246
0.0691107919315739339
0.000766225593427618721
0.000704145959948428461
0.000654370945662566738
0.0027307756995319345
0.0715159547846711541
0.000739136804117722108
0.000570781798782459904
0.00125048575683389023
0.00330076463314417281
0.00844938752409161997
0.000377183172411736916
0.000159774156456789207
0.000802853096310781039
0.00298141994401844882
0.000180291301933414128
6.83604432739656049e-05
4.05660803348327438e-05
0.000453840196784004841
0.000779848830879009344
1.89945361263722277e-05
6.93114154518214665e-06
4.23825596360700313e-05
7.21178920711053269e-05
2.37351300178438751e-05
5.65727547710051392e-06
4.95297822340233826e-06
2.45400605971342327e-05
2.70552981731526769e-05
6.20729980699325052e-06
4.26422451298548954e-06
3.52149788145000035e-07
5.35839692474617131e-07
3.81365215835654317e-07
8.68887827097314291e-07
3.38928777609967472e-07
-2.23852479710033666e-14
2.84176379297743914e-09
4.5056890937831778e-08
3.31986677005616755e-08
-8.68714578610305783e-16
2.85681143159109713e-14
6.39146830275546531e-10
2.52255293895854032e-09
4.50925634020874588e-10
-1.31052107813540542e-15
-5.13410976539119786e-15
-7.32824136576338453e-15
-2.64151481809835475e-18
2.89732618387822962e-16
2.74276960799829806e-15
3.06109553794865029e-11
-1.81211265111553394e-19
-8.99264760199854575e-19
-3.70474131042852047e-19
-8.0153509867828967e-22
5.93702396554914379e-18
1.12478112637520519e-16
1.49471094903681804e-14
-2.01976677867942129e-27
-5.47379706150123602e-26
-1.29577477382175946e-24
-9.5232272824949532e-22
-1.15453161699211119e-19
1.64590760380788319e-17
4.49818251198357694e-15
-1.74721089771367229e-32
-8.48350749796784681e-31
-6.07334218106111331e-29
-4.4670584155700922e-25
-1.19784660577289836e-24
-1.79731351749814293e-24
4.3527184218681119e-19
0.0015797233784127767
0.00397584412885325714
0.00074264597619501068
0.00145480361084457193
0.103801486893042444
0.000699581336227010761
0.00066811731288234609
0.000654926112878279651
0.000700666198007040197
0.127538164142716404
0.000698229730577891233
0.000728627917486575566
0.000772954035228492825
0.00148076233663026711
0.0663034819636551531
0.000835202913567986943
0.00100589029772019567
0.00140706552792859937
0.00251539163847137263
0.00777724357366017197
0.00180740182902729076
0.000434353103814461212
0.00211096617968117763
0.00527143083081183829
0.000504689864787912293
0.000198033996622486408
0.000266039966749476782
0.00178442258023839241
0.00190208421532554696
0.000163259288433197103
3.05388768535554069e-05
1.49576223159155938e-05
0.000111847892901233151
9.21854957413955245e-05
2.78557858923623161e-05
-2.34259554711804221e-07
1.23969182243441934e-05
2.41522833134204755e-05
1.29433951761013465e-05
-1.01821502414685245e-07
-1.63277263852504185e-10
1.7400042321165328e-07
3.48020769241300839e-07
1.43756045945724812e-06
-1.03783059424831429e-08
-9.27205164108722109e-10
-3.82445044238321579e-20
1.77876798284396977e-08
5.92070741123648621e-08
-2.31303220706295148e-13
1.45412544276169121e-12
1.00716047248888667e-09
4.97030923427268695e-09
6.25212692537094713e-10
-2.6145506672137416e-14
3.33414858424595773e-14
1.28232915838152468e-15
1.45644775451445485e-14
4.80272526081450779e-12
-3.59103634249091953e-27
6.12180109961819264e-19
1.09552110341080415e-17
2.43417895137026868e-16
1.08908751121833058e-13
-4.14073465564895991e-26
-8.07653380597417031e-22
-7.05870473923320006e-22
1.94775973553536686e-17
7.39084166852177298e-15
-2.50991330515235719e-29
-4.36834170670446171e-27
-1.03733907998790805e-24
-9.63214437647176451e-24
8.851373428531505e-19
0.00183843125742185593
0.00575966825178482467
0.00111700621027727501
0.00216157543366185013
0.205962333993451624
0.000644813719112170684
0.000726500070273013035
0.000758312341303093345
0.000984204350017712755
0.2083960153147561
0.000726092742890101879
0.000851491272477144156
0.000898650130015647523
0.0013964731128642278
0.0593704108807908762
0.00197525086304324972
0.000756330072924964181
0.00116967816951078253
0.00275680964220801359
0.000536402498681859863
0.000809471055764949057
0.000332321212490337939
0.0042373592852600105
0.00643964541309590115
0.000321558011773882813
7.08906597636875242e-05
4.82469597854266166e-05
0.000931664776064627291
0.00229552473342511682
7.7079171640787546e-05
1.1251723712867813e-05
1.98226096559803294e-05
4.33689177003559285e-05
1.59024154708300025e-05
2.2784071644973673e-05
7.33688817743069571e-06
1.14241072268967015e-05
7.97325648067166839e-06
8.90139004270603426e-06
2.3544084123227262e-06
9.44945453223922051e-09
2.1436227579508332e-07
4.9053713184157818e-07
2.01588872937139698e-06
2.29161296598739914e-07
-2.98514914574562873e-12
1.82225024631704539e-08
2.30262154608465585e-08
8.72746431610324323e-08
-4.34429094773750557e-16
1.16289903938515898e-13
3.36083102670905708e-10
3.35560746296016758e-09
1.08852359201978496e-09
-1.11038775865224697e-14
-2.90639530447097283e-16
6.71804933452160684e-15
3.40887505147373695e-13
2.46391873721389812e-11
-1.10367211332861075e-20
5.85041229034694146e-19
-2.43300667377090049e-17
5.11800655170821394e-15
6.29618305039657987e-13
-7.86116482358383198e-23
-3.39739967596816667e-20
-4.79928644870387609e-19
5.33889769087770914e-17
1.01068585133398034e-14
-1.08045665741518935e-26
-3.87344406565756591e-24
-1.58533609709439399e-23
3.20898902246560546e-23
1.56194708232506023e-18
0.00286353360868888763
0.0100059039431056526
0.00172984152630452663
0.00316424563375700347
0.203049983836870118
0.00271624913180435303
0.000870636033654736919
0.00113856755504369769
0.00166232735814381941
0.225071849250766481
0.00634772085127574201
0.000794592247878928752
0.00140367459479661554
0.00231700819276965415
0.0583269090092012887
0.0378051485202305637
0.00093363364331326866
0.00196964048702575429
0.00306236680212547581
0.000246988287552303001
0.000394681661739256515
0.000355355233867819006
0.00374651453229755049
0.00624412423024205306
0.000161697437604833101
8.67069690035694886e-05
5.06829545676719368e-05
0.00092888386583941376
0.00291665695988728955
2.36836781908320758e-05
3.32870675961350102e-05
2.87382562965814564e-05
1.62010152887171743e-05
3.71755906318437285e-05
8.27310476793216174e-07
5.18134171695133063e-06
7.57832327801286038e-06
3.35254718783939679e-06
1.98597515426180357e-05
1.82716335544677328e-08
-5.88678372791707328e-10
2.92771015037161741e-08
1.26027587818016326e-06
4.23937488679621624e-06
9.92760795281405973e-09
9.5736592416601419e-11
6.63792784789299788e-09
6.68349387682802337e-08
1.89108043288547516e-07
-1.24722609508890189e-14
3.52160022773141843e-13
1.34243093308344096e-11
2.30811022449841285e-09
4.21660082829051326e-09
-1.16276235638137838e-16
2.70326818947347299e-15
3.50187877489898897e-14
1.21927317313351967e-11
1.01358175905189288e-10
2.88208324696335328e-20
2.57310946367338691e-18
-6.07266890396428241e-17
7.2852644700031965e-14
2.02537255667113868e-12
-8.47567943512421823e-22
-6.51126406099381189e-20
-1.1192782109463228e-18
8.52916373834342173e-17
2.42518286028053784e-14
-3.6724809069190819e-26
-1.31933920873453615e-23
-4.57081584809830221e-23
9.60119935947475049e-23
4.26875748116718533e-18
0.00344924045072402636
0.00851123656967790222
0.00240782383998269876
0.00341550425690646678
0.129083094208151006
0.00630848330275108476
0.00182505751138791633
0.00182457945156550396
0.00239031263817780651
0.12029992600848316
0.00531422357678026577
0.00196272956994583605
0.00228577313380065724
0.00286758790131214081
0.0117287000247832725
0.00166464582620290099
0.00201609572685998613
0.00192483905864322333
0.00270456023032435459
0.000162819720873760642
0.00220170627034438175
0.00233694960588174804
0.00143142858972313035
0.00232892171819875076
0.000171319195133794557
0.000855383727440841863
0.000856699798060926634
0.000697226399903814065
0.00140275385702470605
6.17353336529481294e-05
5.55283083179282553e-06
2.23340415253733634e-05
0.000135557019364969253
0.000183135343623838626
1.90996079071715018e-07
5.28016302782527701e-07
6.8080983749945627e-06
4.70766363442563017e-05
5.07093460817366245e-05
6.08136204753778897e-09
2.54098309191708318e-08
4.71636796224983046e-07
5.81842468155908337e-06
7.06546042015068414e-06
-1.38890842579325228e-11
5.63219815446388171e-09
1.93301290337848751e-08
2.50574914889052648e-07
3.87389874489559258e-07
-1.40258428801930294e-11
-5.7129280810878539e-14
2.57411820634470765e-11
4.34347821278415559e-09
1.39869496977907299e-08
-1.5946158570195691e-14
-1.61030155561383712e-13
4.23295814683907576e-14
3.12264216112125308e-11
3.42082399392207705e-10
-4.62246389415990102e-17
-9.6626894184963503e-17
1.74214387133761685e-16
4.34611312578025592e-13
3.61702754165491628e-12
-1.17802366992009247e-20
-1.24439822346425971e-20
-7.97698117736875144e-21
5.53911649840657848e-17
3.52443909835011018e-14
-4.14022576298381648e-26
-5.58936029313506212e-25
-2.41435011168092418e-23
3.25414669333008301e-22
1.10019872813789849e-17
0.00470173613029460039
0.00270134694156401066
0.00314577811211432445
0.00374974776786315012
0.162609883345988249
0.00658210768695696204
0.00315819172755316428
0.00242876959755629904
0.00317688516168029237
0.176104543135700897
0.00412877601019471293
0.00347140483388863694
0.0026794706916470055
0.00356746396198085857
0.0255946405197686015
0.00388639923554096132
0.0018897529329545608
0.00227495078786665948
0.00293153224506233472
0.000119855286638489647
0.000449017243210078989
0.00363171124952270646
0.00187393639679480067
0.00214484815903382645
7.01971788284528789e-05
0.00040992182935594817
0.00114458145731756921
0.000990733400436036912
0.000794453719997472428
7.87365292863812703e-05
0.000112112421402742006
0.000100401878000435339
0.000227041392713839296
0.000232681999352329829
8.43415599983198691e-06
4.39561310846788534e-06
2.98516202207478978e-05
6.45480733373625967e-05
4.18334697854155495e-05
1.13175258768058125e-07
2.32506966734919787e-07
3.82010224941142769e-06
7.98398663119326541e-06
3.96831298291000101e-06
8.42476876245674866e-12
9.59897992256301906e-10
1.08580214775729997e-07
3.84209451001650647e-07
1.93981759647537784e-07
-1.32599323085314711e-12
-3.77527911867400535e-12
2.32329138062367608e-09
1.112242675311723e-08
4.75734314214729011e-09
-5.29948682240306003e-14
-3.19900746542439347e-14
1.78575958241482052e-13
2.7343243153882999e-12
5.25303228753703258e-10
-1.52240011960202896e-17
-1.30998725040677703e-16
-6.46282593853813058e-16
7.57997056936965742e-13
1.13112425355893691e-11
-1.16661996399580124e-20
-1.88717403349615256e-19
-9.72326121962981402e-19
1.61526853338541303e-16
4.57377835731580082e-14
-3.61676451079278987e-25
-1.50636072250345988e-23
-1.39661907071873792e-22
1.80844705082195527e-21
3.38823422349686254e-17
0.0079806546360005632
0.0105713126514647877
0.00445324778589705709
0.00522661540834338818
0.181123841146692055
0.00497465468620156715
0.00396565022242028817
0.00331360014421877656
0.00523091481131028081
0.0988174389125468372
0.00393427014863286569
0.00285973940087929377
0.0030683653939367608
0.0046413248416544298
0.0100770376568810761
9.50068741834454717e-05
0.000562403749387532445
0.00153921866116234034
0.00354944964913541782
0.000122460114386950585
0.000188705048558921481
0.000544203039782437483
0.000901254144322611792
0.0015967484504282297
3.64246033335957457e-05
6.37017520803333324e-05
0.000318521953275070855
0.000784231000589450181
0.000934067821203640584
8.30817275825794778e-06
2.20852023707308664e-05
0.000140363287480357239
0.000291401242105132543
0.000195586158169366907
3.74107395878744866e-06
2.21185494822431931e-06
2.85045590628306604e-05
4.74366668211440083e-05
3.24502297793964744e-05
6.05878106390117655e-08
5.72502727490836194e-08
2.12487560600203288e-06
4.69415159865376783e-06
3.49628446057688687e-06
3.58936536394119127e-08
1.12078815540997322e-09
8.17513435119979344e-08
2.48672975510950663e-07
2.27839636716497187e-07
-4.54699140798170786e-12
1.26410863611671044e-11
1.33972420329172833e-09
9.68869227884123224e-09
1.35563859338116971e-08
-3.89414486059492154e-15
-9.37019901362208063e-13
3.17665300423586561e-13
4.53269168848683809e-12
4.73262820809934958e-10
-2.70562033340365813e-16
-1.40221595434863393e-16
1.01575843645610593e-15
1.82170164456904628e-12
1.88349645532279037e-11
-4.38257953085353635e-21
-5.30038960922653157e-21
-1.19134250261149246e-18
3.56549618150367267e-16
5.87285168538700946e-14
-3.39468067132826544e-27
-2.19348580414199646e-23
-3.10832630100405929e-22
5.17463013915528665e-21
6.65499608926278033e-17
0.0148963342261523753
0.016810316318809141
0.0064089239820136713
0.00657417162094473505
0.140681123462317786
0.00678840873241884704
0.00427140396544537122
0.00408347493724121879
0.00373337119585842635
0.186798304037926216
0.00545978851699723856
0.00269536590594323354
0.0042317339594820742
0.00411371083201972614
0.0401929846812594527
0.0166455022813609202
0.000834549077678263746
0.00262583283085406332
0.00460323603632404894
4.82279559362295857e-05
0.000433687750724225227
0.000356481498839772296
0.00131941967988514
0.00381171123819414297
1.99091111826811939e-05
0.000115264128766729307
0.000140478569851403646
0.000633146260809346138
0.000885294454285524899
5.14021820168292348e-06
1.15370217594233662e-05
9.84522066877125437e-05
0.000177798365535532298
0.000201752339080688741
7.40146312500588196e-07
1.32932415990118058e-06
1.9791706662334088e-05
3.82545001007035076e-05
3.90278986122825303e-05
2.76276269590673451e-07
4.21671697582611818e-08
2.33435783868698035e-06
4.48707987063935045e-06
4.48412132430324355e-06
-2.91893736241414366e-09
-2.30903402842629704e-17
4.48482529663020617e-08
2.70048039353164981e-07
3.9448282173040486e-07
2.45802105577142874e-11
5.68276052025077625e-12
1.6238930722833021e-09
1.47270774919289506e-08
1.85800674353254461e-08
1.01142611106583203e-12
5.72440888288848677e-14
6.15702494868187657e-13
-3.1533739268718485e-13
5.59342333912811823e-10
4.62523862658791351e-18
8.03648725008834489e-17
-3.71223580391008393e-14
2.64162085568610485e-12
3.0230245400019033e-11
1.03270871800319262e-22
-5.85767272006748478e-18
-2.9688809771515711e-18
3.83221554722072923e-15
6.41917119056139002e-14
-1.83887028904168013e-26
-5.24309121104452364e-23
-2.73529920570924863e-22
1.06767082485118937e-20
9.47886996404742343e-17
0.000469314261240192754
0.000173427498883785551
0.000853202758018099198
0.000211371063800240745
0.155794361807960469
0.00371150797256776781
0.00313984462355361513
0.00158982838596140753
0.000156486180236743884
0.171819951210648636
0.00460405333594261865
0.00453932210017358659
0.00370966997636916094
0.000641300619351735184
0.0333617042794658036
0.00776254741834068833
0.000157039525560488831
0.000397741099818831869
0.000631512822654633522
0.000161816512854632552
0.000464712605314578672
0.000139619372609607129
8.930050083049161e-05
0.00018101607839363413
0.00257189054402592703
0.00299300989309045232
0.0018338444384500168
8.03238830111196642e-05
7.80782907686374664e-06
0.000621325078296906439
0.0010545208333787204
0.00062706602677726174
4.12296742927576647e-05
6.81894241826474775e-07
1.70588129602185617e-06
8.79028673283732169e-08
1.73975622789331862e-06
5.22121039544648101e-06
1.47557439845039277e-07
-1.62540990366670569e-24
2.59980132346905864e-10
1.26889804265809009e-09
2.77224568564917251e-09
2.51039529940633174e-09
-3.85449982059052207e-09
-3.88070186296759575e-14
-2.73829438768149076e-12
-1.78093314593873574e-11
-6.18118847944056833e-10
1.39494164360912112e-15
7.23356674922757887e-16
-6.61058230182806426e-14
-2.93685601546639023e-12
6.22794015376045667e-12
2.27360549740885539e-18
3.07923044446279464e-17
3.37297742286898881e-16
-1.41185076149544206e-18
-3.68564635050478905e-15
9.49142549873610791e-14
8.55662406329637729e-13
-1.87103190854265241e-24
-3.72983487165134853e-23
1.00840793065021603e-22
-4.63750286632124903e-19
1.51638242389768536e-18
1.64790904169944528e-16
5.91320659697231114e-15
-6.57970070142073907e-27
1.29558371800305582e-29
8.30913159703153802e-28
-4.69352580220794092e-23
-1.86533120793342034e-24
1.08217628519726945e-20
5.86654659017490883e-18
-2.61400978790095765e-36
-3.07265100335616674e-34
-1.44910545967812233e-33
-1.82426525608498357e-28
-1.79758058995577544e-27
-4.81014478111896268e-32
9.91493509629826151e-22
0.00018690683908970408
0.000125121463533364101
0.000820356449260621493
0.000380384950324951106
0.11456963246809139
0.0054902364279267573
0.00168754890590307877
0.000430135301399847735
0.000144333620147779688
0.15679990089022583
0.0056126090873367656
0.00180647375758536191
0.000551460279381596236
0.000142398115433470956
0.0329482151681263769
0.00865601203722118386
0.000353472126711800361
0.000469201429162973967
0.000152610725027761858
5.80850619857698532e-05
0.000125461268955515164
0.000364841472828446344
0.000427906212757667962
0.000109358923579866508
2.54544269595798845e-05
5.75370411966924281e-05
5.70414798087341918e-05
4.45655477590247611e-05
3.48476186049023629e-05
2.9571302182168118e-05
2.06512969962277863e-06
3.72368327404835647e-05
1.02834064960362263e-05
5.80966340531577448e-07
4.22263703336186434e-06
2.02173857098343405e-06
2.42849479784675151e-06
6.5458314901502834e-08
4.04089090924004507e-08
2.32492897501570411e-23
-9.90108087264064585e-26
1.01503954176935341e-08
4.86192689265542552e-10
1.41474669310795273e-09
-1.49502675494130427e-10
-5.41559672926314457e-23
8.02091098495762562e-13
1.75648856477366753e-10
2.29043421471979521e-11
1.45185922750247804e-15
7.66045324429727469e-16
3.14983344836953368e-15
1.75173771057495589e-12
3.42743691694384247e-12
2.46001787284717533e-19
1.57660951219603509e-18
1.93919862840156906e-17
5.2495818348831816e-17
9.75292332764136557e-16
5.77494923048739108e-14
4.39010458788217771e-13
-2.24310224983802088e-23
-6.06103585903924433e-23
4.81757174752173575e-23
2.765606405302007e-22
8.81934903726289767e-19
1.67470661946784978e-16
2.66843129484584043e-15
-6.35230273176509163e-27
-5.47982254367705947e-29
3.01208146062883463e-28
-9.88488851163017352e-23
-9.8870765750680705e-25
7.37973428534760692e-21
2.64125403304603282e-18
-3.24383461937910119e-35
-1.40370778944562218e-35
-6.74222020170302649e-30
-1.17019288621992638e-28
-3.57960307105319785e-29
2.59483451447277388e-26
6.64677005873503076e-22
0.000108234674534403425
0.000113742438803345476
0.000292469879954002955
0.000102653193605552998
0.137152127327128059
0.004089780390577313
0.00225285267402524107
0.000724408426730286043
8.12515148909546595e-05
0.0937875587799244514
0.00466770130052342799
0.00264939346697000335
0.00181765166863083341
0.000125918038591115475
0.0202605909546034989
0.000135113973780114316
0.000489496693489718413
0.00100556244179254807
0.000573702648431003489
3.54833815593164764e-05
9.4492909774394318e-05
0.000482836989080189329
0.000647375859254350995
0.000521822843643750039
4.43413870772016556e-06
8.64577770839706464e-05
0.000122487904707968272
7.27374286936026214e-05
8.72439370447928924e-05
5.5406548104171177e-07
8.946093071226238e-06
1.47901027633155766e-06
5.54877607863396199e-07
7.70230385661891506e-07
3.89102582868367225e-07
4.2718121617444962e-07
8.53372840226803557e-08
3.70193023909699398e-08
4.49154400229941686e-08
-2.96687714348166961e-08
-1.92257960295049442e-08
6.57605058237943358e-10
6.89131188206013877e-09
1.12045263194242245e-09
-6.44747990060419042e-11
4.29394880527462551e-11
1.18368117319054464e-10
7.19342003510980374e-11
1.55096303701548968e-11
8.87229815456787912e-15
1.10416565057078435e-12
3.01044047084959716e-12
1.18467409319825044e-11
5.18397264992555868e-12
1.02623127443220886e-19
3.33420131634579242e-19
6.79154133911354728e-18
7.94785650632941795e-17
5.74559330171513639e-15
5.74228875347027586e-14
1.84457161395652067e-13
-5.84480920182364745e-25
7.5353338967090512e-25
-1.57200002552028926e-23
-4.19421969223007601e-22
7.01427285773567342e-19
3.81183427263781383e-17
1.01350959580195348e-15
-5.3524805004674532e-30
-4.32453016463541875e-27
-1.04590206345633357e-25
-1.97564078836669693e-24
-4.83238316740126704e-24
3.33177430795696412e-21
1.14661737835398862e-18
-1.51169327763528022e-33
-1.25784948294177793e-31
-1.01889012466990701e-29
-2.19929069867736199e-28
-1.35937808536854538e-30
8.38158688796388803e-27
2.35017736960773825e-22
0.000267663985556121104
0.000135162900995974692
0.00021333230491318793
0.000113781507559801751
0.209777908908959476
0.0123470605119430643
0.0020702163774234208
0.000296014087781428003
0.00011035679305491171
0.192832992619141441
0.0069656888283083692
0.00319338482594167666
0.00099827668921831955
0.000234136306881165197
0.0325944300230568348
0.000520956675382368024
0.000816543352700456492
0.00145058230617411748
0.000644662965784041772
5.63055516123243233e-05
0.000445714615967843621
0.000804563848194734936
0.00127609417555575458
0.000540945304441618215
1.34222504291550586e-05
9.01450103874790697e-05
0.000258872177491158975
0.000190503847710165046
0.000112677217272856898
9.39531917630031952e-06
6.02771579232365427e-06
5.88508954179768635e-06
1.25178180805650504e-06
1.027113900390938e-06
2.75934119796974286e-06
4.3495163221377999e-08
1.62671275619720862e-07
1.80736961661163376e-07
4.88117088032649154e-08
-1.49098065893523198e-07
5.47504528708060583e-26
1.81167752082946261e-09
1.28449133121027764e-08
1.17109957284043851e-09
-8.88512675722684692e-15
1.14313071487417416e-13
1.31573127877349861e-12
1.75978302464037504e-11
1.44152869132547764e-11
1.86872533155425144e-13
6.00172312708354559e-16
3.66627885589702021e-13
6.33722668477507537e-12
8.11206211357117555e-12
7.27688419914042428e-20
9.77600277676381789e-21
1.14641980714298953e-19
2.57822430657658118e-17
1.02065687371146994e-15
5.96499282197619475e-14
2.93461542083665584e-13
-1.55707074570694907e-24
-1.53718985029697437e-23
-5.22473855158534694e-23
-7.82230476917828068e-22
2.71475885776460664e-18
1.93250061531827632e-16
2.28230041424660308e-15
-9.08175383928700459e-28
-6.78815298733992167e-27
-1.7109655792715109e-25
-3.80899221407751162e-23
2.00021486655190393e-25
1.62946738091432357e-20
3.63923591800437618e-18
-1.77860419809724386e-33
-1.14421697910975889e-31
-7.88457301793925183e-30
-6.71947584599215707e-30
-8.03946872343789262e-32
2.08350785645343858e-26
4.89273237878178336e-22
0.00108879733370456709
0.000305087026397165651
0.000375996325787076593
0.000226502577199051529
0.232313717149957244
0.00556251763463912457
0.00130798437402222648
0.000463320139148437485
0.000239991164718669368
0.108499010751551328
0.00616711433081398343
0.00188560624711844502
0.000552333299069884213
0.000400947257859013027
0.00565474326790369602
0.000969852079573832113
0.00301623473884651523
0.000816246733429769463
0.000169592114181049095
8.25296065003957316e-05
0.000856340104747014478
0.00280803218970254558
0.00264767517623117413
0.000173012284820815265
6.09569430981404052e-05
0.000310253624433983442
0.000289098756212192748
0.000576567363506120222
5.99673577836727688e-05
2.24529113908740938e-05
6.63824864033749231e-06
1.0498720029631223e-05
1.26460710082170905e-06
9.46635998355902598e-07
-3.56522812924594241e-09
6.17724798452898554e-07
3.51865912154228746e-07
2.41995223409139875e-08
3.98080146772385219e-08
-4.83852373120974542e-12
-3.13834870427994872e-12
1.86787974245257071e-09
8.4523182486091387e-09
1.9951359164515261e-09
-2.07316983636938924e-14
6.30366756529159385e-14
4.40548224114337164e-13
2.03562342458750397e-12
8.22453339437090006e-12
1.40717519205750608e-16
1.4939089597179515e-15
7.95158667393994002e-14
4.56756048584417127e-12
5.96641714090300721e-12
4.09752040903252808e-21
4.71651662061946148e-20
-1.57036272828033894e-18
1.19385087995388872e-17
8.82245609340871383e-15
2.97951255330236729e-13
1.02531306627616043e-12
-3.85438227556530761e-24
-4.58097003256754626e-23
-4.86015390364997245e-20
-7.23268618727016159e-20
1.69283184207662072e-17
1.12418331132026468e-15
1.09437966208369497e-14
-3.30234561650200381e-27
-5.61648398947234587e-26
-1.03946663638743273e-25
-1.16839845227399049e-22
1.52049446148161731e-24
1.78212748218017121e-19
2.79707471977309737e-17
-8.98717468651978641e-33
-3.22005566291126185e-32
-1.32429898526559628e-31
-8.00060105481986593e-31
-9.96346021943116054e-32
1.78293713796175192e-25
3.21538267836444575e-21
0.00041679538958446855
0.00149382379891431949
0.000418681960289235457
0.000375954014142864681
0.188656084750062125
0.00397128739820122676
0.000633459012227384206
0.000486419169804085322
0.000459741650304757365
0.207522023829924906
0.00610093787481158414
0.0011307817364140868
0.000486288721917030255
0.000364186197074140602
0.0334048444031297201
0.00918109007894779387
0.00157923997313695846
0.000360466409066342473
0.000306219780518136278
7.10777522592615668e-05
0.0017265529738030908
0.00510115701027051126
0.00139166154337874151
0.000338622929876972038
3.24816975222876265e-05
0.000625548438557650558
0.000813570594145692286
0.000670110142419902931
0.000121119145799077744
2.468894514816756e-05
3.96779496871623169e-07
1.77569532782660214e-05
2.23304318949051203e-06
2.42005675711183172e-06
3.31374195139119873e-07
4.48837035500615933e-07
8.7485738404603145e-07
7.60042152133219482e-08
9.55642413877140936e-08
3.47038838317275011e-11
3.26360666143108995e-08
3.38386867826105266e-10
1.84970929886953891e-08
1.75924506011545334e-08
1.14830484125779305e-13
1.38626694914059303e-13
5.05143795780794133e-11
2.3442921160479274e-09
8.76280060624184344e-10
-2.34854823879170983e-14
-1.03122486687122992e-13
1.11571757140672805e-11
4.98445183357451238e-11
1.81656936896762262e-11
-3.38848761906637084e-20
-1.28370941381921348e-17
-9.04132968780153931e-17
1.70443889331109559e-16
2.36193270003240003e-14
1.0125289117647254e-12
4.52587557140513038e-12
-1.43095625418391276e-21
-2.34377797408118497e-20
-4.09904841387554303e-20
-1.23740616549877304e-19
6.09080978427941915e-17
4.63314561888636502e-15
4.97488903805388524e-14
-1.34679390067734101e-25
-1.22111875184113004e-24
-1.91104426940895044e-24
-3.78260833849398205e-23
-5.55303172729637214e-22
1.14083153696837643e-18
1.72297458463001875e-16
-6.36856449826020867e-32
-9.0816918882243732e-32
-1.53664656495073202e-29
-7.30577223897379091e-27
-3.97740501625246751e-28
8.66914333244165401e-25
1.61028766011990295e-20
0.000403719320248049842
0.00238155501855632015
0.000417214971052233693
0.000389099576471845909
0.137929062375731382
0.00122980480058823647
0.000471665074908627279
0.000418979518855367621
0.000451842497713869726
0.135021525543554899
0.0010974075190169992
0.000684032349773535981
0.00047237370979834705
0.000485525556411226227
0.0309208874455408449
0.00219175513754369701
0.000710815266257293181
0.000533818470904545098
0.000705226387590072003
0.00010533285046964939
0.00312780559415143811
0.00258910300293101713
0.00146160545401504381
0.000521898390419959623
8.81264337611010319e-06
0.000631812187732912482
0.00108288677630551848
0.000639602540295211748
0.000397652042011202101
3.50884839792267583e-06
1.07025977067897686e-06
3.22731888969068589e-05
4.19567369710352125e-05
1.81760992872446654e-05
1.33782883824422144e-07
6.08834862695510229e-07
3.93669665718245173e-06
4.78555588439170364e-06
1.19384689462085161e-06
1.17710183336550973e-09
2.01611061750630904e-08
2.87306972521414097e-08
1.19645032311202175e-07
1.50778429868495144e-07
-3.46552120070441684e-11
2.28764075557385898e-13
2.42465155299917531e-09
1.35822764103968191e-08
4.54658870835032512e-09
-1.62023347393241668e-13
-1.24768474934253995e-13
4.58538532592352276e-11
1.37422831743434225e-10
7.13132986515838698e-11
-1.37542631479338012e-19
-2.11638133918871154e-17
-8.26762102559104333e-17
-2.40773297873950404e-16
3.55121894247189441e-15
1.46034023690009832e-12
1.30633385680829771e-11
-1.20761383146567182e-22
-7.48026032183063594e-21
-6.7416588157650232e-20
-3.61850434883238698e-19
1.39064124590156963e-16
1.14271771434686026e-14
1.03215327239286696e-13
-7.07572780900759303e-26
-1.46022500451450554e-24
-2.63262649523924199e-23
-4.9248610504577393e-22
-1.88577566628678683e-22
4.68057391945831225e-18
6.81749638145879029e-16
-3.21214258195195976e-32
-3.71578017627938492e-30
-1.81182820061131179e-28
-3.1332927958357605e-27
-1.94553490554542204e-27
2.91075863789007777e-24
6.08375513614360133e-20
0.000692246836328975568
0.00519804134792821275
0.000413973738109161182
0.000598839187094659742
0.166981759469819635
0.000622002913236232051
0.000627502750331583375
0.000479147626207885864
0.000641137423313302554
0.180244608184974314
0.000917302116455751991
0.00069129114491416413
0.00063902457591604768
0.0012871159974255017
0.0759614201911778392
0.0079176395181711802
0.000828815890059299049
0.00111996877953058618
0.00276390292674556694
0.000274511783353907147
0.00312108573794975513
0.000436043550413028685
0.000730805871075991239
0.00259502610972676788
0.000131565121747152417
0.000407647529103014191
0.000268329771016050252
0.000474710835055118085
0.000523040289172715511
5.54593119135408591e-06
1.64188496182557239e-06
2.87167570221035161e-05
3.57001676914270492e-05
2.12647976650934536e-05
7.23393605964394572e-07
8.55551303802592698e-07
6.55658518171183163e-06
7.81628991786243685e-06
5.19379844856202375e-06
1.58564532319891403e-07
1.84688569193957355e-07
3.37582732269777446e-07
3.80232012729875218e-07
4.31969715528403129e-07
2.20215857601898656e-08