/*--------------------------------*- C++ -*----------------------------------*\
| =========                 |                                                 |
| \\      /  F ield         | OpenFOAM: The Open Source CFD Toolbox           |
|  \\    /   O peration     | Version:  2206                                  |
|   \\  /    A nd           | Website:  www.openfoam.com                      |
|    \\/     M anipulation  |                                                 |
\*---------------------------------------------------------------------------*/
FoamFile
{
    version     2.0;
    format      ascii;
    arch        "LSB;label=32;scalar=64";
    class       volVectorField;
    location    "0.0899999999999999967";
    object      faceTraction;
}
// * * * * * * * * * * * * * * * * * * * * * * * * * * * * * * * * * * * * * //

dimensions      [1 -1 -2 0 0 0 0];

internalField   uniform (0 0 0);

boundaryField
{
    inlet
    {
        type            calculated;
        value           nonuniform List<vector> 0();
    }
    outlet
    {
        type            calculated;
        value           nonuniform List<vector> 0();
    }
    top
    {
        type            calculated;
        value           uniform (0 0 0);
    }
    bottom
    {
        type            calculated;
        value           nonuniform List<vector> 0();
    }
    left
    {
        type            calculated;
        value           uniform (0 0 0);
    }
    symmetry
    {
        type            symmetryPlane;
    }
    interface
    {
        type            calculated;
        value           nonuniform List<vector> 
67
(
(-1.54117465208656244e-06 9.97429013441429807e-05 -1.46900819894881352)
(-2.18932029669022729e-05 -1.58025959299722787e-05 -1.41874080499914768)
(-3.92223210928600963e-05 -1.12060615678874908e-05 -1.44144922459036917)
(-4.98406216541519536e-06 -2.30870407013887461e-05 -1.4689968001175624)
(9.92778184532543699e-06 -8.28123248913208465e-06 -1.3325706004606932)
(2.31311305932623513e-06 3.14797835609043011e-06 -1.25656255756646185)
(-1.04403425764444544e-05 1.07967445211876554e-06 -1.24856085211881052)
(-1.1336968953190139e-06 -7.8048947663846117e-06 -0.972017528469531156)
(4.45218931242591749e-06 -9.43502021497289202e-07 -0.954175014528556353)
(2.11525181121310893e-06 6.08606982148123389e-06 -0.960860576050994508)
(-1.63110927086384051e-06 7.32588655044856254e-06 -1.00291503105222346)
(0.623737681211756767 5.34091604044941168e-06 1.22188590486298119e-05)
(0.731444992089434698 6.4128144362342064e-06 1.31598923350732343e-05)
(0.847936256735057015 7.28311273902889858e-06 1.38396893225930576e-05)
(0.595723204335382617 6.14642140873239114e-06 1.03294708606029635e-05)
(0.722495829068279583 7.34456603775711309e-06 1.10352532187832678e-05)
(0.861302077508538266 7.78635743292683982e-06 1.11965447280992866e-05)
(0.581422313293294191 7.07135849504052509e-06 8.59555739244728839e-06)
(0.716902859661580294 8.12676855740227461e-06 8.8311054541535888e-06)
(0.865460953314495907 8.40437065066970194e-06 9.23482670879256193e-06)
(0.564501245912767291 7.16769928857121865e-06 6.99858307588577191e-06)
(0.700690146582302775 8.25843897052673518e-06 6.93748742169932487e-06)
(0.848202789690424175 8.65786228627266703e-06 7.11511008976592058e-06)
(0.540928579032866064 7.09149133002440502e-06 5.07462018160730899e-06)
(0.671488610652930418 7.91996515996712688e-06 4.93129463572210981e-06)
(0.808632011528967909 8.96640592364708386e-06 5.12746149047157235e-06)
(0.51498446507311646 6.77669974090441537e-06 3.12548822012341187e-06)
(0.637102758759026999 7.28743313904501719e-06 2.83524771787318738e-06)
(0.760072498983973777 8.60956404226010298e-06 3.19493378045802738e-06)
(0.492545984741595166 5.89840392466626466e-06 7.60502322396437061e-07)
(0.607470820971260705 5.29985830250100263e-06 -4.45452519782251537e-07)
(0.718408582132777807 7.03051525572809579e-06 -9.9109616387201521e-07)
(0.472890859618004589 1.90179082319978268e-06 -1.89349354720058471e-07)
(0.577913658828398957 -2.56188384251093962e-06 -1.89668639993934258e-07)
(0.676455357481022923 1.00038274261592875e-06 4.16709674265964101e-06)
(-2.4911508649374606e-05 2.63203266397309577 -5.81188568158213381e-06)
(-3.69060907654483752e-05 3.66462859235875094 -1.3903433033941464e-05)
(-4.49488081212933503e-05 4.14782163025138306 -1.85713098863075586e-05)
(-2.73579990011740438e-05 3.86717245024719602 -1.39455136597254628e-05)
(-1.59360970146609713e-05 2.98141952864233861 -1.22715128218766587e-05)
(-6.1048873592944202e-05 1.77632058323945907 -2.88808399434563249e-05)
(-0.000136112247264327612 -0.0943209076582623429 -0.00012357757898375627)
(-7.65201351694577047e-05 -2.52413963062786362 1.17970502436281716e-06)
(-2.35226215930958322e-05 2.0797517386715616 1.9422244536517017e-05)
(-1.69847094894795928e-05 2.56520316215354427 1.3846717588197538e-05)
(-2.80950592464222598e-05 2.75764431448393621 1.07643002006428094e-06)
(-2.16821870398083242e-05 2.51584727764686455 -1.60720876036559727e-05)
(-6.85498540170559062e-06 1.92464155211945376 -2.57512545588625971e-05)
(-1.0767523229801627e-05 1.2948965087566775 -3.04080589211907084e-05)
(-4.52023274055688752e-05 0.493259093141271365 -2.33392217194943994e-05)
(-1.48387420816091941e-05 -0.753759548767966359 5.6358783280575449e-05)
(-6.14164200843742022e-06 1.52437791145209145 1.57210759609296044e-05)
(-2.98960214817477158e-06 1.76061557829465776 1.08807514509302784e-05)
(-4.83846661343971708e-06 1.86486939764039739 5.16969128521992815e-06)
(-1.03510506089534621e-06 1.7342339053161786 -1.50322142858506458e-06)
(5.54324699345648663e-06 1.41732838482647372 -5.99242880031902636e-06)
(1.8486928913301039e-06 1.05427809693737395 -9.97943305821629661e-06)
(-7.88832987630381197e-06 0.674628571809195665 -1.50868648270949955e-05)
(-1.59977362685302774e-05 0.0903302150988910812 3.39193431820959053e-05)
(-7.46508402093747336e-07 1.14380091459376421 1.08276170999361431e-05)
(-1.2253728146959803e-06 1.25562945622648114 8.32130832587355427e-06)
(-2.21570424851625639e-06 1.30868899568922092 6.25578690064153832e-06)
(-6.02098485908476011e-07 1.24933491995423807 4.01756551406020914e-06)
(2.82271366794170393e-06 1.09723871625396963 2.38400574378676543e-06)
(3.41817443641564305e-06 0.913283019183105171 -2.80433911632874288e-08)
(-2.15243022420613762e-06 0.738004393625406707 -6.72057108733919214e-06)
(-5.68687661683804043e-06 0.485880750308040843 1.86118674974869395e-05)
)
;
    }
    procBoundary1to0
    {
        type            processor;
        value           uniform (0 0 0);
    }
    procBoundary1to2
    {
        type            processor;
        value           uniform (0 0 0);
    }
    procBoundary1to3
    {
        type            processor;
        value           uniform (0 0 0);
    }
}


// ************************************************************************* //
