/*--------------------------------*- C++ -*----------------------------------*\
| =========                 |                                                 |
| \\      /  F ield         | OpenFOAM: The Open Source CFD Toolbox           |
|  \\    /   O peration     | Version:  2206                                  |
|   \\  /    A nd           | Website:  www.openfoam.com                      |
|    \\/     M anipulation  |                                                 |
\*---------------------------------------------------------------------------*/
FoamFile
{
    version     2.0;
    format      ascii;
    arch        "LSB;label=32;scalar=64";
    class       surfaceScalarField;
    location    "0.0899999999999999967";
    object      phi;
}
// * * * * * * * * * * * * * * * * * * * * * * * * * * * * * * * * * * * * * //

dimensions      [0 3 -1 0 0 0 0];

oriented        oriented;

internalField   nonuniform List<scalar> 
20536
(
0.000500691092786938446
0.000126977854925146614
-0.000480280251304557055
0.000447734986323763203
0.00171243342899910509
-0.000957707024659947611
0.00114748339699555289
0.000592337618078648447
0.000429683669916159044
0.000101310671843537526
-0.000568163771647085532
0.000376517995712543165
0.00135089552292201923
-0.000772893152885897709
0.000886882175668549013
0.000677230253173888666
-0.000146075250709823412
-0.000583240784659029652
-5.56090398668365868e-05
0.000145279651833774134
-0.000503187251314018633
-0.000701511837202575426
0.000335803205224685739
1.07191602553187437e-05
-0.000312265035238267863
-0.000364353707739943676
-3.92169267065978916e-05
-0.000160919281537176963
3.63468320073513141e-05
0.000130099680677678775
-0.000510041163214101012
0.000132638191833114904
0.00089068899114902705
-0.000636753835541338693
0.000604080514753076864
0.000529226198165237303
-0.000358748267627204132
-0.000361141369088615292
6.28938532581144009e-06
0.000147675556157422956
-0.00119279178592679729
-0.000261329049240767853
0.000417992154289568161
-2.41311839756960361e-05
-0.0012594968321975404
-0.000109442388847880178
0.000131435592020930303
-0.00031964166293299421
-0.000869122062104782205
8.73516476477973684e-05
-0.000167663147557691513
-0.000179964057482282403
0.0004726076323726853
-0.000460843811549430365
0.000169347101835404289
-0.000159544341769088686
-0.000364947531785755203
3.4470326782436167e-05
6.76506213712947679e-05
4.20687255579184924e-05
-0.00148728616354900723
0.000531246332716591558
0.000351687883979789808
-2.19228904404936489e-05
-0.00164712161033801503
0.000120432137686842723
0.000177661820384881114
-0.00024770112417859863
-0.00146999338914659641
3.39938681160347172e-05
-8.22001764951945909e-06
-0.000115551074708429498
0.000109942780978255372
-0.000294045297695133079
0.000134523042150735592
-0.000947807231672659627
-0.000929630565425376525
0.000342201804574177992
0.000313555728945945952
0.00020109291576490395
-0.00128594553286058111
0.000502486117286209729
0.000363569222776251658
2.15092239676036457e-05
-0.00122736037699866561
2.15104663872041818e-05
0.000367887421772670022
-0.000327549862168614284
-0.00122404803023483996
-4.0692869440646346e-05
0.000263569712416356116
-0.000192195949844185034
-5.52122199805261038e-05
0.00010235973968407701
-5.29937909093149682e-05
-0.00110825973621549298
-0.00107302866510733635
0.000440511300021944609
0.000172773318230184318
0.000128935650539956103
-0.00105404953489916906
0.00023260205096579584
0.000200011651355812379
5.08956685954287157e-05
-0.00104083317632044405
-8.80984551474556904e-05
0.00023983742729293434
-0.000143444005594583774
-0.00101677604796832077
-9.10200009756801276e-05
0.000270929214697802987
-0.000244659117974444006
-4.24636921957402503e-05
0.000129634555536597843
-0.000195688457092134068
-0.000963470987174565524
-0.000763074654451238081
0.000328972014788169083
3.25024644959933263e-06
8.60917922855577707e-05
-0.000634623830551392593
1.53469972912168923e-05
6.77997798059696134e-06
8.20273871650432224e-05
-0.000712025786076115035
-7.77267430239754437e-05
0.000148199526016692669
-8.11670791514939975e-05
-0.000737828468590024365
-7.93832585630368755e-05
0.000145546365316478001
-0.000131379337065936133
-2.30633466555157544e-05
7.87692738208258946e-05
-0.000132777026348054373
-0.000703222968151029056
-0.000426852483113292723
0.000109908981717081819
-8.22466235861813745e-05
0.000135771613844835719
-0.000355789695544752617
-8.23500882853190198e-05
-2.92527648674604889e-05
5.58925116178489429e-05
-0.000397054752762337473
-5.93320231467539706e-05
2.35058102208948172e-05
-6.32627571738652379e-07
-0.000427821298478333733
-4.95875506367629635e-05
2.08932907791570103e-05
-1.99221560333536673e-05
-7.51738676845562461e-06
-9.18935971682856555e-06
-1.55388778863076746e-05
-0.000418640297618235412
-0.00018083208316130211
-1.85259232191056322e-05
-6.90819371927314319e-05
0.00012855234468779698
-0.000229421525202982068
-6.81017967497643404e-05
-1.3101824944218944e-05
4.74447574326997059e-05
-0.000256590242209997564
-4.71884642433775418e-05
-1.03888374424505441e-05
2.54141922051869682e-05
-0.000276938220259100032
-2.59564562045255081e-05
-1.59493378028799161e-05
1.26652296415325234e-05
4.46773412412209485e-06
-2.83007649292274761e-05
1.2176374485083861e-05
-0.000272799211750208081
-0.000173024883027509432
-6.54097245389299344e-05
-4.55034107602928935e-05
7.50617205750805119e-05
-0.000197859167358282713
-6.35295021294372537e-05
-1.83478893504914229e-05
3.86077917189428922e-05
-0.000206704425726716079
-4.69393655505353431e-05
-1.65739035287015727e-05
2.51682635237069252e-05
-0.000207480233291612386
-2.46953045671311383e-05
-1.88766920603518563e-05
1.83922096586186991e-05
1.02952135730496015e-06
-2.35345074596163696e-05
1.79403473758927579e-05
-0.000198444624096917794
-0.000161318209902194749
-8.55224463046895609e-05
-1.72775100759503671e-05
3.28166444473648427e-05
-0.000165661744429191385
-6.91950649148921507e-05
-1.20137144455973332e-05
2.20206440222595558e-05
-0.000166877466936420635
-5.00657585625049811e-05
-1.22415877316102096e-05
1.65831875186598545e-05
-0.000162958638012267469
-2.90437107410611111e-05
-1.42514840428529251e-05
1.4683178451962122e-05
-6.45697399952085283e-06
-1.71124011006372907e-05
1.46635542160250066e-05
-0.000153019816065750897
-0.000138282105539536815
-0.000143277476494989221
2.3215852852408538e-05
-0.000132904062966582266
-0.000118696481455620736
2.01909350540478434e-05
-0.000129643478163277777
-9.65729772656180759e-05
-8.51042453730745712e-06
1.62965029722700222e-05
-0.000128347868043855826
-7.553270097745167e-05
-7.82661285547323762e-06
1.2865674133093047e-05
-0.000126334958667199932
-5.45290111583895124e-05
-8.40520387362068497e-06
1.08548706140447762e-05
-0.000122242813782846475
-3.36117379371265123e-05
-9.66250429744171164e-06
1.01400345638862663e-05
-1.30569019442476044e-05
-1.1189996671626673e-05
1.0254173014177792e-05
-0.000114706833557775059
-9.51438073967875912e-05
-0.000148558316997619123
1.20489127307761831e-05
-9.31186449785351242e-05
-0.000124859010633339917
1.05234520383194695e-05
-9.11437718187090874e-05
-0.000101889290733279641
-5.61797588176403082e-06
8.95606063015096183e-06
-8.93900522556889486e-05
-7.96019144923767075e-05
-5.36437719495778749e-06
7.67336951869572814e-06
-8.72035503327196201e-05
-5.7986295068030485e-05
-5.63533477551959511e-06
6.90300105472520381e-06
-8.4074281922092342e-05
-3.71357387537231149e-05
-6.1974410285167853e-06
6.59021687878842298e-06
-1.75192741155770517e-05
-6.99899675051596726e-06
6.68441061281500395e-06
-7.930312358829316e-05
-5.43512241497279554e-05
-0.000150123797985820677
6.31901102497313937e-06
-5.33278439921469762e-05
-0.000127502507776132759
5.50600285499222273e-06
-5.20178906830238294e-05
-0.000104633702870589773
-3.35650638716110011e-06
4.78631939153910339e-06
-5.07146882986985774e-05
-8.19778055516337577e-05
-3.17145020008762283e-06
4.23803865666276808e-06
-4.93850436766369013e-05
-5.99643838295638463e-05
-3.27063751556911922e-06
3.91384472959805064e-06
-4.77246281799740949e-05
-3.9035472646002714e-05
-3.55921496620546566e-06
3.79299508972286577e-06
-1.95634907140059106e-05
-3.83481992821438953e-06
3.76876348710763378e-06
-4.56216872919203593e-05
-1.77050933429380414e-05
1.79563868753002373e-06
-1.73537144965704441e-05
1.54174145825075736e-06
-1.67767582642159022e-05
-9.71783988207862836e-07
1.34280387222944741e-06
-1.6128686873117793e-05
-9.17979642100731478e-07
1.20561248829709017e-06
-1.55220331590566279e-05
-9.48848355422853556e-07
1.13294785041685787e-06
-1.49865794521381428e-05
-1.0441558248790736e-06
1.12247248485567584e-06
-1.14633367681210461e-06
1.12541378260527415e-06
-1.44234660425394299e-05
0.000543914557633452052
0.000187640585582662044
-0.00046157135508063463
0.00194885674165980833
-0.000748133177063645865
0.000646923606998080474
0.000515959298831232191
-3.0309619201765312e-05
-0.000574033450875291473
0.00161393475236839071
-0.000624269898980033748
0.00070226025848591151
-0.000223982815699519389
-0.000563115723832802824
0.000108377429812176081
-0.000300370997210530405
-0.000856520655439677731
0.000454002473870674099
-2.02313607774796581e-05
-0.000496585935185181807
-0.000219276924408011719
0.000231336558206199643
5.07744478540333847e-05
-0.000842691182921187325
0.0012280064656221704
-0.000635743811452182169
0.000616253652287915288
-0.000245675082993786209
-0.000347153108934741871
0.000120902069215556235
-0.000749949975030633244
-0.000409673398269403289
0.00047542042693032513
-0.000783280142134278328
-0.000285106530190832512
-4.67140957597042707e-05
-0.000362039021995661837
9.22107570983713679e-05
-0.000630343565052631318
0.000776454400009494159
-0.000623958702358838276
0.000252625819005934064
-0.0001490055448501032
7.65481015232351986e-05
8.24565738895997804e-05
-0.00109747238136443217
0.000482758260956072847
0.00040772218342325587
-0.00139239101890160509
8.71015681555913047e-05
0.000100370537874253834
-0.00121533766425718521
7.28319721748248356e-05
-0.000165896297407448344
0.000355443305680015796
-0.000510197631081834788
-0.000578176204632775584
-0.000842231077803955262
0.000664959059059450812
0.000368772570482644481
-0.00130373107973735108
0.000763355660079180725
0.0005444741006048609
-0.00149446573296826415
0.000148398014739317214
0.00049732529693815317
-0.00143341123230132303
4.49484310089125514e-05
0.0002303976980276355
0.000148655455175070953
-2.58495012536791237e-05
-0.00109841525022135963
-0.00149234062877883844
0.000916975658754414186
0.000208173077293873532
-0.00141277841784680637
0.000562329429131478266
0.000321476849873044671
-0.0013741702895543322
4.48915704739179158e-05
0.000304737070457708698
-0.0012608447473192242
-1.47025432116270564e-05
0.000217254015789774169
5.97387113810720401e-05
2.6697486274319753e-05
-0.00106899144486614851
-0.00122342929273114819
0.000831833401414411723
7.06230134527419226e-05
-0.00101668308935211121
0.000200750657533287747
0.000161613801364606901
-0.00100256397424931852
1.62180478919626934e-05
0.000162756609673708611
-0.000969637643035936646
-2.68782457088474156e-05
0.00012479618463846385
1.15309137426802675e-05
2.36347955862332027e-05
-0.000866298409189706904
-0.000709929055069852635
0.00047781702422204685
3.02253964363828628e-05
-0.000514218435203271955
-4.66580595838603536e-05
2.24466953022243874e-05
-0.000495355489892654278
-2.64100377679512822e-05
4.72711941034845081e-05
-0.000508613199429766637
-3.67524034738415391e-05
4.40228511536781982e-05
-2.39378391236462814e-06
-1.54955725486397109e-05
-0.000488383244616103634
-0.000253326797678128039
0.000128939767962086915
6.87479230415787425e-05
-0.000257758954103819138
-7.27295788251645849e-05
1.73992251377686445e-05
-0.000270101878498476026
-3.62061031547727065e-05
1.17468865669371656e-05
-0.000292193115345488639
-2.1196806307295591e-05
-9.41563577705083191e-06
7.33495447477389917e-06
-3.7457104797696336e-05
-0.00029276399311930194
-0.00014219550345457503
-3.64643830284375282e-05
7.74783876974793781e-05
-0.000195698916600384252
-5.95690170953396618e-05
2.19889238144273915e-05
-0.000207655615645269684
-4.23417435775987996e-05
1.51480690891916749e-06
-0.000211092373178912106
-2.11591858233434326e-05
-1.54767877997509228e-05
4.69977338672803679e-06
-2.80747142550284294e-05
-0.000203913037735303283
-0.000155822020050215381
-8.06437263753783913e-05
2.1410866210910742e-05
-0.000165802971237869558
-6.72242317589336237e-05
5.61775506864353316e-06
-0.000168440099971704533
-4.80547627198513183e-05
-3.89120227256197321e-06
-0.000164951136852609038
-2.67847283169294029e-05
-1.21121500003145666e-05
-3.59464329908286514e-06
-1.87265496682970946e-05
-0.000155042065553024554
-0.000128933011819465295
-9.51818741607604428e-05
3.2809959929472995e-06
-0.000128781132160100422
-7.43592347372421469e-05
-8.46559098607780168e-07
-0.00012737611808240454
-5.31564434811106169e-05
-4.70849616653200167e-06
-0.000123399282220579401
-3.19920679649366924e-05
-8.43386884547432512e-06
-1.09489202361606301e-05
-1.15778118458418898e-05
-0.000115663401879278506
-9.0886468051334544e-05
-0.000100989856720975281
-1.34670020135441886e-06
-8.95761108984444371e-05
-7.8653164404705284e-05
-2.38600816456647242e-06
-8.76489044086460763e-05
-5.68987413456355177e-05
-3.82378063790608267e-06
-8.47230498888994709e-05
-3.57619529469301728e-05
-5.36021137635652265e-06
-1.60594899165522151e-05
-6.87626187425642493e-06
-7.97452245536749333e-05
-5.18040900586561577e-05
-0.000103722480471540125
-1.64562298454861934e-06
-5.07495863940777159e-05
-8.10333599403564051e-05
-1.8526780965646595e-06
-4.95959693346419814e-05
-5.89356123422105923e-05
-2.39401960690146968e-06
-4.79345288978166346e-05
-3.78863118314879142e-05
-3.10474103131494631e-06
-1.83521221395979044e-05
-3.68147050655386784e-06
-4.58023300536885894e-05
-1.67312646718884466e-05
-5.4399730760190995e-07
-1.61592765300822382e-05
-5.79779577855862917e-07
-1.56035483321129029e-05
-7.16055905811621295e-07
-1.50696432296099354e-05
-9.11087840533589451e-07
-1.09825913979502792e-06
-1.45091378010966608e-05
0.000568544266204954168
0.000222111980064703752
-0.000356478918263502804
0.00214470708506140284
-0.000519547328463685807
0.00064617577628259368
0.000555713793544213518
-6.07599500896908865e-05
-0.000527417164025135348
0.00182796015821149534
-0.000445116965826218656
0.000693311212079068015
1.64681774370012413e-05
-0.000573504597764315114
6.42180521352025957e-05
-8.03240487866907098e-06
-0.000583125538386043197
0.000408209048124082065
0.000112354827445531935
-0.000551406957600806538
-0.000171917090422486069
0.000348185891898557438
-0.000161214929083035974
-0.000978061982921932986
0.00141841859554201919
-0.000527829859008300531
0.000649813956011452898
6.24851616703656076e-05
-0.000471350347382888018
8.41980817169075285e-05
1.77426764500476629e-05
-0.000426998916912150475
0.000364036412076649803
-0.0001437015097367545
-0.000497761638788436203
6.10854708384715392e-05
-7.85301434202462147e-05
-0.000163194928481645189
-0.000693537383155050911
0.000916979331211249457
-0.000649719806210722413
0.000448668834828927932
9.8929989612696681e-05
-0.000327124554058945242
3.99744699381901893e-05
-0.000327078085734581179
0.000164106910223198182
0.000242624528862384753
-0.000732781296132537386
-0.000176703911313615315
0.000185013703784772362
-0.000656800936484431045
-0.000166362988755180247
-0.000238710517395950244
0.000380326096116114475
-0.000607503366681949792
-2.28439006309405783e-05
-0.0013386153692090915
0.000214122465509262831
0.000284744337215174373
-0.0014583016821011676
0.00022323550640450775
0.000605033828283683657
-0.00137180459184922925
-0.000215536331856477903
0.000449660438122011924
-0.00116079190481171383
-0.000303164684686296456
0.00015618597852944089
-9.13027640706608277e-05
-6.51009081022216579e-05
-0.000649912356098991976
-0.00138781358399093623
0.000273375867132922992
0.000244331475905542272
-0.00121275263792658774
0.000136987918332622628
0.0002326647878477596
-0.00114722815573290024
-0.00017737209894603059
0.000201049732398835636
-0.00097049443172829322
-0.000309352448311367781
4.67070974325613664e-05
-0.000236154530268334372
-5.46549513116220426e-05
-0.000744290275620191266
-0.000999311063978284165
0.00012168398246152333
0.000210525456572527108
-0.000800148848533557854
-3.29832652797818442e-05
0.000132423087031069203
-0.00075300573554893909
-0.000134189261214204535
7.24319897648150813e-05
-0.000736064850471067193
-0.000191169397585583148
-1.03274021312289486e-05
-0.000124595326012868146
-0.000106821761764764927
-0.000717169120111253874
-0.000433013120544475493
-6.88803806052702596e-05
0.000139902034413498977
-0.000434463200133409578
-0.000114910893646121074
0.000105821522054654269
-0.000421870931360259502
-9.82969891484337835e-05
-1.21669162578591205e-06
-0.000457866062227357785
-8.02079455853320941e-05
-3.09455564980367419e-05
-2.43970355915957449e-05
-0.000103774805575621183
-0.000469787248630105375
-0.000239213769895364043
-9.81881646530763049e-05
6.68108972763168784e-05
-0.000266116512457410272
-9.27269464081031784e-05
2.2109324780247436e-05
-0.000283123981141443352
-5.70829762530098897e-05
-1.246688540267949e-05
-0.000306018525663274326
-2.74622164260290714e-05
-3.92696184495306411e-05
1.05486004672823197e-05
-7.23462870303332052e-05
-0.000306073803322018411
-0.000200222056937938666
-8.30892925804541034e-05
5.71804992738113044e-05
-0.000217631239504823069
-6.96235705012340301e-05
1.62848204870874466e-05
-0.000221995651814033905
-4.79468117563149222e-05
-3.26174901872908804e-06
-0.000222399498290273189
-2.07753953913435236e-05
-2.17599836026896056e-05
1.0252362403741986e-05
-3.79624549583769887e-05
-0.000212213737009093182
-0.000169970752253217617
-9.05793075470625523e-05
2.57351941596347946e-05
-0.000173763822481315811
-7.0654456039951846e-05
1.04361392463007299e-05
-0.00017489327813014765
-4.87701754042456348e-05
-1.94136932827649895e-06
-0.000170527580578248579
-2.52059821260732949e-05
-1.20474136235749948e-05
1.50553519137168874e-08
-2.00507979775974108e-05
-0.000158967410110367146
-0.000132418402006477699
-9.74491251826999755e-05
8.5918476252400787e-06
-0.000131967000225690105
-7.51469995364728517e-05
3.19287382090232881e-06
-0.000130339357215730696
-5.2785722977315009e-05
-2.32305533127947143e-06
-0.000126002980146420194
-3.06405800643163345e-05
-7.33881540956934107e-06
-8.8076894110337172e-06
-1.13045193779270532e-05
-0.000117458290477522135
-9.17293175233578964e-05
-0.000101243495491408367
1.67766781201218559e-06
-9.0752051523590964e-05
-7.8472985308571363e-05
-3.85956066506389191e-08
-8.88800265313992186e-05
-5.62468783575341842e-05
-2.23846132756076656e-06
-8.59576044001656076e-05
-3.44777271659577262e-05
-4.45263547127147657e-06
-1.45938559457267355e-05
-6.43629244593790616e-06
-8.06181228217922531e-05
-5.19580760930924793e-05
-0.000103262887764137907
-2.20886656944573828e-07
-5.11698337294418936e-05
-8.04323802317020455e-05
-6.85618576093062336e-07
-5.01639070842898089e-05
-5.81299418860999561e-05
-1.52253254176252237e-06
-4.8395288143541396e-05
-3.68425515183051029e-05
-2.51549979447005732e-06
-1.71638358686723781e-05
-3.33375800199475313e-06
-4.61776889329791617e-05
-1.67816565587617214e-05
-1.7796140074421896e-07
-1.62940698242280816e-05
-2.73169725519149364e-07
-1.57805087525036715e-05
-4.823284352169543e-07
-1.52328524562573936e-05
-7.41988720936527277e-07
-9.86976253555782972e-07
-1.46506857737797821e-05
0.000559088582368816702
0.000305173881946190287
-0.000197508075828837126
0.00226552368597891405
-0.000288852557470901884
0.000629209586487591496
0.000555540261717127554
-3.78808993126084146e-05
-0.000345674242994232995
0.00196365239424863957
-0.000222027992084156383
0.000634320549259341417
6.92105731827756532e-05
-0.000516573901048782993
-2.68191989649766305e-06
0.000174110108865953631
-0.000371541421045443437
0.000216752421746610902
0.000351613387755729675
-0.000357257668710086096
-0.000288164534913840857
0.000436332080475088666
-0.000168556204917067978
-0.000932112806916471489
0.00154889165893268245
-0.00034240031728591247
0.000665660708353788596
0.000171533420284969776
-0.000420215659472862862
-2.47775525587365288e-05
0.000328513663970560286
-0.000347499952368784341
0.000183012825629742527
0.000232760249493730404
-0.000259037396915048294
5.86134263748219536e-05
0.000177378294474964495
-0.000181951873993990698
-0.000624764259972414564
0.00104817949854877214
-0.000516048546462312971
0.000544417300809755958
0.000388254677184932356
-0.000525407190067840243
1.09621686899493732e-05
0.00036843295214541126
-8.49924576230981499e-05
-6.12442306261590241e-08
0.000203378072934325507
-4.92321960403361105e-05
0.000140261358596715179
-0.000136369085798987281
4.3682514207501414e-06
-8.52858941375324005e-05
0.000540987279079676296
-0.000459353405792495219
0.000222670333534750499
-0.00107000408838392848
0.000191466370299766598
0.000318389465924506093
-0.00118443690829071377
0.000548469784892605659
8.60050246873477614e-05
-0.000923070733387208395
-3.58914971841087558e-05
0.000174953132880203846
-0.000654976322941720496
-0.000131378604820091499
2.38373535761883699e-05
2.83416926049996978e-05
-7.65702887353747821e-05
-0.000130861880908158423
-0.00123371566688435636
0.000358752408412199022
0.000464610830230225455
-0.000853974180665983441
0.000292636086830727214
0.000108758026298312084
-0.000744387556511585404
-3.54702915060475289e-05
9.10433122141467502e-05
-0.000538905102330846167
-0.000249976309020037918
-4.01791907431421971e-05
-0.000216160120449754301
-7.47104867669021438e-05
-0.000274347461425830793
-0.00070102380239478164
0.00024000763707952418
0.000223389580797891902
-0.000523996091124899499
-1.69693199332534395e-05
0.000265001607211940999
-0.000492594226888478986
-5.98010434282973883e-05
6.53616499216768873e-05
-0.000459789030845406848
-0.000192587439446746547
-0.000100523125238482385
-9.88487029504570524e-05
-0.000228913639449788227
-0.000455010927002921957
-0.000398521497664252949
5.06080917067263742e-05
0.000139631638418529988
-0.000330044175175727968
-3.90608693917514498e-05
5.9432250144239411e-05
-0.000312909063485890043
-5.97235150703655064e-05
-1.84329695683947979e-05
-0.000386477360867538088
-6.24316765919433864e-05
-8.75340068316506889e-05
-5.28750536984132657e-06
-0.000169367954227392028
-0.000414448316112952966
-0.000221844612906508978
-9.2253430579459917e-05
0.000141109148873867166
-0.000248142609654963256
-4.79813650078575574e-05
5.73193959081368183e-05
-0.000279152991196158096
-4.44237764989838913e-05
3.23779240357731417e-06
-0.000307745852549241438
-1.68319386768678749e-05
-5.62775295548941743e-05
2.56498683435700336e-05
-9.81960953031572588e-05
-0.000312831286675083209
-0.000232455327232281673
-9.54264820258138535e-05
6.44865214745358946e-05
-0.000228366524061036268
-7.10595389656481786e-05
3.52663249541098486e-05
-0.000233269613156009505
-4.58335729229838348e-05
3.04726871485958115e-06
-0.000233085417471025423
-1.56449398543369326e-05
-2.31300499696923452e-05
1.84672347922761954e-05
-4.30345803909345601e-05
-0.000220827320170064009
-0.000182808677158025632
-9.8608580803009882e-05
2.84388877699598956e-05
-0.000183909391806512043
-7.40151948747375782e-05
1.44900688297691244e-05
-0.000183171651395619043
-4.9096131280849939e-05
5.82054986197365329e-07
-0.000177006951786446429
-2.29769820882181879e-05
-1.08789608703329154e-05
4.17668597455079536e-06
-1.93329544517262929e-05
-0.000163434517588466452
-0.000136891922934788613
-0.000100865113470742409
1.08952476511187689e-05
-0.000136455381743902582
-7.68056460348587138e-05
5.54785345442360858e-06
-0.000134415110072782547
-5.2902368924366394e-05
-5.58665041344534857e-07
-0.000129278815357423618
-2.93828349395532573e-05
-6.07204064973063878e-06
-6.53352672276801616e-06
-1.02012588450065753e-05
-0.000119677635177761163
-9.31274852378804395e-05
-0.000102230322854893917
3.29437569072096763e-06
-9.25427011111949619e-05
-7.88489448876373861e-05
1.420366107749766e-06
-9.06718840731017669e-05
-5.5966982905986988e-05
-1.04939504353546075e-06
-8.75741520825280883e-05
-3.3399825095985611e-05
-3.54047703003688757e-06
-1.31891233743804295e-05
-5.62458683023890923e-06
-8.17377816823300368e-05
-5.23353418280502061e-05
-0.000103183667379021924
6.78381765336703816e-07
-5.18549318848300801e-05
-8.01556220484808072e-05
1.38877483718892121e-07
-5.09749218638768238e-05
-5.75731534490338945e-05
-8.01981028482709792e-07
-4.90590903305577436e-05
-3.59775034911336507e-05
-1.85994765898751066e-06
-1.60758103048331886e-05
-2.81537077148863058e-06
-4.66954212232338164e-05
-1.68994836560392114e-05
6.97272316650462679e-08
-1.65022172140940174e-05
-5.46361601170197838e-08
-1.60246067963717767e-05
-2.84901288803312631e-07
-1.54555183638833354e-05
-5.60748908831080932e-07
-8.29372714563760532e-07
-1.48297411067460314e-05
0.000490693088494710853
0.000458525842800775775
-7.59194136619235113e-05
0.00238385978193415187
-0.00011276328579759359
0.000603932582563900065
0.000457112790011675893
6.17677335159747193e-05
-0.000145560306450590716
0.00212828002181417869
-7.32279709846883327e-05
0.000563894943285821312
-1.9053378516094982e-06
-0.000549164778845519751
2.23862310930643339e-05
0.000180258214079239559
-0.0003610216560703808
5.22804730933794208e-05
0.000387035686927218433
-0.000330204924988022983
-0.00048553300551363145
0.000369191232375447656
-0.000140919904044218647
-0.000711577137767715551
0.00169626635282743099
-0.000116736215904897139
0.000575540514881525689
0.00021333820851770699
-0.000675433802757360608
3.56165486875975601e-05
0.000302252493050212886
-0.000342859908000260258
7.59351925786021101e-05
0.000279898645151998118
-0.000212838225290622093
-3.64009705489601191e-05
0.000271970871118506173
-0.000105213733505328034
-0.000652544219305854637
0.00120173914805208758
-0.000339076555726150431
0.000589525374104720324
0.000533806236564814129
-0.000701678708967786238
-7.89675350044875346e-05
0.000443523364964698574
-0.000138963172050095231
-0.000113675696581270135
0.000295364305128347014
5.80134738031503206e-05
1.75667191320582617e-05
2.28521340179228078e-05
0.000227750905354423571
-0.000145738179974125575
0.000842255111262094026
-0.000424482410678577414
0.000347463502923381004
-0.000219270675686749749
-0.00035333750487977401
8.52079038800916363e-05
-0.00028627974426512795
-3.2994321966737291e-05
4.70416603052096517e-05
-0.000528976736504271753
0.00022602437295052302
0.000249636239989786853
-0.000481152732101342647
0.000222740158446990363
-1.89771675710925184e-05
0.000525178590692204844
-0.000245812869932316596
5.16578889600739386e-06
-0.00040376991684185667
-0.000103140170577831257
0.000240863130408240834
-0.000316527000422663247
-0.000137602851065856909
0.000126121413418677853
-0.000455510251978054749
0.00013628862713309061
0.000319764088282435341
-0.000423678805389027203
6.73180982605112404e-05
8.34099530638920212e-05
0.000276277472163697366
-0.000118420223468916272
-0.000131067303380510937
-0.000486493787024232357
-0.000168858453923255512
0.000138400717524093313
-0.00045690909970413072
-8.70551055593347776e-05
0.000184869282616411713
-0.00034440316675745427
-1.34904854621387853e-05
0.000102636023262429443
-0.000364540085787433638
9.26684755164781774e-06
-2.23395116440639938e-05
0.000169686162701003442
-0.000175553385603285797
-0.00031131098358803624
-0.000431371645045359575
-0.000172835097366874391
0.000101244093115996327
-0.000442004176710314694
-9.50228572677874099e-05
7.80300849176549492e-05
-0.00041904723182993554
-4.37198412915882595e-05
-1.1164513117388277e-05
-0.000424846985582981213
1.09060617602966367e-05
-8.33754364380220008e-05
0.000107472548243968944
-0.000145632093611775264
-0.000386369722335006493
-0.00032453415660210446
-0.000134384683510182081
0.000113427744901465296
-0.0003329276519934402
-8.82468919511313033e-05
5.89333380291904538e-05
-0.000338690632832668536
-3.99591885320538007e-05
5.23588198390804018e-06
-0.00034554813106041734
8.38835678245600458e-06
-4.69014847031415865e-05
6.21098413801867251e-05
-8.04269406367077175e-05
-0.000317951476185173668
-0.000259651944688576671
-0.000115460501626621814
5.47785346741176327e-05
-0.000261717330693681601
-8.03597903204812127e-05
2.94417169126674468e-05
-0.00025919945845280756
-4.54221639374567898e-05
5.99051748030534983e-06
-0.000250605828275728593
-7.58870678995665069e-06
-1.57449984690031394e-05
3.05194768547832165e-05
-3.29332076405975646e-05
-0.000229114647068213995
-0.000194172145885352352
-0.000107847282919848871
2.48464697577283343e-05
-0.000195389130069140133
-7.87302301507119108e-05
1.40766612655029621e-05
-0.000193028062704189073
-4.96777141851777521e-05
2.47640567953858979e-06
-0.000184284850082697187
-2.02586164732375481e-05
-6.95216129710692416e-06
8.93975308444773146e-06
-1.42424026984132814e-05
-0.000167798223069066211
-0.00014130599892132168
-0.000104758435582123582
1.01546060639235732e-05
-0.000141405698110911221
-7.89331774848626473e-05
5.85132828386512006e-06
-0.000138941429965268369
-5.33113186070823723e-05
6.08159293639901195e-07
-0.000132802411967333138
-2.82571945146455107e-05
-4.21767209952483261e-06
-4.3217007831672378e-06
-7.77153960130817602e-06
-0.000121978232281807534
-9.46430153766319288e-05
-0.000103549744904401827
3.54051548791229957e-06
-9.45342179543510054e-05
-7.95344549158679705e-05
1.91285237756954906e-06
-9.26848480812118744e-05
-5.59343458246754386e-05
-2.81453081010117519e-07
-8.9266201407785356e-05
-3.2700604994227752e-05
-2.52262234168266519e-06
-1.1927612443584287e-05
-4.36251535770676584e-06
-8.29299504964639848e-05
-5.27950529982907859e-05
-0.000103347087648870473
1.01784417213866772e-06
-5.26327834041979582e-05
-8.01126644713125619e-05
5.53852482907126021e-07
-5.18391068998850515e-05
-5.72345079348796911e-05
-2.99973940912734968e-07
-4.98346717363962275e-05
-3.53271642812573894e-05
-1.24224778364646481e-06
-1.51556834230672952e-05
-2.15126802209457704e-06
-4.72743722850681449e-05
-1.7039574611299027e-05
1.87541145157903374e-07
-1.67387885554996603e-05
6.63262439831246349e-08
-1.62911151198920028e-05
-1.39548685418249831e-07
-1.56989242835262665e-05
-3.86915707311552447e-07
-6.30812492302083669e-07
-1.50272730542906517e-05
0.000397808407067222795
0.00052820278764066815
4.21555385738688168e-05
0.00240688336252951451