/*--------------------------------*- C++ -*----------------------------------*\
| =========                 |                                                 |
| \\      /  F ield         | OpenFOAM: The Open Source CFD Toolbox           |
|  \\    /   O peration     | Version:  2206                                  |
|   \\  /    A nd           | Website:  www.openfoam.com                      |
|    \\/     M anipulation  |                                                 |
\*---------------------------------------------------------------------------*/
FoamFile
{
    version     2.0;
    format      ascii;
    arch        "LSB;label=32;scalar=64";
    class       volVectorField;
    location    "0.0899999999999999967";
    object      faceTraction;
}
// * * * * * * * * * * * * * * * * * * * * * * * * * * * * * * * * * * * * * //

dimensions      [1 -1 -2 0 0 0 0];

internalField   uniform (0 0 0);

boundaryField
{
    inlet
    {
        type            calculated;
        value           uniform (0 0 0);
    }
    outlet
    {
        type            calculated;
        value           nonuniform List<vector> 0();
    }
    top
    {
        type            calculated;
        value           uniform (0 0 0);
    }
    bottom
    {
        type            calculated;
        value           uniform (0 0 0);
    }
    left
    {
        type            calculated;
        value           uniform (0 0 0);
    }
    symmetry
    {
        type            symmetryPlane;
    }
    interface
    {
        type            calculated;
        value           nonuniform List<vector> 
181
(
(199.222534215502407 -0.00843638304426500701 -0.00334204762650158662)
(173.856328922393828 0.00248860637828956632 -0.00459288918475533534)
(139.634875193873256 0.00450439806185680587 -0.00432885943760570949)
(108.877187257942992 0.00476197956962918275 -0.0039617433612985321)
(84.7791541873356636 0.00440872115610503341 -0.00348363234539682308)
(65.4533374931161518 0.0040564590810701108 -0.00307002426937313163)
(50.1446024100609904 0.00381538945174741918 -0.0026857159047620747)
(37.7177192009697464 0.00330406481021734482 -0.00216851840980412892)
(27.4286879899372131 0.00269510013785089755 -0.00165906498704878301)
(19.022647722337755 0.00286324011643488341 -0.00161396896968231938)
(12.2443136227701448 0.00268985784217410121 -0.00143843939190678709)
(7.40667336974665158 0.0021369057334359033 -0.00109063918445925648)
(4.48965219416614758 0.00142744172463417818 -0.000716098734153715875)
(2.71534923579309462 0.00104587845711867915 -0.000507210136518492817)
(2.3481306852056254 0.00121176948922707391 -0.00054664083153236633)
(2.32220436796528507 0.00100532002371710584 -0.00046206078950864301)
(264.946757004218227 -0.0027312548304460429 -0.00223314177819296245)
(234.335067944715547 0.00275319288408937398 -0.00270868558190995312)
(193.801313078480746 0.00388072236997255397 -0.0025750988529408313)
(155.813630552561989 0.00436956334232596437 -0.00241720684230527011)
(123.968995991784539 0.00439804401581140973 -0.00223371864325468388)
(97.46316377327895 0.00368609605853932945 -0.00178991822561931115)
(75.3208039179803848 0.0037890028483145992 -0.00176083437647313865)
(56.838609470512786 0.00331671671190005577 -0.0014706440762442131)
(41.5329876950191306 0.00305526756149185298 -0.00128920789515118571)
(29.1344863174301238 0.0038258264121149993 -0.0015332677842736708)
(19.647201695833914 0.00270417003493231192 -0.00103430102519401663)
(13.0135839060442091 0.00167736833978743088 -0.00062267395911233276)
(8.75844937007429358 0.000683817813266315486 -0.000247267625711670319)
(5.91658931741889482 0.000834177505953812774 -0.000297429336137894254)
(3.92653262191615227 0.00127087800611901287 -0.000457988406495507224)
(2.76260100327003366 0.00130610493226867067 -0.00048061228489350153)
(292.836102078965951 -0.00314643131436650406 -0.00107715110066442161)
(262.846634579547583 0.00274923271139088793 -0.00161800656789582841)
(222.260258080367947 0.00364030853065795603 -0.00155551552283172056)
(183.304255769486929 0.00322915097836156025 -0.0011907849904109623)
(149.197105788154715 0.00385483226519112545 -0.00134256188780809194)
(118.364432352010567 0.00332011214650081068 -0.00110678418434355472)
(91.4158318105268677 0.00333667938259765403 -0.00106643539592367613)
(68.9065724032719515 0.00323659226800254501 -0.000980538307533476315)
(50.3598071503816058 0.00346019031871522709 -0.00100076659258926796)
(35.6842488536903417 0.00394870707946548809 -0.00107612103620572937)
(24.6666016674740582 0.00402705500376971618 -0.00105172922111540826)
(16.6524759003873939 0.00268133735108111925 -0.000671057605808341394)
(11.9407118191640027 0.000258808291209092721 -6.23461524234299592e-05)
(9.00058592045348504 0.000503528916074199185 -0.000108360895003992264)
(6.32023572480972007 0.000869401734611533394 -0.000175215405637578345)
(4.01721767928693207 0.00119970726001375244 -0.000235099065677185024)
(307.103276544021242 -0.00318156564185121228 -0.000546015615075817057)
(279.458921177574211 0.0027348341950347208 -0.000864243191764836648)
(239.953569698983586 0.00344847750598958371 -0.000778668738354076602)
(199.829989736377939 0.00384911597005896389 -0.000740039963581487232)
(164.025558813289223 0.00344476442388928251 -0.000612672602489616335)
(131.808040255162922 0.00368233727553569576 -0.000614690910547070128)
(102.482824299426895 0.00341686503573682349 -0.000547342619122340667)
(77.2010681195018975 0.00350035118616866345 -0.000536226572875724613)
(56.5169911215608849 0.00357873662152003585 -0.00052674422423119459)
(40.5642976563708615 0.00427033884168641006 -0.000612569638696819157)
(28.7349318852466844 0.00436116796369310014 -0.000618317742905304937)
(19.3559123108680531 0.00378018793065763902 -0.000525464004176577387)
(13.4574172238150975 0.000324630764221097334 -4.11189264011576174e-05)
(11.0698377301879098 0.000243751342944941763 -2.74521054322420493e-05)
(8.11070158427836319 0.000520916560736014761 -4.09101422976396067e-05)
(4.7959541352975954 0.00109985760135482866 -7.04530808298790021e-05)
(310.307116433359965 -0.00345564272182230167 -0.000334408804221509063)
(283.723467177143959 0.00269640637316440404 -0.000377757727549289635)
(246.177274181193951 0.00340530445649118389 -0.000300877676166026882)
(207.317228795128159 0.00414068144390610394 -0.000311848812021468661)
(171.940089585883698 0.00387746668528489609 -0.000274310446952642209)
(140.079647443622036 0.00361078389082751701 -0.000258207361353906747)
(110.546176700016957 0.00368191496602979619 -0.000245421125353793596)
(84.2891037787169779 0.00372437141677141054 -0.000238188387114161599)
(63.321007282081375 0.00414937636337443534 -0.000258210954534535055)
(46.9438707713475694 0.00453067436862660423 -0.000285438227989778044)
(34.1131301462952408 0.00448788160245207433 -0.000280405654151157785)
(24.2105730340671457 0.00381598279374719762 -0.000240621182433777638)
(16.1459369969254709 0.00282166088164307206 -0.000142885269089212404)
(11.053913230739715 0.00128684660797492812 -4.76516687548706285e-05)
(8.90329556058402183 0.000255837875382698048 -3.98734070551921223e-06)
(6.09012755906066161 0.000220739477895577266 5.5036600675006147e-06)
(309.782462486768054 -0.00346923869750532686 -0.000399531067792518514)
(282.702924859083453 0.00278868691101263151 -0.000250727031194052346)
(245.70112745529778 0.0036144186530393382 -0.000134154091083416623)
(208.922019027132905 0.00292267441010806567 -4.7927884625580671e-05)
(174.994348553963306 0.00407974889001944205 -2.64408824908937877e-05)
(142.640867409087008 0.00362903205003022077 -9.2199798178278957e-06)
(113.541589769542057 0.00336715733074495135 1.03075739402470483e-05)
(88.6470549227088895 0.00335985821904690113 2.09198769423730043e-05)
(68.0168289472210006 0.00345706054364053328 3.28418077907135914e-05)
(51.2882602210643768 0.00365752897662661438 6.57766957553539394e-05)
(37.8116230076170226 0.00484094674339708743 0.000130405600469691842)
(27.1195364819902807 0.0044699089300822446 0.000173650145312309812)
(19.1756163642430018 0.00317756328654590636 0.000205303166174596648)
(13.3884426679008577 0.00144126026626623213 0.000126281219222130581)
(9.25718800477515202 0.000551181433490274255 5.39616092291164489e-05)
(5.76999888494050239 0.000721137302024248117 8.57245454691070246e-05)
(305.198544630051856 -0.00329910113884429937 -7.24347778377724819e-05)
(276.919635772081676 0.00305502516550941244 1.77586305322790092e-05)
(239.509389248769793 0.0037701387159750255 0.000101910605719720467)
(201.969777335958582 0.00415295218032885483 0.000181195590094787638)
(167.611654263566464 0.0044249435117301103 0.000233679131492926854)
(136.769196109126568 0.00390393649177442435 0.000216861981570866928)
(109.309276050438754 0.00366225481850804193 0.000184948476132708203)
(85.1129258677777898 0.0036831220158531461 0.000173297362053074686)
(64.6168802776010409 0.00386710635764194594 0.000184922985598672408)
(47.8206630795814931 0.00432017441287855901 0.000231823152142271173)
(33.5668828123485312 0.00541705861134571254 0.000318254258990273745)
(22.5447023400367605 0.00464558259793209152 0.00028634427194726593)
(15.9452980057025933 0.00145477775290381002 9.34430009434075899e-05)
(11.6281740911722054 0.00139471063988718378 8.61596374531806402e-05)
(8.0322441908243345 0.00183755707090366236 9.38450029105936345e-05)
(6.53443511493968376 0.00218646423608962045 7.2951759725801773e-05)
(301.517784801780635 -0.00329941572473296677 6.31463799829435425e-05)
(273.707568193914653 0.00301813074204639736 7.83714337437439778e-05)
(234.833563360637839 0.00486941206905420424 0.000111971265918086964)
(196.502912249634875 0.00477034305215657574 0.000147196266654310196)
(163.631995343024698 0.00420041940037825003 0.000135737127892094598)
(134.666346758988027 0.00415129531435701801 0.000120133901617504814)
(108.10456247657109 0.00429641199405691402 0.000103450912459339552)
(84.3822581385562103 0.00508416489177204028 0.000114327588732902562)
(63.5126279336836959 0.00586752963196648155 0.00013941646135874901)
(45.8483106581139879 0.00536464476390658036 0.000142613899359566324)
(32.8071318538746297 0.00348719995120569653 0.000122642032279221894)
(24.4123250985284983 0.00172256552635711535 7.32521608031105827e-05)
(19.0646265254652825 0.00210866153842263716 9.33488012161998599e-05)
(15.6883150925644621 0.00178471963257164777 7.50753450662344519e-05)
(13.9729236083350497 0.0019868237084322833 7.32622495679662456e-05)
(14.1356033551380627 0.00231193343874029926 3.89105493958175207e-05)
(0.00968168255821013311 0.00313005723167701861 -37.552107024021474)
(0.00861379103121857198 0.00130881116188823502 -43.414747310456633)
(0.00567862035224918696 0.0010026868230702589 -36.9805715353960451)
(0.00321631618830883282 0.000775701833025766699 -26.7891468479941395)
(0.00154199040202724008 0.000465590467036093602 -17.1282838805933437)
(0.000158987367394154136 7.72225846665414183e-05 -9.71098292669017127)
(0.000605378296387019694 0.00042118183474275817 -10.4211345504579622)
(0.00020408233472235941 0.000186432546354503326 -6.0062395787870333)
(0.000127067727919253433 0.000162939412430404518 -5.49732433632135375)
(0.000159454586611075099 0.000279872577911913223 -5.64260953820977651)
(0.000177469387036945276 0.000396414553749330884 -5.52056968497313605)
(0.000404717431723530102 0.000938809579579799169 -5.2848208508831247)
(0.000254478963454394646 0.000659332838707661802 -4.06523169312489685)
(6.77550056371758975e-05 0.000210604561264060136 -2.57411385582231578)
(1.99639611084914974e-05 0.000112044198421144736 -1.60925858866971749)
(0.00563979721751962752 0.00170294327875148473 -13.0032235979881552)
(0.00463901049568431288 0.00056124406011433725 -13.8030017391343591)
(0.00205566321013858112 -0.00011653214121103622 -9.50532306595811782)
(0.000438653309660840484 -6.83750753364662271e-05 -5.58479940572809319)
(4.2927595347046324e-05 -6.41284282378342925e-05 -3.99182223082987964)
(-0.000121968195870730275 -3.08728711030133361e-05 -3.90713510633107353)
(9.83918751195873613e-06 2.2401924852232905e-05 -3.40837834249427951)
(-0.000100866829698262195 -3.58010836223333467e-05 -3.15203257508849521)
(-9.69456485638058247e-05 -1.33356930967715687e-05 -3.18089137837312474)
(-9.92098614553333963e-05 -1.92715420365322345e-05 -3.20671829734533675)
(-6.96937434127997831e-05 -2.48245233752256164e-05 -3.18006727835547354)
(-3.06346311332077466e-05 2.34236265867689028e-05 -2.8484631894491943)
(-1.27714658166618327e-05 9.27714503114971737e-06 -2.17786643788376644)
(-4.68990241668616705e-06 -4.63733377748569597e-06 -1.64829783564728749)
(0.0034223028802688564 0.000757006308921815384 2.97999362629839526)
(0.0019750964056717427 9.74583097237708692e-05 0.480169217862268072)
(0.00033168851281425326 -0.000140764051003409215 -0.920485893115082221)
(-3.80939114135968044e-05 -3.30739768707884841e-05 -1.63157759256830959)
(-7.19137662494996561e-05 -7.36205324981348401e-06 -1.86436189680780728)
(-5.92927465607276133e-05 -1.8275502598392721e-05 -2.005508043912549)
(-5.62027011161364968e-05 -1.7360087582126911e-05 -1.95419814006676207)
(-3.95905020559503805e-05 -8.11571039364156899e-06 -2.02172494684970161)
(-4.10343486443636441e-05 -1.53465569515138271e-05 -2.02355904777923534)
(-4.08836007394330062e-05 -2.20276016473840985e-05 -1.98063655876951561)
(-3.57377195762040493e-05 -2.94056356719721597e-05 -1.86305817520997019)
(-2.73929603513367684e-05 -3.16971315398896356e-05 -1.65820065012093809)
(0.00165273749039018705 0.000209557733587401247 2.70730974941128011)
(0.000793653656645748693 1.03771514363936805e-05 0.752312812944608722)
(6.62345907148611981e-05 -3.74632036356381475e-05 -0.400280952338585072)
(-7.12799972310897517e-06 -7.1331303903608901e-06 -0.806652296467367025)
(-2.51208951634886591e-06 -9.41020244698095553e-06 -0.958260626228647605)
(-1.75434022299050581e-05 -7.54472536757595716e-06 -1.01261090440907564)
(-1.91965008024854973e-05 -6.33150171542419732e-06 -1.04000823857857827)
(-2.16135744429138819e-05 -8.24166805517004617e-06 -1.06723643440666316)
(-2.12948724923896527e-05 -8.65290255722022819e-06 -1.08961511761542473)
(-1.96282345161287243e-05 -9.37498378951818298e-06 -1.08773283086517547)
(-1.53108307790567114e-05 -1.03255807905137135e-05 -1.06061168882327372)
(-9.16854031995008192e-06 -1.05909979507922073e-05 -1.01389537010545472)
)
;
    }
    procBoundary0to1
    {
        type            processor;
        value           uniform (0 0 0);
    }
    procBoundary0to3
    {
        type            processor;
        value           uniform (0 0 0);
    }
}


// ************************************************************************* //
