/*--------------------------------*- C++ -*----------------------------------*\
| =========                 |                                                 |
| \\      /  F ield         | OpenFOAM: The Open Source CFD Toolbox           |
|  \\    /   O peration     | Version:  2206                                  |
|   \\  /    A nd           | Website:  www.openfoam.com                      |
|    \\/     M anipulation  |                                                 |
\*---------------------------------------------------------------------------*/
FoamFile
{
    version     2.0;
    format      ascii;
    arch        "LSB;label=32;scalar=64";
    class       surfaceScalarField;
    location    "0.0899999999999999967";
    object      phi;
}
// * * * * * * * * * * * * * * * * * * * * * * * * * * * * * * * * * * * * * //

dimensions      [0 3 -1 0 0 0 0];

oriented        oriented;

internalField   nonuniform List<scalar> 
20789
(
1.70129043335115847e-05
-1.70359791196505867e-05
-7.06871271576932174e-07
7.2994606118180874e-07
3.54513574882914343e-05
-1.84617792748481434e-05
-7.63578247012336141e-07
7.86875247696983952e-07
5.41990749587432672e-05
-1.87714563927659092e-05
-8.54916911047579428e-07
8.78631809480046418e-07
7.38985963797401642e-05
-1.97237950889436827e-05
-1.0020876969578481e-06
1.02632849762642148e-06
9.49497599917846757e-05
-2.10754165971985858e-05
-1.21457048829961575e-06
1.23880060913422199e-06
0.000117966834764116435
-2.30432137069847116e-05
-1.50985977067032187e-06
1.53599236991861099e-06
0.000143691836502101735
-2.57430153079017195e-05
-1.91388180606972423e-06
1.9319060292074797e-06
0.000172759858039063985
-2.90624123055558203e-05
-2.46727905848247349e-06
2.46169011168505981e-06
0.000206442616379570959
-3.36044894304420621e-05
-3.2732159484266633e-06
3.19496264141122879e-06
0.000247085606346975637
-4.0445463940106767e-05
-4.35249027020045702e-06
4.15498871215069114e-06
0.000291168041757167292
-4.36377602983030572e-05
-6.18224486174338139e-06
5.73757654824314248e-06
0.000352882530015676855
-6.0389086862659278e-05
-8.34663547449797193e-06
7.02122774892379793e-06
0.000431687352701497933
-7.38548476887487592e-05
-1.26887734301238683e-05
7.73881033831195752e-06
0.000485075076937887444
-4.64509618833111308e-05
-3.40067061623591845e-05
2.70699716187312463e-05
0.000414928770365126625
6.23675899185914144e-05
-7.96464071839863603e-05
8.74251524550027209e-05
0.000222325084836007139
-0.000233954908007839548
0.000426558552634288108
1.70816996160705762e-05
-3.41418212651179749e-05
-7.11028632811218008e-07
7.35112798508006324e-07
3.51602263393654041e-05
-3.65647829315205841e-05
-7.62888890078235848e-07
7.87279626363214781e-07
5.34405323685587858e-05
-3.70767834407103724e-05
-8.52238341687081288e-07
8.7718865942871862e-07
7.26974824449103547e-05
-3.90064879333042129e-05
-9.95383367411594638e-07
1.02106768471371879e-06
9.34610885848632321e-05
-4.18649252652585942e-05
-1.20229498117875086e-06
1.22818314268699708e-06
0.000116158864841005174
-4.57693554390928804e-05
-1.48959220488332364e-06
1.51799953929942978e-06
0.000141305912598464127
-5.09105575770754993e-05
-1.88055797206881068e-06
1.9010804503794406e-06
0.000169902183754174597
-5.76566956013586094e-05
-2.42165600284139287e-06
2.4197130192737367e-06
0.00020233752730118519
-6.59715376318938205e-05
-3.18062077623007836e-06
3.11232679661597511e-06
0.000241721859191944261
-7.96313963886126044e-05
-4.24682538789216077e-06
4.04844213483897408e-06
0.000286772313355088538
-8.82366525611664397e-05
-5.95245714449429512e-06
5.50087379155882706e-06
0.000346576756984388662
-0.000118266162491645257
-8.1145156836148462e-06
6.18710699291488153e-06
0.000427141990307871699
-0.000150571885572052029
-1.56420571055562866e-05
1.17938809939040872e-05
0.000492461096813995108
-0.000109156461079529412
-4.18783804971357737e-05
3.92648239791356502e-05
0.00046544506185651729
6.48381275296451879e-05
-0.000113136824768183717
0.00013768213528450124
0.000484043877392391299
-0.000323060348944041698
0.000526786496969517412
1.70935308284326292e-05
-5.12606386252025458e-05
-7.11945877147100816e-07
7.37209410543626115e-07
3.48395135911811022e-05
-5.43363756961922582e-05
-7.63033974348471512e-07
7.88610444106725875e-07
5.30183921933683708e-05
-5.52818246126551721e-05
-8.50297520137214402e-07
8.76435467377084562e-07
7.21530833629209349e-05
-5.81681318368196419e-05
-9.90396104109193906e-07
1.01733706819604576e-06
9.27278860904789265e-05
-6.24670850918688641e-05
-1.19287874919408271e-06
1.22024088911863646e-06
0.000115189041125655993
-6.82599875585535813e-05
-1.47359152514051199e-06
1.50310469226544925e-06
0.000140070749842184281
-7.58140180704200547e-05
-1.85361131193366449e-06
1.87537056015070115e-06
0.000168194898268814538
-8.57825141030616622e-05
-2.37765622051887515e-06
2.37934677247917085e-06
0.000200205482409737819
-9.79130940957423699e-05
-3.10188176114969456e-06
3.03284613012855318e-06
0.00023811253388853886
-0.000117383320579337054
-4.13551724831935719e-06
3.98036386780053713e-06
0.0002819070278916493
-0.000131451726566182611
-5.70607254354103501e-06
5.12660133222878903e-06
0.000342106456611523664
-0.000177022779833183394
-8.02381532101883308e-06
6.58096099599257209e-06
0.000422551426916345171
-0.000227884732977170037
-1.7864488519520125e-05
1.47322890054129482e-05
0.000476657842469072003
-0.000164883708364193203
-5.12224090470680325e-05
5.28429787151792876e-05
0.000438431399777466045
5.73290716833849557e-05
-0.000132547526700911106
0.000178282619203560237
0.000705150507631207885
-0.00036241684752850279
0.000579741566580218009
1.69921905030970713e-05
-6.82796090600715569e-05
-7.10510341262113651e-07
7.37300900326083015e-07
3.44085974776628647e-05
-7.17796850288976662e-05
-7.60351287983278368e-07
7.8726483369642528e-07
5.23870555793915107e-05
-7.32875817312808814e-05
-8.45218766389036268e-07
8.72535349756053793e-07
7.13015021563023261e-05
-7.71105338850387837e-05
-9.81752388074338305e-07
1.00973581903805705e-06
9.15905925824231088e-05
-8.278460659407846e-05
-1.17896870435684147e-06
1.20742160287007974e-06
0.000113693207012135824
-9.03926749023539175e-05
-1.45193888481155989e-06
1.48203413775425871e-06
0.000138141668177195476
-0.000100284870225588195
-1.8192559163710115e-06
1.84164289279148837e-06
0.000165595388800020136
-0.000113240740952342457
-2.32262786641669074e-06
2.32712508613760884e-06
0.000196932311906494072
-0.000129182634254470163
-3.01243244050131443e-06
2.94503505477975319e-06
0.000233480195670699201
-0.000153821885721383664
-3.98715346339887796e-06
3.87781047997200415e-06
0.000274965853052435718
-0.000172252616430132704
-5.51315754427925082e-06
4.82831958630458257e-06
0.000334958965239144256
-0.000235962656622092977
-7.80430739124814359e-06
6.75097291304237084e-06
0.000413750157343500805
-0.000303223894971193001
-1.94435257969112358e-05
1.59914113266655821e-05
0.000458149113077244976
-0.000212894385237660821
-5.98030755364619153e-05
6.34146596651704426e-05
0.000409746503990283484
4.98405722363244575e-05
-0.000151691919350101332
0.000207582866383101701
0.000892281956567526338
-0.000388418253485178506
0.000611033221644417097
1.67854851147856049e-05
-8.50939005856708909e-05
-7.06891729256855248e-07
7.35730481007724235e-07
3.3873911931106054e-05
-8.88967332393535495e-05
-7.55019980306851371e-07
7.83685464402144782e-07
5.15676992978280073e-05
-9.10100427014193974e-05
-8.37183367852941764e-07
8.65913912840264207e-07
7.0174717207761438e-05
-9.57465279634550333e-05
-9.69744079743244439e-07
9.98784702539381962e-07
9.00873063446344538e-05
-0.000102726581217092147
-1.16100533477459771e-06
1.19043906980905667e-06
0.000111724968015679946
-0.0001120584306504201
-1.42557135271138635e-06
1.45369296402834728e-06
0.000135586936533136536
-0.000124170022138176057
-1.77806090543166528e-06
1.80126272015269007e-06
0.000162236414332433715
-0.000139896982811885101
-2.25631663974683891e-06
2.26310663476889597e-06
0.000192788732659128948
-0.000159677600736949656
-2.91403730447682044e-06
2.85671344249561248e-06
0.000227534833689584131
-0.00018847379899152272
-3.81698252933378317e-06
3.72280609442806889e-06
0.000266743003500372251
-0.000210829087982643493
-5.32661910536776319e-06
4.69492772380584387e-06
0.000326466083883335582
-0.000294653984181545315
-7.47567505880537608e-06
6.4439592008176145e-06
0.000394728109096221429
-0.000368583308896446471
-1.99294324086109335e-05
1.70268733207025141e-05
0.000429485528893452646
-0.000252859976594124063
-6.72524685715044995e-05
7.24605890408283962e-05
0.00038216981684291272
4.62652571747339334e-05
-0.00017014515906742494
0.000221036050991147722
0.00106347132030848251
-0.000413403539851232632
0.000624383867075464002
1.64989053036469248e-05
-0.000101624445220128236
-7.0125988452453894e-07
7.32943046789104876e-07
3.32286134266217552e-05
-0.000105657326794873505
-7.47256897874478564e-07
7.78210964016525382e-07
5.05666654830516031e-05
-0.000108378457580133558
-8.26418510686226554e-07
8.56869072910543945e-07
6.87857728140576341e-05
-0.000113995629574160242
-9.54755797170100529e-07
9.8483806280188406e-07
8.82363188221738754e-05
-0.000122207281823866101
-1.13958921489088756e-06
1.16981984629761519e-06
0.000109309879851456727
-0.000133158699149206602
-1.39501721710294825e-06
1.42178980033706399e-06
0.000132455555190822913
-0.000147339709452345388
-1.73069885795502667e-06
1.75477555480530828e-06
0.000158210675467714468
-0.00016565901973938357
-2.18162687415679075e-06
2.18861734128704402e-06
0.000187173586634621907
-0.000188593745140583948
-2.80253963738329803e-06
2.75584665042109943e-06
0.000219933032291044631
-0.000221155578916584761
-3.61330205935943477e-06
3.53569394897539481e-06
0.000257517546779589129
-0.000247939868212427163
-5.10998295436618843e-06
4.63630984461809488e-06
0.000315444624038525184
-0.00035134718883429554
-6.96495485911844068e-06
5.73114363300031282e-06
0.000371467874924428913
-0.000422879985066411119
-1.9237463624191666e-05
1.75109141530459519e-05
0.000397191510223617885
-0.000285707502615559585
-7.16486617687635697e-05
7.87724689454074055e-05
0.000350718859754090158
4.48206536006051648e-05
-0.000183923762917631746
0.000231840958566162077
0.00121527738674061833
-0.000435545481433489176
0.000634458186707021225
1.6145653548072406e-05
-0.000117805795793685697
-6.93829449745009972e-07
7.29576611675886487e-07
3.24734894207343532e-05
-0.000122019044597626507
-7.37253836929895592e-07
7.71212286712518308e-07
4.93926925954392494e-05
-0.000125330140393320228
-8.13159650079926728e-07
8.45727960515478631e-07
6.71501390769875897e-05
-0.000131784022574240841
-9.37268003094570365e-07
9.68296731316087505e-07
8.60596510100409976e-05
-0.000141147444630319836
-1.11550413437553747e-06
1.14623830601443934e-06
0.000106476683800242261
-0.000153603690529478229
-1.35864204643893211e-06
1.38669181220244357e-06
0.000128807646103402566
-0.000169695111234809701
-1.67881422494792797e-06
1.70333541433963077e-06
0.000153495926685423973
-0.000190353531715381182
-2.10223241970612556e-06
2.10853056739529994e-06
0.000181155815932294856
-0.000216227595046003155
-2.67210230410002199e-06
2.64610139132206186e-06
0.000212092768359954724
-0.000252017854603277681
-3.38316570573331588e-06
3.30849455699401297e-06
0.000247347527604551603
-0.000282890621423598123
-4.81577253288648225e-06
4.51177517553896706e-06
0.000301255298198371759
-0.000403831499723662681
-6.18721708547818468e-06
4.76375189843728735e-06
0.000343802781271418097
-0.000465364498149301281
-1.7166408739761531e-05
1.71033680555845403e-05
0.000365942914104394677
-0.00031233771743867985
-7.12909598640059359e-05
7.57808824138776543e-05
0.000320876354448071963
4.89264639227932735e-05
-0.000191707350991159422
0.000232668043959419766
0.0013473192314722019
-0.000450210349440999778
0.000639044801765134281
1.57346341442785809e-05
-0.00013358214218657272
-6.84804368027557536e-07
7.26559694890507195e-07
3.16132643431724976e-05
-0.000137935623797994541
-7.25130828855134786e-07
7.63135855433856617e-07
4.80557123090750592e-05
-0.000141807798656489581
-7.97604593767681664e-07
8.32865846076004358e-07
6.52844472843172981e-05
-0.000149044478692398279
-9.17842253160032885e-07
9.49614556696813931e-07
8.3580757447122313e-05
-0.000159474629618525283
-1.08961759741512587e-06
1.12056257251683651e-06
0.000103261381191529079
-0.000173311194854683923
-1.32243213213099801e-06
1.349395300628133e-06
0.000124683969174924124
-0.000191142351670596229
-1.62468518835302209e-06
1.64938857833714675e-06
0.000148221621583814072
-0.000213893814475061254
-2.0206286699079739e-06
2.02328133886540978e-06
0.000174395358343173643
-0.00024240088470389731
-2.53067291611964317e-06
2.53022335140300095e-06
0.000203492181537769947
-0.000281025705854363308
-3.15300381389786286e-06
3.06400553383819444e-06
0.00023612118467088912
-0.000315389542088078756
-4.36395792823735379e-06
4.23386547122397502e-06
0.000284754466957931433
-0.000450833527940349354
-5.06840382425329582e-06
3.4371276995962467e-06
0.000319086621220322525
-0.000498533644855709093
-1.6005162178613048e-05
1.48420430497193962e-05
0.00033852645372775558
-0.000329904605256383645
-6.93814695121190082e-05
6.75083223776643633e-05
0.000294921738183394691
6.16559178498775145e-05
-0.000194885983380976884
0.000225761130092000156
0.00146700810745080878
-0.000457743734881552189
0.000632976523009025349
1.52731054751723526e-05
-0.000148905934205492002
-6.74442009692081589e-07
7.2514651333494807e-07
3.06549349042434463e-05
-0.0001533613513191827
-7.10614044126137116e-07
7.54542979791090959e-07
4.65670966824349697e-05
-0.000157758794484675317
-7.79918034118601898e-07
8.18764685856509666e-07
6.32063690326349533e-05
-0.000165715950853531445
-8.97103836835376607e-07
9.29339240310195937e-07
8.08253933964606704e-05
-0.000177124302583380247
-1.0630808044103022e-06
1.09377991500512402e-06
9.9699666717342273e-05
-0.000192209860503954539
-1.28679665799417798e-06
1.31123982698554749e-06
0.000120136836406301278
-0.00021159975679777853
-1.571778254741016e-06
1.59202716535713422e-06
0.000142436489084477036
-0.000236190286005139575
-1.94114938002644936e-06
1.93798534444314954e-06
0.0001670400388978561
-0.000267028838012052158
-2.3810037484507742e-06
2.40543149115770046e-06
0.000194206602109091552
-0.000308078084880513792
-2.94088856550721519e-06
2.82670883983300688e-06
0.000224162953670738597
-0.000345393561397848718
-3.72292986888591758e-06
3.7706229529372989e-06
0.000266922864258332601
-0.000491508793961720788
-4.04170066451196499e-06
1.9570796243473056e-06
0.000297190459269735217
-0.000524777421647389347
-1.59549215068883269e-05
1.19310348718844275e-05
0.000313380730816569626
-0.000340936752530027513
-6.69622452119109709e-05
6.18039805806410499e-05
0.000270101960524308604
7.89844753101880603e-05
-0.000194206111903736701
0.000220156262459754773
0.00156993276737783056
-0.000461451242932350055
0.000628628443872829225
1.47680083972732805e-05
-0.00016373802882910769
-6.62682568688080756e-07
7.26768903316245395e-07
2.96065215976307732e-05
-0.000168253001924703794
-6.92977848164461907e-07
7.46163926497737795e-07
4.49391888548708943e-05
-0.000173135145963841859
-7.60334799991110152e-07
8.04029614749494254e-07
6.09340671073002428e-05
-0.000181743240933852673
-8.75801678517883031e-07
9.08265987827515635e-07
7.7820154302202238e-05
-0.000194039849020701796
-1.03761830205336406e-06
1.0670979275827535e-06
9.58291523599380274e-05
-0.000210238435442586843
-1.25455317483304673e-06
1.27413898755910112e-06
0.000115217708557982949
-0.000231002658227644924
-1.52075158531566709e-06
1.53507634641503353e-06
0.000136206233835242446
-0.000257166508986096296
-1.86820719643742964e-06
1.8559354107981005e-06
0.000159161771851011629
-0.000290017210136592912
-2.22903863176173865e-06
2.26192137391519943e-06
0.000184228661133402539
-0.000333026835411246846
-2.74998635893843351e-06
2.63186962274527112e-06
0.000211646847985703831
-0.000372967918221474694
-3.03564022324657903e-06
3.19184714971598289e-06
0.000248388454672371687
-0.000525564376084038435
-3.42304164540587856e-06
7.37068258333453951e-07
0.000275775413143995491
-0.000546113141344038342
-1.60468718421907016e-05
9.99562465842802771e-06
0.000289190479923970506
-0.000347700773196843622
-6.45211160515686652e-05
5.78700617882354167e-05
0.00024756053676935197
9.84123493913169637e-05
-0.000187961252518719095
0.000210163412500764802
0.00165720534468538454
-0.000456524659686910982
0.000616812558056981054
1.42254185049585021e-05
-0.000178046972705569258
-6.4927877103907092e-07
7.32823766277766055e-07
2.84758414319291013e-05
-0.000182571329727612561
-6.71021919348411765e-07
7.39034064754081821e-07
4.31849152500502398e-05
-0.000187895080237767401
-7.39484408950923395e-07
7.90374279338037363e-07
5.84857025807167426e-05
-0.00019707658375330784
-8.55124480948841591e-07
8.87752102950983048e-07
7.45918028944621422e-05
-0.000210171984415219118
-1.0160387142119858e-06
1.04207048799944565e-06
9.16871771589155806e-05
-0.0002273447975646433
-1.23040732223947293e-06
1.24139156520678858e-06
0.000109979651549652676
-0.000249299936640746489
-1.48093115612017346e-06
1.48571960676847572e-06
0.000129597262187840055
-0.00027676092005221131
-1.8062580369837411e-06
1.78310464678138434e-06
0.000150851684680776508
-0.00031131212060800243
-2.08815024368441342e-06
2.12868906382583539e-06
0.000173793840005389514
-0.000355899459134654628
-2.59115483513013139e-06
2.52166655329900267e-06
0.000198804256538240645
-0.000398069461815088585
-2.41147417620314226e-06
2.50264283123906109e-06
0.000230762777968073043
-0.000554478812326208536
-3.18510677043905233e-06
1.4106645896626077e-07
0.000253182226740805889
-0.000562056323822868599
-1.58896466363335832e-05
9.41339034857995634e-06
0.000263866842177111873
-0.000353037540602912968
-6.1155197143286484e-05
5.58073828578243108e-05
0.000223912073610804728
0.000117515931190224215
-0.000180800206744120389
0.000201651547676249659
0.00173329757004100828
-0.000448045018428304778
0.000595864925810248329
1.36498640121214644e-05
-0.000191807312910442107
-6.36310827953228585e-07
7.46846112916011048e-07
2.72698612574191957e-05
-0.000196282658966636292
-6.43546253111173738e-07
7.35015821337037012e-07
4.13178143712021511e-05
-0.000202000987230962565
-7.19266435344359491e-07
7.77274383928836943e-07
5.58799164956237622e-05
-0.000211671754343685633
-8.37340131384020391e-07
8.70489411753451148e-07
7.11676802527869254e-05
-0.000225477372322092912
-1.00274598729266153e-06
1.02042424294528841e-06
8.73114891217213475e-05
-0.000243485629955573726
-1.22180449712984041e-06
1.21888308920267852e-06
0.000104475169164300574
-0.000266454236202972173
-1.45834790506101613e-06
1.44903955958864581e-06
0.000122673405292988497
-0.000294916912650020221
-1.75658521645605566e-06
1.71440865928725811e-06
0.000142237201443265362
-0.000330936475896982023
-1.97006894766317354e-06
2.0306881527969247e-06
0.000163063501841030368
-0.000376727705390053429
-2.47972269372953529e-06
2.48175075269050271e-06
0.000185669254065703494
-0.000420540659406113543
-2.01324954408180029e-06
1.87876552429287985e-06
0.000212668400074349169
-0.000578148678740068173
-3.75995635219616061e-06
4.30713440077021138e-07
0.000230282225156268659
-0.000574827875330809223
-1.62534211826450877e-05
1.14111501346418026e-05
0.000239108642913545726
-0.000359619226083888847
-5.7042137326672976e-05
5.47973712144040007e-05
0.00020351524999060659
0.000136480580863146666
-0.000173088899785091277
0.00018971775100995339
0.00179969828038370494
-0.000434320246510410584
0.000571435049861328845
1.30400583015224594e-05
-0.000204994478732692387
-6.26770901566097509e-07
7.73951145063816352e-07
2.59888778436763436e-05
-0.000209359153054770517
-6.09973329837451106e-07
7.3774273493610699e-07
3.93497241209977275e-05
-0.000215426737681653779
-7.03674281141974811e-07
7.68683569803261197e-07
5.31365200479450565e-05
-0.000225490938834709286
-8.27105534134770299e-07
8.59574021708443628e-07
6.75751716927521136e-05
-0.000239920361099672563
-1.00446768808691106e-06
1.00894091063958224e-06
8.27406755828580048e-05
-0.00025862893205450758
-1.2404098010303368e-06
1.21828494075949236e-06
9.87585524350422563e-05
-0.000282443422466238268
-1.460169166008591e-06
1.43159464389056317e-06
0.000115506843607380609
-0.000311601630632426054
-1.72257515505376754e-06
1.65902203379870221e-06
0.000133444543512293797
-0.000348971909284078211
-1.88087486421584278e-06
1.97862350849927016e-06
0.000151986971086446042
-0.000395327997343085076
-2.35013798277848647e-06
2.40803588702711471e-06
0.000172132332803489815
-0.000440520382937070851
-1.83995329137866082e-06
1.67437488858609722e-06
0.000193215564318268004
-0.000595839281859238774
-4.65548957498975569e-06
1.26289102158031217e-06
0.000210188723166216621
-0.000589560976437093764
-1.76912423576103638e-05
1.54512314066626561e-05
0.000219261147411069354
-0.00036961320983099023
-5.23950653457110562e-05
5.33166353123719133e-05
0.00018763898167528057
0.000157712909467106399
-0.000161715812968139848
0.00017210578052180491
0.00186380154161590577
-0.000416175544220668658
0.000539711752464090721
1.23599127756094702e-05
-0.000217552562874588471
-6.27191377397902686e-07
8.25422314999190894e-07
2.46062050409563456e-05
-0.000221790349386677876
-5.66539914071353362e-07
7.51468571759185409e-07
3.72898173984903937e-05
-0.000228185931341574118
-6.92147778369061679e-07
7.67846985979173851e-07
5.0271582961472261e-05
-0.000238497253085618357
-8.36498620304938031e-07
8.61127389018870664e-07
6.38360540413376518e-05
-0.00025346551985467973
-1.03272296767129147e-06
1.01346387171331909e-06
7.80101612811367275e-05
-0.000272757793538207249
-1.30752404334384482e-06
1.26226741533187284e-06
9.28866746991408948e-05
-0.00029726366360386617
-1.49932735206099473e-06
1.44308793982443938e-06
0.000108207344100554585
-0.000326825531124988597
-1.70643632835189745e-06
1.60964361366662524e-06
0.000124575293794026087
-0.000365499745404899783
-1.79689061501157497e-06
1.95674266144752721e-06
0.000140669640395359088
-0.000411511284341382563
-2.22603589358026545e-06
2.31494320635161681e-06
0.000158417779489850973
-0.000458150265115507451
-2.11389096052144918e-06
1.99565598894122494e-06
0.000177159742512840738
-0.000611391257314104026
-5.37167508830548075e-06
2.18171979993005503e-06
0.000193600287687967324
-0.000605415519663634488
-1.88665854085513519e-05
1.82807249511642115e-05
0.000198591333023387563
-0.000378109336094396571
-4.80586377765461676e-05
5.15640152840041204e-05
0.000170463989398552057
0.000179771761722834667
-0.000151865833052928882
0.000157934556831946799
0.00192218315240985193
-0.000396121903344150877
0.000508204935540810675
1.14896868268472385e-05
-0.000229307108441798041
-6.40300005441384688e-07
9.0520679347663582e-07
2.30805624077736446e-05
-0.000233655518618933021
-4.93966352912908788e-07
7.68296904672803362e-07
3.51617981694332072e-05
-0.000240371885303554308
-6.6008326952864281e-07
7.64834016932093065e-07
4.72873293913372953e-05
-0.00025059992615389311
-8.82725091541665179e-07
8.6000522093104433e-07
5.99625262738585912e-05
-0.000266089425260139555
-1.08913580703215661e-06
1.03780212090072775e-06
7.31450759598400129e-05
-0.000285853879652487599
-1.44181126929455064e-06
1.35533526281402807e-06
8.69011240545082027e-05
-0.000310880158804399296
-1.58686557516779824e-06
1.4472940603467909e-06
0.00010091094846020486
-0.00034071518695048006
-1.67033077222448443e-06
1.55017608709546503e-06
0.000115709711426228109
-0.000380511871716049865
-1.69342772764962816e-06
1.90673946028093551e-06
0.000129123125828142289
-0.000425003473786679455
-2.09339596711264609e-06
2.17217994735165794e-06
0.000143945545618465534
-0.00047276440528587775
-2.56411350124314747e-06
2.35585702401562408e-06
0.000161444863759616628
-0.000626153217098595347
-5.49401106343741485e-06
2.75668174380834023e-06
0.000179585457093897789
-0.000624726148147374937
-1.75703063164974249e-05
1.87405210080900137e-05
0.000175334802373415186
-0.000378462713651798554
-4.61104330093965381e-05
5.07150717010761251e-05
0.000146108896209108788
0.000202120344299675761
-0.000147159772630755143
0.00015403746220158781
0.00196743454897568794
-0.000376769145960305363
0.000477627731145186169
1.03487296546583266e-05
-6.78393799213755532e-07
1.03357892648156252e-06
-0.000240010976792624623
2.14818471348952791e-05
-3.65933160755022269e-07
7.98219325921539709e-07
-0.000245220826670687348
3.30372575085098995e-05
-5.86686584236958067e-07
7.44127259103496087e-07
-0.000252084690120375093
4.41806823577827658e-05
-9.75718674034240472e-07
8.55404894945113183e-07
-0.000261623036590604026
5.59658507075222253e-05
-1.18879895710600478e-06
1.10117302988230005e-06
-0.000277786947967061917
6.81698322445337904e-05
-1.63315326898334573e-06
1.47780132749544027e-06
-0.000297902504127676949
8.08072197245817781e-05
-1.7024863698000997e-06
1.39242727531160261e-06
-0.000323207568107605173
9.36243663765579814e-05
-1.54395325985960156e-06
1.48003380157300585e-06
-0.000353468415822260371
0.000106841337601674117
-1.56344664019954564e-06
1.67595355803570287e-06
-0.000393841369876803636
0.000117081927850239592
-1.94653914095745091e-06
1.94295066480312238e-06
-0.000435240427263477244
0.000129658237280485026
-2.80421736024644556e-06
2.41052050818602655e-06
-0.000484946989677056224
0.000142365376560647013
-6.28917966582979677e-06
3.77257189438302999e-06
-0.000636343711429304725
0.000168075205371755795
-1.56489765514716557e-05
1.7217718473674294e-05
-0.000652004551145256793
0.000148101664677313444
-4.8960657687039763e-05
5.0912928598816537e-05
-0.000360440627964800885
0.00011733871143364307
-0.000158970182656105279
0.000164098327398602586
-0.000360139942655429127
0.000451056001005836445
1.69800022965403587e-05
-1.70294141728190361e-05
-6.57499869860147882e-07
3.53811517990064081e-05
-1.84522102344722859e-05
-7.12554477300224792e-07
5.40861867858433403e-05
-1.87594457300267518e-05
-8.00551601063529578e-07
7.37339162542575315e-05
-1.97076770935133672e-05
-9.42169518760263339e-07
9.4718945131770722e-05
-2.10535807001685843e-05
-1.14603090368170619e-06
0.000117650317372907875
-2.30123800872963865e-05
-1.42883219264115934e-06
0.000143248570249790918
-2.56977131978607692e-05
-1.81438517277593675e-06
0.000172119270903501275
-2.90018421358339157e-05
-2.33609549423780273e-06
0.000205421836234072368
-3.35071430745355662e-05
-3.0685957376662878e-06
0.000245472022978907077
-4.03522830460057374e-05
-4.05038083105228716e-06
0.000288005947878632225
-4.31459719693818393e-05
-5.57021771703259494e-06
0.000347228546991279789
-6.04434548194657169e-05
-7.1257620425740035e-06
0.000421297793895108346
-7.56703473030750375e-05
-1.10876381729574152e-05
0.000459629974627610903
-4.52950411454185669e-05
-2.70438380380529864e-05
0.000372366916366826447
7.11651779582384914e-05
-6.35485800386792195e-05
0.000261915559512007786
-0.000123503618932709405
1.70489616829835148e-05
-3.41284096422933352e-05
-6.61007744256578174e-07
3.50911620098327072e-05
-3.65457218650947684e-05
-7.11582985135359569e-07
5.33307308931997017e-05
-3.70537419854855032e-05
-7.97519431545806919e-07
7.25387937782355269e-05
-3.89759414207484575e-05
-9.35173306585002144e-07
9.323964333648404e-05
-4.18229437263669781e-05
-1.13375617231624684e-06
0.000115855998734886156
-4.57094053270367783e-05
-1.40887277988318009e-06
0.000140884839165866327
-5.08247473689979129e-05
-1.78230900270824714e-06
0.00016928934147436125
-5.75388123270988199e-05
-2.2891475703852452e-06
0.000201382214495182985
-6.57930055792187396e-05
-2.98762853122580653e-06
0.00024016278629439313
-7.94349239775155101e-05
-3.94476688958016799e-06
0.000283804597335307488
-8.74104847092080513e-05
-5.32978250005520096e-06
0.000341384918082952946
-0.00011888936209223378
-7.24895676523459863e-06
0.000419111474472209737
-0.000155421888363802078
-1.36170728914825535e-05
0.000463445794831808761
-9.90294292026135711e-05
-3.24784313526891392e-05
0.000398464971781488787
0.000107916024578514301
-8.4907124114761795e-05
0.000532058782215531247
-0.000194738624998195523
1.70610610216048374e-05
-5.12402806961885529e-05
-6.61118658823333848e-07
3.47717995288535743e-05
-5.43083965408592536e-05
-7.11073269787737439e-07
5.29107450388378273e-05
-5.52480425608950721e-05
-7.94918497172042425e-07
7.19978030071277605e-05
-5.8123801914896458e-05
-9.29560630322013951e-07
9.25122196272474981e-05
-6.24063253200303529e-05
-1.1238795437778409e-06
0.00011489525405771313
-6.81730990417785891e-05
-1.39290370927327109e-06
0.000139663679335648737
-7.56906177420856903e-05
-1.75616205168924204e-06
0.000167600463308243151
-8.56065540551520792e-05
-2.24670251092068418e-06
0.000199280259654093612
-9.76575394833064742e-05
-2.91718767408347316e-06
0.000236568579423170836
-0.000117026865816074774
-3.83195758974551362e-06
0.000278921881458617856
-0.000130362042591919571
-5.10786696490849436e-06
0.000337541598428587675
-0.000178448238644306054
-7.08473635922379836e-06
0.000411760523875960951
-0.000232841296006231911
-1.46641835538858043e-05
0.000445744673162381611
-0.000145370644964935516
-3.88656215492040201e-05
0.000385119761031569371
0.000134096737444169611
-9.81034406734978745e-05
0.000777627328941932531
-0.000222865583367013158
1.69602444443107066e-05
-6.8252362026139762e-05
-6.58643635571107443e-07
3.43424597087235256e-05
-7.17433288858576558e-05
-7.07591756721837523e-07
5.22819598877481944e-05
-7.32435874871513508e-05
-7.89125816619124164e-07
7.1150360863716372e-05
-7.70536345195301214e-05
-9.2025979041125709e-07
9.13817326982276903e-05
-8.27071971196744306e-05
-1.10942412766632851e-06
0.000113410120689443397
-9.0281689138042677e-05
-1.37170920378394123e-06
0.000137750583512195066
-0.000100128324874574712
-1.72202354644407699e-06
0.000165026042608516164
-0.000113011404650501941
-2.19325157786870156e-06
0.00019603732445299345
-0.000128852305274061772
-2.82896754143704807e-06
0.000231982314451183153
-0.0001532658308975434
-3.69320530762607206e-06
0.000271962422688179105
-0.000171005112358158645
-4.85023722575382586e-06
0.000329837430350292328
-0.000237526976974107627
-6.60061492497983532e-06
0.000399517800007319725
-0.000307088094963613265
-1.48771327836326576e-05
0.000425238844187660894
-0.000186439128253947578
-4.44557201904488834e-05
0.000367070869527502403
0.000153519729813783264