/*--------------------------------*- C++ -*----------------------------------*\
| =========                 |                                                 |
| \\      /  F ield         | OpenFOAM: The Open Source CFD Toolbox           |
|  \\    /   O peration     | Version:  2206                                  |
|   \\  /    A nd           | Website:  www.openfoam.com                      |
|    \\/     M anipulation  |                                                 |
\*---------------------------------------------------------------------------*/
FoamFile
{
    version     2.0;
    format      ascii;
    arch        "LSB;label=32;scalar=64";
    class       surfaceVectorField;
    location    "0.0899999999999999967";
    object      Uf;
}
// * * * * * * * * * * * * * * * * * * * * * * * * * * * * * * * * * * * * * //

dimensions      [0 1 -1 0 0 0 0];

internalField   nonuniform List<vector> 
20789
(
(0.0544412938672371657 -0.0124609226033046763 -0.00212606773146339564)
(0.0270843424674320453 -0.0242289480812808676 -0.00205165074532289316)
(0.0270177735315842681 -0.011874610486097132 -0.00201065606137441075)
(0.0270692080875549711 -0.0118788209645741497 -0.00207629101847270001)
(0.11344434396253239 -0.0131699852731979612 -0.00233815797084316887)
(0.0831676681218724012 -0.0262567527464506734 -0.00220770460966090033)
(0.0831451851481396498 -0.0130422260738734426 -0.00217195590261278762)
(0.083308099003040606 -0.0130490773398224541 -0.00223822292678269637)
(0.173437039867978732 -0.0136426850392625358 -0.00267857501339325513)
(0.141965122043185316 -0.0266971824252670575 -0.00246601352152901873)
(0.142495989545792706 -0.0132909311015948477 -0.00243176365809106209)
(0.142785332312397983 -0.0132998807983380658 -0.00249921936918740461)
(0.23647550841516829 -0.0144676952352217406 -0.00318951989410970601)
(0.203135428823541631 -0.0280516196820532228 -0.00288002213567214701)
(0.204712764854404733 -0.0139854209362131974 -0.00285038278245788)
(0.205157166125268908 -0.013997641219924686 -0.00291933439324889351)
(0.303839231973710988 -0.0156351343531579423 -0.00390657753660563802)
(0.267340395229875405 -0.029973925827126869 -0.00347457079276827178)
(0.269186822648649571 -0.0149375187138952384 -0.00345477827783001673)
(0.269815010064069272 -0.0149539370248763792 -0.00352369951042599697)
(0.377493871245172696 -0.0172967575483733357 -0.0048926510382544296)
(0.337294234948749605 -0.0327725706054894303 -0.00429499849556374755)
(0.339556625159874115 -0.0163151425818433976 -0.00429471223657335727)
(0.340426309271663285 -0.0163382956300888761 -0.00436904496332411914)
(0.459813876806724586 -0.0194424730255661413 -0.00622529916378124389)
(0.413776720863573311 -0.0366122884379046151 -0.00541692509507392568)
(0.416347789663770618 -0.0182524758599146367 -0.00544393047059795691)
(0.417543100929946676 -0.0182863937892473599 -0.00549519937196839541)
(0.552831545725005813 -0.0222492049881391485 -0.0080904976242728039)
(0.502181032863238008 -0.0413332086123461145 -0.00692994257532184889)
(0.50612480199771237 -0.0205963771861127735 -0.00701803821079536802)
(0.507784321989563026 -0.0206420322833106677 -0.00700214076212539536)
(0.660616372414626563 -0.0264983690890481897 -0.0106554823185538803)
(0.594566760479843026 -0.0477930516344064263 -0.00906977273901857055)
(0.597521566454515485 -0.0238470819369936693 -0.00931048091996916627)
(0.599943294257317183 -0.0239315813681423781 -0.00908789373557090246)
(0.790673940310322121 -0.029492260397261983 -0.0148453826302444112)
(0.723763306083584523 -0.0575224376037074547 -0.0120078842573924406)
(0.731666699763527939 -0.0290901374828057974 -0.012380416768569864)
(0.735340691008399272 -0.0290658493832800478 -0.0118186345590057425)
(0.931737733622935438 -0.0375032300491107834 -0.0203902830874539386)
(0.822306451242162284 -0.0620625924242532989 -0.0172161033766462246)
(0.824813237563493229 -0.0296762377848455751 -0.0175850520511811638)
(0.830299014502933974 -0.0304201795826227646 -0.0163202177372250637)
(1.12922409605016383 -0.0533876516763762271 -0.0275295845035309211)
(0.979786148723825079 -0.0858867013157821463 -0.022168518995373393)
(0.979144136199753379 -0.0450970916759270701 -0.0237415409052377999)
(0.992918148468261652 -0.0440444669858195414 -0.0199714922636065328)
(1.38139952864479509 -0.0532833408433017186 -0.0625235357445134698)
(1.21972292463895138 -0.105038005601775716 -0.0364871280216339591)
(1.22003753367255596 -0.0628397864703575254 -0.0360925110901314516)
(1.23729104213425889 -0.0613011360581386319 -0.0220126160734182043)
(1.5522402462012368 -0.0095366828479209638 -0.159645189899102258)
(1.47912228334001128 -0.0660635902340423742 -0.104603590588033618)
(1.45432361195280602 -0.0458237706924769436 -0.0967301864173759629)
(1.49561237585228923 -0.0493903923212544588 -0.0769990303821719568)
(1.32777206516840551 0.0802225345036325921 -0.589311070563673933)
(1.62084033790738946 0.0887005723286633518 -0.290608486239429031)
(1.52300377519395691 0.0258353104789129095 -0.226549780434451675)
(1.71900599377069807 -0.00488012549382549864 -0.248675989205339537)
(1.3324041775712252 0.316195676211211252 -1.10025695905509568)
(1.19919903870216382 0.143851093009424141 -0.665471738333410556)
(1.58380942954769344 0.096006271920134223 -1.21332210527086337)
(0.0546614387714258396 -0.0376223271048076804 -0.00213328762352039828)
(0.0271348288218096201 -0.0485572569103899718 -0.00206133667056091451)
(0.0270993777302763646 -0.0360640811629375294 -0.00202248144444079755)
(0.0271506031763601718 -0.0360766111840150061 -0.00209098751575594608)
(0.112512724285969062 -0.0394025986018151642 -0.00233556016034675018)
(0.0828707691398858637 -0.0520032468359403546 -0.00220917864457102634)
(0.0830275746905370093 -0.0391632812578092682 -0.00216999506511125761)
(0.0831890171302648446 -0.0391832995149444113 -0.0022393731594331388)
(0.171009703579388356 -0.0406503330718910594 -0.00266746064380791103)
(0.140693125826531956 -0.0527314253378992209 -0.00246167057681372222)
(0.141146375871943175 -0.0396191089936628812 -0.00242414461635444105)
(0.141431856668872535 -0.0396442774466872483 -0.00249511440904140805)
(0.232631943823713161 -0.0431695245706875744 -0.00316507303433071277)
(0.200537990573205011 -0.0554758939495883299 -0.00286570092487788575)
(0.201120672706131626 -0.0416525183984138014 -0.00283131268952616999)
(0.201549942699891071 -0.0416867053149231614 -0.00290437030318598183)
(0.29907548347156232 -0.0467582714065998412 -0.00386299175172638174)
(0.264130743914323229 -0.0595412270439233185 -0.00344659486464967118)
(0.264872653230146249 -0.0446472651143345126 -0.00341986127979733391)
(0.265477724425543737 -0.0446943029839019512 -0.00349349871697634574)
(0.371708367491216329 -0.0516450947897832899 -0.00481927255238324536)
(0.333202868410453157 -0.0650941944022652846 -0.00424612560271558741)
(0.334171600441930228 -0.0488143276363257536 -0.00423706227166811833)
(0.335004496092417725 -0.0488807911165502831 -0.00431786535622926976)
(0.452178920315083777 -0.058036677403462883 -0.00612156850661453242)
(0.408765047548308669 -0.0724061263318406673 -0.00533394612010727742)
(0.410014887086084634 -0.054396833720854243 -0.00534914267610602651)
(0.411155517331487752 -0.0544940002481042393 -0.00540751772552402251)
(0.543686988013359906 -0.0662171134956843349 -0.00790921769006761206)
(0.495013995676462315 -0.0820006337441545885 -0.00681295226439525108)
(0.496540771447575136 -0.0615664797045915591 -0.00688826596363922069)
(0.498111410266174337 -0.0616969112959729338 -0.00688273925482210149)
(0.647480087363792922 -0.0782736522897116843 -0.0104221746778571222)
(0.587055941552127147 -0.0938261868542490524 -0.00884135404643385941)
(0.589044439660559416 -0.0707046986107919828 -0.00904709909683162894)
(0.591351787970953335 -0.0709271818419446032 -0.00885284066593062212)
(0.773509949414222575 -0.0896868987019160957 -0.0143786050037942627)
(0.709728997935676897 -0.113253541530471374 -0.0117796825658961837)
(0.71187588217504183 -0.0856454219694159635 -0.0120798588811154833)
(0.715225012224636192 -0.0857146382395611306 -0.0115155687390970044)
(0.917671402736283337 -0.11130423321270097 -0.018994339284565679)
(0.809558880675560699 -0.125492128086992255 -0.0164213912068678913)
(0.812880843231407746 -0.0931497714324220766 -0.0169314336554504292)
(0.818477148126184773 -0.0945247053540290982 -0.0156469298959901401)
(1.10904562235004001 -0.146958692823681403 -0.0311260625134764622)
(0.966146966085606018 -0.1682007644325616 -0.0212003244987154747)
(0.968405936751104424 -0.129194936299093066 -0.0230812890556143062)
(0.979172097690709342 -0.126538280424633998 -0.0175988821131807839)
(1.36685436898519153 -0.140811195571736492 -0.0785671828651539894)
(1.20283119694518614 -0.214146681702474695 -0.0448489762108392545)
(1.19575947201799049 -0.167627726092816121 -0.0444929624335831039)
(1.21493272103248917 -0.164473035862542361 -0.0335470392715469592)
(1.57587550980478297 -0.0123054570665272339 -0.235566886928360752)
(1.47183635627722964 -0.155244744646441751 -0.13158488779207772)
(1.45971147343514174 -0.113268515355605837 -0.119120726747406702)
(1.48477761559548904 -0.12901196556586772 -0.111686610429543212)
(1.48942419794085734 0.286578974756754257 -0.801554374730848673)
(1.61086524674131315 0.09221422581993996 -0.392956216376643075)
(1.56156181926254378 0.107619383431475327 -0.321811412673947084)
(1.78319511245668982 0.0074604892347087011 -0.3916291848092468)
(1.40559375481318316 0.688417958958069232 -1.31661130062822074)
(1.38854145599226753 0.50700415516746089 -0.918927214774164502)
(1.76694208230061434 0.366120228827284955 -1.49841492471329873)
(0.0546992986509844056 -0.0626368457854871719 -0.00213722769161154257)
(0.0270676290525204352 -0.0729040193780659262 -0.00206336721289059576)
(0.0271191132591987044 -0.0605853105548772378 -0.00202509049499619877)
(0.0271699174299214613 -0.0606065498975506753 -0.00209695121221324969)
(0.111486443491779316 -0.0651430660558819236 -0.00233528906103799838)
(0.0822191003025672662 -0.077278400990140092 -0.00220798049034603289)
(0.0825535273887767623 -0.0646595192487800785 -0.00217040774925793658)
(0.0827125882494678943 -0.0646911616313297216 -0.00224315859657052939)
(0.169658855018778754 -0.0673173735756295716 -0.00265991085788369695)
(0.139249857004534905 -0.0786230394491094636 -0.00245394824205014085)
(0.13995702415545927 -0.0655893975318873057 -0.0024186240572796093)
(0.140237194547681659 -0.0656289085850795539 -0.00249297199609481435)
(0.230889866761346985 -0.0715791025805467135 -0.0031472227551968446)
(0.198539761932904457 -0.082728009723476742 -0.00284852153257471059)
(0.199530067402328704 -0.0689982687428462166 -0.0028171266961327982)
(0.199950782541948868 -0.0690516767495596151 -0.00289375877175715966)
(0.296729235489532617 -0.077593082042646061 -0.00382972871563887728)
(0.26148048113321648 -0.0888420765751023883 -0.00341610262246175257)
(0.262786882920745868 -0.074096431036756269 -0.00339307733104094638)
(0.263378019364578275 -0.0741705959116700925 -0.00347090741793745728)
(0.368604931602099506 -0.0855757848168386265 -0.00476079917043962034)
(0.329699438595146832 -0.0970808711943874497 -0.0041949961555110887)
(0.331404461323848654 -0.081000501772319225 -0.00419154922706633983)
(0.332213503593859372 -0.0811053293321995772 -0.00427549779133319131)
(0.448226399494988881 -0.0960740327367423791 -0.00602532987788799608)
(0.404152083969922415 -0.107824381255708548 -0.00524896594635544667)
(0.40636882567826893 -0.0900237928669823939 -0.00527249439838829281)
(0.407473496493070853 -0.0901762092284137673 -0.00533438737109572826)
(0.538223674460206136 -0.109320633570656731 -0.00774508862076149756)
(0.489131853925508342 -0.122001797835465137 -0.00667909960415979682)
(0.491869890480357452 -0.101944512700629653 -0.00676311102725501555)
(0.493373128911705316 -0.10215445076525892 -0.00676791970838519236)
(0.640657543711162236 -0.12846384674693978 -0.0101988619344729192)
(0.578821848848095732 -0.139254178269500734 -0.00861817890318380964)
(0.582590791161899602 -0.116435203612178739 -0.00882313034282563961)
(0.584854224910830944 -0.116767214963462276 -0.00862676232569816771)
(0.76196010844332529 -0.14883645447497304 -0.0138224687689698089)
(0.700058664297773858 -0.166945167046168241 -0.011499522861064199)
(0.703876272509005196 -0.140141148274142702 -0.011763249061886168)
(0.706957384470999428 -0.140391363812305298 -0.0113219238906326382)
(0.902102489253277406 -0.18385620037337691 -0.0186273764210176627)
(0.793987163529548789 -0.186953566671904159 -0.0156435917203879456)
(0.799265390186782332 -0.156643075173223373 -0.0162306063460722697)
(0.805356214382390578 -0.157905848960863598 -0.0145823326783407897)
(1.09474066115687707 -0.240331124298308857 -0.0349232381960783572)
(0.945465042285827284 -0.251765731318305763 -0.0215041904189576111)
(0.952626417827455496 -0.211100432344233757 -0.02282329691312018)
(0.962952600905001344 -0.207806383101765024 -0.018719177944157582)
(1.35216456613230274 -0.234064997231183403 -0.0978666811377629509)
(1.18502520684383006 -0.324102731345308093 -0.0511878855497924293)
(1.18674648239805225 -0.273665013952703817 -0.0508145451221900801)
(1.2034468213728835 -0.265766222534647378 -0.0419051776153967978)
(1.52530509590103303 -0.0591068161861093774 -0.288974217240360765)
(1.45701118749714364 -0.234501274117964204 -0.16197587537467914)
(1.4390722067177546 -0.188078524621388798 -0.145699296844995385)
(1.4846279205800168 -0.22757782927391576 -0.150308917234285855)
(1.40298047928789238 0.45952254458803965 -0.908013142274015195)
(1.53188747189104824 0.0815346797274812823 -0.457984732022959085)
(1.49607457268559019 0.121497275915420588 -0.377024075949258408)
(1.78410577936808634 -0.0229177076053327933 -0.507115005734571689)
(1.28048218017660753 1.0028807219643836 -1.41633526922393704)
(1.28866871541495387 0.877532758900999688 -1.03087458852551928)
(1.65058307410718696 0.651861456955617036 -1.6490426782726173)
(0.0543750096099106309 -0.0872825611613955027 -0.00213412001162508608)
(0.0268319980354921987 -0.0971087773298794643 -0.00205954437319287196)
(0.0269655797809519281 -0.084914753926845235 -0.00202100719292334441)
(0.027015469504796108 -0.0849442101887216416 -0.00209721144981603541)
(0.110107511928521265 -0.0905098995704966269 -0.00232663967135817492)
(0.0812242069150301976 -0.102086663152210044 -0.00219938543786537492)
(0.0817270810810449139 -0.0896104966864108426 -0.00216277699692993437)
(0.081882695133587452 -0.0896526797234882544 -0.00223933108251399542)
(0.167638577854052673 -0.0937772174917140405 -0.00264255891674115449)
(0.137323677740655847 -0.104231227351155004 -0.00243772728389533627)
(0.138265860728442685 -0.0913586911910131 -0.00240417782439541561)
(0.138539387177643608 -0.0914119368885103062 -0.00248187832819544161)
(0.228164806900167438 -0.0997242735703497973 -0.00311740139983961986)
(0.195778449406050159 -0.109668314858721819 -0.00282128595191310973)
(0.197133945814773642 -0.096131964605457601 -0.00279254012607812064)
(0.197544188221813244 -0.0962035021468396478 -0.00287213744081938911)
(0.293089896263753868 -0.108059842113560553 -0.00378137006233396269)
(0.257770987043332622 -0.117738107156022745 -0.0033732112700645819)
(0.259588057955718821 -0.10323120515038374 -0.003353510981281681)
(0.2601625104878455 -0.103330146304130163 -0.00343444367038600465)
(0.363818262438834417 -0.119060893804167969 -0.00468316293142691503)
(0.324813829009509947 -0.128558470972236466 -0.00412793945904587917)
(0.327190403657134921 -0.112768195806732835 -0.0041299594945751316)
(0.327971930480375928 -0.112908119108454594 -0.00421556376961160911)
(0.442053338167025689 -0.133472960858484535 -0.00590273567262724827)
(0.397752049074289515 -0.142627370987503665 -0.00514388769104857577)
(0.400829100614033207 -0.125182392950999671 -0.00517477238434320853)
(0.401890649593710292 -0.125383542616167104 -0.00523845089505067113)
(0.52990524416006457 -0.151677789107585476 -0.00755218988658210976)
(0.480956306233871533 -0.161053498243331455 -0.00651261254527075312)
(0.484838119897508468 -0.14151749107060646 -0.00660658593114097324)
(0.486271306089130328 -0.141809505274891529 -0.00661937802279237257)
(0.630183398100781722 -0.177502527789760556 -0.00991883982977508766)
(0.567506206228804988 -0.183726413161913238 -0.00837927316012955677)
(0.572675443874740342 -0.161483503385989408 -0.00856869671964828952)
(0.574882390496402773 -0.161889150476393934 -0.008376988600261287)
(0.747136626146237326 -0.204983726674160094 -0.0133206458124823304)
(0.687506791695187802 -0.218768904137079084 -0.0111167284912880894)
(0.69268182626422925 -0.192986781871668317 -0.0113412365181117959)
(0.69556739136868273 -0.193404402282023102 -0.0110302164763650574)
(0.879890729767794699 -0.255245977072232233 -0.0185204057183278419)
(0.773389967667248546 -0.244981498922855062 -0.0151168288479034216)
(0.781638786287693899 -0.21580046419117202 -0.0156818703481720785)
(0.788201472142171289 -0.217320484913653217 -0.0137338868232653802)
(1.07186868876526176 -0.336987446209555841 -0.0377688377726717525)
(0.918109888820617948 -0.335591333862531704 -0.0219239822820774324)
(0.926969266199936581 -0.295064331603885233 -0.0221989188017725665)
(0.938254358497943919 -0.289494825764192221 -0.0192027673970967365)
(1.32400050349920129 -0.328190423536320885 -0.115297079786708695)
(1.15771266751745316 -0.431251761736809736 -0.0556643009214547319)
(1.16099250968684831 -0.38324645320206463 -0.0553060289334333238)
(1.17753832579860718 -0.374713444704031506 -0.0454866811069621971)
(1.46607716184718617 -0.105472167724066951 -0.33098639015727771)
(1.40594195651848541 -0.302783125671339248 -0.189860532157507478)
(1.40739799913745411 -0.259916905632733175 -0.170106525970383754)
(1.46157891490826897 -0.324231006087630558 -0.180379476380926662)
(1.31118881276890686 0.603968602966960755 -0.966306858972881821)
(1.44422881516778512 0.0708843694027722904 -0.509537373755800993)
(1.41918548012453427 0.131104280359041009 -0.431479237262508308)
(1.68229517911714166 -0.0356906313636164985 -0.590457931045268225)
(1.16812951149734512 1.26902322711825732 -1.47791449240876993)
(1.18727044101748813 1.2062274662061736 -1.10483414324672813)
(1.51382624460510007 0.929153556613999454 -1.73805005267745361)
(0.0537135523673139825 -0.11163220369034825 -0.0021248097994331608)
(0.0264521716948496917 -0.121022436388509735 -0.00205079042387625336)
(0.0266488514191532654 -0.109000740403333934 -0.00201071425210838997)
(0.0266973044651933299 -0.109037191147585852 -0.00209274447931107792)
(0.108396518179539422 -0.115535519558382732 -0.00231047305040253583)
(0.0799109411028793293 -0.126430909495969496 -0.00218425159764704807)
(0.0805674109576835495 -0.114213106258033881 -0.00214761238842837814)
(0.080718520600785354 -0.114264757465415007 -0.00222914976541054716)
(0.165016637753049616 -0.119878753437804103 -0.00261645431906729195)
(0.134934314972972702 -0.12943650517535199 -0.00241388148996457899)
(0.136111659405668467 -0.116794384446532715 -0.00238132157967058762)
(0.136377401504074125 -0.116860177305525018 -0.00246304401874563933)
(0.224559095064836955 -0.127439344775141516 -0.00307709582213807351)
(0.192309993222372688 -0.136172839770247328 -0.00278518671277798186)
(0.194018641192356373 -0.122883824026055924 -0.00275838316015852326)
(0.194416992021489404 -0.122971480130124461 -0.00284098759833424424)
(0.288279380302830179 -0.137990803231524989 -0.00371978066677649795)
(0.253081170025899083 -0.146100026619864348 -0.0033196815857669008)
(0.255386499071132589 -0.131890186111154356 -0.00330241517446969775)
(0.255942080530331906 -0.132010439259881457 -0.00338613779856794615)
(0.357519897650176 -0.151880553145924968 -0.00458866421866753992)
(0.318645557651298261 -0.159371990258374896 -0.00404724467760143782)
(0.321662433362783107 -0.143945411292707742 -0.0040549585143793733)
(0.322413694346402213 -0.144115285492861345 -0.00413494887545840916)
(0.433878196906037572 -0.169962562762219854 -0.00575376456369207888)
(0.389725368343363798 -0.176597364818739611 -0.00502077810937856701)
(0.393615977299557107 -0.159607899830050415 -0.0050575954643396941)
(0.394625322499490672 -0.159851541257299695 -0.00512359173732318453)
(0.519156525863788465 -0.192976309856296047 -0.00733969581881820099)
(0.470589587448274282 -0.198964597776903562 -0.00631620060569313812)
(0.475584716128294394 -0.180015629024191992 -0.00641796733083548586)
(0.476963463154148115 -0.180381578012907634 -0.0064372810944546173)
(0.616923944509213951 -0.224877087154649796 -0.00957716182164255678)
(0.553948345031109013 -0.227097032159217727 -0.00812761247559664647)
(0.560124282566815346 -0.20549075729979463 -0.00828881722162301549)
(0.562190060552647752 -0.205940972196185901 -0.00812576268087641593)
(0.728111467806668355 -0.258551355679817518 -0.0129129115267091841)
(0.669840892325476389 -0.268051625232387347 -0.0106275442319303231)
(0.678802374221049942 -0.243541760358051973 -0.0108571947501041894)
(0.681579689954554979 -0.244161071410804009 -0.0105893151130399734)
(0.853577611201191022 -0.325417278401294197 -0.0185204054116529689)
(0.74820826241325844 -0.299845814019758905 -0.0148422985591341212)
(0.758378360129688067 -0.272176512032232476 -0.0151512721219363294)
(0.765001971399898228 -0.273905956217561086 -0.0133544610810477377)
(1.04469146842667659 -0.429696968804291757 -0.0398194454308604465)
(0.886856344191857549 -0.419063444169308019 -0.0219004597519520429)
(0.897664453826013897 -0.378572353857829336 -0.0212641423894916783)
(0.909038092193461322 -0.371412136202436571 -0.0183294839489905013)
(1.26312994910790555 -0.410112088315980949 -0.130227753292253584)
(1.12103479603538236 -0.524207372652725434 -0.0578179308524336272)
(1.12640657299537028 -0.484954207055644293 -0.0566881632956024381)
(1.15001344736184485 -0.477847980587467525 -0.0484319952233338707)
(1.37435369245904959 -0.136783669932009522 -0.368411515756030095)
(1.32070139303423129 -0.359623077822754877 -0.209327110239334396)
(1.3305853683088964 -0.31852817507578024 -0.191295910603392044)
(1.39599742249858672 -0.394542619602403055 -0.206110119938356706)
(1.22294341389731787 0.731816638251577722 -1.02114500719169099)
(1.33833131278334494 0.0657994768707326205 -0.552658427866848267)
(1.32482538819631368 0.144488516007886814 -0.483968452458451048)
(1.56605893917572003 -0.0423023127495513948 -0.628724767263710405)
(1.07243129507420365 1.51249254443872871 -1.53254351746465867)
(1.09874594985297946 1.49007174734239078 -1.1759034022435102)
(1.38789005513030972 1.17038877192153734 -1.77602522190354195)
(0.0527964969716702495 -0.135562189532726474 -0.0021102322220901402)
(0.0259570618292932209 -0.144532544313071332 -0.00203829335206086272)
(0.0262073296784476328 -0.132738455947145562 -0.00199469478264757694)
(0.0262537879738899138 -0.132779977896149676 -0.00208481577753340036)
(0.106331562965189377 -0.140085623135824927 -0.0022876600372090908)
(0.0783057422480052945 -0.150268198108264389 -0.00216345384369168907)
(0.0791050451193133775 -0.138324845863422807 -0.00212553073173207862)
(0.079250563783669653 -0.138384550109751508 -0.0022135778532027155)
(0.161813329545765466 -0.145502094627208534 -0.00258261388367526891)
(0.132089815419833695 -0.154138250780634228 -0.00238333016702976146)
(0.133494874256971291 -0.141770255278921481 -0.00235070154150793156)
(0.133751841246903064 -0.14184712396462093 -0.0024373164740563915)
(0.220114473004984545 -0.154607283506216858 -0.00302777247640680959)
(0.188164646304858157 -0.16212711761658366 -0.00274150484001241864)
(0.190209159602713673 -0.149140522421328914 -0.00271574982306187684)
(0.190594593582302685 -0.149241850002155618 -0.00280131715641462409)
(0.282356220230956245 -0.167253706440674582 -0.00364714559659184067)
(0.247462702994174805 -0.173805911927276069 -0.00325752686159179591)
(0.250228606985958446 -0.159953478477871641 -0.00324149821124524373)
(0.250763813060804863 -0.160090719722728814 -0.00332748756280221158)
(0.349791615524662314 -0.183861905947295179 -0.00447935856831246579)
(0.311268784473604676 -0.189381261012205399 -0.00395618259108834226)
(0.314886000246410058 -0.174390084344452634 -0.00396804897309212951)
(0.315604166802885555 -0.174582230566853319 -0.00404420209873660851)
(0.42385777661063212 -0.205385467906024105 -0.00558321415137962712)
(0.380165448300860576 -0.209549808998890669 -0.00488238162903071714)
(0.38482835009454186 -0.193100651887714664 -0.0049228767515165188)
(0.385780246650574199 -0.193379074593666406 -0.00499136157811282382)
(0.506274161496687136 -0.232785489724808253 -0.0071041172624715862)
(0.458276908752112244 -0.235603939184901162 -0.00610148702811515696)
(0.464185453661346448 -0.217329761745958361 -0.00620551644204738861)
(0.465514619681800468 -0.217742757255042302 -0.00622540043743775775)
(0.598955477230789457 -0.269975704725000043 -0.00917799488588440064)
(0.538130280082452117 -0.268222215311052836 -0.00782991588191128164)
(0.545763544690130997 -0.247713509526177211 -0.00797166830189080522)
(0.547564485800201561 -0.248260712964096769 -0.00783885269453220637)
(0.703785703331341717 -0.309319790752135504 -0.0125569312643552689)
(0.648421802190024987 -0.314532378903587206 -0.0100328426248659282)
(0.657405623753307022 -0.291367327252042618 -0.0102778369688433201)
(0.660775229251039375 -0.292241253028974579 -0.01005708501041889)
(0.82405614969468477 -0.393526464949412569 -0.0182223528994331814)
(0.720673543130490701 -0.352625590346563433 -0.014609517213662028)
(0.731954923770136934 -0.325622627963235711 -0.0145350626257526958)
(0.738424658551720126 -0.327548813696699581 -0.0131877257802484639)
(1.00942279692328318 -0.513565394559572286 -0.0398989451735253312)
(0.850129860642675261 -0.499693779675442873 -0.0205900834120377567)
(0.863790517775449684 -0.459903183778068159 -0.0198114271548259328)
(0.876353164229932591 -0.453800994131609348 -0.016301919667200869)
(1.18869719975817301 -0.475488461886906522 -0.136917287799514592)
(1.0724648818705278 -0.601429312094449386 -0.0563694288484360359)
(1.08027455029649699 -0.569293247753475562 -0.0547198965310363369)
(1.11374063009972812 -0.569945548511306077 -0.0498088224797727103)
(1.2710128327155743 -0.158170886947746225 -0.393574022350152264)
(1.22665593976293552 -0.406339559275462558 -0.210842826392195204)
(1.23978049148929603 -0.360630246463957582 -0.203800637920038219)
(1.31934796315212299 -0.440530543845025824 -0.224063911666939314)
(1.1223003512130878 0.847432139446192001 -1.06405693813981705)
(1.22246496694603479 0.0637449295653057663 -0.575499732978295264)
(1.21145049611284783 0.159112754135136369 -0.523160925632375706)
(1.43425964536842221 -0.0413323503007667833 -0.659458726588193156)
(0.981280781138157643 1.72839450558666052 -1.5658245099133461)
(1.01250809781623707 1.73493830339487487 -1.23888492496636893)
(1.27755027968312862 1.39845070162232465 -1.80468106441108)
(0.0516660913538316904 -0.158997363970439842 -0.00209151497366241159)
(0.0253632851313961467 -0.16754602068435287 -0.00202368048581040572)
(0.0256604120178120856 -0.156023600689016828 -0.00197355932371913933)
(0.0257041369670785551 -0.156067090082940951 -0.00207524013987770567)
(0.1039151661463497 -0.164092468981741096 -0.0022591239735123593)
(0.0764306878395275557 -0.173538196761068658 -0.00213780953084412133)
(0.0773622724352183155 -0.161899377309287246 -0.00209707758060015403)
(0.0775009774155391989 -0.161965487317822399 -0.00219367050442643638)
(0.158056616305405934 -0.170547688302079947 -0.0025422211233669112)
(0.128809397983910917 -0.178247310781611074 -0.00234710955844552203)
(0.130430727049364814 -0.166196755325931422 -0.00231298744911599642)
(0.130678159135259264 -0.166282969838870504 -0.00240562619879932651)
(0.214880445046360169 -0.181113825503934012 -0.00297125922519740496)
(0.18337978553089937 -0.1874261654389206 -0.0026916974273274866)
(0.185740202057581349 -0.174792604791338596 -0.00266600676435788976)
(0.186112292765957976 -0.1749046318423641 -0.00275426625796633146)
(0.275390883232131622 -0.195721618692818428 -0.00356656385608829837)
(0.240974277270083082 -0.200743032363121743 -0.00318928193733117836)
(0.244169533085557666 -0.187302869004304429 -0.00317298953777930435)
(0.244684084113296535 -0.18745156756022574 -0.00326041118155235557)
(0.340725388160775189 -0.214859525912231286 -0.00435920565180659535)
(0.302767124693288814 -0.218458582086369174 -0.00385840005816865924)
(0.306942902640000459 -0.203965666163047066 -0.00386458182098185212)
(0.30762603471334149 -0.204171683037855795 -0.00394436782137569299)
(0.412184467530887 -0.239559326836252501 -0.00540065450576624785)
(0.369189020547671387 -0.241344158200617498 -0.00473350191921088556)
(0.374551662309241529 -0.225505066912085161 -0.00477529379540655909)
(0.375447537063941406 -0.225806701560841511 -0.00484504295634369947)
(0.491186965393357711 -0.270875763483293897 -0.00682728564755485066)
(0.444256546607349201 -0.270725022884098387 -0.00587672559438989859)
(0.45106003943687395 -0.253251210257289694 -0.00597968332716398467)
(0.4522987288936271 -0.253692108606783095 -0.00599759805836796826)
(0.579698610983343854 -0.31266846870866144 -0.0086847636208927919)
(0.520020484543221473 -0.30752369073209368 -0.00747455105865950983)
(0.528680248434454381 -0.287914829605468159 -0.00760064655388449899)
(0.530342390716974976 -0.288582154605678542 -0.0075266884019839133)
(0.678696858751856147 -0.35759634942249513 -0.0120854285741726977)
(0.625669816268415002 -0.358425393213550825 -0.00937800058484227622)
(0.636253738332239749 -0.336448676413156622 -0.00962322689630810101)
(0.639309289328912733 -0.337573610370832555 -0.00941082896211641387)
(0.791512088334566322 -0.458385983396918162 -0.0169772477262666206)
(0.691166931933305695 -0.402333328246895383 -0.0140560056033728082)
(0.704012621812806549 -0.376654753914861473 -0.0136981974268771175)
(0.709504727835398197 -0.379007322333214436 -0.012833493832644028)
(0.964016954234787726 -0.586899322994327455 -0.0370605670869486453)
(0.807415057281625104 -0.574338132940320212 -0.0173611135147047173)
(0.824097459964037826 -0.536339984353891186 -0.0175991952653582126)
(0.837037257004671797 -0.533749030171572048 -0.0135502276222212847)