/*--------------------------------*- C++ -*----------------------------------*\
| =========                 |                                                 |
| \\      /  F ield         | OpenFOAM: The Open Source CFD Toolbox           |
|  \\    /   O peration     | Version:  2206                                  |
|   \\  /    A nd           | Website:  www.openfoam.com                      |
|    \\/     M anipulation  |                                                 |
\*---------------------------------------------------------------------------*/
FoamFile
{
    version     2.0;
    format      ascii;
    arch        "LSB;label=32;scalar=64";
    class       volVectorField;
    location    "0.119999999999999996";
    object      faceTraction;
}
// * * * * * * * * * * * * * * * * * * * * * * * * * * * * * * * * * * * * * //

dimensions      [1 -1 -2 0 0 0 0];

internalField   uniform (0 0 0);

boundaryField
{
    inlet
    {
        type            calculated;
        value           uniform (0 0 0);
    }
    outlet
    {
        type            calculated;
        value           uniform (0 0 0);
    }
    top
    {
        type            calculated;
        value           uniform (0 0 0);
    }
    bottom
    {
        type            calculated;
        value           uniform (0 0 0);
    }
    left
    {
        type            calculated;
        value           uniform (0 0 0);
    }
    symmetry
    {
        type            symmetryPlane;
    }
    interface
    {
        type            calculated;
        value           nonuniform List<vector> 
352
(
(606.851301273124022 -0.021134235326571188 -0.0114036096292299601)
(552.00605294419961 0.00561463885502475318 -0.0145726206248380039)
(470.83830267662546 0.0111613724292690172 -0.0141438682397271136)
(391.065508286023032 0.0126618574639812704 -0.0129968217864501606)
(323.894541353086026 0.0125772057617444966 -0.0115536331747551502)
(266.531378987375092 0.0130686082042755416 -0.0108597802553330146)
(216.337708301900477 0.0142989462664470952 -0.0107615715981732377)
(173.890881585064648 0.012951996705341709 -0.00892611338248653317)
(139.272668039341312 0.0101716423058269261 -0.0065546951409382187)
(108.472890278657346 0.0119214645778301289 -0.00712759151633403278)
(80.4162106673679631 0.0120331745164579899 -0.00669946392392257312)
(57.201186531351965 0.0106380175586529031 -0.00550730258820813882)
(38.9498395140515754 0.00874157071450200503 -0.00417986541880615691)
(24.8929267313267815 0.00603942468115285444 -0.00266190109380473302)
(14.4504282469832201 0.00393274281515374781 -0.00161052826959520159)
(7.3620805366264257 0.00439241156368044665 -0.00173102557558890788)
(796.211358059420718 -0.00559281687035613137 -0.00691523482222994833)
(729.512616843133969 0.00660839444706697032 -0.00857964669413260189)
(634.958310650854742 0.009774255787104804 -0.00789731460327198521)
(538.751513400441013 0.0112460227584864365 -0.00716595159172163897)
(451.684785038814994 0.0127245067395997061 -0.00709551594304361124)
(375.573533008710115 0.0106580478921999913 -0.00549738281696256388)
(309.134605653981566 0.0116045672911304597 -0.0056466677121553106)
(251.313173200308626 0.010731803806440933 -0.00495143369005548745)
(201.669186091971426 0.0102852137080431619 -0.00450057513211151328)
(158.213830379541093 0.0125984035481256761 -0.00521523174436635834)
(119.034198539232946 0.0132406911118963175 -0.00518442786669048254)
(85.3067259116318297 0.0126506487018324537 -0.00465108679353804302)
(58.3802594806323327 0.0111005293217665869 -0.00380687364156321803)
(37.9071011076699165 0.00927477070859556753 -0.00293811732370800882)
(22.5939848827617489 0.00743091488330133512 -0.00219480106087746509)
(12.2693720509453748 0.00346360358582913476 -0.000961706095525764271)
(884.183955786783827 -0.00696305887192124641 -0.00379139938184969811)
(818.668376486805528 0.00672798116710659599 -0.00526813383916021217)
(723.946361912904763 0.0100963824208094334 -0.00508866856312876863)
(625.486607682474983 0.00934445666268946505 -0.00378878401341987275)
(533.806435712545749 0.0125409937554684329 -0.00452327528928308815)
(448.935791852200111 0.0130724721200861562 -0.00440689607971404482)
(372.685681248659591 0.0117310883420545242 -0.00374178179216700475)
(306.126250002304971 0.0107759432353652113 -0.0032763678842365339)
(248.225450110551748 0.0102594220769323032 -0.0029788299441831363)
(196.692240069285958 0.0112315936488000031 -0.00311334004320518512)
(149.443268241514318 0.0151667389497797452 -0.00400925808338371478)
(107.622505685234586 0.014738407552081138 -0.00369747861562356485)
(73.4599945530356848 0.0131582746924849715 -0.00310884247238176793)
(48.1297633530975233 0.00940958021565402314 -0.00209387713377347587)
(30.7417662369196236 0.00334083149593309044 -0.000715590130126896886)
(18.521108074000395 0.00320509591853454946 -0.000650843051108008141)
(924.824838438929078 -0.00711819055476220833 -0.00219022211383011365)
(860.561677068241806 0.00703855355790806037 -0.00311582002378895566)
(767.290215927184931 0.0106589380104273289 -0.00304488794506419707)
(669.887798403456031 0.00928825925218600308 -0.00211145648264731995)
(577.947192650286866 0.0121618149602041262 -0.00244888066603300009)
(490.29735042178919 0.0136015705410950424 -0.00255286908497181879)
(409.771891979370366 0.01257662547881685 -0.00225294971941371455)
(338.373326799978315 0.0110389431009592486 -0.00190642709828153117)
(275.691395515417298 0.0106218424046142547 -0.00177312817291927862)
(219.954113575835578 0.0113813848201126198 -0.00183455393221755732)
(168.485676506968616 0.0162299006172652339 -0.00252919468861063706)
(121.933661701582039 0.0162930972823175334 -0.00243701822861989688)
(83.2491691632629909 0.0143215332396297579 -0.00204885430220043234)
(55.744304035659809 0.00165918478410005503 -0.000229274828142277749)
(36.6132877069863056 0.00298653408843927836 -0.000395530890802728839)
(21.6640234242798542 0.00438490685032610298 -0.000542696651567454243)
(943.579983420683675 -0.00752972901471318182 -0.00135454156912958625)
(879.554227576761377 0.00712941572080658548 -0.00171845505287409315)
(787.405089697430981 0.0101707938564426972 -0.00147683008590175397)
(690.359402986401051 0.0104836338946827576 -0.00118280263714831192)
(597.482141982807207 0.0132823116599929576 -0.00130912928163383758)
(509.70330555831066 0.0133630680396317324 -0.00122723766459832467)
(429.256479589935111 0.0124203734834612747 -0.00109677966686538169)
(356.847555114591387 0.0119899691697106826 -0.00103812925653346357)
(291.991652869054292 0.0115969207566098444 -0.00098887239346430976)
(233.902280298989922 0.0121575533262648083 -0.0010267355290904355)
(180.055822978576373 0.0177225565727892331 -0.00147025291745230338)
(131.115236897607986 0.0175345102751751497 -0.00141895994298243087)
(90.360557436056169 0.0141686944172700457 -0.00109779330917536273)
(60.7968759229016058 0.00147091924342524047 -0.000108322242514360818)
(39.6369469407693487 0.00296181360685142695 -0.000210157705989975804)
(22.9272906480257177 0.00487893202035940936 -0.000271301532600574751)
(948.74144023013389 -0.00708053670231327797 -0.000774049677650022428)
(883.2592225036542 0.00742818655335322504 -0.000739183218542906022)
(791.544355606636259 0.0105724230224732395 -0.000477217691582067596)
(696.770853078002006 0.00860870220679890025 -0.000247703954154449891)
(604.614483076724696 0.0147522877710251389 -0.000357003219350601536)
(516.107201557510052 0.0141082151959552194 -0.000320666679476969585)
(435.699541749130674 0.0126132339898770759 -0.000279225594683578718)
(363.890220027313433 0.0115560545458688897 -0.000255484419155831892)
(299.809487523557721 0.0097598488121479459 -0.000220837015072014315)
(241.916153089440314 0.0110227057978850487 -0.000254953627541919562)
(187.168418355268699 0.0187742622208408143 -0.000419621447405200303)
(136.524320704407415 0.0183430971301967935 -0.000369762102479293106)
(93.9473871166485992 0.0161585120592656652 -0.000303028856277242904)
(61.6552523543179021 0.00899358728460724483 -0.000159949310739760606)
(39.4050047798245444 0.00694478021222222092 -0.000117606949439588132)
(23.5960110266364929 0.00792923322216828284 -5.98916891964222084e-05)
(943.910707504523771 -0.00646879934680442276 -0.000240734254574728529)
(875.088587449166994 0.00816802470459909551 1.46972167446493738e-05)
(781.785586143752766 0.0135009786489008778 0.000256194988945197496)
(690.627708937838179 0.00744782172834328529 0.000193280226670015026)
(602.87890863440839 0.015955333656525069 0.000420955239246787025)
(516.19994360462772 0.0153876239921732581 0.000360764427557946313)
(436.843629117543742 0.0135375263894463947 0.000257160215117127437)
(366.091166533707735 0.0105378257855414156 0.000151326155083909738)
(302.941354272635522 0.00854764185135974131 9.47877759632900817e-05)
(245.096785702621105 0.0100574352096684857 0.00010328704197363342)
(189.936805375982345 0.0206003002331666789 0.00023713217357956048)
(139.22439867423904 0.0203962751568320666 0.000263728116659468564)
(97.318170562830133 0.018321324615589326 0.00024793425180200503)
(64.8481391485197349 0.0158009563457424847 0.000241609174121986195)
(40.1756527347872989 0.0137473118803425175 0.000297652403709383823)
(21.3159331698941337 0.0117917443157581851 0.000271328825028388423)
(938.960727179055084 -0.00613623047379331394 -1.2890370207240528e-05)
(868.570486774575215 0.00866429677637338413 0.00013949376098747719)
(776.708658709223982 0.0146606173405090957 0.000237174929014068327)
(684.97512989312861 0.0123669502062195812 0.000195525990566203575)
(596.690973602886515 0.016977700060973256 0.000287012440270310019)
(513.336672259303327 0.0154820225277014258 0.000246528589273183345)
(437.612838894690867 0.01301539695101365 0.000165116941012101421)
(368.577081297081577 0.0100135198949315666 9.53711886198339772e-05)
(304.285994019244583 0.00860821392237534275 6.87107078636980479e-05)
(243.528269940458785 0.00966252824014376087 7.29220531283569426e-05)
(185.757443087381375 0.0216631481056325896 0.000188353592327086486)
(134.233154753855899 0.0217661902846658928 0.000197731088490089342)
(92.8455074822804818 0.0197076558615427201 0.000211647786413056692)
(60.8269269188052277 0.0173436086892865167 0.000235195647149780108)
(36.9208035847531448 0.0150870983265240788 0.000255831464451642115)
(19.2432709493220777 0.0141205385305711046 0.000270368068447893563)
(0.0250270526510441814 0.0105890264436611647 -87.9966962328402502)
(0.0224297641098802729 0.00336007345607763431 -102.298921467654623)
(0.0122283635677833437 0.00177026002610838114 -81.2719055157837147)
(0.00439630080435518024 0.000991814967243483591 -44.812897509713963)
(-0.000479829063455259903 -0.000199802609927505321 -12.7751813233453912)
(-0.000588837052907659414 -0.00045960956474121634 -9.60493061917014579)
(-0.000428890412331731498 -0.000561970329344992645 -10.8136301536059918)
(-0.000631996265641254448 -0.00122462435895840478 -9.27611122929685727)
(-6.05795494742372121e-05 -0.000157740985225222712 -8.58535963352921172)
(2.3571921784086437e-06 7.99592263107059385e-06 -7.97292770214169533)
(1.56822039779655946e-05 7.02745411581651527e-05 -7.48978418087943165)
(-8.7194854742645022e-05 -0.000468787758098631691 -7.15291076329159647)
(0.000130102182032467762 0.000857414473976918614 -6.77870685665596007)
(8.41480113981970238e-05 0.00077378150804626269 -6.40428105493581246)
(2.55663305548194366e-05 0.000363715144451161939 -5.93558484270976194)
(4.39272466081675108e-06 0.000275652591570922818 -6.21047208566313458)
(0.0152358191387768054 0.00538326698180829726 -29.3224378009735744)
(0.00910404653791926921 0.000864753992778425013 -27.2393744737560404)
(0.00154637989261392729 -0.000246596290592024478 -14.0183595673582797)
(-6.62882076474145993e-06 -4.98155508846288446e-05 -7.20496008699503765)
(-0.000243308363819469989 -9.4105882128309439e-05 -6.88433827816513144)
(-0.000214924801027437974 -7.83550787909737499e-05 -6.76334859871858107)
(-0.000205940998768275221 -7.8230969028002332e-05 -6.57066607714827544)
(-0.000186908467832918814 -7.41532363876813949e-05 -6.19009373580983624)
(-0.000163568636279367902 -6.53031913787384806e-05 -5.85346815584605906)
(-0.000151370479387814177 -6.0445264694267103e-05 -5.63454127288269913)
(-0.000128232891672875444 -5.46242889385481609e-05 -5.55523583398424936)
(-9.9854297727321905e-05 -4.35349465841662346e-05 -5.47950242835231371)
(-8.21777272264844719e-05 -4.43990895160781976e-05 -5.3379011921388182)
(-8.290847174114536e-05 -4.25628909370274447e-05 -5.21189363297527652)
(-9.39996921766757774e-05 -3.53365140112258441e-05 -5.13017127611971357)
(-9.96949302995159682e-05 -2.32732230747667569e-05 -5.2410390643980076)
(0.00813769345013906978 0.00210295454418517325 5.0782974805054808)
(0.00209792767117972928 -0.000185399409143330779 -1.75908746579646946)
(-8.05978397736500474e-05 -0.000103414790158329889 -4.96002104212585593)
(-0.000167513295971129895 -2.73745610503311047e-05 -5.43634424017097562)
(-0.000135022132350367938 -2.80012525897645969e-05 -5.71677989107645423)
(-0.000136158462509372021 -4.9238756139865658e-05 -5.69724767511311647)
(-0.000116567544248055867 -3.89483753606898372e-05 -5.54515045416179753)
(-9.64355964759682616e-05 -2.43704198833131386e-05 -5.36119041223924597)
(-8.6299242726606726e-05 -2.66377836046575775e-05 -5.15728505662741199)
(-8.16988966218473955e-05 -3.5550055115607821e-05 -4.96948288655537151)
(-7.79568182367982871e-05 -4.48517869090641361e-05 -4.84244788352916533)
(-7.49417074487749218e-05 -4.99526773671445581e-05 -4.78358811282523)
(-6.18325508471175402e-05 -4.38910034597250301e-05 -4.72343916133355357)
(-5.51718014479611756e-05 -3.58517404849011787e-05 -4.60676330689000224)
(-5.92706882126738409e-05 -3.01151911709534051e-05 -4.46709823131524075)
(-6.77596881211805737e-05 -3.07334042233046211e-05 -4.37269663859804858)
(0.00548167099076235249 0.00077663066886794101 2.63956274934946888)
(0.00052302281095085773 -0.000117705091061094292 -2.52216098957771084)
(-4.64761772692136584e-05 -1.9221862211815248e-05 -3.73630160707283121)
(-6.42467996858030584e-05 -6.20948067097280928e-07 -4.01924904895592938)
(-7.16961764235162982e-05 -5.17297278702466214e-06 -4.1061474793282482)
(-7.97328936653087889e-05 -4.01296970728693057e-06 -4.15107046175631034)
(-7.73968306654842077e-05 -1.49959664249051117e-05 -4.12301010396971535)
(-7.50718278096891643e-05 -1.92617822348510654e-05 -4.05608357160126509)
(-7.6034170745650255e-05 -2.05252851196655626e-05 -3.99227762701198996)
(-7.39469007741962403e-05 -2.34072727623501427e-05 -3.95176409330679057)
(-7.06410564248915503e-05 -2.72908768332282017e-05 -3.90928515481372685)
(-6.564351962422907e-05 -3.04571665429243047e-05 -3.85938515024046547)
(-5.93351937674192921e-05 -3.13126459237397483e-05 -3.79806604795701785)
(-5.3978433037044554e-05 -2.92496988816543179e-05 -3.72661345093549734)
(-5.18583775981309013e-05 -2.60061562406302812e-05 -3.65226650679552955)
(-4.80930695729548345e-05 -2.29771077661970285e-05 -3.59152013459827613)
(1.10654717747347431 3.03932293732415013e-06 -2.48779007442133299e-05)
(1.24860259663340134 -5.53666689413048653e-06 -3.11325935442672357e-05)
(1.41256879303397209 -1.4019627011875189e-06 -3.70818026853517524e-05)
(1.57297272611822958 -2.03174778782690214e-06 -3.6014705847900722e-05)
(1.7186325591427305 -3.39808334887863307e-06 -3.44419656482575952e-05)
(1.84546675988931153 -4.53121694975548509e-06 -3.2724094060806033e-05)
(1.95522931865217453 -5.32595527638815739e-06 -3.07186995948177251e-05)
(2.05058364544072269 -6.11995771048749877e-06 -2.7847418508187618e-05)
(2.13624894520407427 -6.42289133044012133e-06 -2.44225433713888629e-05)
(2.21606156115449116 -6.19531418557914512e-06 -2.08290768972598847e-05)
(2.29072261698692392 -5.77746748805746607e-06 -1.66141965675296116e-05)
(2.36292763734972322 -4.75883426167373906e-06 -1.2027400745556797e-05)
(2.43603522712753762 -3.27741113114852722e-06 -7.65483491178284063e-06)
(2.51415216127205277 -1.58966257551819663e-06 -2.58017586991165172e-06)
(2.60283767304586844 5.04066134276520832e-07 3.67661002271976478e-06)
(2.71319237088849752 1.40040513397942976e-06 9.36095803265299215e-06)
(0.855884038451240947 -3.18469385934961585e-06 -2.42695557517451347e-05)
(0.990775944786052465 -4.01475162082703283e-07 -1.9913587506358901e-05)
(1.13165939457836284 -1.76033398298311094e-07 -1.85515099529147302e-05)
(1.2678680656668877 -5.54322195608448513e-07 -1.81089009159393066e-05)
(1.3964233338865113 -9.18335699671834841e-07 -1.73028679065998105e-05)
(1.51779619772362961 -1.18695402117539172e-06 -1.63317887135389545e-05)
(1.63170353782829558 -1.49634777305572391e-06 -1.53389907067287185e-05)
(1.73935639009092391 -1.56758694496539087e-06 -1.40450637953723917e-05)
(1.84261661838591007 -1.39586304661331416e-06 -1.22437184804848792e-05)
(1.94336576595325816 -9.28552107891141771e-07 -1.00618281414083379e-05)
(2.04346444829176521 -1.29608180650665613e-07 -7.59060202857712077e-06)
(2.1453118231651187 1.04659329366135717e-06 -4.93864977147264761e-06)
(2.25233490328327601 2.80568524292761852e-06 -2.28825299650014832e-06)
(2.36931618687769596 5.47375346489848996e-06 5.91479251323268625e-07)
(2.50435357198238906 9.29883713855676794e-06 3.72126941378328753e-06)
(2.66586336888979325 1.0050887387430512e-05 7.38395301075500489e-06)
(0.713756978579046741 -4.01120396363893294e-06 -9.12505375932384586e-06)
(0.836416810102936337 4.96258436335450064e-08 -9.06597889529913508e-06)
(0.959753516261564577 2.48857079329273005e-07 -9.15844099816268805e-06)
(1.08281946988426148 5.05575591598385313e-07 -9.01378702465909363e-06)
(1.20434821306166673 6.22077203845916069e-07 -8.6197746683015082e-06)
(1.32375307342207083 7.98539661081644173e-07 -8.14302111528074086e-06)
(1.44095009626959292 1.11055686600301292e-06 -7.42723172843535939e-06)
(1.55632633246794749 1.50594296577964063e-06 -6.42567178818344859e-06)
(1.67079279649386048 2.02520592053280192e-06 -5.22020685532553805e-06)
(1.78570829565478628 2.77638947526597919e-06 -3.82272404286782635e-06)
(1.90286079818703002 3.87383636617375109e-06 -2.29705019670134091e-06)
(2.02469079936960394 5.38651131113825109e-06 -6.37894463083575358e-07)
(2.15447995262532466 7.43319582999886895e-06 1.14938934820378201e-06)
(2.29651368189489302 1.02396545267381265e-05 3.01921710837136852e-06)
(2.45919368158865304 1.41197497343184123e-05 4.97103147964985541e-06)
(2.64891820239659204 1.52120702489243358e-05 6.87069587418245533e-06)
(0.594440779772326233 -2.06027572228569216e-06 -4.33973575105107515e-06)
(0.716812632156489493 5.65094550206326877e-07 -4.21207550464469706e-06)
(0.839152868321343948 9.10979392275191303e-07 -4.07589780725326243e-06)
(0.961148159254769152 1.27101323241429241e-06 -3.94477010726698224e-06)
(1.08264185454928086 1.64425526927644225e-06 -3.68977822523949721e-06)
(1.20365112010540587 2.0824084584652656e-06 -3.27804422528112305e-06)
(1.32441142618854868 2.59278774331858697e-06 -2.76040857596740157e-06)
(1.44543197966533654 3.21858183287371844e-06 -2.14136791574168928e-06)
(1.5675146614031632 4.00226872095343281e-06 -1.41018384827254251e-06)
(1.69179096330709111 4.99876319173390692e-06 -5.81381659319864117e-07)
(1.81973460832880951 6.27138933890176385e-06 3.18610943702903778e-07)
(1.95346717872356512 7.91957816261487025e-06 1.26201207357171464e-06)
(2.09614263838469439 9.97909013596577108e-06 2.22278372519305476e-06)
(2.25186494978449669 1.27933555880149616e-05 3.22838108779555746e-06)
(2.42904350056415419 1.66280043155783824e-05 4.18497108245818604e-06)
(2.634391706558326 1.78842911032004373e-05 5.09719621677457004e-06)
(0.509003565673196268 -1.16512928302362322e-06 -1.99811305079205891e-06)
(0.631598189609106075 7.08979918955932274e-07 -1.89654284019473536e-06)
(0.75427822551252699 1.20844370918080362e-06 -1.80993865562151123e-06)
(0.877037343331931618 1.70518498967411569e-06 -1.66508472777352481e-06)
(0.999978076118928638 2.22946751935225307e-06 -1.46396736486012984e-06)
(1.12328337806981282 2.81262730490589191e-06 -1.19326896862717428e-06)
(1.24726943377278565 3.47333159823879501e-06 -8.63108711613379531e-07)
(1.37248363995081601 4.24232515112882301e-06 -4.8032040527030652e-07)
(1.49969972021827358 5.15142523047116522e-06 -5.12775445944748187e-08)
(1.62991703391983167 6.24489262212336764e-06 4.14756492400416532e-07)
(1.76450515287556331 7.57404066832678569e-06 9.05339807679696209e-07)
(1.90537272898959609 9.21162054244668897e-06 1.3951577463674406e-06)
(2.05538939561278422 1.12707459294812761e-05 1.87320863891945692e-06)
(2.21840278712359495 1.40305159567923591e-05 2.28983639051849613e-06)
(2.40250624362541521 1.7718144471160311e-05 2.60130214070209218e-06)
(2.61434215182869467 1.89836685734134193e-05 2.9475776520096263e-06)
(0.450521719534165421 -7.31735255793873801e-07 -8.85723891228452514e-07)
(0.573410627848322418 8.14564575758268271e-07 -7.64825296614559603e-07)
(0.696665783112266568 1.39692335188946297e-06 -7.30282987457170186e-07)
(0.820353565579592603 1.99075635714849889e-06 -6.45738960822489e-07)
(0.944646608545733568 2.61160423162170896e-06 -5.2021885437868271e-07)
(1.06980630521437536 3.28186999874348495e-06 -3.58623807694615626e-07)
(1.19619691733899103 4.02064609547135448e-06 -1.66106435222955253e-07)
(1.32432910189266084 4.85266226783594503e-06 4.97232096088188259e-08)
(1.45489004984902892 5.80790895720476354e-06 2.81281355274730828e-07)
(1.58879682496487051 6.91108949404064318e-06 5.1640978654169342e-07)
(1.72729613482514566 8.22868742602126943e-06 7.40025191137123638e-07)
(1.87208815513514448 9.83905405758013038e-06 9.31644403477525128e-07)
(2.02569545134846996 1.18013390092801455e-05 1.06330029200265571e-06)
(2.19156013741453659 1.43614595953702691e-05 1.09582156338680578e-06)
(2.37679908216072899 1.76074522075298373e-05 9.4761719525526402e-07)
(2.58779112991848859 1.87267915092755716e-05 9.70334777132797506e-07)
(0.414041105317378644 -5.10896076385689791e-07 -3.39538175155364615e-07)
(0.537159278395703543 8.87106876911332599e-07 -2.47168947504950169e-07)
(0.660874260784904077 1.51651936368783082e-06 -2.38063100225898232e-07)
(0.785269983812887151 2.15739826906422231e-06 -1.93875219775459094e-07)
(0.910531489101884084 2.82469893099361069e-06 -1.27151214823437422e-07)
(1.03693054589622791 3.53495512677414332e-06 -4.49615623051918954e-08)
(1.16482564869955052 4.3024013555134083e-06 4.83136037113668375e-08)
(1.29469425665450477 5.14662053046977604e-06 1.46348813637819719e-07)
(1.42716728864977838 6.0807916384202459e-06 2.38241964829835715e-07)
(1.56308667626206832 7.15372511566683892e-06 3.05638310412797099e-07)
(1.70357905441237545 8.4111393897133401e-06 3.18165423368470571e-07)
(1.85020756568592515 9.91131659133319229e-06 2.40366127012403005e-07)
(2.00536380336656972 1.16746576191520508e-05 -1.65432501629696733e-08)
(2.17191200758618885 1.38618152326082317e-05 -5.26541191890397521e-07)
(2.35639559953158573 1.61724844512151771e-05 -1.73259990018976545e-06)
(2.56522464250609605 1.69911734227743545e-05 -2.862993780121159e-06)
(0.396531507365983749 -4.12245955659967408e-07 -8.25598086906301907e-08)
(0.519766930660620075 9.14099574834736255e-07 -5.18453765778363867e-08)
(0.643719869808305978 1.56115587429099944e-06 -4.88355392193018229e-08)
(0.768475308191484907 2.21998078244997131e-06 -3.44784514306707398e-08)
(0.894217618927916069 2.90058624070324093e-06 -1.35943676161618342e-08)
(1.02121397376369605 3.61806072648089806e-06 1.11659752213565007e-08)
(1.14980609542184964 4.38142952643932788e-06 3.77103864064299154e-08)
(1.2804373696980913 5.1969465858304354e-06 6.32881579025242902e-08)
(1.41367766732950373 6.07624863779150537e-06 8.004500908236545e-08)
(1.55025097969399783 7.03242698635942494e-06 7.68352068979193703e-08)
(1.69107025802908462 8.06464668402300815e-06 3.46118835371708763e-08)
(1.83732468421602091 9.1194007370666182e-06 -7.88909536284824886e-08)
(1.99075910654962041 1.00606070064487302e-05 -3.39588963239392934e-07)
(2.15424474866631366 1.02654950861392696e-05 -7.99201424508058396e-07)
(2.33173001134703783 8.90160487766224534e-06 -1.1693097078735143e-06)
(2.52629857992079065 9.08106205799436848e-06 2.5812204733611633e-07)
(-4.95866147737808151e-05 7.77669802693812517 -2.77297834533066124e-05)
(-4.69103148235311868e-05 7.96769092155649972 -1.63586618923045304e-05)
(-5.08036003626517448e-05 8.17554197476215982 -1.33636285036065408e-05)
(-5.38651449151595369e-05 8.56386733977099368 -9.24903244181478061e-06)
(-5.85137269605262206e-05 8.82173495172796507 -4.17012204193967878e-06)
(-6.72874070881694295e-05 8.57276488259044811 -7.59025006911862868e-06)
(-9.07894792384715532e-05 8.21329409057769233 -2.65185576367066361e-05)
(-0.000105207076521861111 6.38094805382252517 -1.3424076579027713e-05)
(-8.29046727182658223e-05 5.325164815936267 1.96160347950393472e-05)
(-9.21533666963555011e-05 5.21404087558412233 1.64682883407540601e-05)
(-9.93683274611240682e-05 5.20490172468641532 1.00584298225658884e-05)
(-0.000102215356618915804 5.24370605398555245 -5.92926773097538953e-06)
(-9.75905798055958884e-05 5.25029041223891646 -2.17177951653210585e-05)
(-8.77360359485252861e-05 5.03424771977238894 -2.94957066411035635e-05)
(-8.0772432243321734e-05 4.85724747117738964 -3.00174756377945218e-05)
(-7.98262296913332728e-05 4.06268045286793456 1.68666435201292546e-05)
(-4.2870688858393065e-05 4.24254994969020238 2.37022310503251171e-05)
(-3.76165141137523436e-05 4.30401767348695685 1.83964759451402342e-05)
(-3.57681428292928202e-05 4.34652645104557234 1.05526678582824964e-05)
(-3.3568422457867626e-05 4.3682733174180699 2.84733188527609058e-06)
(-2.81784900988971755e-05 4.32911227992922409 -4.34094504016165214e-06)
(-2.61894348241709148e-05 4.17847691321089698 -9.8570627757620622e-06)
(-3.01185233405584184e-05 4.0204823328504995 -1.6069032700974305e-05)
(-2.70954535743235814e-05 3.60898555534103016 1.42772934132678532e-05)
(-2.98463210431902506e-05 3.41629778192637712 2.11745521276490383e-05)
(-3.29690897447547073e-05 3.50842953082053333 1.58638657727704787e-05)
(-3.44487437971117649e-05 3.57223687104165544 1.08446426186537092e-05)
(-3.3655382744011461e-05 3.5994049963281296 5.84909036617238775e-06)
(-3.02223864406366584e-05 3.57191644338473413 1.19278014212459834e-06)
(-2.68712800965445375e-05 3.49074910967973739 -1.96324346293585537e-06)
(-2.79657597357578397e-05 3.4204386567056706 -8.90147246599426569e-06)
(-2.2626792331779417e-05 3.21226780279501245 8.22051261763110205e-06)
)
;
    }
}


// ************************************************************************* //
