/*--------------------------------*- C++ -*----------------------------------*\
| =========                 |                                                 |
| \\      /  F ield         | OpenFOAM: The Open Source CFD Toolbox           |
|  \\    /   O peration     | Version:  2206                                  |
|   \\  /    A nd           | Website:  www.openfoam.com                      |
|    \\/     M anipulation  |                                                 |
\*---------------------------------------------------------------------------*/
FoamFile
{
    version     2.0;
    format      ascii;
    arch        "LSB;label=32;scalar=64";
    class       volVectorField;
    location    "0.600000000000000311";
    object      U;
}
// * * * * * * * * * * * * * * * * * * * * * * * * * * * * * * * * * * * * * //

dimensions      [0 1 -1 0 0 0 0];

internalField   nonuniform List<vector> 
7248
(
(-0.324796059063832576 -0.783607862523902465 -0.446393935995660185)
(-0.0477072234129657796 -0.413364250631709451 -0.43651722036935714)
(0.10790883034915813 -1.09649599987486512 -0.0266134502476749607)
(-0.0946018813618968446 -0.956647298991671113 -0.20196532839286202)
(0.205917177424311565 -0.456685588171184986 0.159750781702835409)
(0.250734544273103654 -0.579979872874691105 0.0364973723350327864)
(0.229722153986580246 -0.466153504731198709 -0.052941593833590303)
(0.343639748847139714 -0.369236656497273608 -0.0282320919196843712)
(0.459573987212676394 -0.454391616554887579 0.00522970706610686141)
(0.498652285391950501 0.0138652796756661492 0.386188477657934126)
(0.391844035035766092 -0.164272809537181486 0.259467571540076047)
(0.293485078885418638 -0.299126280024868074 0.142300404838405198)
(0.418808586822109363 -0.462101328521175581 0.121903943991368738)
(0.605399039212835999 -0.517725405175109565 0.0621353497717760522)
(0.648936252607010711 0.10282900064268749 0.348645863896026031)
(0.724470272825173844 -0.0302647891379859701 0.342460749133065567)
(0.728160866548209662 -0.246724834425722961 0.286940333341560494)
(0.747174348352782292 -0.405770957747778105 0.177008738678578054)
(0.776805830643207962 -0.510351405480939824 0.0606439059663631541)
(0.518533235420607475 -0.0660848133125159082 0.222035406940489066)
(0.626138622168113002 -0.0848717897615681172 0.253066437523403243)
(0.697364655054577343 -0.204606788846237675 0.191892583750005202)
(0.757065804980824764 -0.358144623812574503 0.0843024334353356941)
(0.753282435801929551 -0.513074365963701262 0.0056524881771778876)
(0.412658742359591213 -0.259138271188556424 0.148344071458412996)
(0.525606012343044382 -0.274335860152381039 0.143502404021056656)
(0.619389149605299782 -0.367623528344098671 0.0916556218023135555)
(0.661900488074334326 -0.496670426636008633 0.0424891412646601491)
(0.670500072667012836 -0.610514408032925782 0.025308538411893601)
(0.3896344131355019 -0.34775733628401212 0.0719141700040159121)
(0.456718288604909373 -0.39437145361695003 0.0751004593532194759)
(0.512791487500006249 -0.467693948925589909 0.0635020030067297431)
(0.545288155189718404 -0.54949963154124315 0.0507260577439138174)
(0.554868324332146945 -0.629341336817542341 0.0435105581977493494)
(0.340180662322305927 -0.404887619434337376 0.044618537282854677)
(0.384076692943845333 -0.446034140732071815 0.0488340710574029085)
(0.420890825029594517 -0.503316679810503431 0.0485257286358798529)
(0.448311442121698434 -0.570045103053459901 0.0475005194038025866)
(0.45994389418271675 -0.642214650470192994 0.0491640027027790555)
(0.287128409124326245 -0.452420749644588005 0.0377160121252516911)
(0.319167224688025053 -0.493352819591425462 0.041688518216916666)
(0.347058225635808626 -0.54245994429432276 0.0448992984411487328)
(0.369835798462098075 -0.596327486921005123 0.0481269866960572432)
(0.380797534152603256 -0.654877563075232705 0.0533323648988514934)
(0.238149298608643201 -0.48780681084220745 0.0319736355859645896)
(0.262022529203362609 -0.525037301047043936 0.0357405581920337209)
(0.283547364564647963 -0.567292221661100271 0.0402106802290438797)
(0.301741080540865902 -0.613126254116249436 0.045652043886118196)
(0.31416286969274515 -0.662239761387765857 0.0532823479852942428)
(0.190936985587963987 -0.514424378485119016 0.0270691657067382262)
(0.208943818994875907 -0.549667799242104071 0.0311773113319229189)
(0.225990358684267645 -0.58857100803122786 0.0364286538445182315)
(0.241664206184114688 -0.630400732358394333 0.0432206388988688114)
(0.255785851887302851 -0.674488849234159749 0.0520415362088915909)
(0.11862589474550965 -0.47591460035807881 0.0172380289771961286)
(0.132274449578287018 -0.503151990579376096 0.0192154520971778084)
(0.145844055468127426 -0.533749218749966725 0.0220937284334989659)
(0.159125194721126434 -0.567715466843863981 0.0260844876036749745)
(0.17193070340590369 -0.604907318415280781 0.0315155223099664178)
(0.184299092514800783 -0.645076129568208811 0.0388787604596140673)
(0.196867818637974368 -0.688029451831101535 0.0488320279967656007)
(0.0840732950809357921 -0.490591858234182498 0.0124554066002843713)
(0.0934617809872957811 -0.517532607823825042 0.0140893104089109822)
(0.102721259612802263 -0.547501680840189353 0.0164551268515025079)
(0.11172647403353797 -0.580498302770739438 0.0198071481837645176)
(0.1203418016139053 -0.616471863380854468 0.024497559285866926)
(0.128499717588872853 -0.655378264703490476 0.0310177729056287307)
(0.136433738190194304 -0.697198179301650067 0.0401180163687230931)
(0.0502301613772865585 -0.500227493569835535 0.00751063785419166241)
(0.0557247054917299478 -0.526824601952081917 0.0085830119669836058)
(0.061098931159221298 -0.556268971411955748 0.0101472309880834034)
(0.0662684223984202347 -0.588496117761217019 0.012367740445178849)
(0.0711184402383455289 -0.623412669861378221 0.0154774380270077897)
(0.0755346726999090445 -0.660909260372234741 0.0198023352241084513)
(0.0793557143933784903 -0.700872891106285811 0.025780487219749959)
(0.0167258928707864768 -0.504705480296737341 0.00252484533141581055)
(0.0185465578941213689 -0.531121857431977373 0.00289685106637652774)
(0.0203193598721624694 -0.56027061697666225 0.0034386470423365522)
(0.0220111824983283896 -0.592060804216410275 0.00420819497921745469)
(0.0235813630125807291 -0.626358440518736792 0.00528467828106948811)
(0.024978721164503212 -0.662969967458267417 0.00678014275882266211)
(0.0261158712874831299 -0.701664730526405545 0.00886141020801811674)
(-0.288429359383401418 -0.541550645831361144 -0.379662197207839391)
(-0.0501394438815321308 -0.297483097520062967 -0.358535064487912836)
(0.0201014049752404611 -0.919848232193012594 -0.15754282583527246)
(-0.00206719938467955777 -0.905032226593128319 -0.169826206374743105)
(0.450201377564117544 -0.463005636996650205 0.0499294063339912886)
(0.492949358074700639 -0.667762480633243727 -0.00658401808716633802)
(0.369832076478798732 -0.51514204459296431 -0.125666076647246105)
(0.439291976590718558 -0.296012370001420777 -0.156469594428604336)
(0.514037904136940949 -0.474050780041545217 -0.0442463569026094392)
(0.58010267075129307 -0.1498782645980416 0.261245037485377862)
(0.557957394801935624 -0.280594261919961896 0.169954311429174748)
(0.473809035476677243 -0.318084299602530429 0.0790109073686303398)
(0.590510103811754505 -0.443407718837066867 0.0221366153462212063)
(0.763370368638209618 -0.544054080803193507 -0.000116681113310019777)
(0.631726496872053289 -0.0998653347857075685 0.277145241494295258)
(0.705435514954877441 -0.180532522794332628 0.256323187810930941)
(0.753787586966386147 -0.30685008917193457 0.200140999258893809)
(0.808326777415317776 -0.420098391912294589 0.112167623570371688)
(0.856376904332277977 -0.514307887158215515 0.0347307012002627952)
(0.475109657233974525 -0.266242477127325905 0.225110068381423778)
(0.591283975806166651 -0.283927492874610443 0.233639790953771659)
(0.688266241669164947 -0.335719282740030101 0.183945888530339274)
(0.747192131378540569 -0.424622483461577271 0.101135162554675653)
(0.757625714370176118 -0.544383587815019387 0.0371645726561256259)
(0.41899852949405908 -0.308983178698762684 0.135013740520795622)
(0.509271560431897696 -0.358846261058278215 0.135012388015537055)
(0.588232997686040093 -0.426714386044893867 0.10294473591586599)
(0.635504815179513516 -0.5128547396738391 0.0662109426261991707)
(0.658875351741565307 -0.598804873789842373 0.0470240358351962651)
(0.393478333345773035 -0.350093105656563208 0.0578208798410188921)
(0.453114564441337575 -0.405152459994174985 0.0652058370051190467)
(0.501800693474544146 -0.470257737155925115 0.0601057287080021263)
(0.535270635283514373 -0.54315292049240349 0.0512075026748156567)
(0.551055118447990155 -0.621772390814202103 0.044721898195420301)
(0.346710037030605822 -0.413464635722707474 0.0410400550228454813)
(0.386813572733038846 -0.45799569750041591 0.0459080848038868894)
(0.421134927085363875 -0.511668566158053673 0.0470994627999603011)
(0.449128557402748374 -0.572739502994961125 0.0472849886929544994)
(0.46383278886621454 -0.639703559033304447 0.0486677016942091145)
(0.291882694363296225 -0.457575348173521634 0.0357730812127576708)
(0.322448517906898435 -0.497499295762235616 0.0396882901223175183)
(0.349658782071038732 -0.544543846783108187 0.0429233701297561249)
(0.3731528169446649 -0.59630608383389172 0.0462427854814433242)
(0.386492026530030452 -0.653138508935722562 0.050679436214746923)
(0.240829439168478127 -0.490953911978579072 0.0306387458433721241)
(0.265246851856371146 -0.528324929139197152 0.0340709562853282674)
(0.287555864713980258 -0.570001190365905019 0.0381091657075651249)
(0.307206301341077126 -0.614722962121887373 0.0431161652098940515)
(0.321612405595778805 -0.662744874302588105 0.0499999953809352471)
(0.193922773800453641 -0.517478778217357771 0.025742220827253557)
(0.212835520407584827 -0.552690120057430678 0.0294118254818568278)
(0.230992039780635233 -0.591249145931328601 0.0341375490088967615)
(0.24822361762095041 -0.632428997995962305 0.0402198742674511611)
(0.264111252047410705 -0.675863877801383794 0.0482702260536439567)
(0.148766918173087348 -0.537112888294039026 0.0208976796410170751)
(0.163102080870883515 -0.57123501381386077 0.0244710484260833479)
(0.177356009842558782 -0.608557456494307258 0.0293271430782096366)
(0.191660978399121801 -0.648735453602300338 0.0359171671373176363)
(0.206588087355259298 -0.691522279373283144 0.0448822718476538374)
(0.10516318660706124 -0.55127261909864067 0.0154951320127857048)
(0.115175769857993368 -0.58483584441944525 0.0185096568468623053)
(0.125176920464926039 -0.621529957733465199 0.022719667240470115)
(0.135242630581926399 -0.661356928643931807 0.028607379454099937)
(0.145943803194151039 -0.704297020039997501 0.0367880887652444546)
(0.0627355673122865082 -0.560483622229847822 0.00952580231726894711)
(0.0685703241292895116 -0.593530431336628417 0.0115198310373853634)
(0.0743353817500692765 -0.629589162909188205 0.0143143124719691955)
(0.0800073279510642305 -0.66867316130379284 0.018214813376930785)
(0.085622042407687976 -0.710818955774544237 0.0236237835254746384)
(0.020877089520868912 -0.56467879232345608 0.00322254343735189864)
(0.0227966526159216268 -0.597419174715216661 0.00391263462799754536)
(0.0246785526977580279 -0.633039610553825405 0.00488040438169820394)
(0.0265025099285709428 -0.67148954585263676 0.00622678253790195837)
(0.0282336914938459693 -0.712723697521472355 0.00810056936816442273)
(-0.278550139013126641 -0.3938003895251595 -0.317230229780025519)
(-0.0627873524933010435 -0.241485116467910599 -0.284258255809412386)
(-0.00811348495047868601 -0.945568229743344535 -0.189727039090825694)
(-0.0882012047333295551 -0.79092460419455346 -0.150061683090625286)
(0.641293436403442718 -0.493878543831601513 0.0446198914350388887)
(0.664407687663632895 -0.73890403122540349 -0.0268803225942730942)
(0.663914039977621995 -0.625146550789341449 -0.109463423569269275)
(0.576325561170449752 -0.266850824348646487 -0.169185689345486806)
(0.536687270596924226 -0.464751986894668068 -0.103708415377075119)
(0.605292581514102257 -0.359292787480494036 0.172644242520137547)
(0.610217481000592366 -0.489351450180493475 0.0865188336610892006)
(0.646377222118967754 -0.463878133301013684 -0.0323581941747733623)
(0.750002736587165653 -0.431477138403630889 -0.114476067561001676)
(0.850920098246982004 -0.571390485275070081 -0.0653854333745279431)
(0.574733780268401495 -0.28092028110897288 0.244453091057874966)
(0.630900221358135616 -0.373667721139898101 0.205044467955979776)
(0.69226027058692885 -0.440963516043217152 0.142485859059293646)
(0.764237323192936691 -0.499254371880055614 0.0750969232684280397)
(0.878179628402925405 -0.554626514642399981 0.0220630197177433159)
(0.460432400483369475 -0.337812008770710215 0.168078139007120431)
(0.551707346871179616 -0.397591886736083477 0.163332299221009392)
(0.639487335753128217 -0.439721900037202296 0.132141327715867313)
(0.70445729967008186 -0.485993392865315232 0.0853443430545038767)
(0.731093747957208606 -0.574832608018601365 0.0448108136397235152)
(0.437216541597390984 -0.292334089688313203 0.056141624516134872)
(0.509352376539695006 -0.366799863369556833 0.0753942435362211089)
(0.570805370529142264 -0.438252670998608929 0.0698930105996947854)
(0.617673703047250111 -0.513601483373476664 0.0541630618253294421)
(0.64703319919796487 -0.590865137631187309 0.043956408432067523)
(0.403717411457257147 -0.35696607163803562 0.0345719281218167876)
(0.45566750481448115 -0.416138184926229449 0.0469772016445748064)
(0.498793856151951209 -0.478703061761251492 0.0495161134592913138)
(0.531474120053981092 -0.545325050787544674 0.0467494687630277406)
(0.551032395531715014 -0.619195894536272218 0.0449788458945620806)
(0.350803694687872314 -0.420471682262035518 0.0429212220372489628)
(0.388947309681380582 -0.465650035025375608 0.0449616575979825614)
(0.421745293028853219 -0.516838710183364691 0.0450193526491873136)
(0.449919327719184414 -0.573739250107080823 0.0456344578952495028)
(0.467292763895770347 -0.637634687397690691 0.0476839367339601181)
(0.294755265225719931 -0.461844928420977852 0.0337490876871077705)
(0.32496206965387614 -0.501783623767265041 0.0364814473546726109)
(0.352267944110044584 -0.547312538747287136 0.0393154801875174875)
(0.376477807267496967 -0.597192687872184047 0.0428953688370741146)
(0.392273072221307917 -0.652389856988134897 0.0474887837733021026)
(0.243481627817524221 -0.494243040754883012 0.0280876481488680323)
(0.268328401816702755 -0.53149523909851526 0.0312774708579829849)
(0.291313972090429696 -0.572573980075429145 0.0350000606424053784)
(0.312232745086038099 -0.616360938912843714 0.039646684317286178)
(0.328557928347982586 -0.66315662884343185 0.0458582019470158975)
(0.196544467856525962 -0.520408080172285348 0.0237915347808244186)
(0.216287864485587844 -0.555537783254301032 0.0268943528542142513)
(0.235474492637004817 -0.59382663677917269 0.0310202787242620411)
(0.254232597935173055 -0.634433727691023464 0.0363888504960957065)
(0.271759001552574486 -0.677121339817218892 0.043695070111143236)
(0.151326488575537293 -0.540240994600113766 0.0190992475064823142)
(0.16664586807602999 -0.574501424019254636 0.0221872911463346818)
(0.182208700309052618 -0.611915727666862308 0.0264273413340399867)
(0.198288330430330867 -0.652104541806329041 0.0322161463832756345)
(0.21540847730104401 -0.694841106202365388 0.0402037771673918534)
(0.107336683563992702 -0.55480177189836366 0.0140685858095841217)
(0.118252286270259827 -0.588829441515651975 0.0166938611626458108)
(0.129493305393692276 -0.626134487755797275 0.020371190655094084)
(0.141269260691276599 -0.666747604074140798 0.0255301532084652276)
(0.154476458837317171 -0.710688965369087433 0.032725148997594676)
(0.0641771330045687316 -0.564377033283117946 0.00862901139376757477)
(0.0706126962903529942 -0.598142989754585463 0.0103562932618087734)
(0.0772004774600014709 -0.635207101440915189 0.0127911669701137164)
(0.0840115804093996277 -0.675690418748347899 0.0162058636949218918)
(0.0912893816338202768 -0.719737952308193596 0.0209700415707006586)
(0.0213710787948318964 -0.568747583225284625 0.00291014089778395295)
(0.0234942587471852968 -0.602320655015318285 0.00350906851686106584)
(0.0256550186393557436 -0.639111084673133267 0.00435212562015220659)
(0.0278623267866961385 -0.679192316649488315 0.00552792829781643263)
(0.0301423826112162778 -0.722696693407073321 0.0071672104359029043)
(-0.275082719575713508 -0.320376545857874895 -0.242184592670121296)
(-0.0657849785203375725 -0.19425531385071565 -0.227370170873969019)
(-0.027257355331874733 -0.981125384477127271 -0.0325083460800794782)
(-0.108713299934423982 -0.707748486123492504 -0.112379470044210741)
(0.773162875716928655 -0.402773321301334475 0.0829475300140849331)
(0.821417141096279835 -0.538456840282847904 -0.0122999561363229763)
(0.913741647892200803 -0.512898564780714716 -0.0928359303007171288)
(0.902341659750750313 -0.117376484771671175 -0.0579121343446702755)
(0.540507345013222618 -0.448315974976345399 -0.0131266610190469753)
(0.576070156452173299 -0.431013014188858734 0.110039561667511818)
(0.601085606913909554 -0.431603162642139271 -0.0509067263220319283)
(0.628536171245069442 -0.336161422969857904 -0.189701379827558164)
(0.640551269561585923 -0.128884588837170827 -0.175189400061186301)
(0.764437028036486499 -0.289519274523240333 -0.0507727877932773602)
(0.513549834096669655 -0.273490300317166979 0.135628395018447562)
(0.555024265926703952 -0.375094104849447996 0.0722476610934194297)
(0.626878680342653261 -0.430463692388684371 0.0239801063249807898)
(0.703957185865082047 -0.475256152978513646 -0.00109797886062992767)
(0.830976624029119426 -0.54383144717748666 -0.00541549215998487436)
(0.47216675812619896 -0.252617395800196154 0.069215828728339146)
(0.547902919478695516 -0.339826795547778782 0.0650394003656381142)
(0.62390313131394981 -0.4026462281890274 0.0577805003938660286)
(0.681862144086423427 -0.456092252532243503 0.0419918283813012633)
(0.729041976789830182 -0.536678230515573507 0.0354519981564108896)
(0.464950798627989548 -0.254714344815533122 0.0196134480446124686)
(0.522444102547686806 -0.350434171369758296 0.0335175967192344604)
(0.5725963426047469 -0.431154042191402576 0.0381604939731792353)
(0.615813295477803391 -0.50748524566075226 0.039057662097364873)
(0.647466375728522836 -0.585483734522625476 0.041406178728520579)
(0.415661660472652461 -0.37947023041670408 0.0440291021129534665)
(0.460343649057398441 -0.431527798703183585 0.0458336519055525179)
(0.498435570601975686 -0.486399517691395389 0.0448929368746347687)
(0.530462338996559368 -0.54693813477512776 0.0427715732947313923)
(0.551788994512091069 -0.615617199846373642 0.0427116091935040854)
(0.352554008078489078 -0.423576296716673684 0.0398042606797706991)
(0.389006586714138458 -0.468958695314069862 0.0403634946364671357)
(0.421950318125967505 -0.518857145456583457 0.0402658113355601824)
(0.450846544940685767 -0.574164778362131978 0.0417399115479607924)
(0.472078506872325609 -0.635236105110391747 0.0452821380627441913)
(0.296375095408773881 -0.46486065664301085 0.0304667731839174567)
(0.327090605012485935 -0.505337940417215359 0.0324764383788392966)
(0.355103478920800797 -0.550134833556769509 0.0348190558440246503)
(0.380196027343006671 -0.598960197762384294 0.0384295524416964629)
(0.398965027144090212 -0.652159532813327725 0.0431241205072821765)
(0.245783546177061413 -0.497512762332702863 0.025151879070872827)
(0.271107255553329263 -0.534467994112653999 0.0276588664641409)
(0.294780401130523562 -0.574959221890416816 0.0308281348952802389)
(0.31684771830152203 -0.618192497671583907 0.0349465113507229919)
(0.335429701348768872 -0.663984192202726087 0.0404315344968976184)
(0.198710463087860251 -0.523191231209086394 0.0210565836298493257)
(0.219211638349689902 -0.558152811648245595 0.0235651818714686934)
(0.239366756877528619 -0.59619042698685154 0.0270098848905488027)
(0.25957680076735723 -0.636414015900260921 0.0315699430135772049)
(0.278765117823016884 -0.678608730240195523 0.0379114832559536569)
(0.153444285966180066 -0.543054204580570854 0.0167304494507903682)
(0.169664110807962898 -0.57743499556131539 0.0192718929389485254)
(0.186397367857596807 -0.614924059062701756 0.0228191778759856863)
(0.204109587834010731 -0.65508895669206646 0.027712819044206579)
(0.223151853141048295 -0.69781070159315961 0.0345807760225745262)
(0.10919300627827036 -0.557992640751420965 0.0122349197135800062)
(0.120890185437186104 -0.592381059343399574 0.0144105213094979298)
(0.13321191132319038 -0.630187346996580855 0.017489905298450386)
(0.146503862545920266 -0.671451439778354198 0.0218383896369024194)
(0.161829662315652129 -0.716223666935308922 0.0279695785606536296)
(0.0653932708339366731 -0.567832710510924876 0.00747328418845319246)
(0.0723556600759870661 -0.60220880657882836 0.00890682023197602625)
(0.0796635591421198663 -0.640131810211299723 0.0109402147671979338)
(0.0874700246053331382 -0.681806909133331418 0.01381190010579199)
(0.096250823542616562 -0.727473927344650328 0.0178352196606690015)
(0.0217912845894905963 -0.572353636700244306 0.00251303759849761353)
(0.0240919665393793045 -0.606633302683024289 0.00301108294853452002)
(0.0264921850610772003 -0.644424433360428983 0.00371422280239344649)
(0.0290324681580286757 -0.685908356130955799 0.00469610194746362605)
(0.0317993629064826644 -0.731338319242781809 0.0060643265388324423)
(-0.259783508971771382 -0.332045105450329336 -0.175365683455132398)
(-0.0653598045659882637 -0.164140093750831217 -0.180664108466899231)
(-0.115262582411255157 -0.889376861733830237 -0.022845425009137988)
(0.00722287637564889007 -0.656626183375370487 -0.107265219144344393)
(0.6527965444467001 -0.316445324773542425 0.0245551131318763327)
(0.73054582491530029 -0.382934167817772453 -0.0817200593139932457)
(0.7708305098562519 -0.309459441638463728 -0.159980606626754784)
(0.792381571013217045 0.00950114458616293373 -0.0767412376580688532)
(0.53914759689448688 -0.347520112969288641 -0.00155494219964784006)
(0.697338594331910033 -0.137224858102746039 0.078188064146812869)
(0.696657622572100954 -0.175596144611991051 -0.0432719911560146206)
(0.624339548889129348 -0.149817446129482751 -0.15684295803704762)
(0.444929779859073837 -0.0669186250249318992 -0.13137281759319025)
(0.528256320956726255 -0.199251946992474893 -0.0194275115351161438)
(0.550555591995233073 -0.117031534548170904 0.0273175955599331381)
(0.603993918053184475 -0.21962163969199941 -0.00193928175906229756)
(0.656766098834863477 -0.257807862268259524 -0.00882451783271342646)
(0.738614541369993494 -0.405790378811978214 0.0175028360039715739)
(0.855101740577080549 -0.597355497738782493 0.0404867400545583928)
(0.518989115430897208 -0.171967211956008337 0.0341710378714954327)
(0.571937675040311566 -0.275595907504684434 0.0343675776497668686)
(0.637518231963917326 -0.366211686651979063 0.0377528716916339518)
(0.687909924838753906 -0.452492438062523927 0.039828917869435182)
(0.728654016675043481 -0.555144108693236271 0.0458951429324903765)
(0.482836853223033269 -0.312104174417282998 0.0518413137319554476)
(0.530407087515184061 -0.378367896685979921 0.048324823322630335)
(0.575133149801137389 -0.437601134969271666 0.0438680702188623331)
(0.617233367828530555 -0.499767636283816818 0.0424372227460142609)
(0.662854349131176357 -0.575235469300573343 0.0458929135717396769)
(0.414437163783645368 -0.387983967843816502 0.0516779172326112951)
(0.455853962359521914 -0.437078257624276711 0.0464053587271341383)
(0.493461008025789016 -0.488712652157510308 0.041479660033585268)
(0.527102913858303657 -0.549925776416132939 0.0393187384135242138)
(0.55037762630823861 -0.618293476172221856 0.0404921898775060102)
(0.35242577680692172 -0.428899311954497042 0.0342234572210405527)
(0.388734926901308175 -0.473496868707762253 0.033902760851133619)
(0.423069431000615115 -0.521740075917402568 0.034057636468523049)
(0.452905539247630218 -0.575779665325976131 0.0360031438766437034)
(0.477862872937689753 -0.633507173935511481 0.0407056958718469211)
(0.29742617893259049 -0.468756672788480877 0.0265407001471631675)
(0.328689430928821358 -0.508836355594393552 0.0277375775753422905)
(0.357635931461290024 -0.552769100422236925 0.0295881541547636621)
(0.383389471295933149 -0.601170917208258992 0.0327917206794922853)
(0.405017583260188163 -0.653168428117726019 0.0382716009444173944)
(0.247400581163952138 -0.500542088977164457 0.0215212799280050798)
(0.27328175428601148 -0.537147179271203701 0.0231898349366064065)
(0.297677665641354061 -0.577195887272911046 0.0256480401220321903)
(0.320684105999138047 -0.620071916015424995 0.0290679755726102849)
(0.341141782590083875 -0.665664903633317095 0.0343068859974658621)
(0.200344401282430584 -0.525653508965137073 0.0175160636349790434)
(0.22156829201909839 -0.560450203501262623 0.0194237140150165591)
(0.242596472468773972 -0.598272586367080139 0.0221243740608901424)
(0.263963498225128601 -0.638219661332139254 0.0257730170255045105)
(0.284437147341513041 -0.680259247359585206 0.0309414960465498566)
(0.155139161364932054 -0.545529891673225631 0.0137854219469770931)
(0.172121745374270135 -0.579964503138123422 0.0157464330883127328)
(0.189856646654307348 -0.617488770657681485 0.0185268547655500528)
(0.20896172243083655 -0.657618833941405079 0.0223789987128426328)
(0.229529237909588374 -0.700158305739706721 0.0277643407527164814)
(0.110675180739190859 -0.560695736986260074 0.0100149941570712251)
(0.123033971225325237 -0.595374588287972517 0.0117097941342599269)
(0.136275020794953072 -0.633587425188664066 0.0141312067229278967)
(0.150850500866739623 -0.675354468910067895 0.0175640415202165875)
(0.167883684148442236 -0.720758967394603434 0.0224136531886496501)
(0.0663730061044332104 -0.570755888935209121 0.00608316636621217873)
(0.0737710831259660027 -0.605621919145446497 0.00720508350270210231)
(0.0816779974129344943 -0.644237117588095987 0.00880365998480086773)
(0.090300852809977919 -0.686884737506830323 0.0110714066708327251)
(0.100342162117833145 -0.733868347981889046 0.0142353467591468646)
(0.0221298337015918209 -0.575384060222353333 0.00204182272651110778)
(0.0245763644793498617 -0.610238061102752138 0.00243133737511463076)
(0.0271733170490824349 -0.648847712544334376 0.00298256950600809569)
(0.0299839165396167361 -0.691477591799216418 0.00374900245964017702)
(0.0331442573494649464 -0.738443625949839699 0.00480952845883682745)
(-0.239493759714193677 -0.319547152224732178 -0.120795672018632477)
(-0.0597514175595321856 -0.156364926019063544 -0.125408720717005207)
(-0.320902625225388816 -0.928559642979737476 0.00767556355467151688)
(-0.0442109114114064838 -0.653085807702272536 -0.0585326566726828978)
(0.625190668466640287 -0.537756638299052292 -0.18984896011320801)
(0.628819362950084226 -0.469659366946371226 -0.197877437592642313)
(0.366505401590263402 -0.152569795732695718 -0.120995892365841837)
(0.245671158341529527 -0.0711786814004487789 0.0070894284544138729)
(0.223247231903317161 -0.823383827932378298 0.0259283215688150236)
(0.67178396823240949 -0.128013210879000083 0.0187355753232144318)
(0.615175585414319825 -0.14054628588583637 -0.0339441732436405672)
(0.515706063128386294 -0.096557424015432311 -0.031957901523384756)
(0.10676689845183765 -0.258331003401157111 0.0705388894387748017)
(0.504460679157874292 -0.598465792675224151 0.0429585382801874888)
(0.587487464967657691 -0.200957993369692722 0.0777690656282891968)
(0.62589258616073129 -0.261305700236268146 0.0511154507918203452)
(0.676082882182806433 -0.26461087406219963 0.0230775725963169032)
(0.841656446942264158 -0.369032868334366826 0.0127090646429805915)
(0.914499669770016066 -0.558965725867733632 0.0253189938611122073)
(0.537445038819754362 -0.283825427453061052 0.0804945618615279385)
(0.577256986555346074 -0.342906720306113022 0.0621559841118353509)
(0.626737470988139478 -0.404458740500389713 0.0523766384103498822)
(0.68785856822513014 -0.493323360993939919 0.0502841207018938571)
(0.736085147654923722 -0.599541970273648306 0.0436853339921313422)
(0.476022876599491329 -0.352391027351013408 0.0654103647734531057)
(0.520337375769360011 -0.402899243389210793 0.0532745504537796288)
(0.566711209885434664 -0.451650952312415199 0.0428431250800990066)
(0.615489847752278552 -0.509241309334549919 0.0344818986721111206)
(0.655676640652143816 -0.575633502791200513 0.0296295128068054039)
(0.409130571435634305 -0.393683577499826354 0.0429803355141800958)
(0.450455352973785472 -0.441648414991153204 0.0372493384000892602)
(0.490821280738140686 -0.492225521570557212 0.032982989725547418)
(0.526395947319066249 -0.55207794509012964 0.032770456554783417)
(0.556539336017647046 -0.622281635722300552 0.0357461889796624674)
(0.350974782961451459 -0.435792135821425897 0.027840840352958196)
(0.38854346261021494 -0.47877248691757307 0.0265784497600365099)
(0.423897716171080186 -0.525679007222447758 0.0267998890327234493)
(0.456384660193284108 -0.578254746912588491 0.0281766852929298262)
(0.483171368074326479 -0.635600521938846863 0.0325752733345663278)
(0.297823080697500631 -0.47311242335157766 0.0213226590255816591)
(0.329728331875000669 -0.512228436145191202 0.0216207371953788217)
(0.359716543216897444 -0.555442826916970445 0.0229688862062917519)
(0.387193736957981205 -0.602912610673762672 0.0251635319507816403)
(0.411234464922166199 -0.656055805747998599 0.0309929460238143953)
(0.248211415225421672 -0.503257799269389294 0.0167053521015710742)
(0.27476520876933036 -0.53951237600777846 0.0176872172060281822)
(0.299900562647560764 -0.579326649390260462 0.0194146546090796339)
(0.324294946817078766 -0.622013805555613253 0.0219032852689476885)
(0.34604678071342132 -0.669006471326169305 0.0265462158929429537)
(0.201457747486540439 -0.527801467507880373 0.0132776075703286318)
(0.223304102529731374 -0.56241493560864031 0.0145764091247679844)
(0.245031493247534815 -0.600083108305790924 0.0164415941638576396)
(0.267364225713336678 -0.639919429524684946 0.0191402025916809736)
(0.288735524882131556 -0.682308563604352103 0.0225518015827538242)
(0.156380148690724863 -0.54755604302829175 0.0103240904974810626)
(0.17395654144146569 -0.58198181451850961 0.0116947553777768092)