/*--------------------------------*- C++ -*----------------------------------*\
| =========                 |                                                 |
| \\      /  F ield         | OpenFOAM: The Open Source CFD Toolbox           |
|  \\    /   O peration     | Version:  2206                                  |
|   \\  /    A nd           | Website:  www.openfoam.com                      |
|    \\/     M anipulation  |                                                 |
\*---------------------------------------------------------------------------*/
FoamFile
{
    version     2.0;
    format      ascii;
    arch        "LSB;label=32;scalar=64";
    class       volScalarField;
    location    "0.179999999999999993";
    object      alpha.water;
}
// * * * * * * * * * * * * * * * * * * * * * * * * * * * * * * * * * * * * * //

dimensions      [0 0 0 0 0 0 0];

internalField   nonuniform List<scalar> 
29184
(
0.999999999729318967
0.999999999705714515
0.999999999587103061
0.999999999422217178
0.999999999283696761
0.999999999060071088
0.999999998639389265
0.99999999779476334
0.999999996096266441
0.999999992849256891
0.999999986597835289
0.999889473318580135
0.999874098576910453
0.999628066113208757
0.924541754513194647
0.702993630749500276
0.999999999709864307
0.999999999605980072
0.999999999458167199
0.999999999350678292
0.999999999190669064
0.999999999112414217
0.999999998377818056
0.999999996403761915
0.999999992923578551
0.999999986607200464
0.999999976045302552
0.99975370778524808
0.999741784234109199
0.999094676191327968
0.91928859891770931
0.701711356839036404
0.999999998167035997
0.999999996826951953
0.999999996347136433
0.999999995601160263
0.999999994115516655
0.999999992229334334
0.999999987168582294
0.999999972024685713
0.999999943389917156
0.999999892184024741
0.999999816981326672
0.999366466181166313
0.999339249602448465
0.997816519882837261
0.883634777314741493
0.686411589919851961
0.999999984051600732
0.99999997420908171
0.999999970105852176
0.999999963619058185
0.999999950346826649
0.99999992753074296
0.999999883816404811
0.999999778625496383
0.99999957546181184
0.99999920111674967
0.999998650303283054
0.999110631255010651
0.999095255476702304
0.996750660990502357
0.896590660464900879
0.672885472847256194
0.999999901378057721
0.999999851242197479
0.999999826765406885
0.999999788733928363
0.999999711411452941
0.999999568635815961
0.999999314234063075
0.999998780123203979
0.999997741888336567
0.999995810339379565
0.999992945822569368
0.999064685402562436
0.998857051009757857
0.996098381401170241
0.917230445456653332
0.659630297178011693
0.99999952734327735
0.999999326153782953
0.999999215104597328
0.999999045022820443
0.999998701880799645
0.999998055664249597
0.999996934418432959
0.999994795327598052
0.999990671355551308
0.999982896063155158
0.999971283567966385
0.998907178993296729
0.996937890439878682
0.990223800947882093
0.937933381085919837
0.65926716189106993
0.99999812493642426
0.999997444543089808
0.999997031930206726
0.999996409840058664
0.999995157516286648
0.999992796129683392
0.999988756399568857
0.999981594426148535
0.999968078361019752
0.999942256256881379
0.999903071533156718
0.998781810427200156
0.991559079183088166
0.967896858255248627
0.900342213790065959
0.647977412130731123
0.999993580403186755
0.99999156286911961
0.999990249087943872
0.999988308346396071
0.999984380400088524
0.999977031416528606
0.999964610189870928
0.999943715461961147
0.999905650004184299
0.999832151782994338
0.999717854175973031
0.999201645690069529
0.983511438887853418
0.950269869886792851
0.857402901049672095
0.609858777147658015
0.999980477620713737
0.99997509249929406
0.999971399749156609
0.999966092453621891
0.99995519255554477
0.999935031398872631
0.999901787850450363
0.999847125954814397
0.999751834172475151
0.999568185575860135
0.999273024297931967
0.998289891789811312
0.988904317783223075
0.92703554464033866
0.801939228154010864
0.690464021514907822
0.999946162750342205
0.999932982054894559
0.99992362735159257
0.999910670733252127
0.999883351718837021
0.999833443519391629
0.999753622822240895
0.999627594347412773
0.999407033407456513
0.998996733812502424
0.998312820111094124
0.996422048376929048
0.992478652589737331
0.844751757376934087
0.64331012049898384
0.613374613055791773
0.999863269201635263
0.999833267370785261
0.999811594732500697
0.999783014325300479
0.999720194695095321
0.999606908715755083
0.999432617688651659
0.9991622024482536
0.998720110521062354
0.997859595892967466
0.996423566390213455
0.992860026989992761
0.980656680120469915
0.766773486227689705
0.353060241960380439
0.48441653026197079
0.999676345355794194
0.999612150127275112
0.999565755135163547
0.999508366154013395
0.999374152233534652
0.999135614580111353
0.998784514200575568
0.998253361837574849
0.997378018336142147
0.995891135428564223
0.992983596153029779
0.987077669943299041
0.972361750632118937
0.545577495320577199
0.281615133166686127
0.52170406503928124
0.999279080934083574
0.999148938723358637
0.999056547511838144
0.998951262203330637
0.998681940580280703
0.998211631724607029
0.997554578209582266
0.996581994198921906
0.994981185174039995
0.99230820025493327
0.987629709578405013
0.977243529262095123
0.86990657829207807
0.399938635307887869
0.220041810602939703
0.475545524827180932
0.998476995451327176
0.998225824473543577
0.998054086616560698
0.997877417952075296
0.997365130355159391
0.996490008915563941
0.995341836028748261
0.993676082518576864
0.990899080536174814
0.986435274336998624
0.978485341383980023
0.964394860443687829
0.553261519536013657
0.234215900376441299
0.173781565608359001
0.458124889953796743
0.99692827485372737
0.99646649361352857
0.996168919443303658
0.995898465098945307
0.994968262763213485
0.993426166557574319
0.991547102500540234
0.988878310938146932
0.984346517083183326
0.977197274656818715
0.964700364411438804
0.945895159016823195
0.366444497401858915
0.119659346143334899
0.112175462953954266
0.452620923902130601
0.994051013484806845
0.993243946326241467
0.992763125976921623
0.992382343356992713
0.990752431101537212
0.988160319184190006
0.985274512759278132
0.981210406353507647
0.974274271302847716
0.963553798099803016
0.9441922071436335
0.922509197485691046
0.218166586649147565
0.046348926935716489
0.0476013193596171377
0.406279993699729114
0.999999999743625634
0.999999999729319189
0.999999999620795332
0.999999999482506174
0.999999999364556413
0.999999999153147634
0.999999998735909612
0.999999997895297255
0.99999999623218494
0.999999993171376111
0.999999987604722529
0.999926805245086481
0.999903742772765947
0.999688227130010709
0.923466388333933796
0.689207097583085737
0.999999999733080291
0.999999999637241732
0.999999999513369264
0.999999999423496932
0.999999999272219275
0.999999999173988519
0.999999998446257976
0.999999996529913115
0.999999993247057462
0.99999998761471165
0.999999978897023079
0.999868451194673602
0.999784327855433697
0.999188544995943007
0.944398498478883575
0.686640190987588328
0.999999998284548886
0.999999997131540863
0.99999999679516427
0.999999996100291777
0.999999994544022552
0.999999992455600006
0.999999987214611696
0.999999972329980835
0.999999945587469186
0.999999900861694546
0.999999842441924969
0.999507119852971249
0.999300955754178544
0.997567241160877582
0.910033835953871773
0.673021330212258739
0.999999985027111515
0.999999976676627989
0.999999973841450007
0.999999967613825813
0.999999953363200023
0.999999928791948989
0.999999882862579126
0.9999997768588752
0.999999584134980024
0.999999252206528855
0.999998816682765912
0.999368942549211159
0.999114977049794906
0.997069926508374893
0.890917278764797205
0.659680877238545738
0.99999990708626596
0.999999865284683653
0.999999848539100622
0.999999810884088625
0.999999725415582463
0.999999570360520007
0.999999299387774432
0.99999874939775224
0.999997748717006196
0.999996011365467341
0.999993697825998784
0.999187750887539972
0.999111271941255596
0.996685152122040452
0.927400577572132678
0.642836443508775668
0.999999553245056294
0.999999388998365824
0.999999314412316709
0.99999913976847199
0.999998747650355568
0.999998035140297059
0.999996823011296554
0.999994577814416141
0.999990548860555606
0.999983472926860184
0.999973914821382537
0.999079231863170047
0.999013551611940054
0.978749868855916416
0.949284364012965565
0.625136635524544904
0.999998222125608294
0.999997680681819934
0.999997410715966151
0.999996743270820776
0.999995259277067117
0.999992611236900086
0.999988171992907571
0.999980524995806586
0.999967197176985234
0.999943487257596519
0.999910669592731449
0.998962999794776874
0.992051960270647237
0.960810148841075073
0.904468841972186244
0.595421645578255276
0.999993895013199907
0.99999233775437335
0.999991506893613713
0.999989310240742446
0.999984470965168515
0.999976096023978744
0.999962238534863324
0.999939529915498948
0.99990185771679152
0.999834015636595463
0.999736693010959687
0.999309307370088828
0.983288927512858568
0.947961699797177038
0.859102752835395389
0.580265251786306835
0.999981381623882948
0.999977373161607064
0.999975134793910869
0.9999687218616784
0.99995473025853554
0.999931421170715984
0.99989350676553812
0.999834234002236477
0.9997392248648036
0.999569642930005386
0.999314403273895424
0.99837329649547768
0.98889844216186229
0.930899961718949509
0.851162430358834543
0.634430984273566367
0.999948517189442221
0.999939119172960522
0.999933735878215546
0.999916771906769863
0.999880179047798689
0.999821747326779198
0.999728983664066595
0.999588899318065049
0.999380428944209864
0.998994516087980289
0.998393897878974368
0.996633512182847792
0.992895381653420506
0.852541139072337306
0.706645699987731746
0.603098166932200419
0.999868914971141498
0.999848587432103475
0.99983687725155157
0.999795563276900667
0.999707692056157948
0.999573793846200376
0.999366778153093938
0.99906478579887037
0.998643812563491995
0.997890861964220388
0.996562660828133273
0.993160702435953002
0.961877331604195307
0.798462069888424608
0.372895453727870807
0.467779452858510025
0.99968896663857465
0.999648030522600983
0.999624796275105587
0.99953101211342732
0.999334993981449871
0.999051544480280107
0.998624866389463461
0.998030970477909563
0.997221540580832455
0.995882940977856679
0.993336579661568297
0.987332000874837634
0.964194846129088901
0.579573495380845793
0.288019143080116891
0.446257703271572215
0.999305671075388702
0.999228481071895214
0.999186231161525718
0.99898584184474204
0.998575797819266309
0.998016787504918179
0.997199521432303948
0.996120087142135624
0.994698708931471387
0.992286774855873466
0.987955774296032874
0.977963581630248546
0.888296845903718602
0.449610947110468007
0.228309396476446741
0.471862745448982379
0.998530338148981844
0.998393867215271902
0.998323334808310259
0.997917010232250101
0.997106435404456093
0.996073518272336589
0.994610175671133634
0.992796083121116002
0.990448518529017496
0.986436806599088722
0.978832063396936292
0.964792519245495805
0.567898547327819858
0.28310517198060231
0.184004447280318006
0.392134197809489105
0.997031303268637537
0.9968063717309259
0.996698758245973648
0.995912427976741954
0.994390100820619738
0.992599862443423353
0.990146268855337963
0.987321048320199512
0.983694045200437794
0.977279047935802447
0.965080184438457445
0.945782663569067594
0.407194579035833892
0.126160966431397792
0.124427797147953323
0.394366707446689502
0.994245168918770572
0.993903860990329902
0.993752623920597378
0.992286853910294808
0.98954965427942243
0.986631040566799067
0.982768364085905732
0.978645537463014525
0.973403238608435695
0.96365194362019202
0.944590401765798893
0.921937382294292673
0.222811938898534678
0.0503092578947355526
0.0605411228059189593
0.34043773201895855
0.999999999744768497
0.999999999743625967
0.999999999660368455
0.999999999532684702
0.999999999414941776
0.999999999216293012
0.999999998849248062
0.999999998138169865
0.999999996762969579
0.999999994262076086
0.99999998975942106
0.999939346388484251
0.999899254632997447
0.999663612373499766
0.926204564110157502
0.681884555063062781
0.999999999746799539
0.999999999674872297
0.999999999560649444
0.999999999468402012
0.999999999320364874
0.999999999220375413
0.999999998587699057
0.999999996995763807
0.999999994321186136
0.999999989767527353
0.999999982878261306
0.999797029174578356
0.999760541901866029
0.999126638965523783
0.970035842071712784
0.689191988861645677
0.999999998529631617
0.999999997474473101
0.999999997063328872
0.999999996343177378
0.999999994941305648
0.999999993135412768
0.999999988652679361
0.99999997637185023
0.999999954593769447
0.999999918260263021
0.999999873304161291
0.999110166682390055
0.997538160111898664
0.996878684781670188
0.951118610282309929
0.68163733937811799
0.999999987257403244
0.999999979466072331
0.999999975882251646
0.999999969464583249
0.999999956860445072
0.999999935926160766
0.999999897259140846
0.999999809190589839
0.999999649798417156
0.99999937360906177
0.999999029356043789
0.999033498741606518
0.996937545487197707
0.995621074800907557
0.942622301088371417
0.673017310613811537
0.999999921005752301
0.999999881216057429
0.999999859497729959
0.999999820746891532
0.999999746113619192
0.99999961472240384
0.999999387724655353
0.999998927863570808
0.999998084606616322
0.999996601850397959
0.999994716755505442
0.999030596715017705
0.996838839990299763
0.978802272109987825
0.953220008509079841
0.668778621230725068
0.999999620617848306
0.999999460436554521
0.999999360125998882
0.999999180560761203
0.999998842714649561
0.999998241551038225
0.999997228433776142
0.999995338023117575
0.999991874398674874
0.999985680624001727
0.999977670896297521
0.998907292286428272
0.996573213666409163
0.966570452994072515
0.93873364513524904
0.725410363673723246
0.999998492648426995
0.999997948788200919
0.999997568753533184
0.999996883590206331
0.999995623696077196
0.999993396780274213
0.999989697269080269
0.999983209306106624
0.999971494923026394
0.999950201638884373
0.999921988968956565
0.99877200379580533
0.989654304425764852
0.957244160156591195
0.867434065285043077
0.820808155803591677
0.999994834538409316
0.999993213137905013
0.999991977487694528
0.999989729322700027
0.999985687258240885
0.999978659356065225
0.999967105048819249
0.999947782647723327
0.999913787676255161
0.999851211271066131
0.999765606623204572
0.999203231854496332
0.983224195202378581
0.953571750378458427
0.836143111339515244
0.578491332517787948
0.999984284453208305
0.999979924975997969
0.999976373649230643
0.999969841765815715
0.999958363150791785
0.999938838833507981
0.999907393805835598
0.999855730159772138
0.999768873302788519
0.999607421341973446
0.999378277923730574
0.998501612276200268
0.981943789857861238
0.925975962937361396
0.882513389432083795
0.689512635736831636
0.999956655171997166
0.999945882658363372
0.99993667241377171
0.999919509590266653
0.999890074558231423
0.999841211750853165
0.999764395522759974
0.999642833564465372
0.999437830824147166
0.999069577343556503
0.998518172382783176
0.996865734861678288
0.993360629028887443
0.890698162978072472
0.758555656000104328
0.601541700591021078
0.999889915256594541
0.999865102247140869
0.999843227623657627
0.999801788523065671
0.999732626939159985
0.999620752115828681
0.999450212376175706
0.999182235451668621
0.998767944612289571
0.99798092403368166
0.996790787348327489
0.993534290137307652
0.958673069089233998
0.81184059536165365
0.525909099646162725
0.543487321940967494
0.999739382718995095
0.999685536060989199
0.999637443103006396
0.999544347030104641
0.999393802166531842
0.999156985559408573
0.998807617028686479
0.998267591565849655
0.997430274357397062
0.996062420360307788
0.993591085265344121
0.987787302624231422
0.945892101235648375
0.646096049282209428
0.293084501749115489
0.508311014341914169
0.999419172050905136
0.999308226182142656
0.999209576596354898
0.999013037989030295
0.998706934172621796
0.998239270801466239
0.997573959052575066
0.996559153559320787
0.995013441661332432
0.992494840865152606
0.988462714741588533
0.978497730802524113
0.880627826945055592
0.469060482328075568
0.231468547750835835
0.473331517221147857
0.998771351167706878
0.998553255284877928
0.998363453472047802
0.997970417932705467
0.997385580543045602
0.99651732673795923
0.995330478883913572
0.993545352462185005
0.990859882058927943
0.986608535010922716
0.979524549087522622
0.965606858129767431
0.566053124803622687
0.305775314012728061
0.19859151490602156
0.362583210038303572
0.997515851465412773
0.997106349974916428
0.996763253906428615
0.99601480564575029
0.994961389396149087
0.993438996111613903
0.991445656779858853
0.988500961673628553
0.984129410114683356
0.977291898172572226
0.965962661459360272
0.946592017158415566
0.448791768018620807
0.137576432278445321
0.137205051057319727
0.237011328597648507
0.995169359643159557
0.994435438827667939
0.993850572540094013
0.992483039410924195
0.990682560093944176
0.988137933693335357
0.984966387176607117
0.980354180292319577
0.973722232685184097
0.963274719062352847
0.945667607879892236
0.922217495015896338
0.224052021444438143
0.0569151423448383334
0.0706307786741387916
0.217091397294527144
0.999999999745911361
0.999999999742339662
0.999999999650855287
0.999999999520689187
0.999999999411162466
0.999999999230858028
0.999999998900515719
0.999999998265653556
0.999999997054321521
0.999999994886554333
0.999999991077075601
0.999893428068468926
0.99985473182938267
0.999573421524818428
0.898080301224453148
0.678673812365842899
0.99999999974549747
0.999999999665397654
0.999999999548020324
0.999999999461670841
0.999999999325464017
0.999999999235721582
0.999999998639788057
0.999999997234461535
0.999999994929031022
0.999999991082747175
0.999999985401626379
0.999709336805546966
0.999699153744260105
0.998975779215543591
0.951607999950922823
0.68188222377717822
0.999999998482395291
0.999999997357157611
0.999999996994380691
0.999999996361607302
0.999999995089177363
0.99999999346646562
0.999999989321707305
0.999999978401719058
0.999999959725187293
0.999999929375384844
0.999999893386368521
0.999012827627212885
0.996298639360737259
0.994436480968832193
0.936685285458789263
0.689606326890795263
0.999999986785749528
0.999999978420109903
0.999999975314933787
0.999999969717586756
0.999999958320133331
0.999999939434857321
0.999999904466542633
0.999999825919228091
0.999999687392645997
0.999999452642757469
0.999999171463192948
0.998898002340399604
0.996599061767290184
0.978472315752158206
0.967434716283589125
0.692514902883582861
0.999999917786454584
0.999999874716038462
0.999999856121938313
0.999999822538542471
0.999999755190934203
0.999999636522391433
0.99999943230645072
0.999999020594973698
0.999998278260800011
0.999996994721777055
0.999995417144474708
0.998843457660525735
0.995967503298959667
0.971927296750044301
0.938175217776923365
0.760001723547009234
0.999999603667574899
0.999999428887640374
0.99999934438264193
0.999999189913070907
0.999998885478218025
0.999998342512791072
0.999997431495953992
0.999995731471849503
0.999992643161688788
0.999987192132657743
0.999980335604753412
0.998595618944787544
0.993768298701507957
0.962549236825721355
0.934036060565327064
0.902997507259009291
0.99999841910291476
0.999997821341805482
0.999997507540213437
0.999996923218253286
0.999995788960096332
0.999993777891551083
0.999990451936734415
0.999984588589924783
0.999974008924312763
0.999954982318541408
0.99993033513176921
0.998117736846580672
0.98829993554693063
0.954108627756361183
0.882448049480030527
0.805632242398992116
0.999994560447217129
0.999992767760238599
0.999991770853102757
0.999989873020861508
0.999986235903513876
0.999979883429159
0.999969508946430219
0.999951963111824327
0.999920895572833146
0.999864150838469801
0.999787969319457015
0.997749193753619812
0.986239682651839145
0.955338171304633166
0.855857966604261389
0.572618918616840666
0.999983381911894842
0.99997854260343999
0.999975749486185617
0.999970302480179596
0.999959974208098012
0.999942308968381099
0.999913947982168372
0.999867229321268924
0.999786536205879206
0.999638277821480958
0.999430610812559239
0.998614756878168364
0.98400834058108877
0.924853717989130741
0.919407190838079313
0.604363928090340563
0.999953976326499516
0.99994199916082116
0.999934944945489956
0.999920847243859878
0.999894344668547763
0.999850152145943527
0.999780634878018715
0.999668817353798644
0.999480003423521168
0.999133007850693033
0.998627090087470304
0.99694442677203543
0.979902419204702779
0.914316856855242444
0.792069649520845132
0.625300374178258234
0.999882642016680423
0.999855087854866764
0.999838764275616687
0.999805375281222375
0.999742995085520225
0.999641919436624837
0.999487217062500655
0.99924084947325631
0.998840459855474205
0.998111264313344737
0.996986688689576406
0.993799870954785169
0.951108877853824808
0.820925063243929443
0.596715382524165783
0.53068008067004202
0.999721115121500858
0.999661581331533045
0.999626526038077556
0.99955338479268141
0.999417119219870198
0.999203473004517173
0.998886428597985154
0.998384487831351808
0.997591011041736864
0.996210165021162553
0.993943522891808984
0.988270424877259579
0.966803726429195986
0.697965641179433827
0.304566809639561564
0.510035534696449577
0.999376354652885546
0.999254670239023701
0.999184077985502794
0.999034740043590497
0.998755871343836032
0.998335167098669873
0.997729935641364585
0.996785933907404109
0.995272294875931607
0.992888817830265502
0.988737729257823439
0.979331793055805866
0.882457118398272677
0.529340206990623563
0.244116551937926751
0.482734638224735169
0.998677035876316954
0.998440799276681723
0.998306365348994307
0.998020618271486581
0.997481711727350451
0.996705049443934454
0.995622574152773998
0.993942987798504207
0.991323868780073947
0.987071621807402821
0.980403489148773621
0.965842214992003401
0.604084545691006114
0.338830835793705043
0.221477976938272592
0.445329542594047667
0.997319536478803448
0.996884049719989118
0.996640683286967755
0.996127105117881495
0.995138193721745279
0.993789261995011275
0.991967901778424199
0.989153798497643399
0.984760567308406776
0.978258806043069473
0.966548538825639847
0.947816308229513571
0.48755593162391575
0.151122255298440589
0.167697625009662288
0.469234734216647686
0.994781584671829089
0.994021718943594701
0.993599312878765351
0.99272762170801343
0.990988669161434466
0.988768577153151473
0.985856936394684302
0.981382351819425458
0.974421756924300775
0.964347848133365382
0.947291804556035677
0.919546177553311361
0.256373680615205324
0.0674502424653931204
0.101236764319428227
0.412666771221614992
0.999999999749566326
0.999999999745911583
0.999999999657720684
0.999999999521483218
0.999999999398929029
0.999999999205246293
0.999999998868279505
0.999999998242656396
0.999999997077852143
0.999999995048368451
0.999999991584113235
0.99990129492139268
0.999866644952644545
0.999603248080363604
0.899385989367460947
0.675622878289989126
0.999999999748894863
0.999999999671915663
0.999999999548905727
0.999999999450260746
0.999999999299517106
0.999999999234487236
0.999999998541271307
0.999999997208432911
0.999999995077491821
0.999999991587700365
0.999999986604440227
0.999727698052693015
0.999630899819357044
0.999036880200422472
0.955097494164413141
0.678673365186692745
0.999999998537904666
0.999999997406668228
0.999999996945450276
0.999999996211548003
0.999999994876767939
0.999999993280093591
0.999999989305124126
0.99999997847646227
0.999999961419707928
0.999999934525340306
0.999999904717730592
0.998999194257171874
0.995906999631206213
0.992663245988501863
0.936549512744340729
0.691417463143615185
0.99999998728685735
0.999999978784339105
0.99999997473918234
0.999999968240048442
0.999999956402252588
0.999999937803627503
0.999999903483750008
0.999999828127366097
0.999999699482901461
0.999999489648327411
0.999999254926919323
0.998885336498883114
0.996084159534057489
0.986630979738052027
0.908505772510020515
0.706051212919305615
0.999999920939914189
0.999999876504243268
0.999999851767001791
0.9999998126464269
0.999999743170410627
0.999999626404485364
0.999999426806909231
0.999999028389150668
0.999998336047135172
0.999997179987644813
0.999995841045705269
0.998856626287212723
0.9952079354341965
0.970878730161827797
0.913827054581144882
0.783205512041277974
0.999999619286511043
0.999999435528273306
0.999999320123303947
0.999999139450893137
0.999998828017318653
0.999998295220214439
0.999997404325402739
0.999995752717211084
0.999992848752167207
0.999987910134601865
0.999981991242741675
0.998646890876809801
0.993540699508490999
0.964366992941973145
0.944427032326401794
0.902670522659620111
0.999998484154154488
0.999997840807177907
0.999997399346291171
0.999996713037989648
0.999995565263729014
0.999993598847395471
0.999990337819052666
0.999984620554521419
0.9999746141226179
0.999957285102821114
0.999935614706032538
0.998206113526976968
0.987969187191597986
0.95321284018486574
0.879461091177791143
0.832267417648657193
0.999994797306350103
0.999992812048707824
0.999991364309372077
0.999989125983358207
0.999985497330357798
0.999979310103174202
0.999969087941860124
0.999951932948435207
0.999922444351307282
0.999870543877861673
0.999802216878619365
0.997899113366536028
0.984688141331348632
0.961261175593827177
0.835893970724825963
0.572618918616840666
0.999984154953510229
0.999978609349212455
0.999974420120224305
0.99996796717451808
0.999957850014393745
0.999940709551708773
0.999912542858199194
0.999866672433726289
0.999790224815154449
0.999654118606796871
0.999463848532334942
0.998683791609073168
0.983258045692842142
0.930993943235147503
0.909696353616979314
0.595912521046993549
0.999956274795964939
0.999941988644928448
0.999931078704259457
0.999914282823084588
0.999888928287278711
0.999846162213228862
0.999776709308932476
0.999665736016247308
0.999487121066593431
0.999169399035797601
0.998693980984155072
0.997065862647293466
0.981983517968210151
0.923250913537339013
0.825521663569108277
0.656061875541877448
0.999888937717241744
0.999854535425971025
0.999828612178075504
0.999788497023208045
0.999730613607907048
0.99963285689671677
0.999476853686798394
0.999233594610408726
0.998850529012365262
0.998180858243930991
0.997104892451500024
0.993982941987451407
0.94730627559715197
0.842286365232550183
0.622813144852133793
0.578625374663528369
0.999737125848205288
0.999658942395557304
0.999602210848508532
0.999513130934156724
0.999391606713357694
0.999184321816159793
0.998861244068387388
0.998365796309545583
0.997626768506687744
0.996325159384523706
0.994095556976556938
0.988523454470858209
0.964756470847498271
0.714891532329002821
0.305803034198410928
0.430752572544030543
0.999414364245597264
0.999245667354038636
0.999130607991852493
0.998944598737860789
0.99870846495765031
0.99829666238227055
0.99767355402140212
0.996741482923955369
0.995361192182871113
0.993159676484519194
0.988844289289895761
0.97952257801938547
0.897019065295628693
0.543614073625261707
0.245841629839917808
0.475981508743702542
0.998761564512105959
0.998415065501027543
0.998198045225350938
0.997828907695047729
0.997402684271328388
0.996629633289003891
0.995505197456564961
0.993860791059606008
0.991474901091476513
0.987669211109146405
0.980600602669845722
0.965723511068506957
0.65201541230203941
0.370601387427750451
0.226337637568078315
0.453096794063350683
0.997495917194941795
0.996819137245320119
0.996438530277247048
0.995735443343831572
0.995021357422644526
0.993642171793368112
0.9917430299291905
0.989018946873149729
0.985090876229968382
0.979017041601703442
0.967135068858033131
0.947557145730353656
0.516359285241710486
0.156222042254496041
0.181740114586023738
0.469234734216647742
0.995126766852512668
0.993873671706672734
0.993252031581679518
0.991949646527962248
0.990839114032912804
0.988481451614863227
0.98546688450266906
0.981198439687243296
0.97504643581625805
0.965630726376933146
0.947254615032550928
0.922083912776280767
0.27110591703338166
0.0703879482636262516
0.128196953526963836
0.446735183875549002
0.99999999975322118
0.999999999745035395
0.999999999661487116
0.999999999548935037
0.999999999443092813
0.999999999259517658
0.999999998937718848
0.999999998353258812
0.999999997278044672
0.999999995403132669
0.999999992173145724
0.999875792318046575
0.999840233227908382
0.99956998823449128
0.892842907070114711
0.673760822404455006
0.999999999747992252
0.999999999674240247
0.99999999957322272
0.999999999489884828
0.999999999345614787
0.999999999282176422
0.999999998609368723
0.999999997355590864
0.99999999541807405
0.999999992175048535
0.999999987556088987
0.999709568725459796
0.998697412099415649
0.998606483011663215
0.961140901572702488
0.675622732675254634
0.999999998446571503
0.999999997517596717
0.999999997194450652
0.999999996473881492
0.999999995144055909
0.999999993644798413
0.999999989874565953
0.999999979808187334
0.999999963948891679
0.999999938590474646
0.999999911455170754
0.998987685657661162
0.995607204190037676
0.991478418971466491
0.946103906956607066
0.690328804344549907
0.99999998640568688
0.999999979762710378
0.999999976902790078
0.999999970308495634
0.999999958448965054
0.999999941004229953
0.99999990920883608
0.999999838525982954
0.999999717012657885
0.999999514794995159
0.999999296907039925
0.99886886421767862
0.995984636219134356
0.989357284269667403
0.895853755611904168
0.708271829309975454
0.999999915097326775
0.999999882509494009
0.999999864769549496
0.999999823979447644
0.999999753902544253
0.999999644640415575
0.999999461021787717
0.999999084521775217
0.999998417489518232
0.999997280314282588
0.999996010089110321
0.998862605851702501
0.994661987518565383
0.970332703292949739
0.908885000018720968
0.773526071352020894
0.999999589119143995
0.999999464570636487
0.999999380779445834
0.999999187073046025
0.999998871060217676
0.999998374953904312
0.999997557159754358
0.999995982273087947
0.99999313062612627
0.999988172169001155
0.999982448600898133
0.998698966410694444
0.993797297424983572
0.965356232733320496
0.947746716913181242
0.843078095548933204
0.999998354785152976
0.999997959105641709
0.999997633999664348
0.999996876926306344
0.999995706922651939
0.999993888845947754
0.999990895857627349
0.999985385824968764
0.999975369090992272
0.999957615326102722
0.999936320516032318
0.998339354703895121
0.988389746837982974
0.952823665830272892