/*--------------------------------*- C++ -*----------------------------------*\
| =========                 |                                                 |
| \\      /  F ield         | OpenFOAM: The Open Source CFD Toolbox           |
|  \\    /   O peration     | Version:  2206                                  |
|   \\  /    A nd           | Website:  www.openfoam.com                      |
|    \\/     M anipulation  |                                                 |
\*---------------------------------------------------------------------------*/
FoamFile
{
    version     2.0;
    format      ascii;
    arch        "LSB;label=32;scalar=64";
    class       volVectorField;
    location    "0.179999999999999993";
    object      faceTraction;
}
// * * * * * * * * * * * * * * * * * * * * * * * * * * * * * * * * * * * * * //

dimensions      [1 -1 -2 0 0 0 0];

internalField   uniform (0 0 0);

boundaryField
{
    inlet
    {
        type            calculated;
        value           uniform (0 0 0);
    }
    outlet
    {
        type            calculated;
        value           uniform (0 0 0);
    }
    top
    {
        type            calculated;
        value           uniform (0 0 0);
    }
    bottom
    {
        type            calculated;
        value           uniform (0 0 0);
    }
    left
    {
        type            calculated;
        value           uniform (0 0 0);
    }
    symmetry
    {
        type            symmetryPlane;
    }
    interface
    {
        type            calculated;
        value           nonuniform List<vector> 
352
(
(2367.20925762925026 -0.0422946861320383713 -0.0441336005576360088)
(2274.7912801607622 0.00873227195465515853 -0.0461478924794099105)
(2106.72253350732763 0.0227625702654093084 -0.0457410334311655759)
(1884.62296786567163 0.0309040786219315355 -0.0455466150641163012)
(1633.46817358912085 0.038847204482359593 -0.0457353693308258577)
(1383.45206332078237 0.043858938770127108 -0.0434714293107200042)
(1156.32624030875149 0.0446936403650634029 -0.0394945637529953222)
(962.216230057763141 0.0484901094079716877 -0.0393930373876437839)
(794.181613776511995 0.0570487207535656793 -0.0418874869483895976)
(653.760801485283196 0.0606285759370477073 -0.0395856329803535231)
(524.551078491107432 0.0589581627146517837 -0.03433212547695072)
(403.319252570991182 0.0571040684835270179 -0.0298944849896559985)
(295.994872329310965 0.0543138914165974609 -0.0258716308919035437)
(205.893526998420725 0.0466544099858593742 -0.0205178787960528519)
(137.620093354613317 0.0232553200955148108 -0.00959471534690647943)
(87.8848276990602955 0.0300666971433932138 -0.0118190766920728673)
(2847.68861130235291 -0.00984877921227953271 -0.0247007239887840971)
(2726.91332949230082 0.0135782013072292956 -0.029970569843746301)
(2526.8372976007463 0.0233272076818062703 -0.0289770917678571979)
(2273.12544843632304 0.0312608933256288274 -0.0275104270455431635)
(1995.02843223846526 0.0379443258092495225 -0.0260707143086856205)
(1720.11465304162766 0.0433687142927248886 -0.0249244816394279325)
(1465.20793322470672 0.0477203387264951984 -0.0242502545858160959)
(1239.47666263390352 0.0512069915104364504 -0.0238497644482109326)
(1043.79025531195362 0.0597848331059280744 -0.0259776923366769677)
(868.944313469772396 0.0652399362654780962 -0.0263444680460852149)
(701.424712968487597 0.0658664010032177921 -0.0246590372603483834)
(542.315511055085835 0.0599653094703846146 -0.0207755105771925234)
(404.277846324689335 0.0445270436308188508 -0.0143426149418212235)
(289.663800601011189 0.0357314129131634656 -0.0107997590238265977)
(195.314490109902806 0.030684298268123078 -0.00874085851244804646)
(120.893061350961716 0.0303265213699054383 -0.00811298724501459054)
(3112.4991481752304 -0.0125211008945152746 -0.0188452890275037088)
(2983.96597172809925 0.0144684090509282302 -0.0213897808957685363)
(2776.7060454164648 0.025177414713856202 -0.0213269452807363022)
(2515.22137648040189 0.0337850065605480587 -0.0210037321989788098)
(2223.80487273128074 0.0448509280824675449 -0.0221177723937858901)
(1931.22379197906776 0.0534868751387442068 -0.0221194480107035907)
(1666.81335450314077 0.0505488973654367041 -0.0185623663625229703)
(1427.91164341790068 0.0534618852353780927 -0.01797353036077666)
(1204.79628358136438 0.0564202250725268917 -0.0173903718698953103)
(1001.61911639349 0.0585173925820838478 -0.0164425473000750152)
(814.477334550587216 0.0641110505057109759 -0.0166382988242856911)
(637.394492971386398 0.0590158198308959395 -0.0143963771874870018)
(480.836272930049574 0.0470359293586254321 -0.0108450986261481846)
(349.272609371750548 0.0410701966411741795 -0.00897683265395673828)
(237.057849010074847 0.0414074135210220698 -0.00857139762263700415)
(142.864546168675332 0.0412695853276735594 -0.00812781529157476264)
(3261.72760533199744 -0.0122373440000404198 -0.0110142597111761789)
(3135.50698340559211 0.0152384150659405151 -0.0152927947034553254)
(2924.98817198258075 0.028563183130756134 -0.0162799026587510456)
(2649.89054420068169 0.0435011266986457534 -0.0176533775755637855)
(2336.73747199871332 0.0530601576229668206 -0.0167135462847674311)
(2028.73100269868905 0.0618071952873352273 -0.0159779018175453466)
(1761.61419583774477 0.0530207616700276788 -0.0120611944638390148)
(1520.24614487539111 0.0550946801304986467 -0.0114659458828742459)
(1286.65693858177951 0.0581311515327584474 -0.0111703684711670428)
(1069.35551294457423 0.0611789481619223821 -0.0108710215939285919)
(874.482481325776348 0.0611592513816976227 -0.0101990404798823452)
(693.231573334424183 0.0635315451035879247 -0.0101317214538061105)
(526.570452089614946 0.0633621503329532543 -0.00967165559818205199)
(382.342877749272532 0.0533399896241669308 -0.00777599968528455351)
(260.711091844896202 0.0418547872161755055 -0.00581444213832254218)
(159.779083035136807 0.0342151814267126417 -0.00460216767586430885)
(3358.24255460511131 -0.0122082351535650994 -0.00918911826525201786)
(3230.57957585376244 0.0156885910151142553 -0.0106751521871000302)
(3017.34172580928634 0.0296605838001394034 -0.0112168347685910001)
(2735.63541690271131 0.0441349886711712228 -0.0118923630452076306)
(2415.41222135837143 0.059382025496700519 -0.0123636619267729862)
(2103.63678591502821 0.0661421963657531226 -0.0114245631999275801)
(1833.23477464666848 0.0547269481172017805 -0.00834861540457826866)
(1584.84423480646069 0.0583025721488396112 -0.00809793734052532098)
(1342.4873255758755 0.0608071212593013014 -0.00777049771903034949)
(1119.01644482092274 0.0639552703726160438 -0.00762903821749008008)
(920.329478469132937 0.0639852341508361788 -0.00721746088410219356)
(734.526662331331522 0.0685060432530624208 -0.00735929909827574922)
(562.309481486004188 0.066424033810938532 -0.00681097284184757103)
(411.750597952045268 0.0600693996597652866 -0.00595655797959514406)
(284.321126882531416 0.0434434587664350169 -0.00421638970835011735)
(178.666553988005546 0.0317386204841884553 -0.00308417159711601606)
(3417.04503410393545 -0.0109450159783979987 -0.00515230929792041391)
(3291.46074915962208 0.0159401537531432616 -0.0073054230158805895)
(3076.74761149123151 0.0304957715860609685 -0.00784192119629036066)
(2789.32043149931542 0.0432540333383523642 -0.0076944806655477125)
(2464.55278260648311 0.0623615040460242798 -0.00805672798682534157)
(2149.89009002033163 0.0696828593291934362 -0.00713190053313124059)
(1875.49169736571389 0.058869851298092718 -0.00523775297116244997)
(1622.3693003599351 0.0579787738842385478 -0.00469795869922725109)
(1376.22924223933114 0.060848856441317635 -0.00457626538408487799)
(1150.83324210089631 0.0653406628829130004 -0.00461047452167101957)
(950.220942091630377 0.0645207817002264317 -0.00427628531331379191)
(760.795921378486355 0.0708550323223321454 -0.00443181946511642458)
(584.575833418638581 0.0681801153956715644 -0.00405849974254157263)
(432.815219719393554 0.0511967696040163608 -0.00297466806062893566)
(304.806944252146081 0.0444839066490430937 -0.00258432382873871169)
(196.126151256073712 0.0404024761069350785 -0.00238193831711592825)
(3458.55618835839232 -0.0107520226289283208 -0.00310128501469583533)
(3336.17335220506538 0.0156243070733029614 -0.00433550150231996976)
(3120.47904681935734 0.0334926850404272738 -0.0049372967011583075)
(2822.13632556608718 0.0523475866880967061 -0.00487137094428401977)
(2485.24483742166285 0.0706614660382439697 -0.0041016132716543063)
(2171.61943013422388 0.069190575418792491 -0.00302040664545466042)
(1902.5891760120071 0.0579357752250894351 -0.00245169617952929611)
(1645.70686513123155 0.0599898365899377284 -0.00257163526566809176)
(1392.54717547808877 0.062219228662282175 -0.00263803267161662712)
(1164.44109940634098 0.0650052499586293298 -0.00254574526364076273)
(965.655806292948796 0.0661607556609943304 -0.00221358846206365064)
(779.135113177993389 0.0723836760516815003 -0.00206181742897185985)
(603.606182076388336 0.0697603384525601611 -0.00175297507587835258)
(450.914448577269809 0.0535904319899222006 -0.00128664879136912371)
(321.077887748246667 0.0467524475054425584 -0.00114122203307253159)
(211.177518400740666 0.0455584143948823614 -0.0011692730361496258)
(3478.71253781054656 -0.0106512005710328057 -0.00101031752972807233)
(3358.69774440417359 0.0154943243278395822 -0.00135853692363127956)
(3137.56089018436978 0.0383225380133422888 -0.00166165142732991765)
(2821.96626152810086 0.0623050359580216151 -0.00143401681886694125)
(2480.30665148001981 0.0697678907944841997 -0.000778562911357169748)
(2191.24722280797414 0.0557777267445732777 -0.000546206069977252869)
(1936.73387103185883 0.057375095015938557 -0.000723087085402937296)
(1671.1922803545956 0.0604538472878209665 -0.000897872123175764373)
(1405.57877374024747 0.06402366777459087 -0.00100475825886193874)
(1166.54257814068774 0.0674656362811129895 -0.000963360449553514768)
(961.981824672051289 0.0797495974163385107 -0.000819173309230912874)
(778.065384896892169 0.0822990405183391255 -0.000515087302934431348)
(607.233534063474508 0.0721853097166066104 -0.000279637090541293327)
(458.987807732984209 0.0529591092956096382 -0.000165709547293959686)
(330.451275265151196 0.0500280552459723138 -0.000164377399748991479)
(219.254640108056918 0.0485634699493602204 -0.000181299131286168514)
(0.134101394890601605 0.0354609813648587638 -404.416261141303551)
(0.12831876976872314 0.00900101883969845439 -466.904334610658054)
(0.119446358386889231 0.00788195919255560949 -402.417450150998718)
(0.109356866685722337 0.00976934606812734571 -300.017687002601804)
(0.0802311541822651186 0.0122895119621123042 -209.37076035659922)
(0.0554746815799410098 0.0140999350268484931 -148.06242650016307)
(0.0146683055897063718 0.00550566236365562182 -93.5006452272018578)
(-0.000633723909787580332 -0.000326835626936361208 -26.4822091522988181)
(-0.000711816738403643775 -0.000695523206838911316 -8.51284167090333987)
(-0.000349794758947202832 -0.000533051908676298366 -8.39706337375348433)
(0.00404582370110662202 0.00735266474818576515 -8.66426018102095874)
(-0.00545805831782402318 -0.0104811681290414398 -7.45296728688929022)
(-0.00144700456192451712 -0.00323568519796649983 -7.15715047121849146)
(-0.000561188245191032416 -0.0015158953213258526 -7.76580848685032965)
(-4.03056111658469022e-05 -0.000133082803786907256 -7.57813610218799116)
(0.000116538989197185564 0.000447694331729229643 -8.38287669800518387)
(0.103499685618790402 0.0287875591317995651 -159.014923944470809)
(0.100536464655330046 0.0012238662160182043 -159.718522867078661)
(0.036394470850842367 -0.00474230986116569355 -99.4722413371837462)
(0.00647192328071783014 -0.00131592831375718523 -41.7293688802670886)
(3.80358784459712283e-05 -1.79246574980422478e-05 -10.9493868973456117)
(-2.04015544871225108e-05 -1.46971009209523304e-05 -4.51397921499445065)
(4.17861612985494777e-05 2.07691264979434547e-05 -3.10842025318252668)
(-3.14969581166336368e-05 -7.4488775015819764e-06 -4.02520468991997671)
(-0.000189265995648393197 -1.11180920350318471e-06 -4.90398015989553038)
(-0.000241684595049919778 -2.49666952966012401e-05 -5.37153898100709881)
(-0.000221972749159538111 -3.38093697220399244e-05 -5.64302243028458328)
(-0.000202808282985635346 -3.73575835504816469e-05 -5.71979727914871994)
(-0.000190098675114735148 -3.85198395768744553e-05 -5.81209197299389579)
(-0.000182998514886569983 -4.13916227309741314e-05 -5.92621602038631146)
(-0.000182343251764937063 -4.47021018699151861e-05 -5.99142315371331957)
(-0.000180111727945339584 -4.1818648771209991e-05 -6.02722110623154084)
(0.070254633734414762 0.0176907847313273123 76.6604669231397651)
(0.0383579017609373754 -0.00269599876080071953 28.8824957440432577)
(0.00150863226531246426 -0.00102077289836116137 2.95648486047749293)
(-0.000105441700491031712 -6.61964339918211464e-05 -3.37553469822105257)
(-0.000177567255102494849 -7.39041297661216009e-06 -3.30872877960581491)
(-0.000151952785459346799 -3.08280472676664759e-05 -3.05903785141530937)
(-0.000147942656944614323 -3.05265283440723419e-05 -3.172400999054108)
(-0.000142851124377572794 9.69472234629778128e-06 -3.70133737277922936)
(-8.35010908121345988e-05 3.04872803713315841e-05 -4.37176903188040455)
(-0.000128637434650791699 3.44975143215375087e-06 -4.84434199847345059)
(-0.000131873144795445995 -5.50673648709409186e-06 -5.21138835708995707)
(-0.000133540721843201612 -1.42754023502309554e-05 -5.42566841063275795)
(-0.000130095528879524912 -2.16124596193828863e-05 -5.56116396641426469)
(-0.000124437607350108385 -3.18963819719659327e-05 -5.64766862590267138)
(-0.000120737222450521375 -4.03244203364621181e-05 -5.70985675291939376)
(-0.000124014068052150485 -3.05149042719471402e-05 -5.67328790808043504)
(0.0211911830077343016 0.00360940137771521884 41.5830390867910253)
(0.00447970734580661369 -0.000266380720350365167 13.3226482039870309)
(2.13196513128756319e-05 -9.22674144993103254e-05 -0.397428874864766579)
(-9.47612831286340457e-05 2.27925675759201496e-05 -3.30963950438208077)
(-7.63463274767455131e-05 1.6863821723559325e-05 -3.51688468434869428)
(-8.57351006607404224e-05 1.24521026436402003e-05 -3.41906490303057309)
(-8.59927360202130108e-05 2.75468382422052554e-05 -3.51795156932170272)
(-9.63958815338069306e-05 1.58777220671823054e-05 -3.70363721491841691)
(-0.000108155109718230714 1.31895079635764994e-06 -3.86327746265710914)
(-0.000112442544929552659 -6.18713423641731843e-06 -4.0444363207996199)
(-0.000115809128207524555 -6.9396288297312934e-06 -4.21372476756840353)
(-0.000115821574668222908 -1.008030342911122e-05 -4.36683293764987024)
(-0.000115704946474075874 -1.40801949418718854e-05 -4.48732867734024943)
(-0.000114056276303474478 -1.70887929582211966e-05 -4.5675540828808181)
(-0.000110603612042847675 -2.20387688162593481e-05 -4.6010734843166885)
(-0.000104413445589269832 -2.58558873543494355e-05 -4.59712464858735448)
(1.23923950986616638 2.07966087675260526e-05 -2.15914718601534255e-05)
(1.19146079094678425 -2.02461077149050181e-05 -6.83852788924297954e-06)
(1.32256687013898544 5.56552441857249408e-06 -3.69648909260046022e-05)
(1.47198189889928943 9.60416045425805134e-06 -4.5773751736652565e-05)
(1.63712490146098189 1.14007654099454001e-05 -4.8744870251104448e-05)
(1.82596211633027905 1.24440750068869182e-05 -4.95903463776932763e-05)
(2.01469826685063058 1.08640213890961349e-05 -5.11123558171138994e-05)
(2.18790555044975532 8.26828832273282992e-06 -5.05160590369511857e-05)
(2.35160640495158102 6.64632261886193299e-06 -4.839444577841687e-05)
(2.51351462501479839 6.15741270801381474e-06 -4.63849599664248078e-05)
(2.67204818701198921 6.08207764540134526e-06 -4.38726635240476053e-05)
(2.82673979638331696 6.46212666941246397e-06 -4.07723340108011225e-05)
(2.97949771879482794 7.28494119380390896e-06 -3.67448359766267622e-05)
(3.13150094648534161 9.06884918183412405e-06 -3.1630136920132486e-05)
(3.29805066406595637 1.2346768669233094e-05 -2.51259285229672415e-05)
(3.48299968676365568 1.78652267095028071e-05 -1.83410436339449504e-05)
(1.10210363572912495 -5.32548500093709742e-07 -3.2160477761363217e-05)
(1.20877452090250048 1.21977894734076678e-06 -2.29000902119895281e-05)
(1.32955063484219838 3.24797480501772549e-06 -1.94722302224336794e-05)
(1.4661576868325692 4.92061969009369626e-06 -1.91410309615491528e-05)
(1.60970181425509185 6.14478317986554833e-06 -2.02928420237788387e-05)
(1.75936704963953661 6.9347538225157614e-06 -2.21415818384660217e-05)
(1.91187550421742336 7.35337107286879986e-06 -2.37793208673191348e-05)
(2.06349886251849091 7.68263062794582935e-06 -2.45625145334737362e-05)
(2.2142198747619033 7.91569464241522499e-06 -2.44882852997745548e-05)
(2.36591924615587246 8.49004097067321945e-06 -2.37135523898099984e-05)
(2.51900822170624306 9.49540872379228175e-06 -2.23879605291480284e-05)
(2.67438132169932441 1.11873588347908367e-05 -2.0530436459339751e-05)
(2.83515754015283417 1.35830812089175527e-05 -1.8114104870606922e-05)
(3.00536054963306798 1.76714515055864863e-05 -1.50241764458901343e-05)
(3.20210555161956201 2.31572403187001531e-05 -1.10926359911609669e-05)
(3.43326432233505097 2.8625243473101663e-05 -6.54598836554756416e-06)
(1.06643164779579114 -5.05172428757989566e-06 -1.31325253924386536e-05)
(1.18792704809615635 1.53819909554962395e-06 -1.41150053761541147e-05)
(1.31190758140641983 2.86498736468147316e-06 -1.47248051719750343e-05)
(1.44072618539754727 4.2658973050203567e-06 -1.54425136444241051e-05)
(1.5744879435211947 5.51085880506803072e-06 -1.59522167884872903e-05)
(1.71243487413652318 6.52197815202339921e-06 -1.62998577356318503e-05)
(1.85361629993094224 7.47597665129989644e-06 -1.63693616926178172e-05)
(1.9972354129950276 8.41862564295400708e-06 -1.6131052678288159e-05)
(2.14305230688951198 9.48381123709294042e-06 -1.55930231363503605e-05)
(2.29145512102350857 1.08387847741846798e-05 -1.4730665348961027e-05)
(2.44337472116107923 1.26413940695129523e-05 -1.35261237862664652e-05)
(2.60014159662801125 1.52118596849391968e-05 -1.19813076061151633e-05)
(2.76577169356717301 1.82620475879070704e-05 -1.00767883403662175e-05)
(2.94362098557750596 2.3530563505546563e-05 -7.8948119666550256e-06)
(3.15212283318003772 2.90561749255195829e-05 -5.37640327867036996e-06)
(3.39757470960900143 3.52484675661025198e-05 -2.81422776021110771e-06)
(1.04599914668000493 -2.80196152479094137e-06 -9.20064961416914002e-06)
(1.17070320449048348 1.82473358355026144e-06 -9.60314717304812791e-06)
(1.29796367712013083 3.17231859156833739e-06 -9.33143098624299903e-06)
(1.42769538344273572 4.27495173093015797e-06 -9.3367516680082659e-06)
(1.560020614028226 5.39140587294919431e-06 -9.40869621592655129e-06)
(1.6949675091154297 6.55214062623324842e-06 -9.41322845652809691e-06)
(1.83253065866257425 7.77460433874586114e-06 -9.32252746136253739e-06)
(1.972852451905728 9.12727037648555989e-06 -9.09177997666771536e-06)
(2.11617468422109622 1.06824731600964142e-05 -8.67381604203343602e-06)
(2.26298490859018964 1.25644480623700437e-05 -8.05142594732030202e-06)
(2.41432686740834956 1.4857634742150903e-05 -7.22669098761670627e-06)
(2.57175728531288694 1.79156936773534805e-05 -6.21845142337135398e-06)
(2.73975507678530628 2.13321712665066208e-05 -5.03856802953314233e-06)
(2.92117775934538892 2.71975635999941491e-05 -3.68573266637156989e-06)
(3.13515420747819684 3.27483613936599375e-05 -2.13528625410070631e-06)
(3.38701111014946132 3.90654835771000208e-05 -6.12662656888714732e-07)
(1.03429435766225253 -2.07318501869706447e-06 -6.00771320503682606e-06)
(1.15889784870775903 1.72172613003412028e-06 -6.31960921829818588e-06)
(1.28581734810791803 3.06068750573329555e-06 -6.22615750480439733e-06)
(1.41492141886223122 4.2548702554448057e-06 -6.2078867805889617e-06)
(1.54631733250579373 5.48887355375040107e-06 -6.17207204312202957e-06)
(1.68015675265854547 6.80614149559007048e-06 -6.07842039471510352e-06)
(1.8165779451530677 8.23472463236000224e-06 -5.91321537697153013e-06)
(1.95582581411645018 9.8233753297735465e-06 -5.66190598172155216e-06)
(2.09830956303289939 1.16498095575387897e-05 -5.31393158712630148e-06)
(2.24468130205160898 1.38077606223567015e-05 -4.85872475949877311e-06)
(2.39619424063670428 1.63750972108289572e-05 -4.29606220484764021e-06)
(2.55449030260010668 1.97299921915120087e-05 -3.62316247692238937e-06)
(2.72421644450412392 2.34047613634399435e-05 -2.83651249885295423e-06)
(2.90822908900364707 2.95733741236770994e-05 -1.96810365168920875e-06)
(3.12657290117359743 3.51885953803773331e-05 -9.91982847150747218e-07)
(3.38369875438354617 4.15613540731238858e-05 -5.15921553056599614e-08)
(1.02569573011932791 -1.68782825380263917e-06 -3.85396072268259029e-06)
(1.15026844513105919 1.74855593772191688e-06 -3.99963426765067091e-06)
(1.27704039315485307 3.09884899658997173e-06 -3.9187079034559331e-06)
(1.40588762727123329 4.36204595247402563e-06 -3.88131008961251755e-06)
(1.53690394080477866 5.68054718349071057e-06 -3.8240357119855675e-06)
(1.67028827276494352 7.09469619405150085e-06 -3.72899088131937002e-06)
(1.80625563376820053 8.64234516877668324e-06 -3.58942840556955502e-06)
(1.94512649181270403 1.03771761846666356e-05 -3.40097235105344682e-06)
(2.08740713056971039 1.23538582081629044e-05 -3.15597515919182473e-06)
(2.23388272431390256 1.46697267002075961e-05 -2.85283240504237256e-06)
(2.38589843399610135 1.74051301498244608e-05 -2.48425622366156428e-06)
(2.54517681953504749 2.09196188609915264e-05 -2.05338219907157557e-06)
(2.71643947439080868 2.47466241551072234e-05 -1.57189148691933141e-06)
(2.90270907553857604 3.1033892151639334e-05 -1.04869261319175259e-06)
(3.12476929992330188 3.66997675889384171e-05 -4.72189275623370892e-07)
(3.38681300439182875 4.29784618667852628e-05 3.5987216707682944e-08)
(1.02003614389159059 -1.47751963613133343e-06 -2.13173093357531212e-06)
(1.14455381692433722 1.78356039126273179e-06 -2.19250421228868006e-06)
(1.27120858613361509 3.15109591755789159e-06 -2.14677953923077659e-06)
(1.39989841400410131 4.45350939049358492e-06 -2.12064189126790688e-06)
(1.53072822442169176 5.82123433969103362e-06 -2.0799250012615419e-06)
(1.66392212021887609 7.30086821803263148e-06 -2.01837145103004374e-06)
(1.79973054581907088 8.91844180800604788e-06 -1.93298700234302169e-06)
(1.93853454237714362 1.07221509240112866e-05 -1.8245251418948146e-06)
(2.08091778812732375 1.27760566975335896e-05 -1.69191808338450966e-06)
(2.22773656757474425 1.51850217428316591e-05 -1.53301188240599971e-06)
(2.38039777717444379 1.80142062669511654e-05 -1.35863697409722083e-06)
(2.54073152264054913 2.16037956019701451e-05 -1.16952701905137705e-06)
(2.71357955152268993 2.55154675642361845e-05 -1.01440091738094737e-06)
(2.90215086975158565 3.18495384453821662e-05 -8.45391510558494879e-07)
(3.12773087680196715 3.74680287209429834e-05 -8.67326209704287922e-07)
(3.39420602157594464 4.35464920207186346e-05 -1.05483248635922873e-06)
(1.01720201161497803 -1.38487905313298481e-06 -6.82562960087655558e-07)
(1.14169428781244431 1.79408714570669882e-06 -7.00094904587095813e-07)
(1.2682949188801047 3.17107097196757363e-06 -6.85139637264227176e-07)
(1.39691629374618387 4.49549879543098091e-06 -6.75282368023918843e-07)
(1.5276696098251159 5.88377956865701794e-06 -6.59977439224266517e-07)
(1.66079762935981945 7.38224101064530244e-06 -6.38562130198130078e-07)
(1.79657691455262603 9.02080609706970963e-06 -6.1191296450562259e-07)
(1.93541665532407259 1.08449895664831196e-05 -5.78662928642231447e-07)
(2.07793070265243607 1.29133979044632812e-05 -5.38774098205440419e-07)
(2.22503263045215105 1.53080213629733476e-05 -4.96829168166679655e-07)
(2.37817366816555609 1.81128491128402701e-05 -4.61687764884273799e-07)
(2.53940091497553055 2.15438435244436202e-05 -4.36160350008910213e-07)
(2.71316013084040097 2.54422175557810901e-05 -4.47715756972597798e-07)
(2.90362293486483569 3.09060938043434282e-05 -5.28306778529439965e-07)
(3.12949563650058993 3.63496311837521426e-05 -6.91073754650167686e-07)
(3.39586243864097126 3.99460313559615624e-05 -7.97836793368475283e-07)
(2.27869537037811549e-05 10.8209737657442506 -6.43476124617074611e-05)
(8.74778641647515738e-05 10.2214640767644092 -0.000176824540603440363)
(-9.49098977515775578e-06 9.71817032465516029 -1.1468358910625054e-05)
(-1.80966011293881095e-05 8.52978979387465941 -6.72187759873881455e-06)
(-4.71777055438337846e-05 8.74820652169286106 -2.63095358659806315e-06)
(-2.81767468174795475e-05 9.66748575391713949 2.59718717459067773e-06)
(-0.00011678869448524059 9.76084998185459973 -1.63796654179482782e-05)
(-0.000464965844909640913 8.63192067324349033 -5.80761476168286975e-05)
(-0.000155101901907433846 5.97378944817520185 2.08725311630662889e-05)
(-0.000162669088127620622 5.97787038208066246 1.19519581595364484e-05)
(-0.000158000667031816953 5.59672203610666852 5.55795353860111154e-07)
(-0.000144333927445374773 5.13380533082711743 2.27052882601385859e-06)
(-0.000144843591917433385 5.19073914518244539 9.6088794797201739e-06)
(-0.000152367694869062016 5.77340082315266567 1.17072545665632128e-05)
(-0.000154700056702244455 6.16365135536837006 -2.81681756721350626e-06)
(-0.000148165704687184787 5.9453061464962742 3.86443818969416314e-06)
(-6.21019639463308719e-05 5.20731617158934323 1.44143063978453613e-05)
(-5.57849051490302112e-05 5.25543044492336975 1.29209846152754003e-05)
(-5.09895564708854734e-05 5.15010052780839445 8.8288313260370886e-06)
(-4.74271663288468664e-05 5.0145206192640952 5.95054687535110863e-06)
(-4.53290268123885309e-05 5.05883428058774953 4.09990349710801173e-06)
(-4.77044188948082409e-05 5.25027244653640501 3.3141621109222202e-06)
(-5.17123223565575329e-05 5.40883866859759177 -2.40595676062960317e-06)
(-4.96234596314915408e-05 5.3459727859712789 2.3753109280008828e-06)
(-6.53510248448778013e-05 4.52489812022720894 1.69779692649642295e-05)
(-6.66791198738810341e-05 4.59823179285553785 1.23110738296614781e-05)
(-6.51781415091099093e-05 4.61477960355072625 8.16593236192540298e-06)
(-6.32546586810532103e-05 4.6182982835973192 5.78218831437626141e-06)
(-6.26956539357662908e-05 4.65371309911747222 4.09485491696567336e-06)
(-6.29442763784726514e-05 4.71452131333711311 2.86266307634586814e-06)
(-6.51750531997343299e-05 4.77682006849829754 -1.97583977660486588e-06)
(-6.1688681984329994e-05 4.75260320662150004 3.77376478830319125e-07)
)
;
    }
}


// ************************************************************************* //
