/*--------------------------------*- C++ -*----------------------------------*\
| =========                 |                                                 |
| \\      /  F ield         | OpenFOAM: The Open Source CFD Toolbox           |
|  \\    /   O peration     | Version:  2206                                  |
|   \\  /    A nd           | Website:  www.openfoam.com                      |
|    \\/     M anipulation  |                                                 |
\*---------------------------------------------------------------------------*/
FoamFile
{
    version     2.0;
    format      ascii;
    arch        "LSB;label=32;scalar=64";
    class       volScalarField;
    location    "0.179999999999999993";
    object      rAU;
}
// * * * * * * * * * * * * * * * * * * * * * * * * * * * * * * * * * * * * * //

dimensions      [-1 3 1 0 0 0 0];

internalField   nonuniform List<scalar> 
29184
(
2.77564792245579314e-05
2.58844341196721339e-05
2.42351601037083985e-05
2.27328990589414291e-05
2.13486521157692273e-05
2.00357835874001226e-05
1.87724765859784106e-05
1.75518083739803221e-05
1.63900330765890656e-05
1.52480200942597712e-05
1.42095153876031841e-05
1.31976491137964789e-05
1.23105614350656632e-05
1.13723763974682394e-05
1.19159256371754072e-05
1.27316959212492085e-05
2.61572344215912394e-05
2.43011919817028569e-05
2.29133902716550426e-05
2.16043317964624755e-05
2.03467427876158233e-05
1.91148066720992867e-05
1.7921148615216013e-05
1.67680418915441168e-05
1.56784708761823803e-05
1.46160487900955636e-05
1.36481308144209889e-05
1.27634696126388146e-05
1.19073926829716629e-05
1.10568348561694769e-05
1.15668249653456858e-05
1.11983190321525079e-05
2.47045799124377074e-05
2.29388277995581619e-05
2.1727057591887582e-05
2.05247931766478313e-05
1.93378827269935732e-05
1.81722036891543239e-05
1.70412335257791534e-05
1.5945021783591543e-05
1.49179321524333443e-05
1.39136906874873083e-05
1.30206230803222945e-05
1.22398233182231942e-05
1.14486666559610013e-05
1.07760884338655498e-05
1.19970178155262866e-05
1.04376362878121511e-05
2.33968573533595555e-05
2.17622642622361606e-05
2.06732792721235881e-05
1.95628481962696632e-05
1.84435792852001539e-05
1.73376521349718918e-05
1.62614694136552164e-05
1.52162156938237262e-05
1.42399477323972201e-05
1.32819135572003104e-05
1.24564278500758254e-05
1.17417488958729409e-05
1.10108274875436113e-05
1.05434108129972106e-05
1.18986429036954668e-05
9.74612349805052389e-06
2.22240860529757152e-05
2.07301940592056451e-05
1.97335620229121019e-05
1.87013916626715326e-05
1.76443259025891791e-05
1.65921487308486003e-05
1.55638812885497117e-05
1.45628095816480756e-05
1.36269868831114705e-05
1.27061559684189272e-05
1.193954699730786e-05
1.12602264492282897e-05
1.0574208794401889e-05
1.0386695901696867e-05
1.19868733313200339e-05
9.1306414837954081e-06
2.11724717362495538e-05
1.98142350491845536e-05
1.8893488948819411e-05
1.79288546778690408e-05
1.69284364954593124e-05
1.59246470783321249e-05
1.49383849852988045e-05
1.39747764773682752e-05
1.30713129461118099e-05
1.21801501471880231e-05
1.14598770916686133e-05
1.07916998730620234e-05
1.01627856504718581e-05
1.02065127611132157e-05
1.23520207167666807e-05
8.86905710722252474e-06
2.0228139444061641e-05
1.89955571727992687e-05
1.81403838499616655e-05
1.72351942307811543e-05
1.62862459594533079e-05
1.53260883950166807e-05
1.43766354303927833e-05
1.34446492255602752e-05
1.25661270576875791e-05
1.16970572055041276e-05
1.10096018941038029e-05
1.03340609338232351e-05
9.79689041698013414e-06
1.01521576531531075e-05
1.26569026142618978e-05
8.84200840160416794e-06
1.9378342084552325e-05
1.82604227267223685e-05
1.74636133388870831e-05
1.66119967721420602e-05
1.57099780948347712e-05
1.47892446675129277e-05
1.3872212770806889e-05
1.29665774117811973e-05
1.2106503373400292e-05
1.12542445753631385e-05
1.05849529563870554e-05
9.88560568898359514e-06
9.46249557916521779e-06
1.01489378669555229e-05
1.31980165051697621e-05
8.9697041048402367e-06
1.86120892346923188e-05
1.75984134569806105e-05
1.68543873804296188e-05
1.60522382977817739e-05
1.5193370323252083e-05
1.4308471628241475e-05
1.34201906597947862e-05
1.25361716794228446e-05
1.16898155704465547e-05
1.08497769417159452e-05
1.01825641534951649e-05
9.45144829670600081e-06
9.04643619889219645e-06
1.0382256740857071e-05
1.49928714942825585e-05
9.16761859174703171e-06
1.7920451228408504e-05
1.7001481375731826e-05
1.63053229582312544e-05
1.5550173576708984e-05
1.47315345172492692e-05
1.38795082506710491e-05
1.30169106384506144e-05
1.21505073657988667e-05
1.13150206657911635e-05
1.04821834530162099e-05
9.80441478559990627e-06
9.05551035137911831e-06
8.76202281797832327e-06
1.13515153528550106e-05
1.84647735204479317e-05
9.94397577166754189e-06
1.72969381450803395e-05
1.64631084422097253e-05
1.58099097106964388e-05
1.5101367462982658e-05
1.43209427822825879e-05
1.34994110721545355e-05
1.26599837987103877e-05
1.18082799336052347e-05
1.09820857772342578e-05
1.01518077432567956e-05
9.46050863835181904e-06
8.7173266916786698e-06
8.85459476429033236e-06
1.33432136497833821e-05
2.39344680559559707e-05
1.04701360256637025e-05
1.67371290688979568e-05
1.59778608140774352e-05
1.53623207071471009e-05
1.47028583398944143e-05
1.39594668591079502e-05
1.31665226542282841e-05
1.23484191708366764e-05
1.15098903722544706e-05
1.06923789095535732e-05
9.86307512603092712e-06
9.16752133804119715e-06
8.46956512320327858e-06
9.08617322895839683e-06
1.74194174535111379e-05
2.76516639488946362e-05
1.07373938530549372e-05
1.6238036017932922e-05
1.55413346654849666e-05
1.49577184452030853e-05
1.43533112030329627e-05
1.36464051830112403e-05
1.2880399238295935e-05
1.20826651999680562e-05
1.12572762113241959e-05
1.04489901946933643e-05
9.6274346225161615e-06
8.95022139903521084e-06
8.36815719147279009e-06
1.00298577931423811e-05
2.37160310927521807e-05
3.37306804851021427e-05
1.14081466655663443e-05
1.57980142992141533e-05
1.51498340371242969e-05
1.45929846370075538e-05
1.40534896270240388e-05
1.33827151574072353e-05
1.2642153198894641e-05
1.18652084492591514e-05
1.10536141678924337e-05
1.02578538141672086e-05
9.46147668597310023e-06
8.83500395398954492e-06
8.46823401996415763e-06
1.25248126017377693e-05
3.542155101448576e-05
4.29921002124430439e-05
1.22144896445622078e-05
1.54170923100990025e-05
1.48003640622762404e-05
1.42685110340018481e-05
1.38073271869862514e-05
1.3171815356209722e-05
1.24561906434101184e-05
1.17044156563784553e-05
1.09042832760918563e-05
1.01310030022013471e-05
9.38979484410733751e-06
8.84752415894459098e-06
8.89111167685000168e-06
1.70052086315349952e-05
5.60165213766220248e-05
5.86733788176078895e-05
1.40914668168988481e-05
1.50965774647688289e-05
1.4492996824866299e-05
1.39938427060042075e-05
1.36237911196730757e-05
1.30236137156711466e-05
1.23353027828381302e-05
1.16131064410329155e-05
1.08242190383053328e-05
1.00907712163918618e-05
9.43805658234758563e-06
8.98849608740606621e-06
9.65428599136852429e-06
2.50590453188400148e-05
0.000107598397904508735
8.5356453358962202e-05
1.66353396427906132e-05
2.7784955883655873e-05
2.59309554369103954e-05
2.42990590666575698e-05
2.28149421814764792e-05
2.14503010646952073e-05
2.01600634401331449e-05
1.89238604112639124e-05
1.77380084180626322e-05
1.66185234580351565e-05
1.55408993630814109e-05
1.45750909151963462e-05
1.37116504307530414e-05
1.2966733422915271e-05
1.24069722579768251e-05
1.32082847970187957e-05
1.63961066756929104e-05
2.61876939805699589e-05
2.4348402672055108e-05
2.29768677322146835e-05
2.16845989449549469e-05
2.04454177871036847e-05
1.9235249088488884e-05
1.80682391401979094e-05
1.69484153557250857e-05
1.59033403385042729e-05
1.48982203661229751e-05
1.40141937652011396e-05
1.32627132954721681e-05
1.25610159326828757e-05
1.20781128861582054e-05
1.24981018608582707e-05
1.34977241685886438e-05
2.47365006010974556e-05
2.29860989125106689e-05
2.17894222226789431e-05
2.06029094792937696e-05
1.94335974615124352e-05
1.82888740167331385e-05
1.71837053866412431e-05
1.61198588504333438e-05
1.51364767980337692e-05
1.41877692857683523e-05
1.33794232345272809e-05
1.27316911532643937e-05
1.20971114548235126e-05
1.18179580657874103e-05
1.28132336591894777e-05
1.218046557648241e-05
2.34298412894129936e-05
2.1808996399109751e-05
2.07341462253360371e-05
1.9638379692414944e-05
1.8535710151272285e-05
1.74497004287280573e-05
1.63981595952721627e-05
1.53838793776984484e-05
1.44498820568792952e-05
1.35452929692023188e-05
1.28036723754468821e-05
1.22168310974183158e-05
1.1625392499984789e-05
1.15334699754239305e-05
1.2804447723882091e-05
1.11924236041206618e-05
2.22577841266201382e-05
2.07759840837022934e-05
1.97927214624319203e-05
1.87739864079101442e-05
1.77323427742472718e-05
1.66988208272209023e-05
1.56937110106020559e-05
1.47217004110137049e-05
1.38263395631934315e-05
1.29560312812487054e-05
1.22717770877423426e-05
1.17113165671766678e-05
1.11569669281077328e-05
1.13307401217400433e-05
1.24135120819643952e-05
1.04164744486255387e-05
2.12066256102652999e-05
1.98587913518964387e-05
1.89509114219564102e-05
1.79982099548498106e-05
1.70118559280098348e-05
1.60252623355592374e-05
1.50602706595729788e-05
1.41233636414500683e-05
1.3258260511508098e-05
1.24138519672312753e-05
1.17743265685977045e-05
1.12090502028723672e-05
1.06930075775753512e-05
1.11722475934621519e-05
1.22450442324579696e-05
9.98716070224482029e-06
2.0262589363866138e-05
1.90386295626013337e-05
1.8196234031882249e-05
1.73010038219262884e-05
1.63645963744169365e-05
1.54199953496273716e-05
1.44894288154279394e-05
1.35814000574502503e-05
1.27388915546028094e-05
1.19121779684499818e-05
1.13037148205157743e-05
1.07096235595752365e-05
1.03124216430973093e-05
1.11517857133112031e-05
1.2605870289179222e-05
9.77287672797379315e-06
1.94130228785258818e-05
1.83017515471076921e-05
1.75182995764639714e-05
1.66738894675381138e-05
1.57827732217911356e-05
1.48758038356873075e-05
1.39745901941799037e-05
1.30897633414618764e-05
1.22633244353333648e-05
1.14489987879022916e-05
1.08566649309908467e-05
1.02134839886155817e-05
9.96056234084401852e-06
1.11304124784662916e-05
1.31830070653020659e-05
9.79153277833578364e-06
1.86470806415473875e-05
1.76376983976928854e-05
1.69086787711650323e-05
1.61096858670927795e-05
1.52601061755578575e-05
1.43870125007397415e-05
1.35103884309053986e-05
1.26436021936152155e-05
1.18291091717511237e-05
1.10234548073131816e-05
1.04306150751907242e-05
9.7299578526664269e-06
9.47446282288173389e-06
1.13118662522009933e-05
1.47489256472907016e-05
9.95675666914625078e-06
1.79558150296900831e-05
1.7038436899682697e-05
1.63605579639915814e-05
1.56022963923609048e-05
1.47916996855562158e-05
1.39491911174959099e-05
1.30921848196698488e-05
1.22393554463689655e-05
1.14359564652819894e-05
1.06357110666685663e-05
1.00284008262253766e-05
9.27444059008220259e-06
9.14233613864705453e-06
1.22807103439689311e-05
1.76771470036963187e-05
1.06602730779338071e-05
1.7332500619444668e-05
1.64974316988588281e-05
1.58682319233700058e-05
1.51466084029669548e-05
1.43740433069427131e-05
1.35588149595876031e-05
1.27158736348698041e-05
1.1875436728047312e-05
1.10857210440675332e-05
1.02875849351247422e-05
9.65904097476759053e-06
8.87918051751581256e-06
9.26781354083693209e-06
1.422870188869857e-05
2.25705571364698618e-05
1.12532923061200205e-05
1.67722768166829805e-05
1.60091639126127804e-05
1.54267820724470636e-05
1.47387175596071734e-05
1.40049884614699154e-05
1.32129369698972043e-05
1.23782703709830897e-05
1.15531314862950568e-05
1.07824542826114719e-05
9.98362908241166039e-06
9.33612257159156029e-06
8.58228846011197949e-06
9.41373095966542351e-06
1.85460316338620592e-05
2.56423092153771458e-05
1.15768013943532869e-05
1.6271618039039072e-05
1.55691599948563455e-05
1.50321502923483037e-05
1.43763100088986323e-05
1.36833745406372039e-05
1.29090376815225103e-05
1.2077941949973348e-05
1.12770302025834887e-05
1.05317181885183687e-05
9.73282180568617929e-06
9.08291082229138566e-06
8.4241794809036002e-06
1.01136659179140199e-05
2.477105782262491e-05
3.06816612859568268e-05
1.2419681178535335e-05
1.58276649094519223e-05
1.51739965217621665e-05
1.46815300712517851e-05
1.40588564771285311e-05
1.34087145427931977e-05
1.2645715132117415e-05
1.18164253087418958e-05
1.10551508271149018e-05
1.03404297454769117e-05
9.54879718815149896e-06
8.92848957147103133e-06
8.46331430839785281e-06
1.24756639276136787e-05
3.68638796011766406e-05
3.77796539107469128e-05
1.40059445711265603e-05
1.5438436788953175e-05
1.48215853188455185e-05
1.43736726634363564e-05
1.37885095815339985e-05
1.31826257607240049e-05
1.24253107208737867e-05
1.16023670785800993e-05
1.09004539764869779e-05
1.02188297704963839e-05
9.4535093244035457e-06
8.90007826874831557e-06
8.8286122775659239e-06
1.66835334014339934e-05
6.17763116042352933e-05
4.88522352507779635e-05
1.59539937673951612e-05
1.51025304188106519e-05
1.45148815890650078e-05
1.41131515295910228e-05
1.35754474414149853e-05
1.30143081793521236e-05
1.22617807427095729e-05
1.14542802141651132e-05
1.08346168163381385e-05
1.01852282848386084e-05
9.47362788670802887e-06
9.0061618597710491e-06
9.54602734522530499e-06
2.47723091964709468e-05
0.000120423234640815996
6.77780904627674587e-05
1.85329243162785711e-05
2.78282819467131945e-05
2.59900112974517235e-05
2.43748727611598994e-05
2.29092081224454457e-05
2.15651972031568306e-05
2.02992214711363012e-05
1.90924198014149941e-05
1.79438788429945509e-05
1.68702056834861489e-05
1.5857257705730244e-05
1.49701073643323724e-05
1.42320014484251847e-05
1.36372034393084427e-05
1.3393732739452898e-05
1.4486022732046739e-05
1.99836064005605045e-05
2.62312931924578439e-05
2.44063721112151421e-05
2.30505347832455543e-05
2.17753928062072532e-05
2.05556702721604053e-05
1.9368882811086049e-05
1.82306457609004345e-05
1.71469178296298218e-05
1.61483741189550794e-05
1.52040793248635626e-05
1.44039538900765505e-05
1.3774697985044793e-05
1.32547343091864567e-05
1.31202733551886787e-05
1.30081748253377746e-05
1.54229635293569267e-05
2.47799664483327232e-05
2.30429252650521922e-05
2.18606042021875807e-05
2.06900869102711078e-05
1.95393784656061044e-05
1.84171737329949262e-05
1.73399401041167842e-05
1.6311026981080002e-05
1.53733343969059378e-05
1.44827754756691066e-05
1.37591208417672804e-05
1.32308799137730109e-05
1.28057792622968112e-05
1.30208701665472101e-05
1.29639825083186381e-05
1.33926521372220938e-05
2.3473184630692764e-05
2.18644871503707148e-05
2.08025984610310454e-05
1.97217073549969465e-05
1.86366785884443192e-05
1.75722121008092065e-05
1.65476046383291467e-05
1.55668793692351304e-05
1.46770419816798583e-05
1.38273390950699723e-05
1.31693515183111027e-05
1.26973351554560503e-05
1.23071561604791647e-05
1.28027696241881866e-05
1.28132907411243918e-05
1.19533628086649712e-05
2.23012082742509227e-05
2.08302304643629888e-05
1.98583069743043764e-05
1.88533106999474228e-05
1.78282480385604137e-05
1.68152287412914729e-05
1.58359719610267594e-05
1.48960149290067979e-05
1.40426353546904853e-05
1.32233187069567864e-05
1.26207491110942647e-05
1.21655367008055897e-05
1.17998901358186241e-05
1.25488325575655379e-05
1.26326687594968992e-05
1.09086389130504968e-05
2.12506658006479465e-05
1.99121647750070561e-05
1.90135701292679359e-05
1.80734607792846564e-05
1.71025178553202371e-05
1.61353768500294778e-05
1.51951813459270574e-05
1.42888128944934525e-05
1.34629310343202733e-05
1.26651747615930854e-05
1.21039842368961224e-05
1.16305861562564878e-05
1.1297150413505187e-05
1.23326628507857427e-05
1.2259038174559309e-05
9.98582679332469003e-06
2.03082394661515177e-05
1.90917864876080084e-05
1.82559456087295336e-05
1.73722187463144367e-05
1.64498840911596537e-05
1.55236885111833933e-05
1.46170669030095309e-05
1.37381917817243171e-05
1.29317732733521196e-05
1.21468494967067858e-05
1.16115038865631825e-05
1.10937091280093498e-05
1.08575297331340328e-05
1.21851778086335881e-05
1.2674729452252097e-05
9.8469069137810208e-06
1.94618419314722686e-05
1.83556396712543569e-05
1.75750644303851235e-05
1.67412690617633592e-05
1.5862527403370137e-05
1.49728944469164742e-05
1.40953181824153261e-05
1.32387592487300617e-05
1.2444952984968965e-05
1.16666379656903952e-05
1.11407753335439141e-05
1.055439689335718e-05
1.0424813231746823e-05
1.20310493034255293e-05
1.30236415631725103e-05
1.04302187285990707e-05
1.87012815544886294e-05
1.76935796513247095e-05
1.6962537909833322e-05
1.61736526235284872e-05
1.53338888620761841e-05
1.44770650603436198e-05
1.36251555520857868e-05
1.27867608024105789e-05
1.20005600826466721e-05
1.12235499778016706e-05
1.06901811917127323e-05
1.00198102515786813e-05
9.9218179851146323e-06
1.21305352258339839e-05
1.39096330041287283e-05
1.03556518427695737e-05
1.80184338048085992e-05
1.70979434686595167e-05
1.64116369558728311e-05
1.56634324820523023e-05
1.48582536073564294e-05
1.40314495001488013e-05
1.32032926742945309e-05
1.23799499728574678e-05
1.1598016051510171e-05
1.08174275778520511e-05
1.02638714506525996e-05
9.51577601827499227e-06
9.47520928582423934e-06
1.2997199885926395e-05
1.68381726254446636e-05
1.11663061322511977e-05
1.74074135444488084e-05
1.65627195187734856e-05
1.59167582721392158e-05
1.52052300853950853e-05
1.44305052063740741e-05
1.36326271436920255e-05
1.28280397462970382e-05
1.20174524641413953e-05
1.12374781026881643e-05
1.04500982517354472e-05
9.87269988352637765e-06
9.06950586389137675e-06
9.47662126626842632e-06
1.45623600303611729e-05
2.07440684267700552e-05
1.18344954995919446e-05
1.68643116115468245e-05
1.60829186696668915e-05
1.54728877956566314e-05
1.4793867296289647e-05
1.40463496788865992e-05
1.32788771335959944e-05
1.2499271851032911e-05
1.16995051658249707e-05
1.09203950819201691e-05
1.01267496075392178e-05
9.53136581605293491e-06
8.71791224419044853e-06
9.64672844310282498e-06
1.89396636251753568e-05
2.5512263312158731e-05
1.25969043735702888e-05
1.63867165303632905e-05
1.56540983551013727e-05
1.50750992946523721e-05
1.44243183778815751e-05
1.37030198147120396e-05
1.29703894101845751e-05
1.22180656190818631e-05
1.1427177001726304e-05
1.06498172205655523e-05
9.85844429380054775e-06
9.26270164627059875e-06
8.50479193334039431e-06
1.02869543733032991e-05
2.61363870726223658e-05
2.98841688313735985e-05
1.38625568421184245e-05
1.59726361194345241e-05
1.52713686335558637e-05
1.47188592901311141e-05
1.40922852099099918e-05
1.3400263869891517e-05
1.27093488065310708e-05
1.19866695965748814e-05
1.12022147655087307e-05
1.04316115983323123e-05
9.6613068562111861e-06
9.09557227352747738e-06
8.48253828575020645e-06
1.24730218170083887e-05
3.83732942223520755e-05
3.60519412781262684e-05
1.56911646927265544e-05
1.56186882028699209e-05
1.49282207604629107e-05
1.44012102561599827e-05
1.37966138705569511e-05
1.31421636868097312e-05
1.25007708728887485e-05
1.18100767814896157e-05
1.10293658077063094e-05
1.02783555381940688e-05
9.55972291176336211e-06
9.05558026058817728e-06
8.77283814118986949e-06
1.59800265761097409e-05
6.30905138325670923e-05
4.48172955994229042e-05
1.70188701653093372e-05
1.53176306765367305e-05
1.46220460177367335e-05
1.41283117016362538e-05
1.35457912080048038e-05
1.29426748714875062e-05
1.23572549156124754e-05
1.17003566665354239e-05
1.09249969876879676e-05
1.02152800239645667e-05
9.58234096827836562e-06
9.15312208917660516e-06
9.38106136657810475e-06
2.24770290766529524e-05
0.00011771116402760744
6.11790105890446607e-05
1.72571970458183803e-05
2.78844543492618025e-05
2.60586450378200766e-05
2.44594093906926726e-05
2.30117095396347227e-05
2.16883155048541081e-05
2.04467738878492101e-05
1.926970435719662e-05
1.81576644417583129e-05
1.71287319056483614e-05
1.61745820955293787e-05
1.53580939840644047e-05
1.47178708262930929e-05
1.4269499301850628e-05
1.42650311363053919e-05
1.58942641370346464e-05
2.26373912400187727e-05
2.62854863897869197e-05
2.44715446211932872e-05
2.31310754686422397e-05
2.18729429914114751e-05
2.06727008032672219e-05
1.95092977326199294e-05
1.8399796148193434e-05
1.73515829741965899e-05
1.6397136386316414e-05
1.55122327880649202e-05
1.4784142756438648e-05
1.42607658599206281e-05
1.39090794237037657e-05
1.40750939985114992e-05
1.38357300788561695e-05
1.6853415042618935e-05
2.48317769572998515e-05
2.31050070167137988e-05
2.19371903923716447e-05
2.07827110562260235e-05
1.96505921141576044e-05
1.85507021176806325e-05
1.75011076308292579e-05
1.65060047596546837e-05
1.56115412270033391e-05
1.47785186697093629e-05
1.41256175487455097e-05
1.37065419673994127e-05
1.3452821483420348e-05
1.40854068947628308e-05
1.34637056128385338e-05
1.38882720732372475e-05
2.35223661417190482e-05
2.19231558218674026e-05
2.08751528744436941e-05
1.98094030247386936e-05
1.87419726745110667e-05
1.76986594346613486e-05
1.67002554296382385e-05
1.57514446679859438e-05
1.49033574241538754e-05
1.4107596588116579e-05
1.35188373102860355e-05
1.31533879920432137e-05
1.29347487311250888e-05
1.38686891864516111e-05
1.30779663979157069e-05
1.19454283936501926e-05
2.23473782822623137e-05
2.08851372945160956e-05
1.99268295034824246e-05
1.89360864934051095e-05
1.79275670126714679e-05
1.69344423597362174e-05
1.5979656573430482e-05
1.50697120705346564e-05
1.42556765488716585e-05
1.34861259031386982e-05
1.29500327053148659e-05
1.25944917592390375e-05
1.24089208602413254e-05
1.36532840463155004e-05
1.28021906054927781e-05
1.06283155669888037e-05
2.12932575902359533e-05
1.9962896953395468e-05
1.90781713818921603e-05
1.81513449888057379e-05
1.71958468281274816e-05
1.6247209667461675e-05
1.53296243935524989e-05
1.44512746818096525e-05
1.36616607651232305e-05
1.29098305497795822e-05
1.24103760276267605e-05
1.20311260654595856e-05
1.1895071878860957e-05
1.34187346767715258e-05
1.23831133618639886e-05
9.86404132094592816e-06
2.03464631366034543e-05
1.91378767430963189e-05
1.83168930246119195e-05
1.7445233930947499e-05
1.6537228195665893e-05
1.56280290581620521e-05
1.47421030961340185e-05
1.38890924498558833e-05
1.31158471900321222e-05
1.23732441918616674e-05
1.18935608172725511e-05
1.14669596268850625e-05
1.14149896764203505e-05
1.32302865844106964e-05
1.27688369884748953e-05
1.04689553296116324e-05
1.94946862413545674e-05
1.83966147841714043e-05
1.76328115908970908e-05
1.6809354390456103e-05
1.59439038985669262e-05
1.50696765911589731e-05
1.42108270311055148e-05
1.33778694308643485e-05
1.26145123715531982e-05
1.18751167337102283e-05
1.13997821327062235e-05
1.08986287057264785e-05
1.08893053945615955e-05
1.2945152991729173e-05
1.28762308036686831e-05
1.09776517298090364e-05
1.87274909727063269e-05
1.7728982149622739e-05
1.70176468855605597e-05
1.62365405942243316e-05
1.54093863978076788e-05
1.4566277928000854e-05
1.37309445817511657e-05
1.29138320449245057e-05
1.21563932741983295e-05
1.14155429648126966e-05
1.092813172655045e-05
1.03188757812166258e-05
1.03752209772604224e-05
1.30393159683056528e-05
1.3135778741417126e-05
1.07001093747553253e-05
1.80366791251215001e-05
1.71271558910558562e-05
1.64644985491546811e-05
1.5720567720880576e-05
1.49282099726765513e-05
1.41130970983929131e-05
1.32989014752556314e-05
1.2494909501931893e-05
1.17421252251134551e-05
1.09954376246986344e-05
1.04822414737938013e-05
9.77735282865568245e-06
9.97040901077680856e-06
1.38233003202018172e-05
1.60303731015712047e-05
1.10087431417780072e-05
1.74163397592618496e-05
1.65847080874399388e-05
1.59671176562518522e-05
1.52558801343683544e-05
1.44957460703532437e-05
1.37065558298531561e-05
1.29126770796827149e-05
1.2121048225000717e-05
1.13735668236403733e-05
1.06171908374214034e-05
1.00727522660468145e-05
9.31468408453767811e-06
9.84383394388308318e-06
1.53864589276434238e-05
1.96451596027594033e-05
1.1747246278823108e-05
1.68626048871743141e-05
1.60958706377419352e-05
1.55194309633198284e-05
1.4837537163962498e-05
1.4108263685905382e-05
1.3344588442794142e-05
1.25722294583006954e-05
1.1794264366125014e-05
1.10536980723413555e-05
1.02864975921334596e-05
9.71691470984491958e-06
8.91919829443597467e-06
9.78350974898096559e-06
1.90637884774764627e-05
2.48549375776999051e-05
1.22711028052556939e-05
1.63730496037783541e-05
1.56554571169391276e-05
1.51155864601797423e-05
1.44613899044744985e-05
1.3763287650299105e-05
1.30272455856002474e-05
1.22796452277745303e-05
1.15179992867922467e-05
1.0787004797397348e-05
1.00146542393964306e-05
9.43773719705704218e-06
8.67077957394401692e-06
1.04607195614776188e-05
2.56385400989220113e-05
2.80753548514895228e-05
1.2845122967599297e-05
1.59459495681230191e-05
1.52588659094339541e-05
1.47503038854561065e-05
1.41244340841317147e-05
1.34602431717677171e-05
1.27575887058116961e-05
1.20389237554889743e-05
1.12965653035415196e-05
1.05798604048188082e-05
9.81937526735923908e-06
9.26674192964161188e-06
8.6180010843702521e-06
1.23550475274986038e-05
3.83397466903473704e-05
3.27824085369720052e-05
1.37704475015819368e-05
1.55788564312212586e-05
1.49016310998420092e-05
1.44180624068966922e-05
1.38266293607863249e-05
1.32016997853749829e-05
1.25433883442591617e-05
1.18564606868288605e-05
1.11370449700912633e-05
1.044426228327979e-05
9.72440899179186878e-06
9.2333853161350671e-06
8.86947603022141191e-06
1.55624569197858219e-05
6.53902167506877877e-05
4.06438207068827539e-05
1.51098322295658914e-05
1.52688705501247211e-05
1.45817249924406406e-05
1.41207279692253026e-05
1.35764087954534023e-05
1.29980031980088912e-05
1.24010710101972496e-05
1.17446270665845382e-05
1.10554903866283654e-05
1.04026415790379669e-05
9.76070186123716527e-06
9.34220278539504975e-06
9.43580510959343482e-06
2.14408218416411833e-05
0.000122871296886379287
5.58176630596399876e-05
1.76430604455924403e-05
2.79510252765531459e-05
2.6134552217169057e-05
2.45494166451281189e-05
2.31182445656547164e-05
2.18144805179226472e-05
2.05964751897177687e-05
1.94479436742405993e-05
1.83702394023953199e-05
1.73844409334230422e-05
1.64820549461296561e-05
1.57327310810947319e-05
1.5182559453898997e-05
1.4844365745750596e-05
1.49718877032496254e-05
1.68429586639462569e-05
2.47584751883816912e-05
2.63483917444596582e-05
2.45422830542525897e-05
2.32153801915884308e-05
2.19729102389761278e-05
2.0791299616922738e-05
1.9650443035224741e-05
1.85681386997286593e-05
1.7553030005770234e-05
1.66403594517969948e-05
1.58049517234683141e-05
1.51460421887727173e-05
1.47126414337015155e-05
1.44687991985081259e-05
1.48592720127652476e-05
1.44831027899418805e-05
1.81460476080579264e-05
2.48911422760851963e-05
2.31716916060440633e-05
2.20164270025976014e-05
2.08767434119009826e-05
1.97623735298316973e-05
1.86839756996473316e-05
1.7660170023809861e-05
1.66967756353506494e-05
1.58423680381625257e-05
1.50567979900362624e-05
1.44750533815987488e-05
1.41464618025269978e-05
1.40072493285280366e-05
1.48930811252659114e-05
1.39671212390869972e-05
1.46589601494274272e-05
2.35785090090786983e-05
2.19860052526296666e-05
2.09492886094514609e-05
1.9897524945122042e-05
1.88470119296929794e-05
1.78240884317072228e-05
1.68499233596453603e-05
1.59311042256739632e-05
1.51206198152053412e-05
1.43697975454291153e-05
1.3852935156609026e-05
1.35703728625425557e-05
1.3467257646143183e-05
1.46940250062156416e-05
1.35736687628629759e-05
1.23040930583701996e-05
2.24007721698352059e-05
2.09444518910212199e-05
1.99957944275924939e-05
1.90183245180733597e-05
1.80259651100473582e-05
1.70521026648813252e-05
1.61198884759311791e-05
1.5237827871739276e-05
1.44584050685131026e-05
1.37311156147086225e-05
1.32654096629191889e-05
1.29818005631249827e-05
1.29168305631430788e-05
1.44898351249513159e-05
1.31612101971072478e-05
1.07471155776599006e-05
2.13446095995914555e-05
2.00190636014712162e-05
1.91417688294219458e-05
1.82277071418413701e-05
1.72877296258484126e-05
1.63572474140950126e-05
1.54604397818873945e-05
1.46074088476377986e-05
1.38491940110683605e-05
1.31366514467506095e-05
1.27033538576352459e-05
1.23839615709738326e-05
1.23669575837456553e-05
1.41866101238433842e-05
1.25834719936556258e-05
9.99742913036588159e-06
2.03968197598066256e-05
1.91913595143533898e-05
1.83746954133274551e-05
1.75157052900335503e-05
1.66227511314602305e-05
1.57306775837202826e-05
1.48635348311182305e-05
1.40328259617982584e-05
1.32875901164502156e-05
1.25806982355954016e-05
1.21602589757560135e-05
1.17814954941269446e-05
1.18694529937275908e-05
1.40468162456953923e-05
1.30062070732262779e-05
1.05411901101896955e-05
1.95455465694893074e-05
1.84478901984395002e-05
1.76840381867406336e-05
1.68739057521262444e-05
1.60232590722962686e-05
1.51652834039119694e-05
1.43228857059922312e-05
1.35087745066534611e-05
1.27698623046924037e-05
1.20619727445997494e-05
1.16366926858427854e-05
1.11729362580873149e-05
1.13316262820850848e-05
1.37526868163409639e-05
1.31703575549006833e-05
1.11297027324917447e-05
1.87809226614598787e-05
1.7778398392351096e-05
1.70610564682341971e-05
1.62951550946585404e-05
1.54828556390357881e-05
1.46554112244552255e-05
1.38336479805441145e-05
1.30314153287436814e-05
1.22945054673645412e-05
1.15809575641117274e-05
1.11321231019937775e-05
1.05560678138050426e-05
1.07708237464817964e-05
1.37625914593822505e-05
1.29954581241876793e-05
1.07691685661258435e-05
1.80954632566872143e-05
1.71746954539851192e-05
1.64983928150799702e-05
1.57733272315864115e-05
1.49964292885053852e-05
1.4196825756000188e-05
1.33923121606456514e-05
1.25983470647292172e-05
1.18621016407753853e-05
1.11395978992849115e-05
1.06499956725228193e-05
9.97163472744544005e-06
1.02907587027203152e-05
1.44382204681753877e-05
1.54270850102904532e-05
1.09515614061851464e-05
1.74840908066538365e-05
1.66296847854610421e-05
1.59895615746919733e-05
1.53032304576342033e-05
1.45604214553608055e-05
1.37868771871569582e-05
1.29967171482028648e-05
1.22087934260218886e-05
1.14751350261972607e-05
1.07409979659951039e-05
1.01996343497207078e-05
9.46818146902016431e-06
1.01591930917911412e-05
1.62802054118703033e-05
1.91327373049326117e-05
1.17005206770992532e-05
1.69436916914334459e-05
1.61366408917831921e-05
1.55285651361622979e-05
1.48809508210638253e-05
1.41733544968504819e-05
1.34247180651876908e-05
1.26461027348307156e-05
1.18639277583543039e-05
1.1137801581144204e-05
1.03907404602520856e-05
9.79829320753697515e-06
9.06460729243116622e-06
1.00544338821461154e-05
2.02484342777727428e-05
2.44148291726473661e-05
1.22595134067804907e-05
1.64723610563964853e-05