/*--------------------------------*- C++ -*----------------------------------*\
| =========                 |                                                 |
| \\      /  F ield         | OpenFOAM: The Open Source CFD Toolbox           |
|  \\    /   O peration     | Version:  2206                                  |
|   \\  /    A nd           | Website:  www.openfoam.com                      |
|    \\/     M anipulation  |                                                 |
\*---------------------------------------------------------------------------*/
FoamFile
{
    version     2.0;
    format      ascii;
    arch        "LSB;label=32;scalar=64";
    class       surfaceScalarField;
    location    "0.480000000000000204";
    object      alphaPhi0.water;
}
// * * * * * * * * * * * * * * * * * * * * * * * * * * * * * * * * * * * * * //

dimensions      [0 3 -1 0 0 0 0];

oriented        oriented;

internalField   nonuniform List<scalar> 
20856
(
-1.83425559488245427e-11
8.26052446935594144e-11
5.63410070512134011e-10
-8.45043840377381668e-11
3.24178980461989463e-11
-4.79637847088134558e-10
4.17241922312603971e-10
-9.45911286198713262e-11
1.88088646149521956e-11
-3.48683936269606469e-10
2.71023157316666702e-10
-8.27643466169108696e-11
1.6215392486803286e-11
-2.4405936229068886e-10
1.74237960935910476e-10
-7.10975613316960519e-11
2.02410073897739467e-11
-1.77094667719192615e-10
1.25118039443720892e-10
-7.48702391021911059e-11
5.1952100455360093e-11
-1.44601018287299682e-10
1.05072238436650465e-10
-1.00794347887159547e-10
8.81105634814897777e-11
-2.0218984865228518e-10
1.12218243462505582e-10
-2.31911004252281519e-10
2.49309724313228287e-10
-4.20785547182374762e-10
2.02986329222245396e-10
-5.06046509887593485e-10
8.13713890089743549e-10
-8.83853964992078904e-10
4.09532006409200318e-10
-1.73390537765187739e-09
2.82751789975851116e-09
-1.87823448046114093e-09
7.98811715892230038e-10
-2.15807628193822565e-09
5.93784785589535289e-09
-6.64902988534756594e-09
2.08695124009556527e-09
-1.2642002703467688e-09
7.03026900144531247e-09
-1.05481013376911931e-08
3.42518460394093843e-09
-2.67168708108380815e-09
8.77957896128667811e-09
-6.63855418111784154e-10
5.32757808400145318e-10
7.82877695496789624e-08
1.28378836896303135e-07
3.14489923796971465e-08
-1.04374304141128259e-07
-3.30748817395176674e-07
1.07336678167507858e-05
3.94161641420391399e-06
-3.67808217955431004e-06
0.000259307810012321556
6.10955630771768552e-05
-5.73892593366221528e-05
-7.31086280193445909e-11
2.87269378476449347e-11
-2.02523435557865457e-10
1.98949569875966664e-10
-5.72649157470456924e-11
1.60072512426914841e-11
-1.54464347265672639e-10
1.25488453330572343e-10
-4.33731895226558152e-11
1.20428198172637962e-11
-1.05022266617952882e-10
7.90793342111022341e-11
-3.37379204465298719e-11
1.14166505947287364e-11
-7.37865300001513076e-11
5.4238433952683297e-11
-3.12004516752925596e-11
1.80203659052181307e-11
-5.76696259986441252e-11
4.27422602744821779e-11
-3.70548846712298533e-11
3.38408031459421261e-11
-7.20685442139348617e-11
4.09371792686450079e-11
-7.64831528451737692e-11
7.20158336140782386e-11
-1.35191727071101986e-10
6.69257744506479704e-11
-1.38091386017657615e-10
2.62737929380538653e-10
-3.10820002189279352e-10
1.44078320401058618e-10
-4.08881465852851594e-10
9.21976722041093725e-10
-7.01453232495827669e-10
2.74003597801862746e-10
-2.15428448928685169e-09
3.36100613575043067e-09
-1.42820632722075106e-09
7.5723439453181217e-10
-3.03677858177012868e-09
7.9490339825609017e-09
-7.81817566863721118e-09
2.67304520024228214e-09
-1.3877798360921178e-09
1.09790413038194322e-08
-1.63250801121019928e-08
4.19525224155134086e-09
-3.16007940918487117e-09
7.15730259715089931e-09
-1.72806363701898997e-09
2.770332637523415e-10
6.64213099554364279e-08
1.96420652867362179e-07
4.1517674187922495e-08
-1.68321293764910079e-07
-1.2905874460469978e-06
1.06310999027626681e-05
3.45626722511988593e-06
-3.10040472415664242e-06
0.000209762773244860206
5.68794426433890535e-05
-4.61541061933993759e-05
-2.58940051531474746e-11
9.52421768095439083e-12
-6.01323289994760428e-11
5.68974249499842966e-11
-1.9277258601239906e-11
6.99951812306733508e-12
-4.39018234080464034e-11
3.58270916392348909e-11
-1.46188969911692526e-11
6.47338430289288172e-12
-3.05730653603411968e-11
2.3886929127921361e-11
-1.25840109611297478e-11
7.81952561850957115e-12
-2.37939076091737785e-11
1.75971071404929142e-11
-1.34825026261358428e-11
1.21733576593797188e-11
-2.55976709793274645e-11
1.53560100566142862e-11
-2.33103153902921043e-11
2.12969402600637472e-11
-4.20111104804682594e-11
2.16725462448026199e-11
-4.24675106621924345e-11
6.40727221437902268e-11
-9.36446208629930131e-11
4.40625738628545276e-11
-5.3438899599334659e-11
2.36987323435677592e-10
-2.24823623029165183e-10
9.19020198781798351e-11
-3.0090015963718861e-10
8.77562741396254634e-10
-5.63465530845451338e-10
2.01627296902076359e-10
-1.71117118542014178e-09
3.22763572215165579e-09
-1.27770189545934033e-09
7.01269503738228378e-10
-2.92296240626773563e-09
8.87127582192912786e-09
-7.58324736357018026e-09
2.74194099094526789e-09
-5.40055951109023222e-09
1.52869652441458636e-08
-1.92962662394387524e-08
5.30498340089674802e-09
-5.32428785463854747e-08
5.40465280275247154e-08
-6.90499619762486468e-10
-2.9912377647467607e-09
-2.62442165255909278e-07
5.92433560466262536e-07
1.33957309078874142e-07
-3.3718371175766448e-07
-6.07824187541609377e-07
9.65259160759398044e-06
3.17256615936063834e-06
-3.17034484845945101e-06
0.000146605057211867252
5.43637952655051158e-05
-3.44421096450837701e-05
-7.80566546969700933e-12
3.47477757403331473e-12
-1.67642350881845401e-11
1.53783063735908123e-11
-6.06190950489935854e-12
3.23066235390861584e-12
-1.24624537701302781e-11
1.03266985036557978e-11
-5.23374676655736305e-12
3.61163124131596707e-12
-1.00561117321462094e-11
7.44110254791819211e-12
-5.39080362321282427e-12
5.04521594871954286e-12
-1.00072244583631449e-11
6.08522544411630077e-12
-7.05687984877773364e-12
7.2041725974363232e-12
-1.3454054345861107e-11
6.98523051386781747e-12
-1.40585425063142006e-11
1.58108244012789852e-11
-2.53862138800892079e-11
1.31078568727406257e-11
-1.597962391868734e-11
5.44275100593528555e-11
-6.17736446591030119e-11
2.77419175412489877e-11
-1.51882084740214731e-11
2.04243398606915826e-10
-1.68311921292061372e-10
5.78537294793109303e-11
-1.88567006425764225e-10
7.51196599299183223e-10
-4.38208405903376259e-10
1.41486434496016932e-10
-1.18444094333872858e-09
2.75493930787911018e-09
-1.10153427342240934e-09
5.65462376417601001e-10
-1.72361701539148218e-09
8.62039863701604631e-09
-6.82712804381781834e-09
2.37917455469281975e-09
-5.91925517768655338e-09
1.53522034969176912e-08
-1.56397000189354018e-08
5.67296566976617429e-09
-5.22402871821416823e-08
8.44724147254249663e-08
1.06309668321694632e-10
-1.48074003538217466e-09
-5.37373398380079557e-08
6.96876015751422384e-07
2.14947753648504681e-07
-3.04221472587553668e-07
-5.61057943033151201e-07
7.32663006173300788e-06
2.77510109170682967e-06
-3.27365156333583188e-06
9.20297782285952909e-05
4.20820793350336813e-05
-3.21648983774659101e-05
-2.99495172445800814e-12
1.46686009732196089e-12
-4.72521282854651207e-12
7.4513366613136127e-12
-3.17148409660884512e-12
1.34320259359786284e-12
-6.05918673777140722e-12
7.46733920829486854e-12
-2.8705926612188383e-12
1.21322859231916118e-12
-5.90925469518276343e-12
6.00329808360336113e-12
-2.44525951500179377e-12
1.22871730238388838e-12
-4.87875336841023689e-12
4.24583197707103753e-12
-2.14944489787344928e-12
1.43459775284167022e-12
-4.14597227431995379e-12
3.12353726608320573e-12
-2.24326441561721842e-12
2.0586973941873758e-12
-4.01936334332129392e-12
2.50749368527656796e-12
-2.63243204494387334e-12
2.84515008817607384e-12
-5.00599479701880846e-12
2.58036417633348311e-12
-4.22313419140550054e-12
5.12280127200757545e-12
-7.58622674891095313e-12
3.99029202709323417e-12
-7.99725560609891138e-12
1.38005898257047908e-11
-1.59363164151252673e-11
7.49159610509463637e-12
-8.82777095698707609e-12
4.95071876068725435e-11
-4.53270340366485929e-11
1.73425792974990818e-11
-1.48129944741521876e-11
1.90878343017488043e-10
-1.42568177475479681e-10
4.35414228006279655e-11
-1.4278155398814852e-10
7.15736714151462307e-10
-4.42844432762654959e-10
1.38427089495855719e-10
-7.9316074750498185e-10
2.49123349774217305e-09
-1.31258859572386406e-09
5.2142105765343213e-10
-1.00127677350765315e-09
8.13243896829450356e-09
-5.74802217682362765e-09
1.80082903336399124e-09
-6.04298445887686137e-09
1.52243471678344691e-08
-1.3112182489446855e-08
5.32928794711587523e-09
-4.10401973587682185e-08
8.9237454608329586e-08
-9.85635196570976579e-10
7.50262276096384468e-09
-3.24979112355953682e-07
7.49300368689764582e-07
2.51475088405094826e-07
-2.96683931487262267e-07
-1.44096916829165167e-07
5.01478814012398403e-06
2.4140970042066549e-06
-2.70981568096861309e-06
7.36972787169237092e-05
2.62097183268148149e-05
-3.04495022409039011e-05
-8.08131047739663758e-13
1.67583846684345247e-13
-1.44378073078410319e-12
1.94640989242462252e-12
-9.06545221437152539e-13
1.93231300828095407e-13
-1.78839950195827078e-12
1.97072376621017047e-12
-8.81685560143871259e-13
2.48957047638562268e-13
-1.69621989607901623e-12
1.57871453342138893e-12
-8.46956014425617071e-13
3.72948894799802117e-13
-1.56336741841005377e-12
1.25123736087301118e-12
-8.92535382975944368e-13
6.83753772555729301e-13
-1.52320183046517792e-12
1.01826485489488461e-12
-1.06587680809763298e-12
1.15645970097190201e-12
-1.85053481189638044e-12
9.85045664085013408e-13
-1.454448065295218e-12
2.07982319470026245e-12
-2.6450279315488189e-12
1.34369712353302747e-12
-2.77193797772239684e-12
4.58015346527133496e-12
-4.81741202804513509e-12
2.4451468117452079e-12
-6.04027087288670921e-12
1.50903099991131115e-11
-1.22056682302709292e-11
5.1598024402423518e-12
-1.34313578636449785e-11
5.8535942424938199e-11
-4.21563931769506818e-11
1.35825433980110551e-11
-4.25569051084066817e-11
2.31016645811208985e-10
-1.53522332307847911e-10
4.27093076612733794e-11
-1.90609400186903131e-10
8.61458338324469661e-10
-5.43566796747116614e-10
1.51360852809421338e-10
-6.80443710461119343e-10
2.84192989626889255e-09
-1.80576484137078782e-09
5.26148050735304304e-10
-5.04779198176731742e-10
8.57193451020177026e-09
-5.87034245683257449e-09
1.49558880623722682e-09
-2.48281971482149234e-09
1.40968081766346876e-08
-9.89479513195418671e-09
3.28063824816812935e-09
1.87190985782061818e-08
4.08994237492134138e-08
-2.56171773004767056e-09
1.03689502117927557e-08
-3.10504184042540289e-08
6.0330110903605026e-07
1.88405520993645621e-07
-1.6282017890751087e-07
-2.34613958171146943e-07
3.50521318591534551e-06
1.96941513403862914e-06
-2.37304444878256258e-06
7.89742965053260356e-05
1.74287077282537039e-05
-2.68505142395377849e-05
-8.2749426274492271e-14
-1.73607716413574061e-13
2.20109024641254182e-13
1.24588104126406178e-13
-1.66124683813771996e-13
-2.97829751750245475e-13
3.99402136640872582e-13
7.64815359378434853e-14
-2.27256639363610592e-13
-4.30429924333397764e-13
4.89421875668798265e-13
3.92993831268162294e-14
-2.72676254659906594e-13
-4.76614321998460641e-13
5.16380038697594947e-13
4.34290911386186166e-14
-2.75413499878993923e-13
-4.37761278735878815e-13
4.2777294907527058e-13
8.41011045929921756e-14
-2.98311478468245586e-13
-4.03219240011645312e-13
3.4656594779047673e-13
1.96399880877739147e-13
-3.82515243882537367e-13
-5.2118317341528797e-13
3.02087951479955268e-13
4.71131962973270453e-13
-5.28346525811507074e-13
-8.51292424741030861e-13
4.1125157332266249e-13
7.8767951896789692e-13
-9.24833118379688437e-13
-1.60386353304699638e-12
8.40096101064367378e-13
1.84051975733518541e-12
-2.08068630842706766e-12
-3.54033162925267028e-12
1.63337435565064931e-12
5.19974923049979978e-12
-5.45261283362789258e-12
-1.15332160184968342e-11
4.02359836423469489e-12
1.83884791731036165e-11
-1.56233113866723743e-11
-4.51323320245768403e-11
1.30446947655727205e-11
7.54136027697923205e-11
-5.73741780281124887e-11
-1.76360627122856463e-10
4.58153031014387799e-11
3.03254925708119937e-10
-2.20713502828011075e-10
-6.53792583616670407e-10
1.62481125320208195e-10
1.10920376069195732e-09
-6.94711609344226213e-10
-2.01222666182951734e-09
5.03805048345138345e-10
3.49029309580947748e-09
1.42159737964597853e-10
-6.36429140187882349e-09
1.36361799894588908e-09
9.51421459706168302e-09
-6.99482184730213246e-10
-8.08070816027859275e-09
1.89706324145147039e-09
1.41827203273988925e-08
6.8765731819084049e-11
-4.39481933362932653e-09
6.35966075450300972e-09
2.65890035178657051e-08
7.99233209783332084e-08
1.01141618774422885e-07
-5.07183539369121837e-08
4.42730816330042566e-07
-3.5363348654456041e-07
1.46514575323390604e-06
-1.97608126616798319e-06
3.83245019294020646e-06
1.33103715323879421e-05
-2.23629342070989206e-05
9.17210221847008519e-05
-1.88346310049706036e-10
1.81894947294621001e-10
-3.74754610193400653e-10
-1.63674158240429814e-10
1.22218924440756538e-10
-3.11915827456510274e-10
-1.39165011002834352e-10
9.60897399619099157e-11
-2.50839262363166446e-10
-1.25650189434900262e-10
9.55153879417792903e-11
-2.10383258594251937e-10
-1.3765942419977068e-10
1.27965909295974563e-10
-2.22291887957703379e-10
-2.39664268784051866e-10
2.09866954027090741e-10
-3.43282592659336386e-10
-5.47111975412386133e-10
7.16844585830880624e-10
-7.95553435880107358e-10
-1.29983467528958506e-09
2.33579016178574413e-09
-2.08218418022682735e-09
-5.38448398445121557e-09
7.02640438093620273e-09
-6.65436936888227585e-09
-8.53462577899301694e-09
1.54184953138186016e-08
-1.76930292964627071e-08
-2.88219430243695523e-09
2.3707962539577746e-08
-3.24133995700143079e-08
-5.15213806950448163e-10
1.36290558385146414e-08
-2.44289688479843675e-09
4.91460934903642298e-08
6.41573502407848341e-08
1.45747726931793964e-08
-2.388474084052193e-06
1.03694969499391938e-05
4.58324480808877787e-06
0.000248679516737510009
5.86492136951308389e-05
-9.84642253397376222e-11
8.30771894617002923e-11
-1.42321160240483018e-10
-8.02937283552706689e-11
6.36099303454011027e-11
-1.3231374415618201e-10
-6.55500594782600727e-11
4.97784391071968546e-11
-1.09868103137867228e-10
-5.73130722106549554e-11
4.41933690399779469e-11
-9.32616216879159111e-11
-5.86061028231787681e-11
5.01708435972639212e-11
-9.19029034004260914e-11
-7.82658060396767527e-11
7.15510995529570003e-11
-1.23362853879536841e-10
-1.7331476424455696e-10
1.99853985157206612e-10
-2.47402531820973695e-10
-2.41729013038224398e-10
7.43001320045373137e-10
-7.20955254467016737e-10
-1.01958426720804117e-09
2.64203709405257348e-09
-2.16536533216100275e-09
-6.72816342680667362e-09
8.39155242771738591e-09
-1.1676545124227766e-08
-1.28397146229496475e-08
2.05829322252669478e-08
-1.92172437966265069e-08
-5.16755344230143942e-09
3.54987321740321037e-08
-4.63931530419811595e-08
-7.07254951796308664e-10
1.86047787264701245e-08
-4.87995890348372226e-09
5.12778634741454828e-08
5.26414814310123173e-08
9.86732862462396458e-09
1.22431226087348518e-07
9.11555866302280307e-06
3.48687156239428663e-06
0.000230340089836134998
5.60638226998836633e-05
-3.28800643010236897e-11
2.87368052942322343e-11
-5.01910841788911608e-11
-2.78443938718784095e-11
2.50637450826826303e-11
-4.58080837398206396e-11
-2.47711106725821521e-11
2.23360401623955542e-11
-4.09141150569009349e-11
-2.55308926959624438e-11
2.1778919423618082e-11
-3.9053139744595029e-11
-2.79744013785342229e-11
2.64142496204360397e-11
-4.61650160725623893e-11
-4.84078575200137883e-11
5.22806941170865879e-11
-7.23324075140790092e-11
-8.2727192386281109e-11
1.76483826437614209e-10
-1.85064046171429409e-10
-4.50159352943204546e-12
6.70406709380400765e-10
-6.39773656414489809e-10
-7.84732872286533908e-10
2.48686293623045161e-09
-2.40631563772226309e-09
-6.15167566936921434e-09
7.89650713320215584e-09
-1.2893295255732268e-08
-1.35955560919221517e-08
2.25585337987522219e-08
-1.67218893000907271e-08
-6.58141752898592017e-09
4.21203738056853043e-08
-5.24317195586496904e-08
-3.16490835316339785e-09
2.82529505576897041e-08
-1.49138568192739281e-08
4.48890409930231573e-08
1.22853678661146663e-07
1.42028981240956923e-08
-2.57495326338067851e-06
9.9838987330552492e-06
3.25433937309952416e-06
0.000203128337539323759
5.14576845453347293e-05
-1.10113509052700231e-11
1.09831918039957133e-11
-1.75940959135261769e-11
-1.04894164992948769e-11
1.10711801010481458e-11
-1.75624696967433183e-11
-1.11737999601039303e-11
1.03696547731111499e-11
-1.72032674115360694e-11
-1.20759574650829594e-11
1.15485400965350943e-11
-1.87195493207529689e-11
-1.50047580751220197e-11
1.79009417238351464e-11
-2.36847679134489344e-11
-2.99932981024249756e-11
4.34631039853155727e-11
-4.60988210667136729e-11
-3.19220768099087075e-11
1.47755541702077216e-10
-1.41430400934990676e-10
8.97336491422053007e-11
5.4886234777248784e-10
-5.22805346240578105e-10
-5.81231801181917559e-10
2.05637372125394173e-09
-2.45472111894294548e-09
-4.7647015671965125e-09
6.44656008469385837e-09
-1.14669875014102622e-08
-1.11791484716549785e-08
2.27115626112585581e-08
-1.49817500780532071e-08
-6.35296643582869702e-09
4.5596543439464163e-08
-4.73454075108413474e-08
-1.21573620504369314e-08
3.32118958923107058e-08
-1.79949824582634038e-08
5.41934209320905623e-08
2.33122591059793235e-07
3.13072842982897677e-08
1.30292195452059716e-07
8.3211171618065157e-06
2.88577620374759481e-06
0.000171178575120056904
4.81694910090673544e-05
-2.70008909240212953e-12
2.21615577224903124e-12
-3.73168103429337084e-12
-3.49840230979079188e-12
2.99232389659929101e-12
-5.17595681317775038e-12
-3.92136699866269146e-12
3.47906725995198935e-12
-6.15376673361317976e-12
-4.26149508798719641e-12
4.11454301403002976e-12
-6.77247387855307711e-12
-4.84309652446765136e-12
4.96615379174706835e-12
-7.59953142599079117e-12
-5.46665633327852894e-12
5.44407934083833615e-12
-8.09654497425664553e-12
-6.43607652693129325e-12
7.93121447199511562e-12
-9.03776074973987278e-12
-9.43162725351743924e-12
1.45414587916414314e-11
-1.42466018707385365e-11
-2.10035179897154827e-11
3.86818221282809474e-11
-3.35451494694078604e-11
-2.62124967667922876e-11
1.36234473875480045e-10
-1.16656475320508785e-10
6.7258160661482125e-12
5.22972999117696309e-10
-4.43522832225317708e-10
-2.55051520046427644e-10
1.87903966510103413e-09
-1.54836724369577123e-09
-2.9801524221553741e-09
6.16424307635333774e-09
-7.26266575140022859e-09
-6.9722871905087469e-09
2.37115507596694096e-08
-1.55995795966435251e-08
-9.57296879686159146e-10
4.36276151516948509e-08
-4.0606986412677049e-08
-2.38287677834448899e-08
4.02026702183027245e-08
-1.4562932132931249e-08
-1.7290184614524097e-07
5.47950549225744934e-07
7.79488267840323534e-08
-1.9871273492257131e-06
6.06916007010008081e-06
2.3505807691473507e-06
0.000114810295723547152
4.11862660352646677e-05
-8.64434863866420546e-13
6.20508988513490494e-13
-1.30756822820238373e-12
-1.18998962931196576e-12
8.10839238686560368e-13
-1.8160427446366873e-12
-1.50223099140682666e-12
1.10698523628793139e-12
-2.21504141700293601e-12
-1.8897549545187303e-12
1.67151726544640075e-12
-2.744535797569381e-12
-2.3654026412229387e-12
2.47347098462141765e-12
-3.49123013614358125e-12
-2.95229758139080717e-12
3.62973064144044013e-12
-3.58706813530012297e-12
-3.8975715507754887e-12
6.47453606903677515e-12
-5.23651452504207277e-12
-6.96167526330839211e-12
1.43103577652732227e-11
-1.05082082286170798e-11
-2.0455227267134829e-11
4.42678446365028883e-11
-3.13802967021232232e-11
-4.69650806900980221e-11
1.65846645969150626e-10
-1.18650032253450819e-10
-1.18673375336932537e-10
6.59949726632010284e-10
-4.7264966668544468e-10
-5.01873985946395034e-10
2.40208114867287804e-09
-1.71278233276541822e-09
-2.65072764924572055e-09
8.04686240089574231e-09
-5.50976521219440972e-09
-3.0698858998700106e-09
2.69629749149809902e-08
-1.99908164856236402e-08
-1.65153198176410588e-09
5.06922336030192323e-08
-3.7457813174726539e-08
-1.59393442828436787e-08
3.1305708507910663e-08
-1.15176761067922864e-08
7.96941931362364061e-08
4.95985369846624432e-07
9.34140348722995524e-08
1.33542812729218023e-07
4.43134022739885315e-06
1.92740594851214528e-06
5.88631707706458631e-05
3.33752015981750888e-05
-8.66600110370686477e-14
-1.12089682343079722e-13
2.04898144391911244e-13
-1.70020487449145099e-13
-1.91586330674768683e-13
2.03113591233434994e-13
-2.85304400422963561e-13
-3.01457143281013712e-13
2.14756599542787268e-13
-4.18055229101308352e-13
-4.1990030369646728e-13
3.1575744044836008e-13
-5.69178253160841604e-13
-5.51664390563076266e-13
5.46607493226468684e-13
-8.37723227400407993e-13
-7.90773804502092592e-13
1.02668497440061159e-12
-1.19273900235559819e-12
-1.25441801027990043e-12
1.67560238706894602e-12
-1.67092742938553769e-12
-1.72872102388128479e-12
2.81882581957939339e-12
-2.61918995607890775e-12
-3.72286565750930007e-12
6.50479018565316409e-12
-6.72169484802925247e-12
-9.46598680307955536e-12
1.67961794455816335e-11
-2.10492190962333775e-11
-3.51199913824727784e-11
5.89125092191511256e-11
-6.42778088115014408e-11
-1.49974250860912273e-10
2.42266630982033179e-10
-2.09849479214794501e-10
-6.18139124359552544e-10
9.68495787017599658e-10
-7.58457540436277478e-10
-2.32533650860929982e-09
3.4414804100574828e-09
-2.95689005885826739e-09
-7.857233299622543e-09
1.15239438177217339e-08
4.30875796995989246e-10
-2.69013438216782144e-08
3.27656840801751845e-08
5.89897391378397348e-09
-3.5262290028412921e-08
5.82298241483705488e-08
-2.90467616551011199e-08
-9.63406465836114696e-09
4.86769067317433287e-08
-1.39966473250283485e-07
9.48121519950942344e-08
5.70390318033158484e-07
-2.08715095110684204e-07
1.36859739892426414e-06
3.1821442585912593e-06
1.92171269702971294e-05
4.79309539774927014e-05
-2.31418679696560038e-10
2.86510291983478529e-10
-2.93609661065021733e-10
-2.17342906621992729e-10
2.52373489737851486e-10
-2.86833563343057444e-10
-2.05444541605463193e-10
2.12749028624245753e-10
-2.81462507234628808e-10
-2.21764368529605366e-10
2.07958365317981027e-10
-2.90180570413828721e-10
-2.63628560008863752e-10
2.54283008072800945e-10
-3.64478777272416816e-10
-5.46229673869260113e-10
5.1029313347572462e-10
-5.32275603037403476e-10
-1.36422243234347582e-09
1.80242089089205856e-09
-1.37984287709547819e-09
-3.05143625863288743e-09
6.42065494680112225e-09
-5.25672681358508428e-09
-1.97572990956853901e-08
1.85586709408640626e-08
-1.9132777973569315e-08
-4.7390971668080943e-08
4.29072326604853056e-08
-9.24063294824710944e-08
-1.84693435300906305e-08
1.16249424924215834e-07
-8.5413379769048381e-08
6.58852953749284473e-09
1.30476593560152063e-07
-5.66108376960541692e-08
1.11107863374357763e-07
1.67327301530071372e-07
4.12496463216425721e-08
-3.37507852511680374e-06
1.13325493963933447e-05
4.47055726602819753e-06
0.000225142539212957684
5.09592306847362036e-05
-9.62933297685374752e-11
1.27026646824421334e-10
-1.17312580286273636e-10
-9.81930155117090629e-11
1.2419493537036045e-10
-1.29706823246482806e-10
-1.00159276344758735e-10
1.07420787649381731e-10
-1.35041624594900167e-10
-1.07174698874031891e-10
9.83838078680290604e-11
-1.40653649263703997e-10
-1.1649005957748117e-10
1.13317142948328652e-10
-1.61413937510366256e-10
-1.57595559239668505e-10
1.73226546648366177e-10
-2.07400798909539042e-10
-4.18039778204421196e-10
4.70165129555503806e-10
-3.96997770958975575e-10
-7.0876330632774532e-10
1.8130948046183461e-09
-1.4552356496274762e-09
2.34584675203525382e-10
6.95868190907932878e-09
-7.10354800317502207e-09
-3.21072542831013991e-08
2.21033864321380184e-08
-2.73267416038369409e-08
-7.52086155628455865e-08
6.20018161063775667e-08
-1.28732570058291134e-07
-3.54057259225857396e-08
1.39847942315108403e-07
-2.10307907869215774e-07
1.64903885587417718e-08
1.80715095182755022e-07
-9.7274439207029284e-08
1.00397109528135744e-07
8.14499372019443555e-08
1.26004750379842871e-08
-2.86556224237417836e-07
9.98603648990225811e-06
4.31582363203252564e-06
0.000212331462446228647
4.99433193722882042e-05
-4.03035890007834593e-11
5.46034896088598303e-11
-5.61119904383834222e-11
-4.61548969554941997e-11
5.47420647932032308e-11
-6.54547379195781654e-11
-5.04966211494413587e-11
5.06411062752104904e-11
-6.94537811975568978e-11
-5.63213701869352526e-11
5.71511186693631694e-11
-7.03775758863255477e-11
-6.30846498507029849e-11
7.45707457513996929e-11
-8.09308255990836231e-11
-1.04879463201288739e-10
1.35663565204032147e-10
-1.28312357138026231e-10
-2.57697949362937253e-10
3.97747864372339589e-10
-3.14658177901853518e-10
-1.1702042281947364e-10
1.62011700044053495e-09
-1.50007055394386558e-09
1.57992891219869533e-09
6.25248091853580787e-09
-7.82626126414287583e-09
-3.03354474873919894e-08
2.05921331571911065e-08
-2.91751427299100195e-08
-7.78092110332973316e-08
5.5582395069348994e-08
-1.33587744244329766e-07
-4.54268485366410373e-08
1.3749976950987801e-07
-1.92159312178426207e-07
8.2042872463920991e-10
2.1158219301403709e-07
-9.64405086422424284e-08
2.86515899823143416e-08
6.29968060723778562e-08
-7.76742446984054553e-09
-4.16749027741747258e-06
1.04184213083242051e-05
4.21562141218535462e-06
0.000194785618961219788
4.92370157874021639e-05
-2.03198930220952934e-11
2.52502244494927076e-11
-3.15901076053035864e-11
-2.35742672842646405e-11
2.71799517037472813e-11
-3.60624677472473633e-11
-2.75089943036217473e-11
3.13466494241563154e-11
-3.19318766299727513e-11
-3.25539528539658713e-11
3.91610987015902431e-11
-3.38184758831844085e-11
-3.90727066826571527e-11
5.67437679402125291e-11
-4.63850259562210319e-11
-7.60527749924473799e-11
1.12036690730719511e-10
-9.00302786414887663e-11
-1.67203181894136356e-10
3.32641031219274086e-10
-2.65466555892583325e-10
2.59807659379179106e-10
1.25741672258671894e-09
-1.36579248650361015e-09
1.31543858713687384e-09
4.71995649404195332e-09
-6.59904156143026385e-09
-2.46128558492883778e-08
1.61053271473031647e-08
-2.5721610208828163e-08
-6.31701552830863079e-08
4.82824073738034838e-08
-1.19688931407151289e-07
-3.82981736314537535e-08
1.47380528013654565e-07
-1.93772802839604965e-07
6.43260800882798934e-08
1.60127228896220781e-07
-8.57229606555438315e-08
7.36487496637491682e-08
7.93210367304014182e-08
-1.81794427559908406e-08
2.57896893156351858e-07
8.72847870812404268e-06
3.46522810453483287e-06
0.000176845087640245584
4.7174016248939151e-05
-4.1526766472896245e-12
6.93968440645471194e-12
-9.51284972667791249e-12
-6.22107268194704103e-12
9.16981088514277294e-12
-1.22614429385375733e-11
-8.47561784661211192e-12
1.14245586756997108e-11
-1.48968733256235185e-11
-1.06484174050765586e-11
1.37815562563833301e-11
-1.55949621090540763e-11
-1.3260600349177728e-11
1.70583072421746782e-11
-1.40703600900426477e-11
-1.69027462884817684e-11
2.14300053670960094e-11
-1.4169318991874402e-11
-2.09246178343196466e-11
2.96957999375915593e-11
-1.67937408452211066e-11
-2.68834515918294401e-11
4.67016601413915649e-11
-3.04711874300945946e-11
-6.18056853728113374e-11
1.00916347426284314e-10
-7.33545733569011703e-11
-1.44594910953959605e-10
3.13752652830034833e-10
-2.3834350565409868e-10
2.65044969239030966e-11
1.17159211835957699e-09
-1.17388375475911731e-09
5.15047388635539472e-10
4.17898265781700816e-09
-4.74522642630526811e-09
-1.32138596585296077e-08
1.43238830683988507e-08
-2.0259334602759829e-08
-4.36091173586926959e-08
5.17875844585536209e-08
-8.99189156244800386e-08
-3.36349716669250995e-08
1.73914644265111848e-07
-1.26685055207369296e-07
5.11946869668322567e-09
1.39138615137983565e-07
-5.8680734712036498e-08
2.77084242838557111e-09
1.20601762645706736e-07
6.46006433650089389e-10
-2.5392223151404202e-06
8.08104124755665271e-06
3.18088433925096353e-06
0.000142527466869803247
4.20474007298682532e-05
-2.11168976681132445e-12
3.27790175567497013e-12
-3.44787677960880945e-12
-3.14283066594830739e-12
4.43538620686489183e-12
-4.66317841628170398e-12
-4.38442584330136554e-12
5.98713091812879471e-12
-5.16428896910099359e-12
-6.00283959517469972e-12
8.04587741156108716e-12
-5.13808390106807928e-12
-8.21457445628502245e-12
1.09930698803170504e-11
-5.30993158614434254e-12
-1.07677109620920111e-11
1.52313441946191473e-11
-5.76492598089594616e-12
-1.4082701815765575e-11
2.41853788529917788e-11
-1.04155146627834658e-11
-2.10114129034904422e-11
4.47333804064702423e-11
-2.67879349379805364e-11
-6.51973198169417468e-11
1.16544122405572684e-10
-7.52642753043204966e-11
-1.7745007064605354e-10
3.86590137588337976e-10
-2.64536818929078831e-10
-3.01084356207987343e-10
1.45870243939804252e-09
-1.21214523400441882e-09
-6.50272805126926785e-10
5.25790841896497132e-09
-4.79930008256042561e-09
-7.24337782910596822e-09
1.89777930697974833e-08
-1.74937445246790434e-08
-3.41751617903854368e-08
7.56598564678040786e-08
-8.20892924130089788e-08
-2.40787919871046744e-08
2.01869701504274786e-07
-1.21185590423610473e-07
-4.47085535093287896e-10
1.33813562733670222e-07
-5.70759998565602786e-08
9.78336100738316757e-09
1.3722091400001841e-07
1.5854675740592558e-08
-3.04315259780800604e-07
6.31038187218751791e-06
2.69991451107842254e-06
9.78571484188011021e-05
3.56750148686358159e-05
-3.36355611764524793e-13
4.25615999171859624e-14
8.78292259031225452e-13
-5.88864232238816163e-13
-4.05991793340216315e-14
1.17072542414823922e-12
-9.45090605383792973e-13
-1.89673237331325877e-13
1.57179555677964529e-12
-1.50491751010654845e-12
-4.46699176898356113e-13
2.29756620301207854e-12
-2.31113031398156433e-12
-8.55370050891173462e-13
3.34369974809527026e-12
-3.38269929241394651e-12
-1.10981257524277949e-12
4.83225506205619683e-12
-4.8661254026636122e-12
-1.62507068648177021e-12
7.32080490525800554e-12
-6.68256622692650416e-12
-3.18009714245151215e-12
1.16917104365463184e-11
-9.60375378751051617e-12
-1.02451557196807936e-11
2.32303331165939945e-11
-2.28284392426696958e-11
-2.59354661683118802e-11
5.24464025785949647e-11
-8.1791997723787009e-11
-9.40449081599643311e-11
1.63250940799832268e-10
-2.53810735251145881e-10
-4.07357195038167554e-10
6.28824224667244687e-10
-6.79034169259089617e-10
-1.76317618496612382e-09
2.33976253996217297e-09
-2.08498391353806842e-09
-6.79445082884237109e-09
8.18567026420953314e-09
-1.16250669382307904e-08
-2.62901673219769559e-08
3.09504010961948795e-08
-3.31306204810110504e-08
-1.31053617719710757e-07
1.30630602246290247e-07