/*--------------------------------*- C++ -*----------------------------------*\
| =========                 |                                                 |
| \\      /  F ield         | OpenFOAM: The Open Source CFD Toolbox           |
|  \\    /   O peration     | Version:  2206                                  |
|   \\  /    A nd           | Website:  www.openfoam.com                      |
|    \\/     M anipulation  |                                                 |
\*---------------------------------------------------------------------------*/
FoamFile
{
    version     2.0;
    format      ascii;
    arch        "LSB;label=32;scalar=64";
    class       volScalarField;
    location    "0.360000000000000098";
    object      p_rgh;
}
// * * * * * * * * * * * * * * * * * * * * * * * * * * * * * * * * * * * * * //

dimensions      [1 -1 -2 0 0 0 0];

internalField   nonuniform List<scalar> 
29184
(
2283.14652090860682
2282.00114883604556
2275.3377379401395
2264.39297966816093
2251.03680492786862
2235.03182151051669
2217.31369335056115
2199.08801423336672
2181.66633139396117
2165.91444572400451
2153.79513238083655
2144.25921843316155
2139.29463968487289
2124.99212243300917
2109.54226478221744
1939.47680255206819
2282.66211039772361
2281.09181812835595
2274.42787382811912
2263.50544503953097
2249.87351674966067
2233.78407381075795
2215.98408112417019
2197.59382287800008
2179.85906392013203
2163.90105583965214
2151.35911142804889
2142.29879508648264
2137.23659801714894
2125.71158769282238
2108.6498200590886
1947.28068480771731
2281.50421456465619
2279.32228210686208
2272.5484275775616
2261.61086547141804
2247.75659088201928
2231.4804803755801
2213.43295907910897
2194.66501426910099
2176.42806056663721
2160.00506337158549
2147.03798407434533
2138.21766219074061
2133.87696602284632
2125.51482922557489
2112.00851514349779
1956.47594187134064
2279.56226274546179
2276.83546923753329
2269.87216995943572
2258.85342529364652
2244.72775470571059
2228.09960244295462
2209.61962804681389
2190.27959374610555
2171.31661419854208
2154.14359922743142
2140.53171438682239
2131.72705910986588
2128.5208630850243
2123.92218781598967
2116.15901731571284
1966.99979266576179
2276.83581597711373
2273.67397782977196
2266.43183246932131
2255.22538312991719
2240.7525175721762
2223.64123177223291
2204.55967735910053
2184.44048670117218
2164.49400212392993
2146.24506973533198
2131.68018421818488
2122.64797319861191
2120.81278803769192
2120.7043389654973
2121.03146790261917
1978.05726209942941
2273.34294136308063
2269.82575130437499
2262.2502839488784
2250.75995892768924
2235.85103573501192
2218.12930187146776
2198.27115435514543
2177.14852353073502
2155.92686838102372
2136.21648178283203
2120.27144577540867
2110.62874860138072
2110.18954188904172
2115.30109064373164
2125.6192996291893
1994.14532064159812
2269.10859524248008
2265.28577669356218
2257.33382062593364
2245.46943588670274
2230.027139348535
2211.5728603359712
2190.76745514359709
2168.4051899119986
2145.57168548151321
2123.92270971686094
2106.01338230041847
2095.1675577901442
2095.89778475711228
2106.9154439135591
2129.19701209107143
2013.14364944154568
2264.15259391328436
2260.03593190981519
2251.65724234709205
2239.33982296646673
2223.2722519545996
2203.97483297551753
2182.05724607309958
2158.20152490582541
2133.35295014810981
2109.16452758926926
2088.4806321997753
2075.51942155956476
2076.84020492057334
2094.32309965394961
2130.96277342605845
2033.4605819251542
2258.42633154144642
2253.98100423848564
2245.10810630656852
2232.27737326984516
2215.51397468313462
2195.28526502741579
2172.09582247034859
2146.45723386191366
2119.09187613395306
2091.59697125028424
2067.02506071146445
2050.49876635995633
2051.29217293729153
2075.65126815369649
2129.51085520204288
2053.60962897088075
2251.69980886094072
2246.78973318988119
2237.330413582039
2223.96653380148518
2206.48459133784672
2185.27185742932534
2160.63306623267226
2132.82108863998701
2102.22274774971856
2070.44132313796081
2040.397190331415
2017.77660214131856
2016.12091321489947
2047.84875642831662
2121.45368947100042
2075.74812745744202
2243.41863316355193
2237.72867864660066
2227.51834719843237
2213.65778961784508
2195.50321578816056
2173.27236746102199
2146.90032372711357
2116.24972356166609
2081.27210832145192
2043.73696521321835
2005.85112896320538
1973.87325938679919
1962.46012959752306
1994.14998448218853
2100.40379847192662
2115.66055192610202
2232.43187644314321
2225.40122969553749
2214.17160870559565
2199.90248406801493
2181.1783604040811
2157.85253264858738
2129.20548733832857
2094.51042007751084
2053.20747308484306
2007.40017319717776
1957.82468642804861
1908.9090395825915
1885.79720712614471
1917.97270930755099
2053.6461499236425
2133.90926679535869
2216.15980748700758
2207.04335767469001
2194.47739794050767
2179.90569468902322
2160.7287096370992
2136.0871667993647
2104.16374107984802
2063.33127978399943
2012.48913079268459
1954.53182318162658
1885.74829040476288
1808.92238353764947
1701.28126053122651
1780.2576612028181
1990.33173681429093
2100.79356994335694
2189.05466237048904
2176.87701388759297
2162.75480649892916
2147.93578156796775
2128.27770797086669
2101.59016165068078
2064.31719189803925
2013.4560250274983
1947.72160357971507
1870.88266047449611
1768.28400800956774
1342.26231662924965
1049.39341765176005
1212.61426491459019
1899.33729017865221
2060.10564741407279
2140.75997746412804
2124.03694901969084
2108.21656977196426
2093.04307595864748
2072.17788553821765
2041.23422069781782
1994.02916762353175
1925.47429092359607
1835.29207687018788
1698.22903641239418
1167.50836877700317
703.364832890474759
181.445031308718399
262.008986192871419
1638.38476100064372
2000.82766756510273
2055.67488776558866
2031.53482143651195
2013.28622506297393
1997.23442270791111
1972.13297231156844
1908.62555089105308
1775.35693600359446
1531.27414666417167
1170.14088486985793
823.28604343869381
353.770793362235452
66.7802895465064239
14.5047184787147767
35.283191093687222
1208.41160921275514
1937.80418556119753
2284.05865259786287
2282.99658487285387
2276.58376380564368
2266.13785551632463
2253.57648865445026
2238.80473203350675
2222.92035782612038
2207.35897114945783
2193.67570714776548
2183.34783311251113
2178.60947253610402
2180.56893426968463
2191.24805340033299
2206.4821944756759
2221.94104582644604
2205.5485907307434
2283.58329683216107
2282.10396327135777
2275.69045860734468
2265.26024034195098
2252.43142203241632
2237.58044294849924
2221.6138190435463
2205.87483093303126
2191.89795788664605
2181.33310925735032
2176.34498277275497
2178.61853852300464
2189.50481083999057
2206.54610534500216
2221.91816781710349
2206.21925608577249
2282.44777847345449
2280.36787621425128
2273.84383710780503
2263.39518491344961
2250.35250860963197
2235.32188171755888
2219.11036990510047
2202.99722062897263
2188.53884810452791
2177.52977866402125
2172.21281353509403
2174.70482348138285
2186.32911003744039
2205.80058656449683
2223.84299768314486
2207.26972202508068
2280.54560184657157
2277.92941931894893
2271.21253653298118
2260.67980209064399
2247.3761268492608
2232.00490859992624
2215.36804977994643
2198.69238648835108
2183.53277729171941
2171.81182549754112
2165.93774272906467
2168.49585245402386
2181.22904934339022
2203.71923242403591
2226.22268087352722
2206.51563332912519
2277.87780819154159
2274.82907825401571
2267.82691947468356
2257.10645281770712
2243.47064699658358
2227.62986938068661
2210.39943702410983
2192.95828626845469
2176.84378559588731
2164.09894627501171
2157.37176552425581
2159.80593879826802
2173.89506434289524
2200.11989656300921
2228.90917978402376
2202.85111953408386
2274.4625610013868
2271.05202839921503
2263.70752340405988
2252.70770519819871
2238.65650795454485
2222.2175240650181
2204.21596515055535
2185.78556088174173
2168.42460410228114
2154.27909100324678
2146.29239170328492
2148.27378158907277
2163.80387125639436
2194.48050044388719
2231.28080920211005
2204.75890275989741
2270.32181735361291
2266.59021915345284
2258.85942841340284
2247.49682465265914
2232.93838358377297
2215.77173350937119
2196.81975911940754
2177.15777679417806
2158.20809283874951
2142.19329635204303
2132.39059741128222
2133.39336937909684
2150.23148811131068
2186.08100262763628
2233.07100167800854
2210.28513347806847
2265.46593070795916
2261.42091977832979
2253.26041332928662
2241.46366597689257
2226.30707450763657
2208.28381833793173
2188.19848313070634
2167.03533777578969
2146.07993647469266
2127.60121926271586
2115.23323420493261
2114.42340702224828
2132.11052287469965
2173.7286720670204
2232.93281549880248
2216.07870614774856
2259.83502015285649
2255.43732185788031
2246.80765352784192
2234.52517287774526
2218.68911262271513
2199.68506055461194
2178.27581961035412
2155.29707780947501
2131.8085081876643
2110.10713453474182
2094.16029756089256
2090.14632430643087
2107.79401160379166
2155.69582273560627
2229.3144814677039
2219.69966919899616
2253.16742646933881
2248.28974451529621
2239.16259380823521
2226.37962488106268
2209.80861895670068
2189.70902634004051
2166.74920003822808
2141.52032732367434
2114.8193067910147
2088.90718245939252
2067.9594143451136
2058.49996486592499
2074.08141635687844
2129.48128657198686
2219.23759829056462
2219.23680231565322
2244.81226575556593
2239.1964816845757
2229.53396090527167
2216.27024889421637
2198.9414377168564
2177.61384731580756
2152.7421816463725
2124.5759955804424
2093.73721855265603
2062.37524253013498
2034.28172990823759
2016.27659857483513
2023.53162052651828
2084.2550785184626
2199.0515024033275
2221.31554323499722
2233.48352195515827
2226.70350224288268
2216.43884435571408
2202.72420463347453
2184.62216452009488
2161.83763839300536
2134.41437434636055
2102.21436398504102
2065.78670929634882
2027.40568113845347
1988.75626382943733
1955.33617235862175
1950.00229401639081
2012.90442036267177
2164.85071674546589
2278.6358059795175
2216.5916309037716
2208.03713410182354
2197.12911665481488
2182.98862746813347
2164.03946363712521
2139.43127881756982
2108.39653405396166
2070.48017556466448
2026.37120978350276
1978.38093183854471
1923.44421559380226
1867.38997446004328
1821.41943824724012
1906.69671132524559
2108.18300338792642
2239.3121229727376
2188.50199809642572
2177.45974712269708
2165.94032506644726
2151.29814144027569
2131.2760628498113
2104.20726543025694
2067.57893594578718
2021.05933576457846
1965.78226843459652
1902.33533540506915
1815.95459542289746
1535.30401857833886
1357.16594720877083
1580.11899457921277
2022.13765989141621
2188.01952619384156
2138.44329018796634
2124.0272394157214
2111.71050991398306
2096.06539345350166
2074.46490026403126
2043.02020625683349
1996.49150080642107
1936.53374826861364
1863.31842373580798
1761.55693976772477
1335.60261258891342
786.527873327453563
367.230761675236465
734.045983039894622
1822.74247924543852
2129.73411068385985
2050.04263924487714
2030.18406717894231
2015.98076991299899
1998.18226483642025
1974.08128405712273
1895.86818686879201
1749.00742712130977
1569.98009636913821
1298.64340788066556
940.168473255746903
442.048220130909385
121.623619587328463
18.7845315288952541
64.1739698480054273
1669.28897695000023
2060.94986503004566
2284.95657271151322
2283.96980225308289
2277.80596629981483
2267.83535102139831
2256.0096805638218
2242.36627507650746
2228.13738812361089
2214.92718650976531
2204.483823608291
2198.64250184086359
2199.86779244714671
2210.19519587463992
2231.25896719529237
2261.93778775087276
2297.18623551126848
2327.49992004892783
2284.47809974520715
2283.0825980598056
2276.92264932220769
2266.96594751865132
2254.88274313639613
2241.16576892850708
2226.85479685449354
2213.4610857147768
2202.73534420419901
2196.67038373762807
2197.74158162946742
2208.30210488062903
2229.77900626581004
2261.89093369116972
2298.02849075012227
2326.97158382409543
2283.34041738435189
2281.35599885529973
2275.09767821855712
2265.12736727083029
2252.84021765058878
2238.95268219409718
2224.40275685596498
2210.63882155558758
2199.44801838548074
2192.96885540993935
2193.78172653394677
2204.55245693435108
2226.80866692517793
2260.95711748804388
2299.31533456263514
2327.44814380533762
2281.4382074782925
2278.93072116860094
2272.4973100228267
2262.44990676953694
2249.91322121054736
2235.70217934549419
2220.74019039496943
2206.42082206951727
2194.5464072201521
2187.39700744097945
2187.73410752958353
2198.61722926680341
2221.97091299761587
2258.7095786134455
2300.62147752461851
2321.80759130380329
2278.7732360381824
2275.84811599190471
2269.15249911827777
2258.92614526016996
2246.07265223401919
2231.41820802681286
2215.88169504017424
2200.80368564541959
2187.99257559452053
2179.87506401588371
2179.46072643372281
2190.30871923756331
2214.99343359301247
2254.9849406480148
2301.93603302822339
2310.14242854646409
2275.36772140752873
2272.09858485680024
2265.0859057105049
2254.58785894600351
2241.33971876343412
2226.12409802604179
2209.83901820968913
2193.77275991716124
2179.73197896948386
2170.28592902499531
2168.74380796749847
2179.2724395631858
2205.39214384017987
2249.27876424158512
2302.79828637285436
2306.23104489436628
2271.25227034704994
2267.68455657989489
2260.30641647661923
2249.44865976840356
2235.72106798213053
2219.8255995687673
2202.60990097806371
2185.30012813990561
2169.68807798251646
2158.46919224363
2155.28500355259439
2165.02127764284705
2192.48708369694214
2240.94304894989682
2302.68545141233926
2305.93125464393825
2266.44988113373665
2262.60210718331291
2254.79848613304785
2243.49866241345262
2229.20575606489319
2212.50691462004852
2194.16655840157864
2175.32914179961017
2157.741741565143
2144.19407265388236
2138.67127876618906
2146.85072509276279
2175.27182872156891
2229.12618120040543
2300.60449296578508
2306.87383522550635
2260.92484071126592
2256.76866072625762
2248.46598907841008
2236.65312439395939
2221.70919563488587
2204.07335027364616
2184.40097516154492
2163.72233877938106
2143.67671439348533
2127.09194377663835
2118.2786470761248
2123.64445513976762
2152.10751517710105
2211.88986186910506
2295.27105597521495
2304.68406107377405
2254.4530780224768
2249.85567424284864
2240.97432829479567
2228.60195354008556
2212.92093628511975
2194.1939021397875
2172.95137567949178
2150.04769680985373
2126.95317752703022
2106.40970355730178
2093.02598176464107
2093.66988802319884
2119.73640971886971
2186.97924898555675
2284.64232017243467
2295.8028656648703
2246.43903895833
2241.0953844665928
2231.53603058331464
2218.55126419147564
2202.01840820950292
2181.99183797306932
2158.84553073802545
2133.13110023747322
2106.1512743160165
2080.38032104412878
2060.75180593989944
2053.83491702164156
2074.3183575875978
2147.79405865617491
2265.54697260771809
2291.60712913114367
2235.6673876751538
2229.05582314763478
2218.66460521657064
2204.93463752072148
2187.33975050302251
2165.68872347858996
2140.11585406914628
2110.62804689823224
2078.47669077054388
2045.88385173394204
2017.17961651855353
1997.86746049030739
2006.83038995511401
2085.0479322770334
2234.03228731858599
2356.54884383321087
2219.59651777386171
2210.95121314209246
2199.61230532083346
2184.89984033392557
2165.86081587076842
2142.03475629185732
2113.19277215546936
2078.37923112541694
2038.91364811959056
1997.05269180685605
1955.06103362007843
1915.77444547526193
1900.68526275848353
1993.25599616114141
2184.76341585966748
2326.41709457274328
2192.56312393019516
2180.87954823733116
2168.75196976452116
2152.64760194728797
2131.46351533859888
2104.41258293037617
2070.62358248631926
2027.6833863397178
1977.25678395204113
1922.87757688089232
1858.33235784819908
1718.85423095474357
1582.94160268530345
1769.69565714501846
2111.52043605105564
2270.28559605943383
2143.51450775111107
2127.57485148389969
2114.9437487618643
2096.28308319988719
2071.50732201382607
2039.31245294673522
1996.92701031958063
1940.24885851172689
1871.67889337656629
1765.57543298508949
1512.26494596738576
947.762467605072288
650.686560127131202
1189.42520539857719
1994.85527514124647
2205.82839603134926
2055.89795741482385
2033.58000906853931
2020.01787113203977
1995.90850928033706
1964.83111120982971
1890.80741957729924
1768.29890727085944
1556.83034562480452
1269.98383202630771
1039.72175862125096
597.935709911536151
252.356806312924562
72.2478696596354268
154.599888666742146
1680.98210515865503
2135.45001962652259
2285.84429827961503
2284.93973218715064
2279.00070749450106
2269.43932773219376
2258.23842846273192
2245.56097030080355
2232.73999828634351
2221.49935182021591
2213.70913405129886
2211.41157249294247
2217.10941606880669
2233.06193634050987
2260.26335573672532
2297.75037354041569
2340.07874150505904
2374.34144902969956
2285.37624190615225
2284.07150480912424
2278.13261731814828
2268.57865069296167
2257.1289272390095
2244.37972803529556
2231.47550191396067
2220.05030885845417
2211.99515215367546
2209.48668385752762
2215.08321672427746
2231.24126863014726
2258.97037645574073
2297.85563136667952
2340.72348334334993
2372.31078069102978
2284.26255159453331
2282.37845669489525
2276.34027115898061
2266.76979101822872
2255.12183074574432
2242.20486305942404
2229.06425591213019
2217.27721667917149
2208.78051468541435
2205.88691236225168
2211.27331650527094
2227.65075578531878
2256.18288453449668
2296.92697112177211
2341.58338195091346
2372.80015731158073
2282.40090267299456
2279.99765951819154
2273.78435681539668
2264.13535253904229
2252.2432983248691
2239.00873451807684
2225.46212429717252
2213.13324374353124
2203.98307303431284
2200.46337768849617
2205.43931265497713
2221.97758912607196
2251.60798308722087
2294.70008202753752
2342.28023563116494
2362.23556216141787
2279.79206540314999
2276.96643011384003
2270.49229336144481
2260.66721277463239
2248.4652685949336
2234.79344544854575
2220.67903300432363
2207.60962806882708
2197.56049350742342
2193.13092143739368
2197.43991362619636
2214.02197645398337
2244.98197698327431
2291.06692867101037
2342.84421945641861
2348.56090745645452
2276.45273953419382
2273.26963708947551
2266.48295324301353
2256.39448040609295
2243.80542988216257
2229.57591289996208
2214.71901650526706
2200.68442476904238
2189.45074362234163
2183.76467865565201
2187.05653052952403
2203.43410080832882
2235.83567424472358
2285.48176064064501
2342.86236995952686
2343.00644836121683
2272.4061190980201
2268.89979645390167
2261.75955253061557
2251.32570513385735
2238.26402407765727
2223.35371364825096
2207.57190983084683
2192.32226408279803
2179.5678843981118
2172.19534992184936
2173.99253760424244
2189.7404524850308
2223.49664285812833
2277.34000114263608
2341.69785337715348
2340.32925045358161
2267.67009872821018
2263.8380113416606
2256.29635465799629
2245.4394763859359
2231.81803477174935
2216.10066764050225
2199.20300251901199
2182.45900710619708
2167.78306722162188
2158.18420978863105
2157.84788556947251
2172.28175433391061
2206.96167086259038
2265.70329058115385
2338.54998261604715
2338.06153229473375
2262.2028819598213
2257.98356317435446
2249.97935773948893
2238.62966932953259
2224.36273931970345
2207.7092456258747
2189.4988744917755
2170.95162419835651
2153.87175221375173
2141.38327795295754
2138.04976759038072
2150.03337891553429
2184.95594278033423
2249.1984076533281
2332.46188784562491
2333.82430893200444
2255.77741944773743
2250.9877950292871
2242.44064489210268
2230.55039449779042
2215.560231688155
2197.8406602999803
2178.10107451444219
2157.37919753910819
2137.30056263908091
2121.11339209952257
2113.67842524159278
2121.41517662070328
2154.75029075955536
2225.65225625468429
2321.78010062183102
2322.3385699299788
2247.80732101470585
2242.07302786972741
2232.8360009960943
2220.3449164852359
2204.55789724721853
2185.63394197582056
2164.06841840698416
2140.58697870043534
2116.76331350662576
2095.82537756602596
2082.9003169780085
2083.93231871911121
2111.98521565800365
2190.75935872358468
2303.31334224812235
2311.49544014841831
2237.10113291332482
2229.79193738782351
2219.56234220456372
2206.3462390968557
2189.63806937052641
2169.33582445478214
2145.48234055806961
2118.28187088212462
2089.62722977411067
2062.55509094473746
2042.34619107868002
2032.56053334108333
2050.7132346262606
2135.73784465564313
2275.01885358772552
2322.27700136923113
2221.15747076730941
2211.34121154805689
2199.69770673244238
2185.49862715043992
2167.64455777304511
2145.69471413510473
2118.76175838198014
2086.32839375921367
2051.30557894339881
2016.54200865625376
1985.47483676574689
1957.71427676966982
1953.31376311172767
2055.20287046495969
2231.82690494612098
2363.348246582907
2194.40678968347902
2180.83194458114849
2167.45915238500447
2151.89386559027616
2132.36182003083286
2108.16132211378954
2076.33216387787024
2035.92611949395837
1991.64127341077324
1947.52852271085339
1897.48314053477543
1805.92292221299681
1703.8025822471036
1885.64176199633198
2167.50065678986493
2303.79857096228443
2146.01545377796174
2127.1079430045188
2111.5080295149487
2093.71260217668669
2071.35379373700289
2043.30893084406443
2002.55044556089206
1948.38905449802132
1888.96354927880225
1823.53428683078801
1651.79444804423383
1123.24543033990221
879.446686279919959
1432.50703433451395
2071.12758880647652
2235.21213725024927
2059.78715141861449
2033.08799724460391
2013.27342602540944
1990.65666403255295
1952.81194927450565
1890.6678443096705
1773.830112551615
1562.80207946185783
1324.54028800120841
1143.60570796693901
783.689283530229773
318.788682201843699
155.82593566372654
502.828444275680283
1745.26469296504865
2168.3852198809609
2286.65354267782686
2285.80260941168581
2280.05724298896939
2270.83311261511244
2260.13229933600178
2248.23338902064006
2236.53791641125599
2226.84337141919741
2221.08513524593036
2221.40166336852417
2230.21558333908115
2249.70713458507498
2280.25936955727411
2320.89537369666641
2364.85889233127864
2399.00637640903642
2286.17821090394591
2284.93705479124401
2279.1962874058604
2269.98081209218708
2259.04093532042316
2247.06892319934241
2235.28951166020033
2225.41588852656378
2219.41841399813165
2219.551987894582
2228.32979496772168
2248.05002232955121
2279.23038510080869
2320.97717361439618
2365.74750982799014
2396.87870156906138
2285.04799771920671
2283.24932324497104
2277.42257480970693
2268.19364638506795
2257.05799862853655
2244.91613466856734
2232.90219919183892
2222.67756313975678
2216.26497050117678
2216.04788269047094
2224.6664473597607
2244.63465407191916
2276.64531961687544
2320.13086389099544
2366.50107157392904
2395.21980239994173
2283.16088850202004
2280.87669377096427
2274.89512327422108
2265.58905573839775
2254.20687791152886
2241.74660124865431
2229.33160916422094
2218.58083665631739
2211.54884067521425
2210.75473229973113
2219.02513716384919
2239.2045538399384
2272.32715705158171
2318.00541017993328
2367.02723971016303
2384.88737888012065
2280.51640865877152
2277.85898790139436
2271.6421739566299
2262.15673056518244
2250.45596442571741
2237.55672001829953
2224.58122316629488
2213.11178109576349
2205.22601280731533
2203.585867267303
2211.26603711070538
2231.55821218563142
2266.01147108407349
2314.48731776687964
2366.3141352098155
2371.50992039911171
2277.13233843832359
2274.18904375382681
2267.68281252606675
2257.91977356427105
2245.81529528664123
2232.35626617261323
2218.64916290855535
2206.24498048304122
2197.23453734120676
2194.41715463650553
2201.17531337370838
2221.35949608040937
2257.26725139983364
2309.10366562941726
2366.4834088811258
2365.35003085670814
2273.03591830779533
2269.8713542407545
2263.01750357578112
2252.87902906121144
2240.2790337437068
2226.14072628513622
2211.52510305151463
2197.9475322703579
2187.49358380392232
2183.08164382619316
2188.46060509735798
2208.15184858102521
2245.4436139242739
2301.28029210114528
2365.68994501504994
2361.45540544127198
2268.26503163814368
2264.90180859198381
2257.61330389167824
2247.00566609681891
2233.82739286370952
2218.89867253235525
2203.18982901436902
2188.17252845073699
2175.88810402827903
2169.3470470719617
2172.72508264145972
2191.28431955746282
2229.70004815509674
2290.16731634925736
2362.33955121704821
2357.10449647060341
2262.82603893582473
2259.18232799338057
2251.34820805122445
2240.19439177056711
2226.3844250198581
2210.57144217054019
2193.58376548995011
2176.81979901453769
2162.21756350248188
2152.86892684538225
2153.39397321101569
2169.77474675872418
2208.85160185256791
2274.67446218091754
2356.26743610133053
2349.66717787228481
2256.56526666382433
2252.35901649126663
2243.85844087842042
2232.14096326101026
2217.7091267449141
2200.94517012450069
2182.47459982463306
2163.56016277746767
2145.99314173629864
2132.97464288370566
2129.56253619310064
2141.84859516102733
2180.19322260272338
2252.84503078188663
2345.50937238479082
2341.43055182424814
2249.01215042804779
2243.66319046166836
2234.32729697104469
2222.14109347491876
2207.2017537774218
2189.44333960336098
2169.14785255561992
2147.37734129083901
2125.94390538365269
2108.1264530435983
2099.54562110768802
2105.13165132569748
2138.66495829078212
2220.8389170298351
2324.77508124879341
2330.25052313477954
2239.14488690858707
2231.69858141115219
2221.24583092538751
2208.8079512772083
2193.61270070602541
2174.7588401453695
2151.93628220992787
2126.08228348440434
2099.5611635624532
2075.47669004340105
2059.78731678321901
2054.63106960712184
2079.51005740129494
2171.9168132123923
2297.92716543389679
2313.88773135937527
2224.67254779149198
2213.79693387250654
2201.81291866041192
2189.46686090643198
2174.37057217909069
2154.10273914814388
2127.48689976145624
2095.65508799633153
2062.21586002191907
2030.4107971580338
2005.09479758510906
1981.64117846943759
1982.83564013658838
2094.13279492716447
2260.87935634222185
2323.15722469635966
2200.35613149214305
2184.2782991225431
2170.44798284222452
2158.75241802750406
2143.98848086595262
2121.45955702012134
2088.52841680793199
2047.52025269232536
2004.06298043046877
1965.34627423252232
1919.77340551001976
1826.79865354563049
1767.10306722418818
1943.51675592795709
2205.67201823359619
2332.04646568713633
2155.78279838545086
2131.87412516855011
2116.56878056951246
2106.13008750427798
2091.48173652469086
2063.83565406382968
2018.96247879389921
1962.98878473127138
1907.10710248852661
1848.42695757261799
1665.02778814249564
1183.27684938498169
1037.39730344498435
1604.08007996236097
2123.03563910141611
2256.97595905245407
2075.22990015329242
2039.20970208862491
2022.76691309372427
2012.83606591864418
1996.92188951941216
1938.60339601864484
1791.10153153972306
1582.03898532820631
1383.52869106925755
1196.2556015205937
827.397636892472292
324.96133000535184
275.947942367575649
890.894458714373627
1948.50500602580246
2183.9109082207292
2287.42157653946651
2286.59380359153602
2280.98628535518219
2271.99890271230879
2261.65372333103687
2250.32940428617212
2239.46964579430687
2230.90568066795822
2226.61623577506225
2228.74698411813506
2239.69158530375853
2261.32581316298638
2293.87715278353699
2335.45367006700508
2378.19046324072042
2409.17105436209522
2286.96711993033205
2285.75839733743396
2280.14178762793335
2271.15566673540752
2260.58024013811109
2249.18520277425796
2238.24406737174058
2229.50856257642545
2224.9915398090393
2226.96517986065874
2237.881163531325
2259.78466769951592
2292.85457500879693
2335.487137381715
2379.84680888920548
2406.82823483999164
2285.88278790972163
2284.12334725062783
2278.40132179955754
2269.38980794106192
2258.62089175492065
2247.05969088923121
2235.8905756064355
2226.81349345475792
2221.89373772437193
2223.53586061306805
2234.31282852149434
2256.49083851299656
2290.36547734546093
2334.69058505998692
2380.59267738685776
2401.58248216837274
2284.06832151821982
2281.82104245227538
2275.91597542149975
2266.81171852921443
2255.79848752918588
2243.92887797042977
2232.37140999944086
2222.78000103028899
2217.25346317021922
2218.33977433670498
2228.80014731790016
2251.2213286179599
2286.20644627666707
2332.6163727541134
2381.20493992925049
2392.53857357789775
2281.52149076021215
2278.88224706266783
2272.70577475002165
2263.40826289324468
2252.08305049351429
2239.79186311736294
2227.69296776983447
2217.3956087192314
2211.02557633229117
2211.28843393152147
2221.1996420398882
2243.77935417041863
2280.09800284223456
2329.18060621330415
2381.3687942252036
2381.33628439830045
2278.2513460422233
2275.28125492909385
2268.77973529279461
2259.19979539650694
2247.4866752134717
2234.66280972815093
2221.85768830612324
2210.63544903736238
2203.14397150709374
2202.25273247169889
2211.29542917280196
2233.83919094791827
2271.62890048005193
2323.96529914238909
2381.09697352524927
2374.54828256241171
2274.26661306627011
2270.99407694532829
2264.12986957677185
2254.18922549417994
2242.00960652076446
2228.54320184817016
2214.85771235624316
2202.46179248482304
2193.51811812633605
2191.05734487696918
2198.79106608647771
2220.95098468918104
2260.19762393300607
2316.41436645747353
2379.57076001805444
2369.16669542717727
2269.56140560058839
2265.98249919813998
2258.71963948757411
2248.35588960884616
2235.64085795974324
2221.42480978966978
2206.66946074419093
2192.81127635966641
2182.01859505187485
2177.46365826010015
2183.28795901038848
2204.47917723434648
2245.02029119804411
2305.77030331973674
2376.08391230304005
2362.89336379334645
2264.05938883755198
2260.13097645965354
2252.43283820425722
2241.606692783173
2228.31514182259025
2213.24866172270868
2197.20830380861435
2181.55212305730765
2168.43020187094453
2161.1242122358658
2164.26145226352082
2183.55234921346846
2225.15876267404155
2291.04761226469509
2368.84315434172549
2353.8966971524992
2257.47889887786596
2253.083102885264
2244.91965515068568
2233.6555416426354
2219.80573268727403
2203.7823198295423
2186.17661900937082
2168.31382839655498
2152.25654436326067
2141.41506086416075
2140.75816754594507
2156.51492331493364
2198.51929597481603
2270.67838084481127
2350.32109832866854
2345.89307788114093
2249.14418758334023
2244.03476280766927
2235.36660983271076
2223.84388739404858
2209.52393856895742
2192.35793650083679
2172.73007711103355
2152.09000292493829
2132.30463012676319
2116.93248339321417
2111.2245972978053
2120.64147868371629
2158.88635306716287
2242.04775051361003
2331.40497711843364
2335.90955114073995
2237.73907593616832
2231.55452843791954
2222.2700135411892
2210.85629633223198
2196.19841633778015
2177.47897034428297