/*--------------------------------*- C++ -*----------------------------------*\
| =========                 |                                                 |
| \\      /  F ield         | OpenFOAM: The Open Source CFD Toolbox           |
|  \\    /   O peration     | Version:  2206                                  |
|   \\  /    A nd           | Website:  www.openfoam.com                      |
|    \\/     M anipulation  |                                                 |
\*---------------------------------------------------------------------------*/
FoamFile
{
    version     2.0;
    format      ascii;
    arch        "LSB;label=32;scalar=64";
    class       volVectorField;
    location    "0.360000000000000098";
    object      U;
}
// * * * * * * * * * * * * * * * * * * * * * * * * * * * * * * * * * * * * * //

dimensions      [0 1 -1 0 0 0 0];

internalField   nonuniform List<vector> 
29184
(
(0.0244892176233603882 -0.00992921276655833913 -0.0223220049294396948)
(0.0818346040419071913 -0.0150432152158357767 -0.0250134710874168747)
(0.14655855183722416 -0.015893932049975551 -0.0275358779044422644)
(0.221385642486287615 -0.0158590098569276611 -0.0318906687612201048)
(0.28446388125077382 -0.0146895700903950793 -0.0383420065451830702)
(0.343859032585763447 -0.0136563870673142764 -0.0476831809600363685)
(0.401466912989855762 -0.0130143887380864635 -0.0604538001671651448)
(0.457131986997464768 -0.0126348753478425294 -0.0787616382381012975)
(0.510153783905235247 -0.0118737653970014765 -0.101811963592731869)
(0.558341329540514963 -0.01104150852105832 -0.136452858593682891)
(0.59983898240980571 -0.00912552018388009499 -0.176824559776983303)
(0.629966730417233056 -0.00776282591571522511 -0.245114065965937489)
(0.648557924171649591 -0.0046799098908066588 -0.31550853096596615)
(0.64134172016094515 -0.00485764081731901703 -0.463112100823097561)
(0.624765699937927632 -0.00307294345951058959 -0.612093982579195006)
(0.317490696325543276 0.00793310654115554452 -1.17410472660878606)
(0.0260306127954553872 -0.0324197699855916649 -0.0223891491293726902)
(0.0842679354691120847 -0.0456233677644477947 -0.0244929926936383983)
(0.148813372666380644 -0.045741698356717736 -0.0269687369807334251)
(0.211452982760666347 -0.0440251255162734043 -0.0311170748500461183)
(0.271452704781275589 -0.0413968185836529126 -0.037487096823019192)
(0.330206494730915123 -0.0395273713352180256 -0.0466625189820513223)
(0.38778392499320169 -0.0383695640918400374 -0.0594419386902669614)
(0.443615056539820085 -0.0373863954351761618 -0.0768966771629392698)
(0.496951490789812489 -0.0354886113406786829 -0.100499935814847216)
(0.546277085013697872 -0.0329014118118243909 -0.132581481161384018)
(0.589836032784416875 -0.0283380902837911605 -0.175964681225113606)
(0.624297497135159474 -0.0240389527146331571 -0.236730218203200754)
(0.646627794198342376 -0.0172812279754480172 -0.3187702575351406)
(0.641681769909387634 -0.015166066922219246 -0.451238449524549279)
(0.626125784290285869 -0.0190586940412319529 -0.616205190065370445)
(0.352089719324911343 0.0251311896645822624 -1.2026649538463734)
(0.0277086005259854253 -0.0571790172378760994 -0.0223150766770307957)
(0.0866902667738710664 -0.0739958879385230334 -0.0245230530498498564)
(0.149461201233424157 -0.0735304989632002692 -0.0269391467531728164)
(0.211563486802397199 -0.0706875483278391614 -0.0309528080792727048)
(0.271768735540309447 -0.0678387709650678239 -0.0371908334856479172)
(0.330834661888013803 -0.0657596572108508776 -0.0462374442964607613)
(0.388783938648217309 -0.0641449572044076877 -0.0588488422452176918)
(0.445183221516408378 -0.0624190138003973133 -0.0760927433862221003)
(0.499158234701703507 -0.0595721360010399645 -0.0993804510422307136)
(0.549236438359599344 -0.0552375354018638937 -0.131066915272434331)
(0.59339552857460498 -0.0488454616328987401 -0.173872695774516806)
(0.628429036862059642 -0.0410407558865943795 -0.234074182458911678)
(0.649571937009122968 -0.0314750442127431432 -0.315469580398372251)
(0.644014071331288296 -0.0237339749158591712 -0.445986269305920113)
(0.621644408345513266 -0.037643018246381367 -0.611590204307240537)
(0.331086036606786926 0.047713455370345173 -1.18260792282943905)
(0.0288416828393825604 -0.0826836709534863185 -0.0223893886399512791)
(0.0883472478503320724 -0.101550867785149476 -0.0245426699014135857)
(0.149989353235881279 -0.101308212329764238 -0.0268072171380000154)
(0.211385820534004454 -0.0978921469328470073 -0.0306111560087414629)
(0.271586476774276941 -0.0946654085513763677 -0.0366543145928470912)
(0.330900237835286881 -0.0921675131012402865 -0.0455210587505182965)
(0.389207364622574659 -0.0900335277512266802 -0.057926875475855677)
(0.446174092004857303 -0.0876838334056636026 -0.0748877222265004194)
(0.500903711374917404 -0.0839063765864334621 -0.0977861401026479671)
(0.551942243467047455 -0.0779925495974815586 -0.128918778083274649)
(0.597170653010409391 -0.0693935707987022865 -0.170991059796672173)
(0.632928109431170283 -0.0577787505556117756 -0.230278556218017322)
(0.653658032376863263 -0.0439871506361263903 -0.310873097584974167)
(0.645640557270234505 -0.0304555576804339499 -0.439301677618615161)
(0.619109808851169396 -0.0443831028642507827 -0.603684631465593702)
(0.319023128330740535 0.0663120644060369718 -1.16152242820541596)
(0.0295434640472463129 -0.108977831842388712 -0.0226252412151068498)
(0.0894305632280472801 -0.129008492256130758 -0.0246230577771265405)
(0.15042100167437239 -0.128823563237885241 -0.0266255692241266183)
(0.211395549756052847 -0.124935448703244509 -0.0301203841514670091)
(0.271674023365186701 -0.121340517771356765 -0.0358993957526188151)
(0.331279032689528352 -0.118524301748203414 -0.0445400861717584959)
(0.390001183801153728 -0.116014737215579533 -0.0566979800813550011)
(0.447618446242916523 -0.113172256880526678 -0.0733294723224511835)
(0.503287766324613473 -0.108560783246121534 -0.0957657690961209035)
(0.555610936293351787 -0.10123339542792302 -0.126208708291053934)
(0.602415150901103091 -0.0903245015371188509 -0.167304182698148257)
(0.639294957138578868 -0.0747152305565874503 -0.225361458658242475)
(0.660140256339641129 -0.0557305128633294733 -0.304633699386776646)
(0.649247008714185836 -0.035723519111690423 -0.430645778833243231)
(0.617742894313676794 -0.0461377715846470957 -0.592961538881573769)
(0.310481469622754469 0.0865836022164938879 -1.13580577196264598)
(0.0299309122752943468 -0.13583988768760516 -0.0229965008712223924)
(0.0900246066459711447 -0.156298822736106235 -0.0247570284952069487)
(0.150687027556488357 -0.156139961196861687 -0.0263589055092853068)
(0.211492565172780977 -0.151976662441705296 -0.0294290546996731905)
(0.2719457749507464 -0.148058175541129766 -0.0348913904560498034)
(0.331877426255123564 -0.144928551518929055 -0.0432874800589992115)
(0.391042496243513782 -0.142091910208994476 -0.0551921507540459808)
(0.449349656232672701 -0.138872725352686244 -0.0715042156483190611)
(0.506110604672709408 -0.133627631913255773 -0.0934568367683923512)
(0.560128806518110256 -0.125175604226488962 -0.123051495650903869)
(0.609151158656445646 -0.112007411589116174 -0.1628456560492062)
(0.647899244322840628 -0.0921110614685181905 -0.219192013594838392)
(0.669451541010042339 -0.0668121818999096589 -0.296601939438631834)
(0.656146262208126108 -0.0389468748080031429 -0.419748072108520831)
(0.618188481048708049 -0.041790546405558425 -0.579795351171326856)
(0.305072183601157676 0.111078203949422499 -1.1074693850800188)
(0.0300253012121485668 -0.163044115127064237 -0.023411382729995274)
(0.0901382313534325047 -0.183545764412328283 -0.0248467378957672388)
(0.150756503803434999 -0.183395604492583908 -0.0259033262124495692)
(0.211686831787434387 -0.17903937937469927 -0.0284630224984422538)
(0.272449988722559544 -0.174744434285322048 -0.0336059124544236185)
(0.332727064138666317 -0.171240552344295499 -0.0417827957099755481)
(0.39230909704261685 -0.168118093329526236 -0.0534864498236064523)
(0.451290167678682907 -0.164712534717651821 -0.0695518909109332228)
(0.509354324998826269 -0.159239044437582938 -0.0909740634638271789)
(0.565690939549328142 -0.150157727885186304 -0.119380993364448781)
(0.617766561999398611 -0.134939224354015036 -0.157312603950563928)
(0.659358757236079951 -0.110397739366892164 -0.2113330481965775)
(0.682572559162265002 -0.0776189856056084537 -0.286259728372707689)
(0.668178029075043867 -0.0394441959043794407 -0.406102055256739536)
(0.621245486769299804 -0.0309493784989446977 -0.564375778435359576)
(0.303392800485003111 0.141607310974398382 -1.0784243744406028)
(0.0298865531893524709 -0.190324242044319664 -0.0236937628682789524)
(0.0898538768247448133 -0.210723187284331259 -0.0246898824816606903)
(0.150723660962434114 -0.210649130233294318 -0.025111311941190595)
(0.212096891519544611 -0.206109879726840334 -0.0271642763759111158)
(0.273296512369334388 -0.201274063505794965 -0.0320558940535443787)
(0.333881364675619186 -0.197274980535136479 -0.0400909312384098021)
(0.393770473188363224 -0.193924640283248545 -0.0517051191795206561)
(0.453398465616794311 -0.190692380552619833 -0.0675804994234239648)
(0.513165852867601524 -0.185710524348817907 -0.0881891732142687929)
(0.572605922582441584 -0.176703324186667399 -0.114688148308811119)
(0.628556416133202456 -0.159709392832883601 -0.149980442423064658)
(0.674225493227773587 -0.13018741793453259 -0.201057814534878809)
(0.701319133502003034 -0.0885699762310444283 -0.272876899206066781)
(0.686747420729532321 -0.0367688590072765137 -0.389324114857456938)
(0.631252777408996213 -0.0132558225292676579 -0.545783971628662212)
(0.303423968146064149 0.17995902734472391 -1.04613110683830568)
(0.0297464901551239662 -0.217448556927025721 -0.0235979309330815387)
(0.0894417541145396816 -0.237814940510940043 -0.0240361906617910792)
(0.150869691503191516 -0.237929708344794905 -0.0238681048380481875)
(0.212950842335696361 -0.233074448180200455 -0.0255395514579817955)
(0.274622707641545727 -0.227390353406672602 -0.0303189184934294052)
(0.335371825111345001 -0.222768399869700151 -0.0383373682676163632)
(0.395380238600529788 -0.219372118765216284 -0.0499740815132442839)
(0.455715406994249117 -0.216991677008214534 -0.0655048688514661276)
(0.517748962397989065 -0.213540661155268152 -0.0845506017489137812)
(0.580845832365025627 -0.20530174917564159 -0.108111428689197819)
(0.641222901043523197 -0.186821702905302173 -0.140176297383670295)
(0.693134170174418696 -0.152342028512655991 -0.188024816183398336)
(0.727498546312389527 -0.100206264869049655 -0.256461223803846838)
(0.713756993468731449 -0.0306345804780720626 -0.369926762446360469)
(0.650125065346421893 0.0127606606341401467 -0.524012332645368284)
(0.307958829107448373 0.227199384938785026 -1.01145854462322893)
(0.0300520675080859084 -0.244365918384466779 -0.0228248369766423861)
(0.0893813620638456846 -0.264903403964614315 -0.0226632975407267991)
(0.151596337652959379 -0.265249018883062349 -0.0221686176513836743)
(0.214462565558281693 -0.259761476035207939 -0.0236762136537492264)
(0.276475577811653661 -0.252839145584986102 -0.0285413406538159546)
(0.337118950348065882 -0.247583981655356222 -0.0366869192628924007)
(0.397032601924580453 -0.244590438443839459 -0.0483257702464888125)
(0.458233377608481762 -0.244159593808557313 -0.0629393733577639225)
(0.522914080456983843 -0.243388092417182428 -0.079257553520647353)
(0.589457483115749192 -0.236373072703513265 -0.0991373417405108925)
(0.655014921558207064 -0.217151515996172551 -0.128253984694276013)
(0.717359331914386944 -0.17842021377327727 -0.173225586914160956)
(0.763597635219254611 -0.11337919765607074 -0.238467741059811833)
(0.752344687504042708 -0.0205748433080007453 -0.349421254561207317)
(0.676569475508694507 0.0482870097884100027 -0.501701998492003032)
(0.318612071751460224 0.285959517199683266 -0.976490921882400942)
(0.0313282838129776836 -0.271115399004522639 -0.0211503141558453817)
(0.0901650577606110809 -0.29199451579453195 -0.0203863325371685493)
(0.153210113643671986 -0.292476599007207461 -0.0201570834999583622)
(0.216642692636352607 -0.285942188543339804 -0.0217216347228424873)
(0.278674302961575637 -0.277475104550763962 -0.0269127493043078182)
(0.338830403076990194 -0.271874854759011797 -0.0352823112134682468)
(0.398431809388159419 -0.270135321145663021 -0.0466317478591238566)
(0.460543566345435473 -0.273136619065764086 -0.0593167313908138233)
(0.527550594597636979 -0.275938661876301117 -0.0718609070230504104)
(0.596731616617638405 -0.270678037560830254 -0.0884372351855943067)
(0.670251867215270858 -0.252797672667423368 -0.115929903992736338)
(0.749996950116750272 -0.210304373846577908 -0.158478616028233266)
(0.813272788526075652 -0.127235898467952357 -0.220651544950037026)
(0.803688269526321775 -0.00533019660847905419 -0.330139844683473738)
(0.709880551245393066 0.0970147376412638235 -0.481316897358796569)
(0.330053664212735798 0.364274806064701862 -0.941958129461039295)
(0.0338914302434559916 -0.297497702496031247 -0.0183630868672004753)
(0.0919884092644644158 -0.318625881903293828 -0.0172782121699796322)
(0.155612454515687032 -0.319025241818177596 -0.0181329258055647653)
(0.21907400274064584 -0.311168503778518513 -0.0198443960164518089)
(0.280653035374719362 -0.301154891276897985 -0.0256143926086214446)
(0.339869593348351595 -0.295951147422309602 -0.034181507041508942)
(0.398860432686387323 -0.296639292224273876 -0.0446383114106271572)
(0.461442060045564928 -0.304539983875480313 -0.0542124899688545478)
(0.529624067755210759 -0.311199485401714382 -0.0628601381452380259)
(0.601571563262942255 -0.308949035328279997 -0.0778182949319207867)
(0.689267781570024773 -0.295760182933595073 -0.104839078050585788)
(0.79311664570844953 -0.249517932522019981 -0.143993939646199554)
(0.875052667860075073 -0.141301077628558036 -0.202608071631402986)
(0.864349703629626931 0.0188497351940027438 -0.312729356131690339)
(0.74830299982797388 0.159291391408712707 -0.464581665386304909)
(0.343032151999312973 0.45573295558499366 -0.909795338706557044)
(0.0376226749559194287 -0.323303668231470331 -0.0138138358193823866)
(0.0944990808056393461 -0.344094607176103129 -0.0138401415054310983)
(0.15802998580691241 -0.344012093724840151 -0.0164493821249490357)
(0.220706057586929127 -0.334940819213895125 -0.0181590238546955191)
(0.281337653131286725 -0.323762925256822931 -0.024722790804520986)
(0.339162705686138266 -0.320046402025663035 -0.0332812496416771408)
(0.39700597765222595 -0.324157374005826837 -0.0419855498218284079)
(0.458926143722304392 -0.337705946082370256 -0.0475622152727452063)
(0.527126140637377949 -0.347755656831888416 -0.0536488974981614714)
(0.604288467226209547 -0.350328979690770481 -0.0688621128595206244)
(0.710535704006662217 -0.345777423910406223 -0.0945521003790521092)
(0.835168384968026811 -0.301323115129084274 -0.126412000139033504)
(0.931954059673509416 -0.168919532603675537 -0.178872333636411474)
(0.914508312209997398 0.0493580965148197187 -0.293746140248920484)
(0.776650740961382868 0.240629379019502099 -0.452759498675392336)
(0.355020694368695877 0.564708160184329233 -0.881196189271150732)
(0.041877700002293447 -0.349473493592947826 -0.00791628356264674482)
(0.0967651204488901573 -0.368570506130693365 -0.0110397664583721383)
(0.158886973270353477 -0.36733499705162298 -0.0153012027142370929)
(0.219747445276246789 -0.35764858409177791 -0.0166131776941611312)
(0.279127463911188534 -0.345986640420823777 -0.0240618114856428374)
(0.335122410319793784 -0.344961258767117585 -0.0321500128519054407)
(0.390872277691145853 -0.353008443477861811 -0.038019129644143862)
(0.450701306247666911 -0.372318013916160262 -0.0395347228244944948)
(0.518825799314233005 -0.384859203139218731 -0.0456659475651890745)
(0.60266893594088955 -0.394656964213911332 -0.0613134396226826736)
(0.716637267901099495 -0.40393765403473203 -0.0820591975811765101)
(0.843102062468943925 -0.366208322008768461 -0.10133596413630927)
(0.957721237356898292 -0.205464594620051483 -0.14220655544862229)
(0.911932404507672212 0.0548548541551560492 -0.265055626726637461)
(0.77048704771127674 0.302417238821643675 -0.444339577977790279)
(0.358468801718446972 0.681458645374585892 -0.858869731870196218)
(0.0452889744475912306 -0.378274529096194967 -0.00360816373237899486)
(0.0972049775928724158 -0.393394798330711115 -0.0102853662004649387)
(0.155677020902419 -0.390265156730006335 -0.0145379663060355279)
(0.213526558401241545 -0.380924701921874276 -0.015015698088793248)
(0.271627388133518277 -0.369880545431388763 -0.0231245660829628025)
(0.325017459152229404 -0.372882152978786907 -0.0298925642548123378)
(0.377154126390261524 -0.385625203353938573 -0.0316711330857131768)
(0.43412862134775515 -0.411616851166790976 -0.030234438589388811)
(0.501855070378325996 -0.426137527625614354 -0.0392006124743384879)
(0.585151806409805464 -0.443801632031281645 -0.0525866226760335481)
(0.683569426945428882 -0.466453004107358016 -0.0648750775872070085)
(0.791794743705656612 -0.412645406770001832 -0.0706220751362927612)
(0.869940758237126355 -0.195049722481172139 -0.0901533623873841394)
(0.764958534497475418 0.153240114643544756 -0.218712659890766659)
(0.699382638102259757 0.386256555182377836 -0.436181228616309757)
(0.351083523357315908 0.792044521234412824 -0.839898063450702947)
(0.0448689386301209525 -0.408813415632930055 -0.00296012385651537192)
(0.0929174965999962493 -0.418082208163496671 -0.0130338488827862614)
(0.144234104761554766 -0.41307181456902875 -0.0137577502800461209)
(0.197620894266904212 -0.40519928098724789 -0.0131043114634399917)
(0.254157248126305746 -0.396546781268525605 -0.0206806109765143437)
(0.30344695600290128 -0.403991992004703038 -0.0249272500701909795)
(0.349985199325442364 -0.421916593342143376 -0.0218020339505141693)
(0.404619734491431848 -0.455287561320310508 -0.0191729434033547745)
(0.468468593564949465 -0.469406461813739684 -0.0315849257076598125)
(0.539433389386450357 -0.486374787169387424 -0.0415891359291853321)
(0.60400256095762983 -0.506016660697894305 -0.0444525782906490183)
(0.6643289757163513 -0.428469122624110965 -0.0378328477038129968)
(0.647079056800831665 -0.141090257212503178 -0.0212502560191761697)
(0.506437837666805279 0.277160816122031806 -0.164096562857825756)
(0.544707643118144125 0.446523302596037897 -0.422826529396016393)
(0.317488010189268088 0.884359263299864917 -0.821879548453577691)
(0.0239819687128222589 -0.00994088896740258528 -0.0216749065958130663)
(0.0801909236640341444 -0.0150232500624007739 -0.0242291328299128299)
(0.14371034571579458 -0.0157937285156882525 -0.0266699364043143892)
(0.216516176689713791 -0.0156535736783234881 -0.0308736098874440243)
(0.277099006399305126 -0.0144297579197950662 -0.0370869452217201315)
(0.33353040374806453 -0.0133604778397878095 -0.0459977360416722186)
(0.387282456197367397 -0.0126740632233776629 -0.0582991931307472872)
(0.438011354783847007 -0.0121559682121020404 -0.0752993922934807186)
(0.48417837746885517 -0.0112845185165044437 -0.0976615413062061066)
(0.523294228807194561 -0.0100816217745084234 -0.128425944638330375)
(0.551699088965417639 -0.00808606624072354466 -0.168233014528139713)
(0.565285883289165292 -0.00621124862892333263 -0.224052046563779556)
(0.559055096327902179 -0.00315996124601309377 -0.296054294866513579)
(0.525689764691383954 -0.00271136981077961439 -0.395058915882545048)
(0.45321661507488048 -0.00320818115212288249 -0.537489937450418953)
(0.333789973470614065 0.0151671651399859879 -0.642191655131921668)
(0.0255131822631335936 -0.0324576058952732033 -0.0216714570548685904)
(0.0826444890279483813 -0.0455126475005434156 -0.0236750567379788272)
(0.145803025787237861 -0.0454197064299487543 -0.0260902263646711347)
(0.206708622741155534 -0.0434919674500135328 -0.0301298813328384277)
(0.264522968564552874 -0.0407437140664932834 -0.0362843772392415637)
(0.320498952206789978 -0.0387716404048614807 -0.0450905223992256118)
(0.374482087878461434 -0.0374546206717786545 -0.0572586817458554248)
(0.4256476562747602 -0.0361503188384731666 -0.0737645962183684223)
(0.47271398624497607 -0.0338766492381358669 -0.0958781906071657086)
(0.513660018093139215 -0.0305102588709616832 -0.125616477167922513)
(0.545378626376989861 -0.0254692758725526269 -0.165295491565273012)
(0.56408480564711172 -0.0200204283049981863 -0.219153907336076231)
(0.560812515663527078 -0.012557569629934642 -0.290823425282824788)
(0.53378175036287312 -0.00933664736099998685 -0.391266040512223856)
(0.441412224672577735 -0.0115733702246725162 -0.504827749409066939)
(0.351430663096718721 0.0417763840804364628 -0.706217426969164119)
(0.0271853459174867217 -0.0572182806762181265 -0.0214425803253129911)
(0.0850741558656633312 -0.0738001716638864158 -0.0235680034597025162)
(0.146508529019550332 -0.0730082727380853141 -0.0259777682068861003)
(0.206892598158823132 -0.0698803165203926019 -0.0299504574272002264)
(0.264912993546504327 -0.066844911033479254 -0.0360302810104864701)
(0.321219885021985285 -0.0645913568024809592 -0.044742254365660511)
(0.375616785529706954 -0.0627084986203683137 -0.0567642383131327505)
(0.427402708334163939 -0.0605536884050226348 -0.0730438812456533221)
(0.475188442833541558 -0.0570538453674356086 -0.0948564157636754557)
(0.516931710161681046 -0.0517256130612200396 -0.124180759598841631)
(0.549342147282811499 -0.0442012726269252199 -0.163399538916169096)
(0.56865187877927692 -0.0348097352967884216 -0.216744162214044384)
(0.56443685440618252 -0.0232352468720129039 -0.287773110175975899)
(0.537000894837107667 -0.0147570859303310462 -0.387717135198856477)
(0.437361183377498186 -0.0196082231876665465 -0.502777117267461771)
(0.330952447112631831 0.0732934918266655022 -0.689021024542143423)
(0.0283258512713677364 -0.0827332351592435788 -0.021198615242207338)
(0.0867839140046550023 -0.101293957486289554 -0.0233393488647424506)
(0.147136510966217771 -0.100581038611898446 -0.0257126636199125277)
(0.206825925165425417 -0.0967820139193679291 -0.029596400360574187)
(0.264845401309309503 -0.0933179816970896303 -0.0355754259742177767)
(0.321431067681964611 -0.0905974328824748903 -0.0441678401865028269)
(0.376246596255908672 -0.0881154001155379507 -0.0560076666587436406)
(0.428693033260052536 -0.0852208848409094499 -0.0719933254293410596)
(0.477361639072554411 -0.0805437483103682295 -0.0933864635377073121)
(0.520221008213077596 -0.0733023633632871319 -0.122127804177803528)
(0.553845429331473849 -0.0629686065045143989 -0.160638732254734018)
(0.574081267423146024 -0.0491205330099746262 -0.213193569985424464)
(0.569547226435922704 -0.0323939393378435067 -0.283456037260526761)
(0.540226883495789179 -0.0177039693258469674 -0.382093797883115704)
(0.438294888819085848 -0.0200165442891961608 -0.497423503918567766)
(0.317753326983939766 0.101886708901416587 -0.677446238197509709)
(0.0290525959186533483 -0.109076562141612154 -0.0208919715506578584)
(0.0879717965795447782 -0.128723573975676492 -0.0230623792057452551)
(0.147720798535084158 -0.127884408185482523 -0.0253673153238013135)
(0.206974008212451488 -0.123506585073490799 -0.0291200701882713721)
(0.265059675383119975 -0.119655002823408102 -0.0349700674293173738)
(0.321971049955940614 -0.116594853955712646 -0.0434272241547889459)
(0.377270022840136277 -0.113683466624056526 -0.0550558884401929904)
(0.430490049682762665 -0.1102150752203582 -0.0706824797198516291)
(0.480282259055852645 -0.104483942561687485 -0.0915131162429890233)
(0.524673841438239807 -0.0954575832933513557 -0.119451445032907541)
(0.560095326688765272 -0.0821781403167541336 -0.156951715042616624)
(0.581690425512346621 -0.0635412827703854821 -0.20841332792136491)
(0.577436134407315893 -0.0407803448518889999 -0.27747668011776333)
(0.545953684157165386 -0.0189336906007363734 -0.374593857039476397)
(0.441120860815732319 -0.0160659764061302363 -0.48941086505881265)
(0.308133841219035365 0.131505030311415472 -0.669162711081097372)
(0.0294795968822336892 -0.136048924376815483 -0.0204661826785016189)
(0.0887277771721313863 -0.156064424374787902 -0.0228151939263068204)
(0.14819426080669057 -0.154984495154156687 -0.0249805444266254159)
(0.207227247815373716 -0.150193589317481363 -0.0285328128125059491)
(0.265459042969379722 -0.146038637683070349 -0.0342453644905838447)
(0.322732568321735191 -0.142685493906216654 -0.0425902553189710584)
(0.378547797640385986 -0.139449355666287245 -0.0540067327620031429)
(0.432623179905821942 -0.135601541011167809 -0.0692002348215433327)
(0.48378222524877168 -0.129054430250656743 -0.0892744845231187995)
(0.530225308994450306 -0.118474443041640246 -0.11611700717264474)
(0.56815036984321543 -0.102164680056440985 -0.152268350774396988)
(0.591850509996464935 -0.0782739083028107518 -0.202263995742172908)
(0.588589285306689192 -0.0482965255769856744 -0.269783996263165571)
(0.554967611042711639 -0.017639975292795422 -0.365208242486760093)
(0.446558070927336126 -0.00685408522194938877 -0.479037155910216339)
(0.3009717704825568 0.16304176808069748 -0.658835124784984738)
(0.0296151501500871543 -0.163451595080140927 -0.0198884957469307871)
(0.0890668324224026114 -0.183483036288018903 -0.0226390427383484881)
(0.148545472343070417 -0.181991666830769783 -0.0245664503069406674)
(0.207604685309772941 -0.176832437545838245 -0.02786420093009747)
(0.266094569905075629 -0.172406500483852421 -0.033484950251263218)
(0.323743003428787257 -0.168778764762714306 -0.0417823891214660487)
(0.380058850801018255 -0.165362838647040822 -0.0529827847846884442)
(0.4350422313159934 -0.161453503788672348 -0.0676024615296201559)
(0.48790377221792447 -0.154515261156613626 -0.086624021054463568)
(0.53711100064423889 -0.142737732769996351 -0.112012978725686121)
(0.578396440555106972 -0.123368236025165903 -0.146474633512953423)
(0.60515542748854001 -0.0936411685819809325 -0.194650923921980912)
(0.603743298564635045 -0.055084220618166993 -0.260292853102063348)
(0.568888594883481202 -0.0131454986763836074 -0.353654089176166087)
(0.455044133452012833 0.00878150756393541489 -0.466618667066801496)
(0.295781182225303974 0.197887870919306597 -0.645620187110236721)
(0.0294889438578316739 -0.191055894699237283 -0.019262615284512917)
(0.0890913947128368494 -0.210957305632839431 -0.0224626520589347456)
(0.148924736458232843 -0.208893741492673951 -0.0241187957169766327)
(0.208265755672325692 -0.203384163034936005 -0.0271890500709757212)
(0.267103190642617283 -0.198698309935916223 -0.0328268814378910104)
(0.325083414073346733 -0.194795985356733758 -0.0411455341240506978)
(0.38182364464489027 -0.191405391241732337 -0.0520604206885523293)
(0.437786998321727128 -0.187934866032363784 -0.0658335554298896675)
(0.492887381959754345 -0.181247133307785135 -0.0833991010440867653)
(0.545708993907907169 -0.168686741535306939 -0.106990161683002252)
(0.591207513563053233 -0.146193900145360461 -0.139481619260674816)
(0.62219052269769437 -0.110016716974863621 -0.185509475951142588)
(0.624573620606898694 -0.0614615417015069235 -0.248747321597073467)
(0.589572082509160378 -0.00499359277956636094 -0.339910211741595025)
(0.470102633294535721 0.0311089184549414484 -0.451247978386995208)
(0.292759506290345639 0.238739585278173044 -0.629859553938811545)
(0.0292676972029606124 -0.218661334796569684 -0.0186732046888057439)
(0.0891257072833932101 -0.238424920940468077 -0.0222149599546814791)
(0.149705876153613693 -0.235640417654555706 -0.0236628849605432998)
(0.209498218729760544 -0.229761640292376945 -0.0266308726070696826)
(0.268674472611278414 -0.224793106914058738 -0.0324223715348352232)
(0.326869275772603551 -0.220610659255868008 -0.040768824131846057)
(0.383911008661008357 -0.21756962769179905 -0.0511878586586190648)
(0.441028447686646674 -0.215277652173978262 -0.0636621427229003278)
(0.499085777503261274 -0.209593698559478708 -0.0793203456522199452)
(0.556197900816319035 -0.196475225911825396 -0.10087117098117386)
(0.606545067140560445 -0.170749059212902843 -0.131163178348540299)
(0.643711964973793571 -0.127912111900694681 -0.174670334159671398)
(0.653025646423576522 -0.0677568431985583197 -0.235152073579806359)
(0.618421172395495211 0.00719816452836671491 -0.324287599970822848)
(0.493925478349546199 0.0613493306760307458 -0.4334768057712724)
(0.292952005153306605 0.287576466471810066 -0.612204793321326379)
(0.0292920426216779044 -0.246243060382823731 -0.0181347451894052145)
(0.0897161535482638162 -0.265875710717337455 -0.0218241554569623304)
(0.151376234045038305 -0.262229959539646895 -0.0232500101813888464)
(0.211563884762548032 -0.255909983091310023 -0.0263104423067814751)
(0.270938490957961409 -0.250620740772253714 -0.032362718984340233)
(0.329166216962827163 -0.246174895747339278 -0.0406090929002558554)
(0.386357223529577354 -0.243984638061948589 -0.0500996051521843191)
(0.444912904451360725 -0.243813372635427211 -0.0606386524113604192)
(0.506543636995093416 -0.239682142180211499 -0.0740189154966398866)
(0.56792340302290556 -0.225822077069746607 -0.093451165064141542)
(0.623748000941821035 -0.19723973612238721 -0.121355589998446617)
(0.670771672439721467 -0.148443367361537876 -0.16218065651544511)
(0.691033525986994857 -0.0745609488648996122 -0.220307600249801394)
(0.658157831283721073 0.0237002599607856364 -0.307703419975944858)
(0.525599776696773269 0.0998252672129338187 -0.415641642299340475)
(0.296233208371299739 0.348578188794346766 -0.594520552802159097)
(0.0300042011436030716 -0.273937722908612846 -0.0175990136083876564)
(0.0913850832045537964 -0.293221157331216509 -0.0212519516091800205)
(0.154233529451694606 -0.288660601025573893 -0.0229260955114470796)
(0.214486224819138149 -0.281827150421690931 -0.0262792817524092094)
(0.273826649743851236 -0.276227362824884581 -0.0326164760506578652)
(0.331820090702188764 -0.27161253446215089 -0.0404098815209587917)
(0.388948685800820593 -0.271000483956202798 -0.0482539734913296214)
(0.44919502372803144 -0.273891018171385003 -0.0561665643387214766)
(0.514380910463006824 -0.27125505604211686 -0.0672208548435248299)
(0.579075623293508257 -0.25651409048836693 -0.0846840352245865485)
(0.642315421850249035 -0.227173234457106937 -0.11027077653452122)
(0.705500677278559918 -0.173672781465501525 -0.149037867230077586)
(0.741702325042329358 -0.0821955910266978784 -0.205956645502329033)