/*--------------------------------*- C++ -*----------------------------------*\
| =========                 |                                                 |
| \\      /  F ield         | OpenFOAM: The Open Source CFD Toolbox           |
|  \\    /   O peration     | Version:  2206                                  |
|   \\  /    A nd           | Website:  www.openfoam.com                      |
|    \\/     M anipulation  |                                                 |
\*---------------------------------------------------------------------------*/
FoamFile
{
    version     2.0;
    format      ascii;
    arch        "LSB;label=32;scalar=64";
    class       surfaceVectorField;
    location    "0.930000000000000604";
    object      Uf;
}
// * * * * * * * * * * * * * * * * * * * * * * * * * * * * * * * * * * * * * //

dimensions      [0 1 -1 0 0 0 0];

internalField   nonuniform List<vector> 
20536
(
(-0.591273159155305872 -0.847062066396444213 -0.204946526894082465)
(-0.168424683733888803 -0.584185284918848469 0.300302610736052411)
(-0.55901639648585677 -1.01848081202960383 0.0408398431704206297)
(-0.429547237165296969 -0.688752703093831298 0.200260078947396586)
(-0.211015570119173407 -1.17640709799544396 0.176723284645208811)
(-0.496269078611863423 -0.87088620648488313 -0.300818975907186481)
(-0.476989676026726817 -0.741093596425090317 -0.353811187289720108)
(-0.522112738333245563 -0.447114325531143886 -0.470577838347992161)
(0.249721526024042795 -0.770574936195677851 0.681972422275342716)
(0.276444261210916531 -0.425146314929012836 0.414600652669510295)
(0.310867858830495225 -0.354908807903533186 0.503086231401613682)
(0.139439096368673021 -0.39722961376616378 0.64534343077356604)
(0.214327790056129369 -0.562465933092532233 0.515781083132409224)
(0.203945271495613367 -1.35223091512654259 0.573482838952101281)
(0.0573696201048536844 -0.748071857883261471 0.814646171464633362)
(0.0605747334855587585 -1.32006131844568508 0.658291560143905885)
(0.32414643548502553 -0.184326786242639734 0.0794375039294007851)
(0.333320505265480016 -0.112540943158313644 0.0348106371462720554)
(0.239769050375022941 -0.0788826563696009841 0.0176663757172151152)
(0.303172276407712882 -0.145523854315242535 0.0879028280700120956)
(0.323035728255280319 -0.242195795844770578 0.122783812194882838)
(0.355835235506303804 -0.164140472941139204 0.0756730960919527462)
(0.311667277438072876 -0.162328362752286764 0.0682995616304842845)
(0.316791807906846246 -0.210976969347787202 0.126269161319206819)
(0.311976617682224289 -0.321416728599027535 0.175577553754744042)
(0.356772199127416145 -0.21246996753758457 0.121974951782744673)
(0.350970978574869974 -0.271412514056644905 0.113048399071544514)
(0.29922337480571487 -0.25347839727624949 0.175976654902668977)
(0.292732650230688562 -0.413920432672723271 0.248409313526576692)
(0.337448519971390859 -0.266699390650149359 0.176920465244023717)
(0.356762171693709995 -0.400275183677529345 0.161698445557045989)
(0.25004407447044863 -0.346774796904807447 0.250223867522299748)
(0.30940598242924322 -0.327011748774449773 0.233182550357866142)
(0.322953515839356053 -0.424608501907027036 0.22510011245708253)
(0.196242363741298553 -0.465902832957012458 0.346297207029074405)
(0.25248818589660349 -0.441922438370477455 0.317764899880601415)
(0.382687866527359366 -0.109807703221611042 0.031046229308823909)
(0.308367417723248938 -0.13634192340670237 -0.000509214528138973331)
(0.379124555755476822 -0.0362095096490106932 0.0135057509492582176)
(0.363477235518817943 -0.140038523966272394 0.0110954576073930625)
(0.382983130357681667 -0.154159489212263079 0.0748642356798145392)
(0.319075412741662734 -0.172896773108898838 0.0275887115996187871)
(0.396965620636881455 -0.0896302808592138178 0.0565826065359031835)
(0.369369323623267409 -0.170920895612683754 0.051006176659021768)
(0.376184245747418433 -0.187854663735159216 0.123317863272024195)
(0.325213276252224848 -0.203648032441023252 0.0629488061971818225)
(0.399144695202542199 -0.152926511410125726 0.101489160920625959)
(0.36842553583726162 -0.187584315968141513 0.101326587365394349)
(0.357589436461789645 -0.223952036847612779 0.161693702075312862)
(0.327608040561883196 -0.221173068258431305 0.101702957009226158)
(0.380895963334091703 -0.193486305672145309 0.139174768825585271)
(0.352703145769823034 -0.203425722812684784 0.152997424019558736)
(0.326076668901944422 -0.244652894767174445 0.129144302025409746)
(0.352896530940925601 -0.253957430356350489 0.156962882277395688)
(0.324355208355865288 -0.243409987796947863 0.189228351681633711)
(0.33211817373681668 -0.279630916884982594 0.17722242796858137)
(0.249437743818555741 -0.193740577466729458 -0.00396673223734407294)
(0.216485964503288691 -0.168216725160409114 -0.00988221077458253244)
(0.249223996724519753 -0.146932941180583559 -0.00396601299382869348)
(0.240562441337366595 -0.190921651726674413 -0.00911677428164383956)
(0.26276332786476414 -0.218833166889557701 0.015673282116986164)
(0.23297486548150631 -0.193672382864988141 0.00417189749879166849)
(0.266389998660632898 -0.178872445498983512 0.0100565773516628591)
(0.251171341417456673 -0.213384607922067399 0.00805031420045905499)
(0.276024769784737112 -0.233260802221418317 0.0413338999343838831)
(0.246977251905268619 -0.214688130380310122 0.0250479353066795779)
(0.277655414432222747 -0.213608600901494694 0.0286682498061167496)
(0.263657983881720126 -0.221242801823397894 0.0330961552814709042)
(0.293945823271625051 -0.243132142541997109 0.069153556959322765)
(0.263068370048415268 -0.227324564616030816 0.0495512232871546943)
(0.290639000850502927 -0.238912889727739747 0.0521113951087461835)
(0.278797987183009188 -0.225998655804347415 0.0639410119839725621)
(0.280762856218147228 -0.240536263960718699 0.0720745171551930436)
(0.307096525240415308 -0.25682339286814504 0.0750747229259825372)
(0.291193240641965834 -0.239804974963142625 0.0926070487452993057)
(0.310581477670329176 -0.253404353427235329 0.093282822030274451)
(0.201963619427783181 -0.183304040988971989 -0.00174358103844675111)
(0.18441891000182481 -0.176656609089470285 0.000966633794233966301)
(0.185769836207542033 -0.155714305370989764 -0.0145143306033478098)
(0.197935088523693348 -0.175861835027389224 -0.00100269242567738474)
(0.218597888336265811 -0.204153486890768843 0.0135465506884851431)
(0.201387005167400102 -0.195230502378183873 0.00948614850137637251)
(0.210542959856284767 -0.175240247568166446 -0.00238348465697439975)
(0.209587725755992632 -0.195913639441253201 0.011362854345297076)
(0.233055122785451263 -0.22165497151263569 0.0332652586594504029)
(0.215793911903513269 -0.214147529091919059 0.0247186943980887176)
(0.230661610826467411 -0.201313856041931027 0.0164082016195139825)
(0.221250849209285255 -0.209975823515269278 0.0296196903109668154)
(0.248679182678890831 -0.236567867153449019 0.0524721834830248618)
(0.230717327654508725 -0.231719736717913238 0.0423102073710422896)
(0.248130542664390163 -0.224930206725151766 0.0376004184208273626)
(0.235869616685730837 -0.221926173887132316 0.0485594324695025129)
(0.247714094337310037 -0.25015533905753079 0.0585186671512091389)
(0.26471392875130012 -0.245928494717347873 0.0560707763711657606)
(0.253175265628855062 -0.236528744308449584 0.0651893232223910157)
(0.266150894008035599 -0.252539172617754049 0.0685087401080783642)
(0.184334729349631354 -0.188863918523815372 0.0121963633340570997)
(0.165368260100482806 -0.179122192697097116 0.0158295907405736624)
(0.172701340419494836 -0.167009161878939799 0.00103520886812670607)
(0.177799226640464353 -0.179590687428776985 0.0137733632962287605)
(0.198697339579501003 -0.206703913110743709 0.0206582922109799783)
(0.177987520195782428 -0.196422242998096491 0.0204783700630501476)
(0.193784973609373273 -0.183922192143962548 0.00820112216352619945)
(0.188660618058420965 -0.197663928524911492 0.0201720032359535527)
(0.212823355636516193 -0.226459339392785008 0.0337636431096805731)
(0.19036868017463035 -0.216606239140219869 0.0305861825898455127)
(0.211835475485183028 -0.206951780872854374 0.0205783481279819061)
(0.200225314322297065 -0.216490932239554346 0.0314957796304559806)
(0.228559525426227733 -0.247833955169613762 0.0483566910392264834)
(0.204139957340342126 -0.239132517437627146 0.0434885901573852166)
(0.228200407323122828 -0.23168552532083056 0.0357504433050222781)
(0.214496772641849687 -0.237084520512812313 0.0447972562524400833)
(0.220655951120779709 -0.263727216806067422 0.057177164876155942)
(0.244939462955198556 -0.256421236794215746 0.0508400668444251511)
(0.231707016527258058 -0.259177878443658027 0.0586462219496797429)
(0.247519835886538392 -0.269721597771596489 0.0626345617371806412)
(0.158742812460590438 -0.190096948204875937 0.0241115974695666896)
(0.140613218295066428 -0.182127277284107991 0.0252857124519264252)
(0.155389489429727801 -0.17730902283380745 0.0184122708839203585)
(0.153023474816818356 -0.180961121884355508 0.024645485896016759)
(0.169085482185962338 -0.210222908053950108 0.0304062604419156474)
(0.148358144495088468 -0.201898114854042549 0.0301203316293200893)
(0.167713936408335346 -0.1961562625978652 0.0233295077881663024)
(0.161380247864879783 -0.20063367836321 0.0288707221384709653)
(0.180749082372268249 -0.233427095211623969 0.0403111296375501041)
(0.15711113385848241 -0.224900809504857635 0.0385340740780290292)
(0.179982644336139253 -0.218731688068753455 0.0321915841184184995)
(0.171126335981401451 -0.22274647871010686 0.0370290720725056088)
(0.194752051508424562 -0.259363610214907891 0.0523090639943146335)
(0.167649174882446128 -0.25114878238476035 0.0495709144196094798)
(0.193033642834025437 -0.243972443031416297 0.0435757502802689226)
(0.182838544660887004 -0.247358196424760091 0.0480119630414050369)
(0.181432594461592628 -0.280840024845350034 0.0624539770490805113)
(0.208710548104134419 -0.27139849814925604 0.0559435622429647408)
(0.197970363499518492 -0.274505142334178664 0.0608783549928379325)
(0.213139204412990529 -0.287277799958930602 0.0650088254932209009)
(0.129508560001777601 -0.195137181783438279 0.0312944466116798145)
(0.113218742020409074 -0.184951372173632944 0.0294778752830317618)
(0.129648383574435061 -0.182866099245237307 0.0270045853764078539)
(0.125300552561842027 -0.185524044100652652 0.0295478695303641806)
(0.135365271793781716 -0.218097760643718996 0.038248145265433478)
(0.116659661946258764 -0.206399438777127936 0.0354877819405427092)
(0.136055948860269338 -0.204007041007114143 0.0327699729472745033)
(0.129675250579688872 -0.207112824980508814 0.0349732444426324868)
(0.142593359321463387 -0.244441410016669858 0.0477938588600883493)
(0.120530729618062979 -0.231148393764945892 0.0442647507998962381)
(0.143452224506639137 -0.228397307084086204 0.0409858339897570534)
(0.134978285212042748 -0.231698617068850088 0.0432447568772118332)
(0.152374747807535654 -0.274872788462930173 0.059715827474375309)
(0.125551646688764812 -0.26001650298742679 0.0559162507922748575)
(0.15270292300602753 -0.256324637039157088 0.0513979362237253004)
(0.142186051686241766 -0.260185626987133656 0.0541799220574760571)
(0.132925622704927526 -0.294233080407549974 0.0706530098948008473)
(0.16521067101136061 -0.288388282928500161 0.0637862216135649945)
(0.153016409481680965 -0.293700071629392601 0.0676174168739592102)
(0.166731072963578114 -0.310041135047605221 0.0734964931426125984)
(0.099507428410538612 -0.196823834529506247 0.0336712106118946392)
(0.0857032533861004225 -0.184730692424344006 0.0305051471005615173)
(0.101491704575984817 -0.185382272164381967 0.0295682668283982659)
(0.0968879359176835903 -0.186445644390150767 0.0309340927904105424)
(0.100614136722899122 -0.220019219210454919 0.0415043874750054345)
(0.0850054803122802238 -0.205530249075030091 0.0372751735252874056)
(0.10397248160928374 -0.206626994810596321 0.0358417669466995562)
(0.0970216393446577396 -0.208221345793026924 0.0374033894954877086)
(0.10175887049009881 -0.247212062733396409 0.0523871427320826977)
(0.0834384588270102867 -0.2296753944561086 0.0470300694981742873)
(0.106514417887252036 -0.231248396898344422 0.0447690313587133654)
(0.0968304949472944959 -0.233535473361195983 0.0467681652266534603)
(0.10366535429437243 -0.27980636278347365 0.0668534332127003333)
(0.0812153633835931144 -0.258400366732248865 0.0605245352663416683)
(0.10966394413792141 -0.260153627866609449 0.056763983388362374)
(0.0968344511637725114 -0.263712837698763414 0.0595362995845388349)
(0.0786940421205111762 -0.293502676365644644 0.0787799606079697678)
(0.114329888730403423 -0.294732153224041227 0.0723244451680813)
(0.0978539430754020584 -0.300690901853348569 0.0763738974023661504)
(0.107673045807320886 -0.319605122690803933 0.085315525595299424)
(0.0704586610198162933 -0.193503256768845777 0.0341091100139542872)
(0.0602638317371464727 -0.18035455519023158 0.0295446504581586313)
(0.0747467249889417901 -0.183821956927660429 0.0298769179997745125)
(0.0694519154535474109 -0.183304977520613255 0.030853085772955334)
(0.0667472702187495853 -0.214825086653850944 0.0428008555484562028)
(0.0559591741167545786 -0.198706885188076943 0.036732427314327791)
(0.0732053008569196334 -0.203468608096785269 0.0367794309081550669)
(0.065417357616189109 -0.203230522875405745 0.0380293030843184346)
(0.0612545884244298997 -0.239854258239684814 0.0551674620324331955)
(0.0494416765438098899 -0.219695109801101185 0.0471482508383952795)
(0.0704119872726798185 -0.226118386059162346 0.0466822697704238898)
(0.0593529789108476341 -0.226331392470121961 0.0484546119549898735)
(0.0538077427625149596 -0.270127121276940996 0.0724510626616110959)
(0.0402587629702422373 -0.244384169159319764 0.0619861384717756841)
(0.0663635058505482739 -0.252855406656464221 0.0605107409361306664)
(0.0509377640580956637 -0.254028912153661135 0.0632373977000727644)
(0.0277799362258400392 -0.274367310728928948 0.0829933547523214882)
(0.0611193504918293717 -0.285283324610238864 0.0795504511121468139)
(0.039658182268790379 -0.288462390761143606 0.0839611753037379782)
(0.0444167019966661414 -0.30779999368782146 0.0963617047863079002)
(0.0453259603673695152 -0.185487648342812894 0.0321679677585320969)
(0.0389875697536260363 -0.172714560856908006 0.0265224691421421035)
(0.0510691073241870963 -0.178173564380100652 0.0279412906611503538)
(0.0456029885476346361 -0.176258004874652374 0.0287607027940353574)
(0.0379698969201108794 -0.202972601952004006 0.0410798226042668607)
(0.0324236963229927733 -0.187250798490257359 0.03347003056218259)
(0.0464412918700711011 -0.194729275844806177 0.034996748415335642)
(0.0384320442839442347 -0.192686231237607031 0.0360969945188680114)
(0.0273193701081186728 -0.222810208824677475 0.0539669272777376849)
(0.0227828822092761736 -0.203041860160346116 0.04357279052936118)
(0.0394472413012444678 -0.213275748364862072 0.0451920133974393068)
(0.0278895625584974667 -0.211065085130789309 0.0468285232504515384)
(0.0124279853126744357 -0.245950808935014198 0.0725284305624861181)
(0.00918558690623735331 -0.220530043065103348 0.0581565942318311505)
(0.0295318154993934774 -0.234533796227628377 0.0597402399603671128)
(0.0129225910935467925 -0.23220821842725603 0.0624078195964679269)
(-0.00960600132492668568 -0.240371102001036036 0.0792371841404291011)
(0.0159695828735068532 -0.259560775636745567 0.0804253472447612611)
(-0.00814137065193418566 -0.257357290167375796 0.0851108276046989715)
(-0.00779871456923042147 -0.273754762213675951 0.0993886082661268599)
(0.0357695371244259805 -0.150891177974808888 0.0185541105873443593)
(0.0303455133594929191 -0.142996894403093822 0.0149417025249211511)
(0.0360212938257086779 -0.143864302856340553 0.0172310503948059253)
(0.0320181078531738203 -0.162558765438809538 0.0222647355327648747)
(0.0275685132904864572 -0.153355532599532218 0.0176043224003254589)
(0.0326309378946903553 -0.155224198778394995 0.0201699510806581869)
(0.0260128524874723016 -0.174595412035158243 0.0278245319457925862)
(0.0229415489038064281 -0.163740124625965738 0.0216475222823539065)
(0.0320546049843431213 -0.170045312837926593 0.0240366989071318822)
(0.0270506209175688656 -0.166861613692127847 0.0246834670198903261)
(0.0170580608437864989 -0.187014111098214558 0.0359629984872769648)
(0.015895595295273339 -0.173977214806053104 0.0276027144566477756)
(0.0258991986710564309 -0.182584448340556926 0.0304967197396279407)
(0.0185845531600157335 -0.178739819180380621 0.0313867446803613795)
(0.00421839276546424023 -0.19987195966112617 0.047762457483454604)
(0.0056885423771388631 -0.183881399867162787 0.0362347052491974464)
(0.016857383972083851 -0.195673695415176596 0.0398273704606303472)
(0.00626990125209535374 -0.190852686392234683 0.0411872245715633675)
(-0.0137162773132293442 -0.213284598637547118 0.0648653478097741404)
(-0.00863420759411876078 -0.193211808458232243 0.0486868496839262185)
(0.00413827385430146858 -0.209447645867246957 0.0532060259324833931)
(-0.0111663811025004157 -0.203213105866557248 0.0554754382788788386)
(-0.0283747084056812093 -0.201684847783200005 0.0666783245330994784)
(-0.0133237914841077484 -0.224139857747296639 0.0723694980345966493)
(-0.0356145679989482503 -0.215843730014334129 0.0764480315450586367)
(-0.0381417920723936543 -0.227408834904568424 0.0897287045067901301)
(0.0223208942140964185 -0.146033750143147983 0.0139919143379022733)
(0.0183003607640352395 -0.139761543018678019 0.0103626728895953972)
(0.0226928052917565182 -0.139949680813402755 0.0129091574603960209)
(0.0187051459504709652 -0.154933898425335059 0.0169871091499145185)
(0.0159182141865598231 -0.147969306117918198 0.0123368034108183606)
(0.019444203349232584 -0.148798758143552534 0.0153080496077491711)
(0.0130730157819687921 -0.163301244016728658 0.0214257047932091098)
(0.012058883786902546 -0.155521573323621598 0.0152962129082755294)
(0.0182602585389326985 -0.161373979783886679 0.0184560754552266677)
(0.0142584604676159223 -0.157147871615182677 0.0189297949594148356)
(0.00479367736852285252 -0.170759747635812337 0.0278744212185682572)
(0.00627468300202552176 -0.161961445000855186 0.0196258244103173461)
(0.0123163700170411707 -0.169922228366965966 0.0236109680394352671)
(0.00651711456636359845 -0.164608693738555495 0.0242612417606384682)
(-0.00698239490485605928 -0.176818508508994804 0.037159097449669061)
(-0.00201566408901411066 -0.166716389486751465 0.0258510140336756615)
(0.0037140661732089496 -0.177601539851698909 0.0310178044641853598)
(-0.00461692977613959322 -0.17067197485842131 0.0319904643789626977)
(-0.02333915360074015 -0.180863436409753386 0.0504998264072514802)
(-0.0136154489818289259 -0.168987966858200972 0.0347787666208866572)
(-0.00831219684159986531 -0.183962358590801039 0.0415701957327599333)
(-0.0202510007415000123 -0.174661217544819281 0.0431772267353044553)
(-0.0295624560134094341 -0.167890984739276605 0.0475541426497304923)
(-0.0247858935553217502 -0.188499147331717215 0.0565566719485924019)
(-0.0418805666929331979 -0.175667914663561492 0.0594086701145743051)
(-0.0454746010518239097 -0.182119572692438947 0.069584278580179279)
(0.0121619161815374102 -0.142167097022860206 0.00870756196251150881)
(0.00862663245619975025 -0.13748649331397822 0.00531115282442613801)
(0.0124257284653051248 -0.136823179465791811 0.00801036267398182178)
(0.00962570674524257722 -0.148959010256395685 0.0106459071691793975)
(0.00727916124834242836 -0.144245638813899069 0.00636252153288803871)
(0.0101368425287175871 -0.143774366464202136 0.0095747503049332279)
(0.00571979583509330154 -0.154516099037977306 0.0134963325253837727)
(0.00511831542848303119 -0.1498835352063215 0.00792551447217618686)
(0.00909908674292817833 -0.154555538314552238 0.0116252294505628292)
(0.00653287985384818151 -0.149615491000080203 0.0119122529422176389)
(6.97442263738394345e-06 -0.158179937186091413 0.0176024172254247643)
(0.00189338967503973905 -0.15375986111917006 0.0101986622638712467)
(0.00489439349197425336 -0.160029978329537609 0.0149432416518399235)
(0.00121398518048496779 -0.15370608355694762 0.0153313237019462971)
(-0.0081738496533992188 -0.159085436750298514 0.0234706832048933028)
(-0.00269282442497661327 -0.155035993749730844 0.013439772539954771)
(-0.00112355196463198278 -0.163543060210651514 0.0196943046449824695)
(-0.00638288967455626511 -0.155204804329578255 0.0202056471782969364)
(-0.0193665272780278175 -0.156108962377265154 0.0318330828633656693)
(-0.00910887490469051118 -0.152641670707612226 0.0180659679301871864)
(-0.00954766627673695259 -0.164234958562057332 0.0263530495617109728)
(-0.0170372958193446347 -0.152987715894007975 0.0272976460998197966)
(-0.0179441316664257396 -0.145099218439193545 0.0246302735077381443)
(-0.0211428582738824727 -0.161018114977173193 0.0357866830750746268)
(-0.031729923295346997 -0.145553994950134991 0.037406595228357882)
(-0.0346350010982585804 -0.147830011393629557 0.0436294121774997296)
(0.00396139402468643261 -0.140184922082931318 0.00296611239480265923)
(0.0040374581194075514 -0.135224872678052555 0.00272318032416990746)
(0.00306926483880160536 -0.145883317554343528 0.00364212883588481331)
(0.00322986352071769024 -0.14119459994122241 0.00327194995238440887)
(0.00168547671426183391 -0.149982497572651113 0.00462784421066369731)
(0.00284329839264569652 -0.151036612190635855 0.00398914468331141442)
(0.00195332356882114543 -0.14573418808111685 0.00408408235035647056)
(-0.000351455559139141538 -0.151689197357407768 0.00603601757840132452)
(0.00134388151215925197 -0.154916892052637617 0.00513847784281240821)
(6.15995652667395349e-05 -0.14808798568245618 0.0052588768869425628)
(-0.00328531418731724603 -0.149986705954557931 0.0080350572652486546)
(-0.000806293174822069608 -0.156280679295413727 0.00677704854503095779)
(-0.00261721105459032091 -0.14726826589033909 0.00691705585979890923)
(-0.00725136854074254645 -0.143498699435380822 0.0108631585745596893)
(-0.00381176304043062989 -0.154102474018744523 0.00904289071084345662)
(-0.00635941954049263139 -0.14196519716999062 0.00933513992220176211)
(-0.00795484590798102575 -0.146962401025212991 0.0122378551416175672)
(-0.0115155569730554363 -0.130371831384548331 0.012752568616901664)
(-0.0126510382945202414 -0.130420098394309736 0.0148186135838260773)
(-0.558500070133820081 -1.04230495211804253 -0.0482614823965527573)
(-0.0797238539214715214 -0.747209605702193302 0.244703654201261639)
(-0.550561223414859358 -1.0123856616707938 0.00186025084952878839)
(-0.081308236997075789 -1.37545711986519237 0.159924013045035229)
(-0.404781322142887034 -0.899591832633682587 -0.191918318216289574)
(-0.447939514631877256 -0.488333964118671082 -0.269994902562111727)
(0.343458143562189011 -0.936564786834395702 0.452889149642849154)
(0.391185769313288911 -0.382469665367812572 0.254781022136405522)
(0.434643061675923481 -0.238392656971928629 0.253241193028246214)
(0.312570997278839913 -0.726746558906509965 0.325113164385170905)
(0.310455140469680924 -1.46614755038545064 0.383264615416120891)
(0.070920189054726801 -1.27441293366550901 0.402207451122794601)
(0.252478405533020367 -0.0568842328792481949 0.0231565794440156854)
(0.285573100865019747 0.0130343124059148427 0.0123566174787651147)
(0.229352447652363733 0.048628146665195382 -0.0211960754556602196)
(0.327912266024139587 -0.19154508096416048 0.0633642111167536104)
(0.352797662568650472 -0.070347018372728054 0.0574143822163433182)
(0.32569574019332187 -0.105478945351129824 0.0100563483257488252)
(0.378591361564024065 -0.350270969135146437 0.0944088344219684711)
(0.393343474649995972 -0.189074674090708772 0.0907220002674232195)
(0.396961841701460982 -0.275309880158412512 0.0321080158244750613)
(0.424431202481503678 -0.410963252911833055 0.127005036878727634)
(0.40020961505641095 -0.291828212874894466 0.119351292018184257)
(0.438202256277778424 -0.421386413766396128 0.0605234754104517492)
(0.366444064351038157 -0.345171588654075934 0.141945281096882259)
(0.398033038721728016 -0.387082832586676029 0.0838463909725240403)
(0.297159739089638109 -0.338707858765124048 0.146733610394390201)
(0.403263425821815125 -0.0160320872866135632 0.046614420251093136)
(0.319981134756747609 -0.0517938563644746927 0.0151021822605200435)
(0.390409851861723611 0.0480630543599214616 0.0261902441954495364)
(0.41360895968964434 -0.0883973030570766038 0.0847721713670129273)
(0.344280206555851509 -0.0949238787209483875 0.0412962145839872591)
(0.425656344742933457 -0.0126091709449275315 0.0637719417682599959)
(0.403717031360597167 -0.158558153347111708 0.115664457863639034)
(0.351586833382540043 -0.162336595528002309 0.0666314822625535402)
(0.429736708141010004 -0.106306810544034014 0.0924560128437907081)
(0.374729427766759715 -0.223491699180882658 0.134291536236338799)
(0.343926923622711489 -0.213286552051270895 0.0890683857696289993)
(0.400800012935662642 -0.171732985321250364 0.112579632599808035)
(0.333916387279396598 -0.250591317566440042 0.104359750687626207)
(0.357657534812963362 -0.2609294400701343 0.124984290777841511)
(0.339769878527888924 -0.292874428448882063 0.137057197728888053)
(0.269131833010598676 -0.132064809212837558 0.00978397659341436778)
(0.218507868428772983 -0.121175778283025504 -0.00895489785030254871)
(0.275855406156485461 -0.0653528160490823296 0.0170235615508716187)
(0.284017304456950503 -0.173647879510920283 0.0231555254795278755)
(0.243958093035411411 -0.143852139244484534 0.00361777329667345871)
(0.297054180045781491 -0.107961278708224112 0.0294442531882487361)
(0.290826032868862272 -0.219260688407815985 0.0400354101685433394)
(0.261339773353421456 -0.185194286547841702 0.0203580113652655527)
(0.303917049703622488 -0.17213897524673541 0.0378534366109604184)
(0.302558236988337004 -0.252604140053887705 0.0591366002209163175)
(0.275701173466477822 -0.223248129267489798 0.0409089112387168649)
(0.307270122290487058 -0.229578846913650214 0.0483227097494787761)
(0.291047597773568145 -0.251954942688414341 0.0600374866942829238)
(0.315636906612934809 -0.265954937171899886 0.0605322357352804166)
(0.319940815560933067 -0.270627047855378888 0.0759551980404132576)
(0.195331044935879911 -0.147650511950184249 -0.0151211011470434326)
(0.174052266625212004 -0.146654616226300327 -0.0141410505710343574)
(0.190867690665823514 -0.110817273016637616 -0.0266068878741335911)
(0.223389887902337103 -0.172400616719328742 0.000820259182411079563)
(0.202940928298257883 -0.163353698465682207 -0.00330882315089547734)
(0.221789031688137211 -0.13676185518690373 -0.0143231764966107143)
(0.245319758499693563 -0.204589091254447131 0.0212315124354390435)
(0.226703174408137226 -0.192338648738109741 0.0129111726525463471)
(0.247150250883753198 -0.175018899732001409 0.00167639302924788513)
(0.26322547032772825 -0.23429083428905062 0.0418097977120836239)
(0.245613622333004211 -0.222658643844637155 0.0315642874677359644)
(0.266306248529877998 -0.21238099423312401 0.021289606880178405)
(0.261939297369188695 -0.249456425919093422 0.0488450220615715205)
(0.281006592915421183 -0.243737054504989337 0.0406371402617366415)
(0.278713585378059014 -0.259385139590245173 0.0588142475875087015)
(0.182011240658354223 -0.16206743549908692 -0.00232877257488647849)
(0.162722569748739831 -0.162030838529641064 0.00436675338458765439)
(0.177866298845635096 -0.143071931764705756 -0.0127335767169879238)
(0.206765268625599297 -0.184170059906073158 0.00878209031923978325)
(0.183511389821926052 -0.179752594188041459 0.0117048725608588106)
(0.203070435622467654 -0.163052318310046296 -0.0028688737332753329)
(0.226706128315968619 -0.212177966800899842 0.0232439476848432663)
(0.201449439646691958 -0.20478853067003211 0.0229581268254406209)
(0.224786704636090157 -0.19199716539579792 0.0111519068107629512)
(0.243475617178111503 -0.24027280694543246 0.0385995118172239027)
(0.21709409281680625 -0.232226468080535597 0.0362851989207428755)
(0.242261877183737651 -0.222946680306481737 0.027221699993405183)
(0.232994059938553127 -0.259767795209111196 0.0498251471703532733)
(0.257767903477984284 -0.251887911672400544 0.0425002720845399015)
(0.260591436261170595 -0.265936429871913405 0.0529229786804979313)
(0.163741234219437204 -0.183368337226796685 0.0184003985203328758)
(0.144424654709096406 -0.176747962825483496 0.0206680197381019365)
(0.160486194704001023 -0.17089279452629022 0.0154655413479224957)
(0.177898495103276544 -0.204665042612668518 0.0258809090670595945)
(0.155411740773516216 -0.196671594931757593 0.0265520416789365686)
(0.175020911889453179 -0.190665686029624609 0.0220262661472202317)
(0.19127926410466492 -0.229277035888545699 0.0359993780613402231)
(0.166323734984296007 -0.220433034687443213 0.03507549870836775)
(0.188967266207241053 -0.214454750664179766 0.030727269638585953)
(0.205548267661916195 -0.256007330965764224 0.0475108342738721628)
(0.178087390957606867 -0.247145761989212814 0.0456176482932610164)
(0.202718217504320453 -0.240619307867117882 0.0408388012656101043)
(0.192488624653902402 -0.276512182440695531 0.0573815606811805129)
(0.21828292946928779 -0.268283771701841478 0.0512834041141108921)
(0.22335059952873032 -0.283920520234547447 0.0590183094718332024)
(0.135367936068251649 -0.191735958468913198 0.0288196628967056258)
(0.117921346130010693 -0.182750930518980281 0.0272863457058163186)
(0.134376689780904113 -0.178670090968319289 0.0249933889399185372)
(0.143061006338125768 -0.214306587447481378 0.0357466313202447414)
(0.123368768523294259 -0.20368617369730635 0.0332603405652143122)
(0.142391110442033952 -0.199832726084213153 0.0306098523535541997)
(0.15209006744697845 -0.240280534106573379 0.044693768940288571)
(0.129435912775828194 -0.227970774418351285 0.0415247745607273261)
(0.151471275598118099 -0.224250787013910241 0.0379856121921787193)
(0.163531740154513217 -0.269840131504727077 0.0554883747005693317)
(0.136815220455184045 -0.255995760591416377 0.0521892354448029033)
(0.162307672352056814 -0.251847358743430894 0.0471281725261024423)
(0.146614937036836646 -0.288437874652520132 0.0653605327276384901)
(0.176097368869064519 -0.282742030895839824 0.0578753226270659754)
(0.179126699508749598 -0.302986063203491474 0.0676558417999861827)
(0.105123532809450679 -0.195185432445472012 0.0317270233743250085)