/*--------------------------------*- C++ -*----------------------------------*\
| =========                 |                                                 |
| \\      /  F ield         | OpenFOAM: The Open Source CFD Toolbox           |
|  \\    /   O peration     | Version:  2206                                  |
|   \\  /    A nd           | Website:  www.openfoam.com                      |
|    \\/     M anipulation  |                                                 |
\*---------------------------------------------------------------------------*/
FoamFile
{
    version     2.0;
    format      ascii;
    arch        "LSB;label=32;scalar=64";
    class       volScalarField;
    location    "0.810000000000000497";
    object      rAU;
}
// * * * * * * * * * * * * * * * * * * * * * * * * * * * * * * * * * * * * * //

dimensions      [-1 3 1 0 0 0 0];

internalField   nonuniform List<scalar> 
7248
(
0.00187435669402852083
0.000217016892562586474
0.0100469534971914919
0.00837542343807274985
0.019266519689389347
0.0185901158069505697
0.0144698937724225436
0.0118757658227552215
0.0116651238846025903
0.0168938938566290803
0.015821270045880638
0.0149784692123155188
0.0133447579676009807
0.0118809786822840057
0.0182568911362647503
0.0173949011151603508
0.0163965134192852642
0.0154487820243590004
0.0148293935831046129
0.0186625896126045923
0.0180849841626823347
0.0172834819427245476
0.0165209944655909172
0.0158466443590636746
0.0187727244177892244
0.0181651448382322243
0.0174520698631992627
0.0167608277922723717
0.0160911470247836301
0.0189976759401378273
0.0183755631266407649
0.0177181750903831273
0.0170506272676050341
0.0163858294428042457
0.0192036822977937754
0.0186438976785545871
0.0180470350271619007
0.0174240113885514893
0.0167741069902623344
0.019562921758390691
0.0190442820138223487
0.0184953862016212153
0.017914968297704767
0.0172932062317090497
0.0200148077315205723
0.0195483083828696148
0.0190586779334580014
0.0185398360261608726
0.0179800712031616683
0.0205296275214747019
0.0201217118171933655
0.0197018501621269194
0.0192658469904556685
0.0188054646932719095
0.0217746787624297014
0.0214270429248515221
0.0210785077700485907
0.02073082001055759
0.0203857130796118863
0.020043914932967314
0.0197041707601873992
0.0222488226239608393
0.0219398195120163592
0.0216353501658908542
0.0213403648077654974
0.0210604039283256717
0.0208018596681817172
0.0205717670055781086
0.0227296189786788047
0.0224513664325920875
0.022179509562604071
0.0219208731239719477
0.0216834663234397942
0.0214774075461044364
0.0213151055097922162
0.0171389462043557497
0.0167800392823694022
0.0164326942738272225
0.0161060462349734874
0.0158104493213802738
0.0155582389735450851
0.0153650841622679016
0.00161978377073628606
0.000193862810593074212
0.0122889764679340492
0.0103522180163375006
0.0167689155886828201
0.0153482223227973183
0.015357750897974155
0.01471616917479413
0.0134914827250553898
0.0170102158721845559
0.0159928155888645514
0.0151611298270987738
0.0142312501054453391
0.0132462439621472902
0.0182780650287282347
0.0173605521009910849
0.0164450039970921308
0.0156203003827520628
0.0149523679541875443
0.0193337524790063615
0.0183770986641291177
0.0173149508118815645
0.0164304805542796403
0.0157373001213177259
0.0191317390318167767
0.0183829259709617741
0.0175165584460465866
0.0167074309519439877
0.0160234077890952752
0.0192063992245327629
0.0184435313781838341
0.0177014086845605177
0.0170086032421964996
0.0163535528732337739
0.0192106728791981603
0.0186176723271086614
0.0180041587016915167
0.0173782551090813121
0.0167353256001016235
0.0195522109847130719
0.0190147065672681692
0.0184485858556923538
0.0178560816711230107
0.0172292879314010425
0.0199791480769837652
0.0194939196510651273
0.018984946589387007
0.0184475344013718297
0.017870116661158595
0.0204764104723704314
0.0200495985956334749
0.0196070508421982842
0.0191443059008199537
0.0186525799897029332
0.0210162399377008362
0.0206486265083792968
0.0202783565726241573
0.0199049745452941074
0.0195260315727407048
0.0215695547053333207
0.0212554508726521298
0.0209508834875547743
0.0206609570337710109
0.0203915462683986748
0.0221158697039211781
0.02184053464589885
0.021581180631438799
0.0213468698699920481
0.0211492842819299559
0.0163579649420906512
0.0160169660940253818
0.0157013830747749876
0.0154222220102713178
0.0151931904581226948
0.00150493329750143187
0.000180459832511110696
0.0130847321821093848
0.0112912878121298327
0.0158140275038334589
0.0140741807265655113
0.0150894741859474001
0.0148341343306611622
0.0135736879652747899
0.0170043286304853818
0.0161523712906348101
0.0152609986470150019
0.0146218390522104575
0.0143553715862747792
0.0180509236387128257
0.0170844942610486814
0.0162233276614543835
0.0155123776604629716
0.0149267229665290893
0.0195859450697768167
0.0184236532603191082
0.0172875467192524467
0.0163557136294462772
0.0156426866792865674
0.0190812229743047498
0.018340248090156646
0.0175252586071914102
0.0166821812065115933
0.0159840613730830687
0.019107471766504576
0.0183612818915607108
0.0176325322217056081
0.016953888094531331
0.0163185469484505609
0.0191931338557681588
0.0185881334257211525
0.0179712145248115164
0.0173487229544473202
0.0167166118243110909
0.0195402281142920201
0.0189903723433797016
0.0184160768732645995
0.017820100497795241
0.0171960800229902164
0.0199522479099884867
0.0194552751537957862
0.0189350429805243033
0.0183881996208375698
0.017804005723889467
0.0204389669479558937
0.0199989094192957774
0.0195413188371876684
0.0190620666346848072
0.0185524161024871702
0.0209701992920942569
0.0205880725907302137
0.0202000897459834426
0.0198054619437741906
0.0194014923736779664
0.0215182399901116921
0.0211898745427777091
0.0208672271162161013
0.0205550094252778572
0.0202589290067555564
0.0220633691980057119
0.0217748480171648176
0.0214984550237463101
0.0212428616925034904
0.0210196055742574821
0.0162902125373164605
0.0159368316113237644
0.015604197526152358
0.0153024542756016509
0.0150443195940286982
0.00140280290050584207
0.000172317066203831409
0.0133486468367940061
0.011809996339838244
0.016433367389630596
0.0148852859366410285
0.0147362457752507978
0.0143549413382662704
0.0131619866124604371
0.0159438153269985984
0.0157659354220285146
0.0152543993890481549
0.0145940002294345679
0.0143402390250969014
0.0177598091335787849
0.0168832310168741638
0.0161391107092158752
0.0155021615453314315
0.0149445269922659114
0.0195555125993331115
0.0183546806877265059
0.0172595442416355258
0.0163341163993875153
0.0156020433223286806
0.0190293052191677949
0.0182037074202203962
0.0173731596561060367
0.0165892475878212965
0.0159233296028312744
0.0189932248019507206
0.0182512063937691205
0.0175477794857979326
0.0169007028295413385
0.0162937464082017064
0.0191824050251606266
0.018572039502528323
0.0179579301641329091
0.0173414295664049527
0.0167192681538636499
0.0195266478435836763
0.018972149404868948
0.0183967812251234764
0.0178042285902265084
0.0171886888171536752
0.0199354629501435517
0.0194340753976956111
0.0189100581139773072
0.0183613119864482477
0.0177779803412837466
0.0204182660892023166
0.0199701538310783563
0.0195040702191146206
0.0190167335736076068
0.0184996734563932057
0.0209413715514437625
0.0205498394294459617
0.0201509163257821144
0.0197440265943753038
0.0193267450562763267
0.0214829466211251437
0.0211446856647508653
0.0208099813857283503
0.0204836181491650816
0.0201719354568520408
0.022023611381491736
0.0217252951883340241
0.0214365918456368189
0.0211662160893166321
0.0209263780895399369
0.0162314287158321219
0.0158679158338436641
0.0155214350267697167
0.0152016648949803053
0.0149209443849754701
0.00121748636738603874
0.000162379088858465682
0.0136114925847481642
0.0122026725263583956
0.0174966499458140273
0.0166758367558005743
0.0159556821738548425
0.0144647015727187595
0.0130028817570690368
0.0159477268409726307
0.0156271940317440454
0.015282400291714196
0.014708459898102471
0.0142363189594331904
0.0176129279341729721
0.0168410285855767755
0.0161990647659579212
0.0156323131011494969
0.0150378393154643464
0.0186785745535027019
0.0178367907597185814
0.0169905812660370824
0.0161933273227421182
0.0155046791973649026
0.018638388001012092
0.0178892085581672557
0.0171441084993197053
0.0164638734683596362
0.0158640844462872022
0.0188036725907033027
0.0181396482487821038
0.0174973390218931477
0.016889697994230006
0.0163051998909949508
0.019150410937655897
0.0185532262476251798
0.0179509529715572401
0.0173457070799156003
0.0167364993109894583
0.0195089431823249164
0.0189609936547232606
0.0183939557835790281
0.0178119598087672359
0.0172090992016224117
0.019935643124721545
0.0194340581030896589
0.0189108677310083455
0.01836502234190205
0.0177876394375153998
0.020415367800095216
0.0199636966717676514
0.0194946680176512448
0.0190059016479997601
0.0184894090902182999
0.0209310735204425585
0.0205345552296821547
0.0201303763440755859
0.0197184633179304271
0.0192967076816385648
0.0214646886326737493
0.0211204277548300672
0.0207788923421762702
0.0204451531931362507
0.0201262288083820344
0.0219975579097678592
0.0216926857069434896
0.0213959977158112297
0.0211164115167859524
0.0208669415167527204
0.0161833239525108578
0.0158120040692223962
0.0154548891271773115
0.0151214427334419518
0.0148239281526017768
0.00118754811825653051
0.00016236303659567761
0.012480065373394255
0.011977169331044913
0.0158572563215573122
0.0154555402976723193
0.0149732891062109262
0.0141879131807709086
0.0130714551808870736
0.0159940896920342732
0.0156996027650220908
0.0150251066762282781
0.0143331980581473083
0.014037353565127187
0.016953503891222358
0.0163146327782066822
0.0157311919746887241
0.0152582457911115132
0.014734366532497125
0.0178231500795655688
0.0170999501253523735
0.0164728933535174364
0.0158723172982177287
0.0153372455071714136
0.0182063924394892697
0.0175623598314490169
0.0169501217632399628
0.0163761838331152043
0.015842454955343515
0.0187038804084420848
0.0180993645231628288
0.017495696939113025
0.0169101261327980687
0.0163371269921878844
0.0191287372737436803
0.0185474051561303581
0.0179578782766334107
0.0173677958959260921
0.0167733420337493992
0.0195166298520320809
0.0189769482585708388
0.0184194103777687822
0.0178486403259103393
0.0172572694489886644
0.0199571053352298397
0.0194574740651176359
0.0189379459153529092
0.0183984222664585508
0.0178305040591225199
0.0204327147337739178
0.0199809253463720145
0.019513407541611745
0.0190285118998683826
0.018519015359538888
0.0209403601304135531
0.0205424678540211091
0.0201378073649325848
0.0197269346974451899
0.0193082809104726145
0.0214639772981060802
0.0211171809364270567
0.020773342721345827
0.0204378810391129054
0.0201184759849456322
0.0219858895163753676
0.0216774638086288385
0.0213766573892935768
0.0210925497883557474
0.0208387410978778248
0.0161473240724168236
0.015770473058395764
0.0154058110505932606
0.0150626698951153264
0.0147532612105465213
0.00124897964443827759
0.000167988520024626894
0.0117463241235756192
0.0115156201293945843
0.0118555964162370131
0.0127170073450979613
0.0131069856770872593
0.0132161098993824524
0.0128212783880267585
0.0124823001606441854
0.0137125273296197225
0.0143408639867812649
0.0142104661446345176
0.0139922442553225054
0.0147355571020205637
0.0155525021130304263
0.0153080221468500487
0.0150175632795150095
0.014654031061760317
0.0170694149333931074
0.016678134537919876
0.0162417811152754665
0.0157694125257842738
0.0153275502184022742
0.018033963294025377
0.0175067538357219117
0.0169542678948783887
0.0164210901668935469
0.0159103235654116243
0.0187129463360153799
0.018128890530129331
0.0175407454091271696
0.0169651115026804786
0.016399995932405733
0.0191505644298345865
0.0185818636003967225
0.0180049731698076684
0.0174272928148571302
0.0168449184951725145
0.0195654880923125038
0.0190296829097254226
0.0184778718929425601
0.0179154537251228693
0.0173350996759350368
0.0200048228441563024
0.0195066560156632665
0.0189920175556353432
0.0184610621382691603
0.0179056728735921648
0.0204724729992456327
0.0200226642353911501
0.0195596943224899573
0.0190824423579542164
0.0185842607522030412
0.0209697135563480658
0.0205732757065715394
0.0201719933604950635
0.0197667882493700389
0.0193561957316389158
0.0214808631250010089
0.0211346678188015363
0.0207924870338396829
0.0204598301784274864
0.0201440233835349473
0.021988930481464268
0.021679764965395993
0.021378388306036139
0.0210938011442632391
0.0208390763005093238
0.0161245651480632808
0.0157443627197792549
0.0153750768245913463
0.0150258691251830383
0.0147085960670513462
0.00136205607113107038
0.000177134154594312004
0.0113158858231009202
0.0112814570717637425
0.0126314518775306941
0.0113555543519172526
0.0108418088443520202
0.0117256349664267238
0.0121930459386498831
0.0119649213377238245
0.0114164126941710686
0.0116975727809503979
0.0127986479448341309
0.0138957913537774633
0.0123465981707055646
0.0128678453783551729
0.0141395448095523926
0.0149243687954998244
0.0149350975176095573
0.0145801764474561418
0.0160629322399111971
0.0163062956651324649
0.0160663502117588466
0.0156149753939411398
0.0179274890360002215
0.0177609794016491407
0.017239626410930655
0.0166398717244813157
0.01606147982110347
0.0189465505082274839
0.0183128153736991303
0.0176672059031821559
0.0170584989043614903
0.0164876890703250269
0.0192595036178264782
0.0186613232882313872
0.0180816251731134824
0.0175104732612967433
0.0169372099233809914
0.0196350395551298899
0.0191016904831110175
0.0185545078755260245
0.0179982186549831405
0.017427263782194162
0.0200659546727485726
0.019568424793808957
0.0190584453933623603
0.0185371557040081084
0.0179963302673312245
0.0205174922342604878
0.0200713501270685171
0.0196162655258250371
0.0191509558826918509
0.0186690000873834284
0.0210004188214455816
0.0206089115213239846
0.0202153960733419714
0.0198212480499324849
0.0194251591079656928
0.0214962669544657668
0.0211542220107863686
0.0208182517530756603
0.0204939942509563995
0.0201881329376234174
0.0219872202007506783
0.0216806243820873677
0.0213828207275264352
0.0211027442244779394
0.0208527560382965743
0.016105468589893774
0.0157245030963461853
0.0153539129121796365
0.0150027131232807233
0.0146824279860780383
0.00270317165290681789
0.00212108839224515186
0.0122495770596237341
0.0125948459888951276
0.0210816299595989916
0.0202633795919502924
0.0180039002361684075
0.0160825752146002456
0.0151432228911163036
0.0194664517975849348
0.0197703974620009604
0.0195185389454645801
0.0202738210732456604
0.0196877663230038032
0.0172982157811271929
0.0173240433619766127
0.017423579855394656
0.0178662441990975855
0.0183768720557547019
0.0188470688008444687
0.0186150220353285059
0.0182771325300757001
0.0180863268533456439
0.0177816283343927989
0.0189511697259726851
0.0185358087857047972
0.0181491876588469325
0.0178666661925808747
0.0174310133528618877
0.0191843599237212503
0.0187702825182364634
0.0183650992565497564
0.0179611447350443952
0.0174303442877696453
0.0196189193081229042
0.0191890922330033332
0.0187474048204252682
0.0182902106250519662
0.0177722486385719081
0.0201158811401795021
0.0197563614866265343
0.0194221140798153495
0.0191285300694804018
0.0188477473000959184
0.0206987191216545657
0.0204493115906006669
0.020274481948601597
0.0201817352899219225
0.0201362728503876529
0.0213347236190945741
0.0211876947788104987
0.0211247774923397878
0.0211498267083325628
0.0212666399975588102
0.0223659897094734723
0.022137917918786762
0.0219649451425307438
0.0218568950603159201
0.0218279294650003987
0.0219034767470999425
0.0217254670962458811
0.0228306370680463576
0.0226143001795369378
0.0224457359644744288
0.0223407676678875171
0.0223219814510965051
0.0223892312847952454
0.0221384576663837158
0.023186101450845948
0.0229792445806677285
0.0228136181921741905
0.0227045442280342027
0.0226722873865086924
0.0226645835886140068
0.0224913623072326256
0.0175917225311341234
0.0172694779086716987
0.0169843690207594593
0.016751314869704062
0.0165889272362946122
0.0165043252489884308
0.0164949739424405696
0.00839270424306859213
0.00531421211420470517
0.0150388526275238958
0.0142332052557167469
0.0166870458231419584
0.0184646816125140327
0.0195466088862095815
0.0202738578203996329
0.0198384892326544278
0.0158783786667877867
0.015837494462379427
0.0158017334525212307
0.0160955632535247327
0.0166462026274648393
0.0164392262695545119
0.015963770477287139
0.0155983949624844288
0.0153670579798891524
0.0152293198089489459
0.0177048375193615722
0.0172791527963007188
0.0168478303165213832
0.0163655521142082733
0.0157212430562789392
0.0183168575507493825
0.0178561406423576596
0.0173800458781543585
0.0168152495038142447
0.0160930339781427019
0.0188131204922831474
0.0183746564364462919
0.0178949263898659193
0.0173436939110468424
0.0166988802730677066
0.0193363166982176669
0.0189098400819146528
0.018456073708654052
0.0179622043364053158
0.0174254291987836173
0.0198973769595289993
0.0195185096122083776
0.0191315202343572965
0.018742515076193178
0.0183857457451142327
0.0204932296850623141
0.0201889654458883121
0.0199173314416513161
0.0197113998243969475
0.019621722730905844
0.021105495672321048
0.0208924318943357057
0.020753790487022368
0.0207267926997903168
0.0208668086183623966
0.0221592883678004768
0.0219081049877289033
0.0217050474325838003
0.0215663382594881367
0.0215163793912580038
0.021591470210184989
0.0214513426469333038
0.022632448016114165
0.0224154076853984238
0.0222454284106665331
0.0221393286804133886
0.022121412623650933
0.0222088017591378188
0.0219846078047851966
0.023071477081685797
0.0228658348691370694
0.0227000002619876448
0.0225902557919166191
0.0225587451792565313
0.0225578956478842477
0.0223943244984360634
0.0175092577536708795
0.0171916818105612157
0.0169109740918968222
0.0166826019498325789
0.016526119966226601
0.016449314967086702
0.0164498175970747319
0.00911415173112687348
0.00593511251993306555
0.0156151463403217845
0.0143159202515142636
0.0143832422950159727
0.0140348270133162385
0.0174208156838651478
0.0198671164206352564
0.0208513522551442496
0.0158649375336598654
0.0156300939927070705
0.0154496366642774309
0.0153507147729531161
0.0155807419966422188
0.0169825401136936456
0.0163532589259332839
0.0156728096710081963
0.015186251819120769
0.0148769371066576755
0.0179322468547594427
0.017348881400250607
0.016807603598436572
0.0162879181782298946
0.0157485921676987252
0.0183548723317101849
0.0178975730615993332
0.0174077998855976905
0.0168454236998395041
0.0162107830112226924
0.0188061563980602836
0.0183619482565504817
0.0178712406243725433
0.0173136161546394302
0.0166959751011527095
0.019296805944302043
0.0188662048356153383
0.0184124811215424372
0.0179270288194170527
0.0173992573766012862
0.0198595517381257788
0.0194842789703626694
0.0191041354413752328
0.018718263737287303
0.0183394166166877363
0.0204522324385720718
0.0201459704951843302
0.0198672307277251818
0.0196344572436528246
0.0194868844608442719
0.021057777412956686
0.0208299906422603001
0.0206617104590783758
0.0205842465482412133
0.0206520676357485854
0.0221198394697992053
0.0218610562722232823
0.0216430832358941103
0.0214799138472765647
0.0213933420990844725
0.0214182259415913491
0.0212679987890073315
0.0225904749492426872
0.0223633819332808778
0.0221778556345301608
0.0220495787696055774
0.0220012250203171882
0.0220665388257929446
0.0218376727917848484
0.0230362111355029292
0.0228227324482280086
0.0226452150800327892
0.0225189358248986983
0.0224646848814828055
0.0224573001483575514
0.0222860001085773453
0.0174765926093567101
0.017155661005512534
0.016869482396668814
0.0166331101530193988
0.0164655029188496282
0.0163783145275554834
0.0163652641390419767
0.00709763741343567324
0.00181140314962458036
0.0171063308931221902
0.0138887669614976127
0.0150965705730470041
0.0130869132543141968
0.0145010271042151136
0.0165977914808620522
0.0177765439568953881
0.0161814156443728201
0.015602628680043678
0.0149445921100710716
0.0146727231097920734
0.0147372436119096364
0.0169886176157405012
0.0163518860293261313
0.0156295961291053748
0.0151315556996367302
0.0148061480133782047
0.0180512639235708879
0.017450982315003246
0.0168810670050845921
0.0163567647578631153
0.015853281244948586
0.018461272622287226
0.0180226811030325326
0.0175231753758185969
0.0169552974940688286
0.0163222425608066449
0.0188155978394059023
0.0183659295212616411
0.017864981796842188
0.017294017464212403
0.0166683635128857636
0.0192559018021204766
0.0188094675232826289
0.0183358788896588985
0.0178307129979670791
0.01728591125250796
0.0197946486990507146
0.0194018354243224549
0.0190001154555129344
0.018587143741776415
0.0181633915821604111
0.0203690476529851429
0.0200418371981706429
0.0197341243900986812
0.0194566958231932353
0.0192310658344878108
0.0209667102421735377
0.0207128312257725336
0.0205055080094948827
0.0203677159842166229
0.0203385260537848438
0.0220579209149530525
0.0217867332222305352
0.0215491980856190105
0.021357129062071642
0.021228618506246362
0.0211923738163839331
0.0210758777218933747
0.0225333539638551336
0.0222940471124385871
0.0220902091011847303
0.0219357984148766186
0.021850760737915996
0.0218642893481547813
0.0216548165846944633
0.0229894180323613646
0.0227664768872793619
0.0225749946280971586
0.0224289101690976767
0.0223469595264779788
0.0223445240492500911
0.0221786486039307479
0.0174319319834339501
0.0171065006362832624
0.0168129211647405109
0.0165655912473985367
0.0163825189780849
0.0162815500656861983
0.0162492230891155033
0.00496432964381625028
0.00266269137637564204
0.0180176531615566134
0.0152352037208448483
0.0151477132732225957
0.0132283245378158072
0.0119748176953380272
0.0149855306867434489
0.0158574689099022642
0.0162106009827918326
0.0156575695228611117
0.0150678468719669164
0.0146128081193000661
0.0143654169623792221
0.0171137059825344044
0.0164207114932592609
0.015645556578547503
0.0151093071620784971
0.0147652577405091613
0.0181856583464080727
0.0175637490316712455
0.0168993045375681154
0.0163026558656748297
0.0157904446065572183
0.0185924408738910966
0.0181637543153623793
0.0176414150077425502
0.0170152970594080882
0.0163300987420680298
0.0188389152527687689
0.0183797117274772902
0.0178501412374785853
0.0172391065294320786
0.0165869300674725863
0.0192307354201233863
0.0187646470110865715
0.018261775719290177
0.0177194294646137902
0.0171362258816237269
0.0197314048797620212
0.0193142875297729853
0.0188790500707013524
0.0184203377807037258
0.0179328335778229202
0.0202820979539461987
0.0199257580848055844
0.019576486488295089
0.0192382356560893697
0.018917833895839526
0.02086704668057561
0.020580499086107356
0.0203254183816045479
0.0201158736471395497
0.0199738806016181124
0.0219930365819711524
0.0217067538066684461
0.0214463544234071643
0.0212211244129128056
0.0210447835829421365
0.0209382054781300404
0.0209004890473788139
0.0224724551920833862
0.0222192699670704166
0.0219948715937272332
0.0218110967333396723
0.0216843962280677087
0.0216378838772429867
0.0214794714060417002
0.0229378144267859685
0.0227041008952644265
0.0224967379942437318
0.0223280943461945658
0.0222145370601682379
0.0221785500806214106
0.0220304504604699088
0.017380017882130467
0.0170488881015745351
0.0167460070442403824
0.0164848803349340357
0.0162821602023126288
0.016159661055109794
0.0161031991747725492
0.0075759166157770173
0.00701784940314220673
0.0109622698553539823
0.0108143930275519957
0.0183280403381747836
0.0172363502093070796
0.0132575575998212028
0.0130059091944587091
0.013399737903631196
0.0170377790299541879
0.0164510576199032345
0.0141298181546712347
0.0136163453560364054
0.0138136941915285062
0.017561206768874571
0.0169036771635721096
0.0156140185279292493
0.0145176414252010683
0.0144084715617196022
0.0183095371066761339
0.0177946749775766203
0.0169976172788473164
0.0161650818419049047
0.0155627103372910965
0.0186968632167041002
0.018262164704731465
0.0176713166967072295
0.0169339108107481422
0.0161942575523208836
0.018868229348689286
0.0183836043142153287
0.0178104454496531249
0.0171588180632246505
0.0164921955065079895
0.0192175232337808179
0.0187294498105314566
0.0181975394925312749
0.0176212053510215669
0.017004399714389825
0.0196756172212515512
0.0192324678900995111
0.0187625961581677145
0.0182586120115615022
0.0177143428140398088
0.0202008325386454947
0.0198133183769362425
0.0194208895011365769
0.0190221989731092812
0.0186139730710815771
0.0207694475604688032
0.0204486088241947993
0.020144412858899275
0.0198629539294074807
0.0196122842878266417
0.0219303290487046741
0.0216277656237179317
0.0213432852377825645
0.0210835956432380983
0.0208581182264683702
0.0206801168842435899
0.0205676565079566075
0.0224113538706793951
0.0221434372639728386
0.0218974633778563285
0.0216830575878997033
0.0215130498017023115
0.0214046603647523245
0.0213248513590084399
0.0228838909798798791
0.0226386357919477928
0.02241436136200195
0.0222217623578252581
0.0220746629264001251
0.0219911190577969338
0.021880754683270956
0.0173227914110870712
0.0169850777667164832
0.016671516808027545
0.0163945491254186455
0.0161691459155678605
0.0160146025393876033
0.0159307765262699866
0.00731748093502542808
0.00377430672582517801
0.00587560235580421829
0.00680258156898728809
0.0188458407106242773
0.0185328437023908055
0.0156619873540034503
0.0110767129670817834
0.0104119128936332062
0.0171651096293876579
0.0163843415780801534
0.0151959320946975715
0.0123671550384215952
0.0121231475472382971
0.0177365963726282133
0.0172311039411045253
0.015743403074817558
0.0141102241715958619
0.0140336389300307601
0.0182870749942087782
0.0179973403676892685
0.0171423102994833973
0.0162266786887225595
0.0154730284718284806
0.0187253518934285788
0.0182525384080742432
0.017616401005246439
0.0168305964713844972
0.01607785071299387
0.0188989351306795283
0.0183750927140864176
0.0177718057147670146
0.017102071007093534
0.016430640683988685
0.019208019922793116
0.0186963144415657999
0.0181408690586384348
0.0175407844400221682
0.0169021076881768796
0.0196275727897452686
0.0191580790248662321
0.0186571941133242963
0.0181178691471979257
0.0175338499042806822
0.0201278058194341407
0.0197102989046238665
0.0192787055682145207
0.0188284713942620148
0.0183511063197524943
0.0206783222176087356
0.0203245048922218174
0.0199747193672380162
0.0196295218387006858
0.0192878368802405567
0.0218718571164248296
0.0215529854173477538
0.0212448786671026596
0.020952068829095432
0.0206803490535151548
0.0204370000497912513
0.0202302243450261099
0.0223523608347981941
0.0220697121307739177
0.0218024065815485002
0.021558174405074515
0.0213466192020685744
0.0211799996064875838
0.0210734465586044292
0.0228298653007876565
0.0225729413437513252
0.0223316810581772884
0.0221152201367071193
0.0219350235316743657
0.0218056487136381004
0.0217432144473840225
0.0172621928543537084
0.0169173903426735814
0.0165924151186903554
0.0162985900877714723
0.0160491921362652043
0.0158608461288630431
0.0157491349177666731
0.00333798579341462948
0.000335444366353289999
0.0076183126232052022
0.00679914245012735487
0.0189395749877719795
0.0166779203684078239
0.015493352281329642
0.011038154169822581
0.0100908819876197597
0.01670792265269418
0.0157054655287220714
0.015012715150974739
0.0128254217498208253
0.0112918384984939009
0.0179385060043023119
0.0172776021720891688
0.0161812152919174682
0.0151957424000346494
0.0145967233656839109
0.018371323463198596
0.0180637878478564808
0.017300236533619829
0.0163870517976763518
0.0156959810045731937
0.0187637090182363429
0.0181910487456860316
0.0175583988045360205
0.0168313182830297052
0.0161117095594755823
0.0189374986414310269
0.0183664909790961749
0.0177427527062706952
0.0170795802790991505
0.0164095340831375072
0.0192053391621495942
0.0186690595487808211
0.0180919035160876443
0.0174776123103633566
0.0168289534863947342
0.0195901614306430404
0.0190945585889431106
0.0185670951667959369
0.0180030906182686579
0.0173949954009142774
0.0200652097499303093
0.019621064779400902
0.0191568370863519043
0.0186664203649776587
0.018139315049823565
0.0205973997874115272
0.0202139750232151888
0.0198251296133927779
0.0194281387031078022
0.0190167965915716795
0.0218195485585677279
0.0214854068625082786
0.0211555231671930223
0.0208328727738580528
0.0205207118807780378
0.0202222265411864562
0.019939281411756847
0.0222976155968392237
0.0220010540397862497
0.0217139010217602089
0.0214423281116566181
0.0211935608370795968
0.0209762191738051794
0.0208002249789965843
0.0227778304076791741
0.0225097235629164415
0.0222523611616376668
0.0220135218042745821
0.0218027442262668271
0.0216318824171518112
0.0215158020887747346
0.0172002259850814881
0.0168482373973879614
0.0165117925618059151
0.0162011250985164036
0.0159279127205521343
0.0157064055958621961
0.0155548673077867267
2.2499699418428592e-05
4.78929430072060425e-05
6.42947957943216391e-05
0.000644703288924897838
0.000203043606768758204
0.000440261837188022146
0.000897630506989057788
0.000666770466665107071
0.000814926095727230176
0.0013681658358374565
0.00140570948102149975
5.17823238802286463e-05
0.00012283282762652438
9.23953587883723291e-05
0.000266519075105889336
0.000252106752490049806
0.000414218191074682983
0.000591631983048026026
0.000939890628971755187
0.000612079548146159721
0.000970943153777150672
0.00136047842470502617
0.000194634235596724428
0.000323495478621063008
0.000175431146221340355
0.000176537101778641471
0.000158830013141882516
0.000303230077390957665
0.000454999717592701391
0.000273376872508252205
0.000279378203055213317
0.00071579617127340029
0.00160605529038520298
0.000384126580988151673
0.000232499125190610426
0.000255939381618930145
0.000310895821269998403
0.000366748926161285596
0.000321751928939844104
0.000865667782078291537
0.000379542346446140187
0.000365177463417976794
0.000684524158031776732
0.00152253538198725952
0.000885209619354382642
0.000802886705339868269
0.00110746646906700278
0.00105832824906348369
0.00156032184604576333
0.00117544474348756523
0.00140331290842057236
0.00205227345163119888
0.00167184386721534652
0.00127033551561566175
0.00200530978868366768
0.000276268674250330784
0.000396481293925661765
0.000461858212083267772
0.000672724462155586457
0.000457923023566629279
0.00075637730967169955
0.00106052170441577683
0.000796077112616326923
0.000676886024418559321
0.00156885227787732719