/*--------------------------------*- C++ -*----------------------------------*\
| =========                 |                                                 |
| \\      /  F ield         | OpenFOAM: The Open Source CFD Toolbox           |
|  \\    /   O peration     | Version:  2206                                  |
|   \\  /    A nd           | Website:  www.openfoam.com                      |
|    \\/     M anipulation  |                                                 |
\*---------------------------------------------------------------------------*/
FoamFile
{
    version     2.0;
    format      ascii;
    arch        "LSB;label=32;scalar=64";
    class       volVectorField;
    location    "0.810000000000000497";
    object      U;
}
// * * * * * * * * * * * * * * * * * * * * * * * * * * * * * * * * * * * * * //

dimensions      [0 1 -1 0 0 0 0];

internalField   nonuniform List<vector> 
7248
(
(-0.854467659940159829 -0.89504830089920373 -0.107935891226867614)
(-0.47653098659220533 -0.742075948727350276 -0.409810620946290116)
(0.446396805374688121 -0.283591841528241906 0.446359146366504811)
(0.360782742617266394 -1.84645211371525164 0.551055476550871948)
(0.317955440354198204 -0.0225254744502736484 0.11303678812162507)
(0.390824421808668332 -0.128219324904486842 0.0487993035552166457)
(0.425262838161722667 -0.309189970035377626 0.0662850606873106318)
(0.462790492518864505 -0.513553659923810302 0.12417527080296524)
(0.469636110444889454 -0.609760324671764997 0.192548902575358227)
(0.557791013208364328 -0.0244500953053930214 0.0977379902095027731)
(0.613425662297292007 -0.0571620427422218219 0.129086777569793559)
(0.623001675000552924 -0.127283841742029141 0.148922186911693538)
(0.608136416318555528 -0.254664333185037006 0.149163251021299958)
(0.57484158385815054 -0.419612534475670429 0.131986781337176506)
(0.435717443198411603 -0.225624943579648879 0.00861025360821125393)
(0.487250220159558212 -0.238040758885226716 0.022375170710355774)
(0.545329465715534312 -0.25213164129765514 0.0410530993202797775)
(0.607297542866761741 -0.29921718205828185 0.0515877744492398219)
(0.614213817724967082 -0.370363571789949331 0.0484084350011058789)
(0.356309418428450486 -0.274942825606379004 -0.0107907718662032196)
(0.389652504284058954 -0.302280026417666214 0.00315410136662600676)
(0.429714007707027779 -0.324038986494932624 0.0187187831316951228)
(0.470482480213143872 -0.356929649513370806 0.0265304817014229838)
(0.503254808283766564 -0.407028966170946194 0.0258543498867838083)
(0.326099849066449843 -0.306359736035135111 -0.0042724187008538932)
(0.352059005184969909 -0.336252085985773053 0.0059543842056958762)
(0.381052598710181933 -0.369159587632563957 0.0172694814770531849)
(0.41235800124551325 -0.410445219389677041 0.0246460004246744392)
(0.439779881815879015 -0.460323752556023813 0.0296854222808548458)
(0.287157119248955761 -0.328109867733439919 0.00712861035073467618)
(0.309248097519378373 -0.358245479457939053 0.0117064624204071769)
(0.331490304762377896 -0.394113782259265744 0.0193491608739784111)
(0.353316552065030653 -0.436303634646849348 0.0278050585352165626)
(0.373498756448814861 -0.484227640645119417 0.0368386209055832289)
(0.243480898662852691 -0.348966892082401225 0.0185615220867416837)
(0.259214418933209678 -0.381711980575337562 0.0225238893429403828)
(0.274800134478196068 -0.41880864498089071 0.0287956404686858548)
(0.290203201489251106 -0.460919617646384783 0.0369410709742383422)
(0.305220171912478522 -0.508727609371795286 0.0474223302763253085)
(0.200972048763094741 -0.365186107386415715 0.0220793436139701121)
(0.211388162426552895 -0.397573632328099114 0.0264506143780638657)
(0.220878835195335438 -0.433811313337691906 0.0332279482186850494)
(0.229455788177600539 -0.474517881464572133 0.0427244870154529152)
(0.237008794310131971 -0.520543381249975123 0.0557632421904523251)
(0.159989162752236652 -0.375766766869481073 0.022604384480560815)
(0.165762283145017397 -0.406036088297614284 0.0273582955612805233)
(0.169850074119834771 -0.439519328556099653 0.0345574095596581643)
(0.172003030534073537 -0.476865139213817957 0.044895249385346607)
(0.17184087903451703 -0.518966255794086839 0.0594086573863476589)
(0.122197573093064324 -0.380949034347899895 0.0211816712173392915)
(0.124369897315178626 -0.408383970055904877 0.0259051581646859985)
(0.124304982426213476 -0.438169797865656019 0.0329106646822466542)
(0.121464844156608798 -0.470641113038718195 0.0429422213832589411)
(0.115108477177592886 -0.506313475969101368 0.0570494128058538219)
(0.0837067065525916448 -0.338327104719675753 0.0137617831792799274)
(0.0869330404954498509 -0.359684019776757846 0.0153329022522205108)
(0.0886808884782820939 -0.38242361557158544 0.0180354564720135377)
(0.0884946664223142387 -0.406475864027676881 0.0221899178265300319)
(0.0858578929485953463 -0.431796027230693935 0.0282361629890174048)
(0.0800961869785548064 -0.458372753057462057 0.0367898489611753754)
(0.0702961954435895042 -0.486230301315444202 0.0486996291193117076)
(0.057260257397397693 -0.341631413917608873 0.0101888004878427797)
(0.0589968753087126915 -0.361021110800647582 0.0115049486360506003)
(0.0594332513390504191 -0.381272490598234426 0.0136518234536251882)
(0.0581661375362153774 -0.402090565471835804 0.0168591338227824343)
(0.0547270854619027608 -0.423154788773390467 0.0214310371332981156)
(0.0484851661994366717 -0.444065648089622678 0.0277861846369785517)
(0.0385404837044213133 -0.464339957265737513 0.036469452159199077)
(0.0332759122939345273 -0.343157321411245331 0.00624877577715642583)
(0.0340901491220586203 -0.361112224589560105 0.00711083747767193158)
(0.034021614053093889 -0.379522918802852882 0.00846932031016731784)
(0.0328107452050525675 -0.397938533731623134 0.010467967375724389)
(0.0301243271576333675 -0.415823307196921843 0.0132850415663157296)
(0.0255208465453921722 -0.43248731136014773 0.0171540894422272452)
(0.0183612013220279813 -0.44705799580255523 0.0223637723665436848)
(0.0110022432542678968 -0.344937400033211217 0.00210326274707966446)
(0.0112601921372418902 -0.362263543172048563 0.00240489051442682126)
(0.0112149308980538532 -0.379821076111671763 0.00287085019521012008)
(0.0107768170783594935 -0.397113290125338081 0.00355006513862416622)
(0.00982681161551408541 -0.413495875185132533 0.00450353565437023109)
(0.00820513816129319305 -0.428139923281992407 0.00580902034699661528)
(0.00569578581177908501 -0.439959408286025644 0.00755204164006806518)
(-0.832656247735769739 -0.93796320459785143 -0.051134930418475999)
(-0.430043318984288214 -0.751321327192378097 -0.237903405255546208)
(0.553697902792722352 -0.0574624487862593278 0.2509185706478545)
(0.41425893929483798 -1.71466021706669558 0.29963330404482702)
(0.30744858424358712 0.0170614972048284373 0.107475924846763216)
(0.440501355742102252 -0.105856299002294416 0.0802710631994648371)
(0.530780125606828745 -0.284934324531538552 0.048845209799213446)
(0.59155263881357556 -0.42963225133554922 0.0509220660896773092)
(0.573355477569086336 -0.435631686111327743 0.0639256032469099483)
(0.53672875716354973 0.032402988918274693 0.125981983132728292)
(0.596412431195195158 -0.0303025316511745628 0.141732313110937758)
(0.631992753487014447 -0.105718329629590019 0.137060084684985012)
(0.627801585006260376 -0.193893841842480708 0.117804581261674701)
(0.604974643653615751 -0.336222361412865156 0.0942071773360322745)
(0.442976413716029971 -0.158762129065340263 0.0454308669434232773)
(0.48214274563481152 -0.209065318511972964 0.0493671434520848995)
(0.528275715357777176 -0.257951871938690069 0.0552596141435616611)
(0.572977741205679458 -0.314507161354724452 0.0572499112434352864)
(0.608959062850556232 -0.378272411660983132 0.0539668624922475804)
(0.345341141672202034 -0.230470438285010543 -0.0012093938586492806)
(0.38620357895912627 -0.274916032765643747 0.0118394617934279803)
(0.427773685664751602 -0.322834274046678693 0.0276247109482149061)
(0.468271608028067277 -0.370747696653212611 0.0382634483598997474)
(0.500245051188900836 -0.42127467106923705 0.0412292539920015993)
(0.315916036596415484 -0.260565954125102806 -0.0113383157025299212)
(0.356196422532267798 -0.301540303944792532 -0.00033108895247124597)
(0.391174668783920487 -0.349751786842350088 0.0120524066930219019)
(0.421594498630097125 -0.399673388534511453 0.0223164746045346959)
(0.44687058123277662 -0.450806970203633361 0.0301236766435881362)
(0.287700215447155572 -0.314807158690404154 0.0036599404958557397)
(0.315660541724194554 -0.349174658901101997 0.00930792664888570667)
(0.339684806562398356 -0.388439779995376211 0.017718738098961441)
(0.361324570426016622 -0.431516468298723088 0.0269681305812883958)
(0.381594598751561265 -0.478621612869109647 0.0361839619653623532)
(0.247623973377675194 -0.345497329051757451 0.0178513404497461191)
(0.264870817498877142 -0.378249236686734769 0.0222697566366629289)
(0.281527457618709398 -0.415401349789622232 0.0284520979584022456)
(0.29823652692951802 -0.456937530300794426 0.036150193247069376)
(0.315102600517236486 -0.503183974300578929 0.0455964819503883179)
(0.203814170034760156 -0.363280048549388779 0.0213099240790397722)
(0.216100192120524004 -0.395406365510648339 0.0254854981769299591)
(0.227765608044798618 -0.431383008402825896 0.0317670729754881073)
(0.238962814016315916 -0.471449543390488113 0.0403883005951052795)
(0.249765401255173769 -0.516268980709857495 0.0519310595323437471)
(0.16319769767381781 -0.375803500019808223 0.0218969078092765349)
(0.170932785985610985 -0.406047546138584625 0.0262606839052050497)
(0.177419309633559313 -0.439522317098697102 0.0328085724308395943)
(0.182647505645627206 -0.476688388431209475 0.0420819804183384244)
(0.186570328494992166 -0.518334165476648567 0.0549160638390835953)
(0.125591073900956418 -0.38241002588505868 0.0203286418518349894)
(0.129512358055581311 -0.409984121612227581 0.0246503059799222102)
(0.13171959904809033 -0.440082671868335717 0.0310306590671002025)
(0.131893159141158484 -0.473062263700413876 0.0400722708855944937)
(0.129649506193763142 -0.509472347991954733 0.0526188509451669673)
(0.091697897627634084 -0.384829115253272791 0.0172343549785136836)
(0.0929761176839976333 -0.4093630158224702 0.0210560600674510601)
(0.0922419849210358023 -0.435459761955651059 0.0265809066319719171)
(0.0889881806871583442 -0.463201192003332263 0.0343285004208828889)
(0.0825529405528612065 -0.492754033030094019 0.0449770150126065429)
(0.061796497674437928 -0.384387578221762172 0.0130153717200268762)
(0.061596568310599023 -0.405908170762842024 0.0159704416828507674)
(0.0595170149521212152 -0.428016902745245287 0.0201622400722759991)
(0.0550307927816067466 -0.450442641904483021 0.0259394199045675337)
(0.0473549851157939045 -0.472875332122165037 0.0337320480956688901)
(0.0355061978789360938 -0.383078635495193054 0.00806451550071091497)
(0.0349316375597543069 -0.402322092018606692 0.00990946562072124969)
(0.0330531287921292521 -0.421391353022116832 0.0124988194713620826)
(0.0294704948138273075 -0.43970919817437748 0.0160235256344829352)
(0.0235768353300949557 -0.456542355165948155 0.0207065874009252221)
(0.0117165479678580167 -0.383569645684792127 0.00273129471070968988)
(0.0114903741163317509 -0.401734930549078995 0.00335913351278503518)
(0.0108102390092027732 -0.419354181903064782 0.00423620259191414064)
(0.00952894534363970917 -0.435694855928903557 0.00542549699614551517)
(0.00742600577711362026 -0.449787477249558976 0.00699821462162327976)
(-0.779832265035951266 -0.809245193856896972 -0.159018886259403913)
(-0.398482046234416964 -0.717183791413363414 -0.271001786387191079)
(0.726850922727380611 0.101063128857921847 0.0949368227441698548)
(0.56079428070980808 -1.51698409523430411 0.159483280053488607)
(0.386755131737970326 0.00460297089506471468 0.0500579838952738762)
(0.511779844249971583 -0.121101621082254279 0.039273563831505591)
(0.614786379607432543 -0.265527544766922141 0.0161974899517657346)
(0.70253913263721679 -0.414358393685049897 0.0213670643012084938)
(0.697778328018310967 -0.419908794114790762 0.0326551732573146236)
(0.539617284194692459 0.0727612232437066658 0.11749151171724985)
(0.587070796613117563 -0.0216329803001405613 0.122647204850216754)
(0.624360621588223919 -0.123651123499858892 0.121455039657841102)
(0.630158911889839857 -0.224786805332660322 0.113235505003368556)
(0.610276135124313224 -0.362591245901459247 0.100943808047542244)
(0.45785860579234211 -0.0862724717632213367 0.0976934633702394584)
(0.490287551143095857 -0.172473041058388232 0.0929422627602465995)
(0.521295280446985254 -0.26334104858842744 0.0840899887058967899)
(0.551866619322493257 -0.346901518561239186 0.0755916911374266837)
(0.579251643384493864 -0.41260720522218447 0.068626007640348069)
(0.358631633452045684 -0.1902125649323676 -0.00537347136205173354)
(0.402637810190690504 -0.244580095876723386 0.00266668824128419007)
(0.442494751616834658 -0.305759741108989958 0.0134334781124817327)
(0.478286147690004992 -0.364727985439199487 0.024300375117166418)
(0.506592016033303616 -0.420345638951717504 0.032412017716665964)
(0.331590367458230895 -0.239374846890691023 -0.0281035658111255492)
(0.370008273623831929 -0.283689841351402405 -0.0152281582272966211)
(0.40355237836481872 -0.336062100781058304 0.000580902639939862714)
(0.4316943950321252 -0.390383811150207649 0.0155178661112913563)
(0.454872148029338508 -0.443922122967093824 0.0273355523637246016)
(0.294383391874993405 -0.312724724638733353 0.0098538631672689149)
(0.321475891655824186 -0.347387393704697289 0.015892348991524214)
(0.34571804562428271 -0.387026288477846758 0.0227694496284717059)
(0.367632445640904637 -0.429993837724999106 0.0298431078258450493)
(0.388364233689530935 -0.475912042664508872 0.0369248680737358156)
(0.250610302300838694 -0.340447295164363062 0.0194046383933301134)
(0.269127898717138325 -0.374075698056233585 0.0231279679675448525)
(0.287201124978116784 -0.411725720313290244 0.0279953690986400466)
(0.305281102019669459 -0.453032966104069845 0.0342656502198442001)
(0.323741643190154138 -0.498187006874401372 0.0421665079445404378)
(0.206796695505799044 -0.362132940821607685 0.0201933981866282593)
(0.220611449425860112 -0.39417680554914547 0.0238568813896371627)
(0.23403184981166042 -0.429890500208037485 0.029357817352420941)
(0.247334595559454251 -0.469371178151491153 0.0368528820701508331)
(0.260772580165437529 -0.51310354531553215 0.0466907700268949649)
(0.166149474747474962 -0.376013097489980352 0.0208371455396059967)
(0.175543852203116552 -0.40619139415229677 0.0245812029489516845)
(0.184079097062028629 -0.439612635817724418 0.0301964446627760626)
(0.191905719907365685 -0.476608533125140454 0.0380788153544046257)
(0.199168009917221139 -0.517858172175556297 0.04888516024999668)
(0.128591500464307645 -0.383849776896264816 0.0189480069557157668)
(0.134070928457936278 -0.411579838569433698 0.0226586321966414442)
(0.138261049251367008 -0.441962550532368936 0.0281535862705229456)
(0.141007684328928934 -0.475362550254080307 0.0359045464901502492)
(0.142166598927485816 -0.512368654584828831 0.0465659797859077074)
(0.0943996884361023303 -0.387155142332676172 0.0158941421464997602)
(0.0969699002133125598 -0.41210468728473354 0.0192244174698380441)
(0.0978996611044564702 -0.438868953716174071 0.0240278607732630801)
(0.0967924618878477361 -0.46761017033304686 0.0307158346949442593)
(0.0931815588078421242 -0.498609524370933976 0.0398016194306043264)
(0.0639121311103521272 -0.38733785344479793 0.0119579140799181242)
(0.0646548067376213342 -0.409477060391931436 0.0145361207517317233)
(0.0637723926115177919 -0.432509256089706751 0.0181899872349040141)
(0.0607944659583177574 -0.456266197403350726 0.0231929477692009896)
(0.0550270250675359285 -0.480573930851973974 0.0298573434334416798)
(0.036842383421636947 -0.38641309986666067 0.00738187997149768009)
(0.036834053313958906 -0.406393802008482519 0.00900310095611684194)
(0.0356658179385725069 -0.426520463132936456 0.0112709493535817721)
(0.0329560282054465054 -0.446305359188505613 0.0143322175615427528)
(0.0281101931819993101 -0.465125777532576001 0.0183392846739871031)
(0.0121700429164846875 -0.387058489342879675 0.00249703341907657255)
(0.0121324021864043681 -0.406015247878814545 0.00305093519112756935)
(0.0116880859353882295 -0.424746766149645794 0.00382011676115637678)
(0.0106947385315379548 -0.442597515631627414 0.00485294672912565429)
(0.00892938581590387546 -0.458683436099812381 0.00619441506983027003)
(-0.755605157026813079 -0.879241235779276931 -0.0956570768074995609)
(-0.397505746201440302 -0.71956994970391619 -0.183447945318453959)
(0.809408552683335114 0.177315008372155331 0.0595474599756584469)
(0.626503315609263645 -1.48758690616572276 0.100573303335027134)
(0.490626490106314928 0.0486508154390517533 0.0176760487429036758)
(0.587433217442483557 -0.0310727566116486623 0.0269228219727243624)
(0.673773472634841997 -0.196125636080703158 0.0363206690685744099)
(0.754064287237430353 -0.399583086362223339 0.0477413242383503689)
(0.74961841058942047 -0.423418930366963875 0.0598704395753659122)
(0.548553674325980234 0.0227866571512544552 0.132899388014546566)
(0.582135572392165401 -0.0655645826333182136 0.127968346223946844)
(0.611098090667591021 -0.176309909268594578 0.126162140828423558)
(0.617906596465499836 -0.281568080816402999 0.116452203460801748)
(0.599906806103285062 -0.41251654156235662 0.0944261247531365394)
(0.463560966051152157 -0.0788416324973068294 0.131741170166486121)
(0.497169086639438207 -0.149221309266551055 0.122022379120565586)
(0.525233386893802168 -0.237643376734617079 0.10088022070929388)
(0.551643298974024865 -0.329908308139295336 0.0757158552392125234)
(0.576357412324642771 -0.404633296772455076 0.0595099145798394583)
(0.385763672688909987 -0.111887525710502492 0.0162035575525587699)
(0.429566385503119375 -0.180783942517873053 0.0145632268304446179)
(0.467608429775504375 -0.259670364752161764 0.0140237312824225361)
(0.499315707667987885 -0.336640897876472833 0.0173268757773258272)
(0.523142417198267595 -0.406131940957092097 0.022830759948545231)
(0.355725951973429766 -0.218427639156420911 0.0026348904180466667)
(0.388140045203945072 -0.273882238261380584 0.00483108821054987168)
(0.416841628101970174 -0.333909723107600254 0.0113454081779967401)
(0.44111217666383512 -0.39185399482378569 0.0201670416094452652)
(0.461735687335125156 -0.445875838112723355 0.0291127333322516793)
(0.298385462183846484 -0.308965266900735336 0.0216024129984598127)
(0.325462102880529014 -0.346240405504244786 0.024610735342773863)
(0.349981385345434493 -0.386090031189284144 0.0281501397507108418)
(0.372296672936889506 -0.428180611678909195 0.0319624617108042533)
(0.393702435915632698 -0.472830579008960805 0.0363009340635916111)
(0.252930699337352238 -0.335028126955843497 0.0200005391747672331)
(0.272542607293464523 -0.369445361661142724 0.0223819971955397205)
(0.2917912775318251 -0.40799611481745246 0.0259404080947617452)
(0.311107480920840174 -0.449773339871624933 0.0308647639376404756)
(0.331001453634953369 -0.494593637122753782 0.0372525392651341727)
(0.208950273980085754 -0.362166230171384385 0.0201455334123144189)
(0.224249626513466277 -0.394169384825073632 0.0227230830936717698)
(0.239257494506152302 -0.42955242238507918 0.0268918980500987732)
(0.254314033917750759 -0.468350483913119731 0.0327494348509865182)
(0.269856718782711058 -0.51101787445533442 0.04052182801701016)
(0.168595993772157504 -0.376633507890591024 0.019212900484955428)
(0.179368538171299441 -0.406620821020229339 0.0220944161254281075)
(0.18958769343796944 -0.439894008021725957 0.0265763697241099342)
(0.19953897160133241 -0.476696510039536392 0.0329138664598770114)
(0.209450684721599223 -0.517627577988941323 0.0416069168087078722)
(0.131036401687815524 -0.385359878027008107 0.0169751049351173078)
(0.13787108356623437 -0.413190281872609144 0.0199629828170320954)
(0.143739937696600234 -0.443789800165674042 0.0244387466070209586)
(0.148611772249711255 -0.477505357596159086 0.0307420133289665852)
(0.15245529095051924 -0.514963264846920787 0.0393819339842316415)
(0.0966809441048614993 -0.389354158733645095 0.0140213563758968228)
(0.100356876713696502 -0.414627679330509147 0.0167553237340622857)
(0.102679890521131856 -0.441931735242925949 0.0207143280382087978)
(0.103328095327662517 -0.47148825067665473 0.0262045244037512788)
(0.101947443709177493 -0.50366805961848049 0.0335952617224244479)
(0.065713220813378187 -0.390021785591835535 0.0104702383623715596)
(0.0672596516064853517 -0.412675983391585843 0.0126099958404014157)
(0.0673803290114432518 -0.436486349223165093 0.0156408896279815295)
(0.0656281653404780924 -0.461362369257025895 0.0197654069539319223)
(0.06135055701990242 -0.487228632276545781 0.0251880450743601145)
(0.0379863484076858188 -0.389402262012134182 0.00644092400266046191)
(0.0384622337904949874 -0.410013551024036638 0.00779611054594729624)
(0.0378874894761731737 -0.431042741932963325 0.00968617974325093785)
(0.0358811311508519803 -0.452069101365303705 0.0122167505229891123)
(0.0318299858725892906 -0.472545572325283492 0.0154782116538190843)
(0.0125590762040525238 -0.390178012964864207 0.00217721751807323618)
(0.0126823787537951264 -0.409814916591590028 0.00264096782957777033)
(0.0124348605653692226 -0.429497831290226673 0.00328280961900566338)
(0.0116730619683329418 -0.448627071678216083 0.00413730824546776343)
(0.0101612383021428901 -0.46637040991898232 0.00522979341476643989)
(-0.842056225455742213 -0.938583425578755404 -0.160182255992203204)
(-0.414685661125070104 -0.727965563728273035 -0.181552796451153214)
(0.823056563045528322 0.162952263240137341 -0.0952002674420590334)
(0.569731307445545565 -1.55531292831535151 -0.00930606920018453923)
(0.504179871039068583 -0.00739551693544198384 0.0220967036044151764)
(0.586407138400424799 -0.0310914748883961978 0.0453474626488599639)
(0.668723134139056485 -0.156735242369708261 0.0691117695603310767)
(0.768834913041178125 -0.32493604925527797 0.0792417045554281996)
(0.788305006349609094 -0.3601591796114057 0.0791730479492876865)
(0.537245444506235459 -0.0409283294681885845 0.136514251298417016)
(0.579492637229029994 -0.0908220105617980611 0.139033871157371036)
(0.622203639848098344 -0.16021366635938053 0.137079182639743447)
(0.642164856083509594 -0.238307032184361389 0.117063110527519026)
(0.628454559564844528 -0.359402938042238662 0.0798954357013459265)
(0.476246424291480452 -0.081517052756572006 0.099540697632286429)
(0.513207050566407252 -0.122837267091433416 0.103670963006921066)
(0.544052533915906467 -0.188599555392589768 0.0852636679472381087)
(0.571293437681967275 -0.274943316764426793 0.0594766519637810603)
(0.596057473218958522 -0.364062537155099009 0.0450741842715678132)
(0.423989202937268106 -0.105729683631898372 0.0281977680690382766)
(0.455256592005401306 -0.164003615757921578 0.0296106067226689917)
(0.486038945678819445 -0.24533465237854224 0.0272776951574068317)
(0.513848932235945188 -0.329585536887342379 0.0274067338627342512)
(0.535409176951234467 -0.405503554056070414 0.0310887742313827736)
(0.356005091984752886 -0.240434457512245292 0.0427148220828849484)
(0.387400505271060236 -0.296447691593790141 0.0377204731462936829)
(0.416801711881926329 -0.350166291335644531 0.0353043625247623644)
(0.442098400338076514 -0.400608757368095758 0.0351075063109338031)
(0.463597872953387002 -0.449154545478183231 0.0362037306322785107)
(0.298395338874230254 -0.305636353390981219 0.0325998311398652124)
(0.325649597154011428 -0.341980696489485314 0.0305926340044766348)
(0.350886322615842461 -0.381703026730590533 0.029971477681110633)
(0.374325036292388391 -0.424577305483140655 0.0304359558916541921)
(0.397041611589396159 -0.470033441816242736 0.0323311157573503358)
(0.253204267604032196 -0.337347230237982965 0.0220587434100630586)
(0.274276442481103055 -0.37126586482553825 0.0226578761936630478)
(0.294975238039182797 -0.409135459535458712 0.024122944074493783)
(0.315560650354915539 -0.449930648064654437 0.0272213653957196315)
(0.336728137456597354 -0.493410301593923906 0.0318218240525975082)
(0.210086284384031208 -0.363073573160988095 0.019669991910143271)
(0.22663808150054629 -0.394621447975671336 0.0209321141887500797)
(0.24296953288135037 -0.429516751380878969 0.0236104473567292847)
(0.259478250345546668 -0.467724755654051638 0.02767570855119178)
(0.276727932545183852 -0.509630369041610631 0.0333371219690864751)
(0.170243137163533093 -0.377938488507331471 0.0168568893423365548)
(0.182237630754512742 -0.407643314272445934 0.0188035649321808759)
(0.193868062314246969 -0.440675362396663772 0.0220742274024952785)
(0.205529001267057726 -0.477201384255005301 0.0268101154526385228)
(0.217462589160176217 -0.517776451835552209 0.0333876383997381565)
(0.132893832460555722 -0.386949093067341598 0.0143886825493693572)
(0.140843882324399261 -0.414771602070670153 0.0166053067661104843)
(0.148059610934305419 -0.445482744774633732 0.0200011575039767617)
(0.154611252894165746 -0.479403953782609749 0.0247985314313025618)
(0.16047564400511255 -0.517183223104022427 0.0313618573051426819)
(0.0984737535302051548 -0.39136252736503957 0.0116587886450443788)
(0.103053981321319002 -0.416863342334021836 0.0137469318738939906)
(0.106493873843953507 -0.444576188886522672 0.016799630754506599)
(0.108519070271102427 -0.474757241615597236 0.021030198927513441)
(0.108819592102729776 -0.507846488642045846 0.0266815258375988004)
(0.0671556190593835534 -0.392351708019775425 0.00861886243991790216)
(0.0693542735344515743 -0.41540811363918495 0.0102833910972534755)
(0.0702761594669862183 -0.43983486745322059 0.0126462033705234036)
(0.069473510716328124 -0.465597446541900772 0.015850134866433354)
(0.0663124428021540091 -0.492691079279522548 0.0200172755215984113)
(0.0389123312476219382 -0.391953933611821292 0.00527956875714125431)
(0.0397810450383336359 -0.413071725849025295 0.00634287550630897867)
(0.0396787861552075835 -0.434827486947069297 0.00782530859172152378)
(0.0382139989898559948 -0.456848414482841025 0.00980039985476778217)
(0.0347482971475392977 -0.478630810240911864 0.0123183050716395067)
(0.012874594033761351 -0.392823283320788086 0.00178225924009528178)
(0.0131285666703949075 -0.413012699269950267 0.00214716671983622171)
(0.0130377761116610424 -0.433466377108010448 0.00265168756165610206)
(0.012454703507133652 -0.453622543240851939 0.00332000162167689263)
(0.0111294972851239213 -0.472677308281437947 0.00416720958848016895)
(-0.814470207343697128 -0.930727123460889816 -0.147214062392498402)
(-0.432165181230727835 -0.724560737042339364 -0.130294059008970925)
(0.866275709390224913 -0.0283349840416531155 -0.166995580147418415)
(0.526363770930970976 -1.59030336140011164 -0.106786480156389058)
(0.574036548773235733 -0.280069659665235171 0.0661299981879340804)
(0.635783126420505162 -0.255821917218517769 0.0598947480337159582)
(0.694175138456969099 -0.312751523037876289 0.0618350286522305753)
(0.769525304195259774 -0.400380702935127009 0.0574546018857866117)
(0.781109116145475735 -0.367891620750987081 0.0530020582149039327)
(0.535745226683008169 -0.187700725634357718 0.120218415903310963)
(0.592111748886732459 -0.167065326562598482 0.126617720303713654)
(0.645663321920451838 -0.188759014937976144 0.12753862602782709)
(0.665808050796558581 -0.224833994182459557 0.118125219570367798)
(0.647729576359216686 -0.338224196193618487 0.0959310471512028196)
(0.512750603213499967 -0.154937042686844134 0.100878464064155168)
(0.548275130062542471 -0.158768940683644527 0.107908781713619381)
(0.573241976971844647 -0.20515164459548893 0.101565092113465538)
(0.59337030834008464 -0.290946555665084927 0.0839859941302853741)
(0.612779434067182938 -0.382060652844766035 0.0663742339687605348)
(0.435353205331678206 -0.159429218227679109 0.0781473738944909735)
(0.461349035308025346 -0.208511564911631947 0.0790660619969621725)
(0.485659297178218152 -0.284461684161066375 0.0688515058452422585)
(0.509568706399511351 -0.360427353991695509 0.0570640602207588693)
(0.529991743478393951 -0.427582833764371062 0.048421642310543217)
(0.344717661255169117 -0.250447593263003088 0.0736796787498764233)
(0.377813562340485409 -0.30823083984344285 0.0603690464362551041)
(0.409326653932619244 -0.359643229635380146 0.0477920953701336665)
(0.437303922855064364 -0.406210364874512397 0.0393732511940554156)
(0.46181496736024269 -0.451676078888169852 0.034728862834298109)
(0.293744251924613786 -0.313577912659700309 0.0380169291108700194)
(0.323166036282900027 -0.347648363678601413 0.0305032530945421078)
(0.350112569866473433 -0.385464476840927661 0.0269157872829547916)
(0.375090784588354376 -0.427027307601739625 0.0257820192781657818)
(0.39921423705792114 -0.471626125553973097 0.0264584459503002488)
(0.251596125116303471 -0.343620616847645666 0.0219391626450280569)
(0.274193587373511127 -0.375578289208256588 0.0209496691150996214)
(0.296240794465637391 -0.411943604149895004 0.0212387500316563692)
(0.318076990397607395 -0.451291602943371728 0.0226252737064810555)
(0.340440059044487708 -0.493544972471719467 0.0251605313290929021)
(0.21010225130822191 -0.365163337511108299 0.0173317113703984893)
(0.227779241745059285 -0.396019317089439382 0.0174749846413073465)
(0.245245392740400581 -0.43031802836742733 0.0187511405183260829)
(0.262999725626716918 -0.467884039531653695 0.0211705310380298495)
(0.281573938060392603 -0.509239092152210193 0.0248876150248444131)
(0.171083629933500125 -0.379789763620898446 0.0135250337615937938)
(0.184112331762342707 -0.409064545355770415 0.0146193859008995827)
(0.196858996648740459 -0.44175178083880573 0.0167399961077282604)
(0.209826715085895732 -0.477943980105512423 0.0199466403747702997)
(0.223179245874453619 -0.518229998098887923 0.0244341194745164095)
(0.134158099315024121 -0.388534537321886253 0.0110925246043844621)
(0.142972103094159392 -0.416250469479307439 0.0125631844058024904)
(0.151195685408257813 -0.446970008125539886 0.014890364811425038)
(0.158974981705012813 -0.480982552393679597 0.0182199836582087639)
(0.166228766010482421 -0.518953594847824995 0.0227578448804033953)
(0.0997627846372563243 -0.393076251984423197 0.00880198508342655041)