/*--------------------------------*- C++ -*----------------------------------*\
| =========                 |                                                 |
| \\      /  F ield         | OpenFOAM: The Open Source CFD Toolbox           |
|  \\    /   O peration     | Version:  2206                                  |
|   \\  /    A nd           | Website:  www.openfoam.com                      |
|    \\/     M anipulation  |                                                 |
\*---------------------------------------------------------------------------*/
FoamFile
{
    version     2.0;
    format      ascii;
    arch        "LSB;label=32;scalar=64";
    class       volVectorField;
    location    "0.420000000000000151";
    object      faceTraction;
}
// * * * * * * * * * * * * * * * * * * * * * * * * * * * * * * * * * * * * * //

dimensions      [1 -1 -2 0 0 0 0];

internalField   uniform (0 0 0);

boundaryField
{
    inlet
    {
        type            calculated;
        value           uniform (0 0 0);
    }
    outlet
    {
        type            calculated;
        value           nonuniform List<vector> 0();
    }
    top
    {
        type            calculated;
        value           uniform (0 0 0);
    }
    bottom
    {
        type            calculated;
        value           uniform (0 0 0);
    }
    left
    {
        type            calculated;
        value           uniform (0 0 0);
    }
    symmetry
    {
        type            symmetryPlane;
    }
    interface
    {
        type            calculated;
        value           nonuniform List<vector> 
181
(
(1780.09206247347106 -0.0225494932873766367 -0.0617172373704270791)
(1671.38965633006887 0.00108538225877884815 -0.0654112805265646136)
(1561.82365468567036 0.00390584088467481327 -0.0647814780698497544)
(1456.03474174721805 0.00454096970897732016 -0.0635372764334440343)
(1354.59930225497237 0.00536340168985936609 -0.0613224062711441031)
(1255.95072260849224 0.0064395452934542189 -0.0596841157201534328)
(1159.37433746894044 0.00788958297802565441 -0.0581211327150212634)
(1064.57840735122022 0.00969124422827383723 -0.056401790852575226)
(970.15391696522579 0.0119935380590353684 -0.054678962358858399)
(872.638877091325298 0.0150894932844608792 -0.0530221820822372111)
(769.700543113087861 0.0194728582432566986 -0.0517494850455121266)
(658.778652470156317 0.0252548054263345562 -0.0512086605330534378)
(537.000216412255895 0.0316386976948792517 -0.0492355888695846719)
(406.007807743263868 0.039094894311362427 -0.0484158300659159394)
(273.74915227808026 0.0461390830352806369 -0.0481754782348996699)
(161.923564526074614 0.0487507690344211597 -0.0471772033016367234)
(2022.66784386068002 -0.0138687737243931644 -0.0395770829741192154)
(1908.50018619349521 0.00256460140203879734 -0.044015766510146534)
(1792.36342241860734 0.0050132672730666605 -0.0432503543484575037)
(1676.74457102153633 0.0065043462372294204 -0.0424460101368545548)
(1563.36865154983798 0.00802836574288723522 -0.0413741044404377922)
(1452.48128011955009 0.00971287604489780299 -0.0404781095961539994)
(1342.98665483451578 0.0115635858941213546 -0.0396250594294498618)
(1233.83385856784162 0.0136236435841639459 -0.0386493207854252188)
(1123.77789194688944 0.0160513780538703819 -0.0375364393527716084)
(1011.74051752505284 0.0191402022714721107 -0.036162460829891295)
(897.069175135667592 0.023129912295497046 -0.0350275166091303311)
(777.189290404400595 0.0291179097772828605 -0.0354387078261002714)
(648.005487005319992 0.0352682458532262155 -0.0348410892968670366)
(509.419243983111585 0.0421554166295409621 -0.0342437339689951742)
(366.641633258016554 0.0496107817119068664 -0.0341894047709483465)
(233.819562043012098 0.0536757259876372919 -0.0339972911555456447)
(2134.77508592521144 -0.0138719835577185893 -0.0315328799022865994)
(2020.38593632746552 0.00288539336581034511 -0.0350406645038142672)
(1902.32973890479593 0.00636436851151827871 -0.0352039129515511473)
(1782.95971666304035 0.008453622004065596 -0.0344795694485605722)
(1665.13091842944846 0.0103394205966871617 -0.0332870097721713054)
(1549.26276037653111 0.0121967051369849394 -0.032551178702470214)
(1433.88132395705907 0.0141177075571429361 -0.0320837223707542765)
(1318.23196138064827 0.0164375959324354858 -0.0315701894184142184)
(1201.93213440230556 0.0192390855290478779 -0.030953210834913935)
(1084.7857614856041 0.0223552141520238917 -0.0300268178909498459)
(965.934776099276633 0.0261653932977313868 -0.0292924661277901496)
(843.315119736031875 0.031532176216645183 -0.0294108805379516489)
(712.653824006939317 0.0380269391560394132 -0.029798432513472195)
(572.114950838502523 0.0442596656011107065 -0.0292594166946755323)
(424.893251834249781 0.0515612655732900216 -0.0291713056007219286)
(280.543694286604989 0.0564727931696583363 -0.0293588425869706279)
(2178.60681414050532 -0.0101011622806851161 -0.0188173603526148835)
(2063.75558923348217 0.00350263564035182282 -0.0229151417793281124)
(1944.81311268964987 0.00688318577845007003 -0.0230681904924878202)
(1824.22367262657031 0.00915686216298200809 -0.0223482088605650511)
(1705.19253545300671 0.0113894708202469629 -0.0217389113850018391)
(1587.64103534023116 0.0135652563779423228 -0.0214912878603204689)
(1470.1234964567725 0.0158279187340611346 -0.0212510595611473292)
(1352.24012947240658 0.0183719522235672554 -0.0209630943684984798)
(1233.76324881809001 0.0212641337113203786 -0.0206557450959564091)
(1114.3778140470497 0.0244356531406541878 -0.0202183110123756483)
(993.383907192841889 0.028109167462152175 -0.0197974903154219221)
(869.687086317160379 0.0324635132922574676 -0.0194829856967630964)
(739.961294980785055 0.0390123680032588918 -0.0200624567820603429)
(601.051901517560736 0.0453972937129593079 -0.0201546256541260023)
(453.845453888644045 0.0521267720714876162 -0.0200898440110597147)
(306.29256215144153 0.057247693985257038 -0.0204504101539184496)
(2201.77187948808933 -0.00819991210850167483 -0.0151277539211790435)
(2087.3263588872519 0.0038133881496937045 -0.0170557077852926953)
(1968.90718733666426 0.0072015314636925537 -0.0173729188105321078)
(1848.70138243952874 0.00977118957558152819 -0.0172810253422586192)
(1729.38705046161772 0.0123357281666218455 -0.01709294673155623)
(1611.30612449316141 0.014719582089988914 -0.0169674037377688276)
(1493.17512884739494 0.0171316042925218487 -0.0167828866050435746)
(1374.56337315647943 0.019802381155171047 -0.0165514326190826996)
(1255.3660102904928 0.0227630492349147479 -0.0163032615375791334)
(1135.38789120632555 0.0260249356964555659 -0.0159995630044360328)
(1014.02335939589727 0.0296629170012777423 -0.0157039048613959765)
(889.937219367932812 0.0338607084489759708 -0.0154844771722120102)
(761.240980523862277 0.0388040713278208771 -0.0153343047874973139)
(624.377154050638751 0.0462863983321765149 -0.0159262005048466555)
(478.104601170645651 0.0528613034534557227 -0.0158969126489275324)
(328.639733298524447 0.0577149815833346916 -0.0161074092044755889)
(2211.53937996328341 -0.00652865625860340245 -0.00801338486072811045)
(2097.2845234983447 0.0041807142017538353 -0.0107606650851985522)
(1979.10388462825676 0.00745027629541686852 -0.0109981649551999638)
(1859.36028450936965 0.0101669004195654115 -0.0109162687911009363)
(1740.04231966833004 0.0128619410139945538 -0.0108373587333023044)
(1621.55552773392947 0.0153069714374143608 -0.010764978541294495)
(1503.05221515488029 0.0178055981535686948 -0.0106691995006697529)
(1384.08961355614929 0.0205733453061445921 -0.0105622922471218812)
(1264.39546514019844 0.0236630535207603722 -0.0104162760301355888)
(1143.92880197076306 0.0269949321452955873 -0.0101401301903566374)
(1022.4735727546456 0.0306290480555830615 -0.00989191332169366867)
(898.709874722746576 0.0347481790087841372 -0.00973561023291697608)
(770.261739805195134 0.0394951724309564323 -0.00964534743329550914)
(634.52168433227655 0.0462114080684337403 -0.00988349658732124055)
(489.749579029953566 0.0534037038677992737 -0.0100586520472722551)
(339.770347668136139 0.0580009466552750957 -0.0101993407621098018)
(2217.59037666746235 -0.00614748126493539979 -0.00460460348899111027)
(2103.02071856288921 0.00452769298275433781 -0.00624673685031774169)
(1984.99352176044317 0.00770172861803010683 -0.00638564306620378018)
(1866.013480046513 0.0104454287647511891 -0.00639359458328937758)
(1747.35990451513408 0.013197293647496779 -0.00644708449332508354)
(1629.06265539206765 0.015660821492470816 -0.00647797037737619409)
(1510.76386181787325 0.0181748401998561779 -0.0064995357182718377)
(1392.28839145686766 0.0209147447445793902 -0.00651513693182273392)
(1272.08992772112424 0.0249782458769344066 -0.00661264125751034968)
(1150.25630932563968 0.0280780642977899488 -0.0062449281433505522)
(1028.72021841105561 0.0312551140558381263 -0.00590799388296951548)
(905.738323026599346 0.0354348988583616728 -0.00577605934398327941)
(778.095887890355812 0.0401519187398307678 -0.00570795583568495593)
(643.756368432773229 0.0458353829916529273 -0.00570196905706234214)
(500.240065901823129 0.0535527828385399599 -0.00584062895961062322)
(352.04300120090312 0.0583535299361456344 -0.00580198339113262556)
(2219.57913469999266 -0.00522827906201544981 -0.00148569025343075361)
(2104.86710023779187 0.00472006101129341608 -0.00196906266823027162)
(1986.86076434502752 0.00793145644901224918 -0.00202222673636802018)
(1868.20367685674773 0.0106917163364536934 -0.00204230991352945951)
(1750.06889865316293 0.013347672469767112 -0.00208609799295436877)
(1632.17936469627739 0.0157468599645409456 -0.00212138125944861004)
(1514.27420325874141 0.0181180825088313735 -0.00216590027346923609)
(1396.06786111185488 0.0213851243088906337 -0.00225248109324209696)
(1274.64743920646106 0.0258604576348775914 -0.00227018809069936276)
(1151.31714542162467 0.0279561022300518665 -0.00200179959995008816)
(1030.57463951793807 0.0314114164572568341 -0.00189107833452275371)
(907.899051247206671 0.0355917526799189032 -0.00183838533069005401)
(780.18161023251605 0.0403948221369882302 -0.00180849901140306196)
(645.046612220995257 0.0467882880472512142 -0.00180849543647674561)
(500.838458582086503 0.0540226770284865515 -0.00176823792923130494)
(350.338213257881023 0.0585238025065080436 -0.00167713456174096716)
(0.0940962698588437008 0.0450186835406169231 24.8020248378045487)
(0.0917384530736350262 -0.00330888286260737612 -75.2073635396638736)
(0.0884565042761320808 -0.00942881104803602182 -129.269835506572633)
(0.0803944458548401381 -0.0136467467570932557 -149.123805015737162)
(0.0666123658372085453 -0.0159545318306202021 -149.741282442944026)
(0.0609568328855543753 -0.0157562428736779496 -135.736923807297416)
(0.0561396924393911673 -0.0151982282399674134 -119.45515560166487)
(0.0526909653903520972 -0.0148583395652933607 -92.5095302634151437)
(0.044349684914961704 -0.0112930250176564197 -20.8742730569154951)
(0.0370006031951286909 -0.0052203369576807818 -2.47820051557887844)
(0.0361688361701093322 -0.00052494360156842858 -1.91878978519544696)
(0.0320559058729161378 0.00254709954613820035 -1.34909266677646023)
(0.026803293031135704 0.00541988436975767394 -1.45368972239404104)
(0.0183072212783446896 0.00662447923579519149 -0.526125520604119101)
(0.00933422599205227868 0.00586487807044403994 -1.37642387873716121)
(0.0705317702830877552 0.0319082209368533112 221.048826439806447)
(0.0645683132547846539 -0.0174592019304408569 128.62687229351036)
(0.0508435107451064988 -0.0314051325170552204 46.832517218581863)
(0.0269412485407307251 -0.0336560832727632875 -25.7533573333892463)
(0.00476438494434707187 -0.0129041570328603267 -46.0642185491113239)
(0.000795940737779313092 -0.00599113630787564966 -11.4459961014967124)
(-4.6360356280841516e-05 -0.00383583281804024618 -6.74584021630312947)
(-0.000593882536451069442 -0.00219448640164600492 -3.41513270429578819)
(-4.73822288430237489e-05 -5.0506871801024933e-05 -0.589169295064175036)
(-7.93232936664789104e-05 -7.93134871544775286e-05 -0.397520219933889085)
(-7.55416359576170535e-05 -6.0046067804963576e-05 -0.52317719167158605)
(-6.8483721532478772e-05 -6.15228998744942677e-05 -0.592797881980403174)
(-7.00777916000876715e-05 -6.06069623528371649e-05 -0.666428202878135201)
(-8.20045304628865712e-05 -5.24733794875457683e-05 -0.672262583217410725)
(0.0580889411494117242 0.0133668680408952478 380.233007468359858)
(0.0422092648652751604 -0.0229506488920880915 234.695668893865019)
(0.011020519323621825 -0.0200244447564920727 88.2036858779435278)
(0.000241115017125312261 -0.0080422820467128172 16.8674318182037766)
(-2.96300273294581538e-05 -0.00100080224418898378 0.480417168425140095)
(-0.000429740561379172168 -0.000422044014214430522 -1.65617371284521497)
(-0.000329710145258078338 -0.000309979645711632161 -2.11552995288913248)
(-8.10915269782239162e-05 -0.000146339875769728759 -2.37526797539027124)
(-2.86115412497319817e-05 -5.27289680531908386e-05 -1.44441342848779342)
(-5.73152506923832911e-05 -5.88487581173073579e-05 -1.07213196670506927)
(-6.49553320826125113e-05 -4.36306164465168257e-05 -0.999839307142772471)
(-5.09371378688870666e-05 -3.60870927474857595e-05 -1.01381532564391064)
(0.0588815478876657042 -0.000255958280374573904 257.513688001186551)
(0.0359146090250443695 -0.0242989384582998104 129.060880624422822)
(0.0209762154454221084 -0.0125920598838383576 42.2931921083879701)
(0.00343479077048116591 -0.00156489320611933268 13.6887012172576235)
(0.00245457930006998072 -0.0016809843097740603 4.96343902960710448)
(0.000278552896727613441 -0.000406315880530703176 -0.492320953052048815)
(-7.99486426107713318e-05 -9.55490610282832328e-05 -0.674935278345035083)
(1.73991702035044587e-06 -1.65741441220574322e-05 -0.693577654155599355)
(-4.2204666708242902e-06 -2.01602913205468044e-05 -0.960106714257381477)
(-5.10584664703260277e-05 -8.86384272807820119e-06 -1.0118617981629705)
(-7.00698606408904596e-05 -3.05437742349902976e-06 -1.04384353388537021)
(-6.32717635552389857e-05 -1.65374091130074426e-05 -1.05274684310949507)
)
;
    }
    procBoundary0to1
    {
        type            processor;
        value           uniform (0 0 0);
    }
    procBoundary0to3
    {
        type            processor;
        value           uniform (0 0 0);
    }
}


// ************************************************************************* //
