/*--------------------------------*- C++ -*----------------------------------*\
| =========                 |                                                 |
| \\      /  F ield         | OpenFOAM: The Open Source CFD Toolbox           |
|  \\    /   O peration     | Version:  2206                                  |
|   \\  /    A nd           | Website:  www.openfoam.com                      |
|    \\/     M anipulation  |                                                 |
\*---------------------------------------------------------------------------*/
FoamFile
{
    version     2.0;
    format      ascii;
    arch        "LSB;label=32;scalar=64";
    class       surfaceVectorField;
    location    "0.420000000000000151";
    object      Uf;
}
// * * * * * * * * * * * * * * * * * * * * * * * * * * * * * * * * * * * * * //

dimensions      [0 1 -1 0 0 0 0];

internalField   nonuniform List<vector> 
20789
(
(0.0457116926669577997 -0.0119324028788693696 -0.0260171467740423108)
(0.023804505181248891 -0.0204245651620225538 -0.0245392495252753987)
(0.0226195996361004265 -0.00920857913512607325 -0.0242428553116731463)
(0.0231537981517216385 -0.00912810421323152245 -0.0244593699441938914)
(0.111625621133701045 -0.0152818088271831042 -0.0288024617401229886)
(0.0796620061151769449 -0.0295012456821802174 -0.0272768128251227142)
(0.0773377865313756019 -0.0146835899887026861 -0.0271750964909599282)
(0.0789861629010563948 -0.0145888266719744076 -0.0275874332784965641)
(0.180467505337573886 -0.0159255521845405625 -0.0321508161633472858)
(0.143192792286855608 -0.0308212216554347614 -0.0297389338384742193)
(0.139978852330285841 -0.0158558504252089873 -0.0295810745633831688)
(0.14279098758484185 -0.0158440527652271845 -0.0300307209323088034)
(0.24745580644939108 -0.0152541820405737855 -0.0373953599066805323)
(0.211651179209712076 -0.0300138171355481126 -0.0338460297568677834)
(0.213983686968166664 -0.0158719142590751858 -0.0337541837603509212)
(0.21862895105270308 -0.0160049741232567745 -0.0342365933964385721)
(0.307837443883018869 -0.0137922509880624017 -0.0450572150159579826)
(0.27225385682624581 -0.027102154185790029 -0.0400551649070751969)
(0.275337546195616178 -0.014417314327111198 -0.03994625715658668)
(0.28253587301181915 -0.0146602564428731652 -0.0404779203188962711)
(0.363000370264684236 -0.0124801237081856708 -0.0557679398790380046)
(0.328710166558837003 -0.0248718681225108679 -0.0490385772480018273)
(0.330608261147078641 -0.0128972452604909048 -0.0488568400453586182)
(0.340796159175765501 -0.0131969646420230652 -0.0495668416353377342)
(0.41450655513491369 -0.0115079376476982364 -0.0708115840391328882)
(0.382287684797324223 -0.0232793547080152423 -0.0614261265102669235)
(0.382163944972943259 -0.0117696354533876456 -0.0610560836079208705)
(0.396176231322390049 -0.0121141654392540512 -0.061831544486149706)
(0.461917602152793594 -0.0105370329866462994 -0.0908276858810388443)
(0.432417467601542538 -0.0218818657023358114 -0.0787534900023992013)
(0.429524472244928623 -0.0108921249128766003 -0.0782386215740217827)
(0.448411198163111258 -0.0113370428949295127 -0.079859276169978885)
(0.504727842356456513 -0.00939725810049598514 -0.118499307661020653)
(0.478497506717235788 -0.0198013181667248891 -0.10129138694501974)
(0.471938862330601006 -0.00973081365394819729 -0.100246206260215145)
(0.497456948035025326 -0.010285605228844856 -0.101795437200382755)
(0.539209633258806109 -0.00780153444603658673 -0.154340485457820586)
(0.518823277117581583 -0.0175605761931727118 -0.133157507784789797)
(0.507038037517680173 -0.00842491651537823939 -0.131644360980139041)
(0.541426597904504314 -0.00923665526754702086 -0.136115189178052681)
(0.566040217467911111 -0.00615351760458608763 -0.205275022977600224)
(0.551738683252580242 -0.0138439951047222027 -0.173027184901190012)
(0.532839627067738353 -0.00640189207298301824 -0.169861723951210936)
(0.580111975051638251 -0.00737406726157461938 -0.173700412441058855)
(0.577541268881749614 -0.00425230959048736572 -0.270716705896031695)
(0.574339649463649793 -0.0116015624405590278 -0.233152976083034702)
(0.546044577805500753 -0.00491446368621276369 -0.228064395065062292)
(0.609610621470890957 -0.00626128805697919854 -0.241044418430024582)
(0.581902906168542566 -0.00331640046781062851 -0.370854046063837095)
(0.58611541030947989 -0.0071396095108220434 -0.304974150248587372)
(0.545275247675163888 -0.00247404088390636677 -0.295766074203841878)
(0.639239179164004412 -0.00368553504751490801 -0.306168348624779985)
(0.53726056029603142 -0.00346985753406657852 -0.505828519370758345)
(0.574558672640646861 -0.00815962262248940209 -0.432061528718167998)
(0.521442045108300611 -0.00286354020106036836 -0.404973237296225419)
(0.63773414775902515 -0.00544601014468055339 -0.460974641866696011)
(0.468342017823012491 0.00128210838406679802 -0.823910015790889072)
(0.556565273161487073 -0.00843382851186130419 -0.575729200639544247)
(0.478987499251314508 -0.00378460156598741781 -0.528945432739339916)
(0.743543704499742386 -0.0078755948849708636 -0.607073985279662831)
(0.285957908814462702 0.00986135617450210195 -1.08651350671319991)
(0.281629127565793558 0.00899608779560187241 -0.801439511222129641)
(0.603920099980821301 0.000431864513975676483 -1.19802075951450093)
(0.0496576289816902036 -0.0376295833889011416 -0.025798915576355802)
(0.0257418417039340305 -0.0426372362105899155 -0.024620765863852298)
(0.0244785259612406506 -0.0305482028215757866 -0.0242777221715765913)
(0.0250263151675276761 -0.0302827894665437178 -0.0245629609921051498)
(0.114135955340836662 -0.045213426880414298 -0.0282132849234739413)
(0.0827840971479844173 -0.0583883243755658199 -0.0270712804436400202)
(0.0803905820240050917 -0.0447694257023790385 -0.0265101320193079915)
(0.082019978145056377 -0.0445142942763627272 -0.0269701588089284044)
(0.177179831693794559 -0.0447210151433791725 -0.0314341474319947273)
(0.145696962248587414 -0.0590848758960101084 -0.0295012034286884738)
(0.143552980549702003 -0.0455289333161647547 -0.0289245831564540652)
(0.146485418909880705 -0.0455227434151263266 -0.0294127075767610553)
(0.236465757336034921 -0.0420505514508390729 -0.0365058347572624481)
(0.207320755519588451 -0.0566041513047232173 -0.0334156377747484024)
(0.204688618458298249 -0.043549012232284405 -0.0328965385098447041)
(0.209304255934492089 -0.0438738080551318715 -0.0333783930544983981)
(0.294073297709544879 -0.0387853070263030342 -0.0440365271391190485)
(0.265941835261000625 -0.0529567354513761079 -0.0395002242045198737)
(0.262199945531113421 -0.0400020954994713754 -0.0390122649791377063)
(0.268964463348516702 -0.0405761747589408681 -0.0395146564568703978)
(0.349154700083429803 -0.0361077143899993999 -0.0546967638792307601)
(0.322246189315870957 -0.0496455529315083036 -0.0483419820093159633)
(0.317023231215339762 -0.0369210122863831564 -0.0478079304430329005)
(0.32653345100676967 -0.0376514840110494173 -0.0483941503885168822)
(0.401251629305167612 -0.0339091978240768713 -0.0693680324735332504)
(0.37617492341160047 -0.046842457833085209 -0.0606822268483157429)
(0.369020912314310889 -0.0345727172347046544 -0.0599954118833858421)
(0.382077460474207597 -0.0354581246497356478 -0.0608134845559276452)
(0.449683398741046347 -0.0314273858297292041 -0.0892171910663800694)
(0.427013619079793461 -0.0440241982797342918 -0.0775178905787418659)
(0.417334244397695175 -0.0323634081883803076 -0.0765373910663213891)
(0.434972135878925914 -0.0334945246198946403 -0.0777720074428879665)
(0.493649629618542363 -0.0282706154597549657 -0.115949587068788926)
(0.473902193043178988 -0.0403587050903523523 -0.100161285621299681)
(0.460963243280193335 -0.0293511082729301723 -0.0986681417067248046)
(0.484708896961839608 -0.0307876169041483051 -0.100702273099718811)
(0.530853638902913816 -0.0240725962606345746 -0.151844207228159278)
(0.515424334420613306 -0.0357708639620155228 -0.130701615134172666)
(0.498302685625256703 -0.0256203360922805067 -0.128348366085179105)
(0.53010415341480166 -0.0275930734602037389 -0.131699025778784923)
(0.560371701401594313 -0.0195364626216048137 -0.20090513800662449)
(0.549878773252631348 -0.0297705319453108949 -0.171595940603810337)
(0.527200289630354035 -0.0205272758190581245 -0.167825460635078305)
(0.570729022723110546 -0.0229705229024835221 -0.173440459139213743)
(0.576627717738746881 -0.0147666475121867678 -0.267410420435590379)
(0.57457372490723424 -0.0238621287983901316 -0.228387052829059106)
(0.544715656970103157 -0.0159565600197653472 -0.221902704122127759)
(0.603141651580799243 -0.0191607820825991197 -0.231974270088701862)
(0.580688941051686336 -0.0116138282645432724 -0.366181632902918108)
(0.587082056141226438 -0.0175311574182350563 -0.304155861815612771)
(0.546472398309593932 -0.010330298405340636 -0.293284169903633984)
(0.63426836137772602 -0.0140505932917894573 -0.310457494916073828)
(0.542730069834867157 -0.0142197636023794812 -0.501962209986954067)
(0.575771925635471193 -0.0141246626879799522 -0.424826292137302275)
(0.526013392700871996 -0.0089361761543241304 -0.399189972754766143)
(0.639776413501534358 -0.0148485853496237406 -0.44486124935782756)
(0.473685181768847552 0.000328175498937592625 -0.838332691561853416)
(0.554540714269749158 -0.0264636186524868089 -0.575005837988479485)
(0.472353617504217782 -0.014799228635172617 -0.516049686027181709)
(0.717013241227750786 -0.0256588574056546906 -0.613482378432992914)
(0.288153491415198248 0.0271185058131094975 -1.08959302511003453)
(0.298017629425190167 0.0252770701010766215 -0.840591605029101685)
(0.583830293646313447 0.000542707547196647714 -1.22713078777608708)
(0.0536991477058279404 -0.0635778195246972933 -0.0258931307311365197)
(0.0274512936163186679 -0.0667155907441542434 -0.0247621859085278631)
(0.0264871776189132477 -0.0544598154277239413 -0.0241146040107020863)
(0.027050813492718144 -0.0539670106946793723 -0.0245387238223112418)
(0.115868765056648795 -0.0730165726907090334 -0.0283591989488545491)
(0.0855353657530651817 -0.0863292541012733172 -0.0272795817388695183)
(0.0835913327036847675 -0.0727692887311971598 -0.0265091424118660858)
(0.085225181445841805 -0.0722507144746242641 -0.0271290064603618222)
(0.17784423749397138 -0.0715952012952916494 -0.0314826937714421523)
(0.14699953860296236 -0.0869338531913521617 -0.029599147913760615)
(0.144938316154893082 -0.0730292203141179042 -0.0289176856374156986)
(0.147800269280221719 -0.0729420942733212951 -0.0295261389247621492)
(0.237271693851732468 -0.0678856121624775294 -0.036410027222005828)
(0.207846334008781608 -0.0832861298720418697 -0.0333172315692452092)
(0.205357608982912693 -0.0695791305968034846 -0.0328071994832732916)
(0.209862587969759901 -0.0700091249406226135 -0.0333465899736948984)
(0.294842392299122291 -0.0639498969331304956 -0.0438056790747167954)
(0.2664600382251191 -0.078789016462720074 -0.039217768807907484)
(0.262943571036431567 -0.0653603736911654437 -0.0388333134937567659)
(0.26960279477304161 -0.0661968447342391048 -0.0393238986232397614)
(0.350259181670057484 -0.0604056315024482718 -0.05432744497840096)
(0.323028833886867039 -0.0745362600033302319 -0.0479080635032929636)
(0.318032426203774699 -0.0615678145608676217 -0.0475373392181600574)
(0.32744025881815525 -0.0626909836551395039 -0.0480594968187441907)
(0.402908348239874314 -0.0569746030390042013 -0.0688320849535243445)
(0.377385486456196018 -0.0705947781513116268 -0.06008552938633549)
(0.370451096710664896 -0.0581418952363543795 -0.059593666991645651)
(0.383388975694844425 -0.0595358853516608638 -0.0602993020234972588)
(0.452032466073525152 -0.0529591033023828761 -0.0884619851336614638)
(0.428857995480939891 -0.0664162463765540084 -0.0767193990670189258)
(0.419393495358810542 -0.0544778765422290201 -0.0759507402216109406)
(0.436881471512747421 -0.0562074242876604221 -0.0770693071249611283)
(0.496584760872770758 -0.0478153386586983517 -0.114913313686683449)
(0.476463602193670177 -0.0610959304286062682 -0.0990896615924256735)
(0.463700598262514752 -0.0497291059147977263 -0.0978344361041553895)
(0.487253965018608626 -0.051924123167704013 -0.0997071508790041139)
(0.534442902390667718 -0.0412776845817396237 -0.15045334850982367)
(0.518706867377898728 -0.0542056099006685208 -0.129278162917993211)
(0.501683944110867697 -0.043592667713273657 -0.127194219790087493)
(0.533262329589121453 -0.0464707275178892834 -0.130412234290392476)
(0.56394012606159083 -0.0338019466283114509 -0.199077855426244954)
(0.553618737293120389 -0.0455611029418995853 -0.169717916536921809)
(0.530903075460955609 -0.0358779806404655593 -0.166324832517132593)
(0.574163457906125774 -0.0395903810514422957 -0.171686419518983113)
(0.580135600225039294 -0.0261676815055060276 -0.265132494209081748)
(0.578452735178614175 -0.0360160193266057665 -0.225923739076674013)
(0.548582234234265664 -0.0276508146916500039 -0.219896642272928239)
(0.606692603440269429 -0.0324078678649348945 -0.229808673124944407)
(0.581907406427138563 -0.0195592864938873359 -0.362800521049996993)
(0.589731587400074364 -0.0266978958741867049 -0.301190387849330887)
(0.549057897611470835 -0.0192265587635723628 -0.290927520119010907)
(0.636142344193245668 -0.0256957639860062419 -0.307686182735721514)
(0.542593483552969658 -0.024906429152286233 -0.497869920138828137)
(0.576346602848511136 -0.0187953507774415579 -0.420097808065416578)
(0.527557873136327404 -0.013246648662498757 -0.395667616985119097)
(0.639916841919881185 -0.0211907804393409935 -0.439954682356569593)
(0.458439829379831965 8.16070294499260385e-05 -0.826266171536660599)
(0.550277005553410525 -0.0359995123041440129 -0.569755827264010306)
(0.46822971542294195 -0.0261703848450640791 -0.514041724321159466)
(0.710404889353768665 -0.0410407614469969761 -0.607916856396937377)
(0.272411130825753967 0.0390902383994273586 -1.06883078952230925)
(0.278613302914187344 0.0445384381963386949 -0.823491341633503571)
(0.563611671903499034 0.00349522954177859104 -1.20705009627670523)
(0.0565059546714262867 -0.0897160075026250392 -0.0261486369162608617)
(0.0286098616027473454 -0.0921632036648091513 -0.0251206134006075957)
(0.0278994258324522307 -0.079421772803740659 -0.0240776944217279687)
(0.0284704579254789029 -0.0785465678975039716 -0.0247453318530901911)
(0.117379416082459873 -0.100491363668863909 -0.0285195307037755807)
(0.0874882235571736167 -0.113807076888948686 -0.0275785035758409486)
(0.0859179368987091352 -0.100109835257012489 -0.0264943776834940699)
(0.0874963071091878208 -0.0991460995336411327 -0.0273400914064039213)
(0.178408852494210513 -0.098771212739239625 -0.031433685711563672)
(0.148154973414383634 -0.114438037551336594 -0.0296634120211379769)
(0.14622103302060302 -0.100530919359608395 -0.0288193034223038144)
(0.148927551583766776 -0.100248877126388539 -0.0295790757912648763)
(0.237661608962117021 -0.094238994796316311 -0.0361249731551468722)
(0.208370964233323991 -0.109920459882825963 -0.0330710783834102101)
(0.20581053656464432 -0.0961827249600781253 -0.0325620161839718508)
(0.210122838147294405 -0.096697162557935562 -0.0331614526724574102)
(0.295266041009475011 -0.0894259421342426808 -0.0433201532364836384)
(0.266991584423055484 -0.10461611526649639 -0.0387108180453122619)
(0.263297329855647078 -0.0911436684690434679 -0.0384505207451905223)
(0.26977394736266197 -0.0922713466814518712 -0.0389008203036229142)
(0.351010983464154991 -0.0848260081136661126 -0.0536661479112275214)
(0.323899421680569455 -0.0995079948480688675 -0.0472070851794209531)
(0.318663664157537496 -0.0863952135066407279 -0.0470309889993545602)
(0.327897571834413704 -0.0879411764266583712 -0.0474235616615111891)
(0.404243522602707739 -0.0801383834174212717 -0.0679728434998300851)
(0.378772545101244862 -0.0945074472838000057 -0.0592016309672204893)
(0.371561516087297539 -0.0817921944637099857 -0.058939573961553228)
(0.38430631784433078 -0.0837005298123307401 -0.0594473717853147565)
(0.45414502021735903 -0.0746134961487208703 -0.0873470755257831633)
(0.430970393861532131 -0.089034685042750486 -0.0756071560762342637)
(0.421200746051268338 -0.0767428956209183222 -0.0750784138373946919)
(0.438447173638098375 -0.0790703676062260025 -0.0759586800870405005)
(0.499487597098108471 -0.067489971298126783 -0.113454510823735422)
(0.479452377261109342 -0.0820574217520478322 -0.0976749254128248534)
(0.466340047800414159 -0.0702483117221393005 -0.0966603217402367404)
(0.48957692551319848 -0.0731787411191960196 -0.0982789824907705084)
(0.538181313407731232 -0.058415084256969417 -0.148542730945091295)
(0.522623557312572151 -0.0728950857842940586 -0.127428541163735864)
(0.505182919638555772 -0.0616962629448227218 -0.125595501983755686)
(0.536351951904133206 -0.0655164999456700065 -0.12858023810176672)
(0.568019084235872995 -0.0476451000507286671 -0.196563800187350868)
(0.558343390727313538 -0.061395575208243458 -0.167272193281458204)
(0.535092708953329166 -0.0509709981221283387 -0.164213708430078154)
(0.57781134360272679 -0.0559727584509874948 -0.169360452521240157)
(0.584009828485556048 -0.0363275718757846144 -0.261981632716923152)
(0.583410378271867258 -0.0479740056086300562 -0.222651656012058163)
(0.553000115998495967 -0.0387024937616656586 -0.217103003037753373)
(0.610474646684739497 -0.0452306407613647377 -0.226805205545389299)
(0.583189413809976576 -0.0257130180919468536 -0.358487674864750583)
(0.593651469682303201 -0.0346252841800041913 -0.297148922372036828)
(0.552485580462564907 -0.0263157178203400066 -0.287563279344694889)
(0.638394605205127474 -0.0352290908379092049 -0.304147405692021255)
(0.541707472480097429 -0.0297812254812345051 -0.491983715190598858)
(0.576955389534454688 -0.0220845352426526295 -0.414154600839521991)
(0.528229128236530565 -0.0156870080178762583 -0.390931692058221203)
(0.639534302149571632 -0.0265305775811088031 -0.434382995735351052)
(0.447237688134868527 0.00322885962140998656 -0.812320445249659517)
(0.546177091738165421 -0.0398808284450066775 -0.562041576023746492)
(0.465911413054237111 -0.0294010328642605873 -0.508952718675273252)
(0.700271449879819485 -0.0486220107633629287 -0.600688773389396302)
(0.261212074614739442 0.051042478980956707 -1.04686186645159629)
(0.266237178487004345 0.0608520039967129361 -0.808883136698500871)
(0.547977262742487037 0.00654961312213565416 -1.18252351501783504)
(0.058280224647586476 -0.116415226175445391 -0.0265504800601876791)
(0.0293288747296707522 -0.118563872974826803 -0.025582202109040348)
(0.0288242925774661353 -0.10548022572559812 -0.0240905521937233129)
(0.0293791919738364722 -0.103938461895622627 -0.025087095078935244)
(0.118644526439654618 -0.127867831064404802 -0.0287223848932033447)
(0.088796876017763704 -0.141163877884951661 -0.0279009214981663679)
(0.08757560363911783 -0.12751458383168493 -0.0265509219938311371)
(0.0890053360321535064 -0.125851161938133893 -0.0276071126643050273)
(0.179081030621969811 -0.125745342033432322 -0.0313008046929845185)
(0.149125394339913064 -0.141740033253774683 -0.0296223796079243817)
(0.147363410978104514 -0.127788064598886336 -0.0287086448211215928)
(0.149792034156603387 -0.127176030583027039 -0.0295911073068237558)
(0.238333608320275808 -0.120439959019409806 -0.0356569232735756136)
(0.209092943149433025 -0.136566863747546119 -0.0326127183177158386)
(0.206504677672982306 -0.122603845414064355 -0.0322132847447488962)
(0.210523619523175498 -0.123181771213320121 -0.0328371007794209593)
(0.296199414579134124 -0.114819893642224183 -0.0425977499882495697)
(0.26792811122146809 -0.130503080308884828 -0.0379494065286597598)
(0.264079576750746559 -0.116778180705752271 -0.0379118956548649549)
(0.270312189357744093 -0.118225593079637162 -0.0382496588420463482)
(0.352406360059541568 -0.109302381663108683 -0.0527425682354139419)
(0.325311898981898329 -0.124557352541863786 -0.0462512579619313163)
(0.319862740283290259 -0.11121416463047662 -0.0463496006417137979)
(0.328888681791887627 -0.113208905122006501 -0.0464867923444806236)
(0.406342868250537448 -0.103491383938298015 -0.0668359435436246402)
(0.380815617717891408 -0.118547120515333587 -0.0580735732690765838)
(0.373368995930910275 -0.105609464954676741 -0.0580991609606595905)
(0.385898497705887356 -0.108031746307159116 -0.0582352004375767257)
(0.457174523619878315 -0.0965219350338694798 -0.0859350059632759539)
(0.433853212316288872 -0.111848568483750313 -0.0742668322417416316)
(0.42384909816221783 -0.0993066811294775198 -0.0739984445877317903)
(0.440828320452557321 -0.10219120597233021 -0.0744426938113127712)
(0.503553388841262772 -0.0874411863384099153 -0.111648955752825269)
(0.483388190123074823 -0.103270343037276599 -0.096026847576121746)
(0.470030698422644944 -0.0911080127270671586 -0.0952123058617751067)
(0.492899039795810179 -0.0946834257109339938 -0.0964126160250610431)
(0.543359623891297772 -0.0757529047573315961 -0.146158003500102773)
(0.527786697397745419 -0.0919172947302991927 -0.125254027857241018)
(0.510023184030867993 -0.0801607904289776546 -0.123596153018013355)
(0.540677632264406238 -0.0848057889730887693 -0.126257481589486381)
(0.573893768041151331 -0.0614725152564093991 -0.193360049106165388)
(0.564756138505838501 -0.077441819282844368 -0.16427086527000978)
(0.541016043316852713 -0.0662397348330969332 -0.161473022066938171)
(0.583013319818259657 -0.0724115190647411783 -0.166424314502101267)
(0.589695262168202006 -0.0458684742081218594 -0.257818945667171895)
(0.590386443859657994 -0.0597741629357201459 -0.21850280589793078)
(0.559352347588117471 -0.0495961723170770044 -0.213440762056378158)
(0.615989844649777352 -0.0578262554024263492 -0.22299548060911778)
(0.586209887481546899 -0.0305491506797064931 -0.352815848346808347)
(0.599679781942245249 -0.0413623906913741374 -0.291812236006933179)
(0.557944899505211533 -0.032339297465550601 -0.282949182236573948)
(0.642326259371395203 -0.0436693900124259377 -0.299521641296041363)
(0.541089617323076699 -0.0316620737995121498 -0.484212461672669403)
(0.579257101045891343 -0.0233814443608350644 -0.406636688716802308)
(0.530367092311078814 -0.0164963794365139312 -0.384724514930964823)
(0.640465627669083326 -0.0303311286560560694 -0.427425539979200464)
(0.436354812199995001 0.00883095596615749573 -0.796582997225684264)
(0.541858933252696406 -0.0385454072465956227 -0.552128684746123866)
(0.463622765042134954 -0.0286115112738384546 -0.50123640405159553)
(0.687808275287302262 -0.0527805249666604831 -0.591663538667474231)
(0.252440485865859265 0.0653425790403350942 -1.02278985380813081)
(0.256075798728035264 0.0776497241769859292 -0.796296118567639266)
(0.537493298093304483 0.013975921305578641 -1.155567112436926)
(0.0593227285079744107 -0.143488454946927635 -0.0269326435470190334)
(0.0297270645348960624 -0.14559625188872502 -0.0259259710355133795)
(0.0293731614643124757 -0.132360393175420782 -0.0240344216185552143)
(0.0298663546612019659 -0.1297569325597005 -0.0253676455843936527)
(0.119586493481723552 -0.155147247178182485 -0.0288009162128874049)
(0.0896115875206609097 -0.168514038033671987 -0.027999658535692612)
(0.0886699845471133341 -0.154919013071226269 -0.0266384544254189212)
(0.0898215175825349821 -0.152258195732818097 -0.0277707105779008423)
(0.179792120293270075 -0.152678802170758771 -0.0309342932326557053)
(0.149970718070781328 -0.168948331062874629 -0.0292647504812546498)
(0.14834009154952843 -0.154897469850122788 -0.0285273239801714963)
(0.150354250737036066 -0.153848112073387 -0.0294276752649248671)
(0.239260908317506293 -0.146735062110764175 -0.0349052015727999917)
(0.210058766379720319 -0.16326207044117988 -0.0318115012219091289)
(0.207381000491962814 -0.14904823429718464 -0.0317129125539703863)
(0.211011445983905394 -0.149741596634911933 -0.032242217495052107)
(0.29757587557903209 -0.140335133073435925 -0.0416029145023415065)
(0.269321597133513446 -0.156436470960011315 -0.036896978750709436)
(0.265242505123776562 -0.142517724202304241 -0.037216860186962554)
(0.271186547301629166 -0.144385662256735103 -0.0372482526519696544)
(0.354371185952204959 -0.133900714743621946 -0.0515822629955939721)
(0.327289491000777588 -0.149604295820064515 -0.0450775799739319416)
(0.321574403673322851 -0.136170996567892139 -0.0455457024777286418)
(0.330378955078541203 -0.138682724146941494 -0.0451550838316367997)
(0.409105781375678212 -0.126994288200564465 -0.0655044619671935752)
(0.383493146158807308 -0.142601064803557442 -0.0567940467734137297)
(0.375800863212584213 -0.129618290568688788 -0.0571663772838108472)
(0.388114544292458175 -0.132554016609536196 -0.0566214974343789285)
(0.460997637146954353 -0.118644365278080921 -0.0843586738545874515)
(0.437452301433475743 -0.134779796013702824 -0.0728321387885574462)
(0.427243624112556897 -0.122160049571506613 -0.0728234055786775303)
(0.44394705729096573 -0.125511050179407307 -0.0725598624386906282)
(0.508690745056867066 -0.107709762396771672 -0.109631919680537426)
(0.488260222051084325 -0.124786911135828155 -0.0942620511746716377)
(0.47467684804433613 -0.112371103787362314 -0.0935895334578167593)
(0.497120320016924799 -0.116403875712625837 -0.0942289164677510699)
(0.550043984884502235 -0.0934376091473466952 -0.143366889627148109)
(0.534367932314000038 -0.111472698897970277 -0.122742430025354829)
(0.516210678371294973 -0.0991347590521511474 -0.12122897373673884)
(0.546212276254683382 -0.104367594955662793 -0.123581572947205162)
(0.581834920830011204 -0.0754001571210007604 -0.189413622061775061)
(0.573248494499944083 -0.0940142243995517185 -0.160525120988599695)
(0.548832321905874609 -0.0818836767149173084 -0.158066263940286084)
(0.58989757137606047 -0.0890208293085632124 -0.162952622700626965)
(0.597712134012250429 -0.0547356291091948485 -0.252496096237692258)
(0.600013573194627114 -0.0716052260652638439 -0.213153861914556431)
(0.568050830637995774 -0.0603382160874898349 -0.208776182748152322)
(0.623606724884910202 -0.0701863528652515445 -0.218325306915248318)
(0.591552938679961282 -0.0335676002428280731 -0.345633076376927195)
(0.608541899569461475 -0.0469501407444903249 -0.284863845724187159)
(0.56592125771431101 -0.0370685921423202502 -0.276983257045351261)
(0.648502128040945647 -0.0508168137741018197 -0.293633771473016836)
(0.54130527929513228 -0.0297408479951680113 -0.474552911790256604)
(0.584270474609872248 -0.0220315492117656164 -0.397265246142848083)
(0.534650029002125105 -0.0147637520991005522 -0.376937721453157071)
(0.642982862988048631 -0.0318080532745208394 -0.418902908402080776)
(0.426294356020346821 0.018249931849256322 -0.778335541328570857)
(0.538254790765497315 -0.0319617737849889755 -0.540128585800584204)
(0.461690587573971911 -0.0229339790099209184 -0.491510696241427292)
(0.677119442750655498 -0.0516008650676935757 -0.580575663503301587)
(0.245508994509264611 0.0820914683624702352 -0.994540197131217663)
(0.247506082030814034 0.0960082155377596225 -0.781225389594630171)
(0.519722837047014719 0.0265443748359840831 -1.12665609598227956)
(0.0599029642740766879 -0.170804107479139156 -0.0269929860241869546)
(0.0300201281817817633 -0.172953041693452603 -0.0258439302151357367)
(0.0296460962136239833 -0.159740991542048044 -0.0238335408445897803)
(0.0300078745808065282 -0.155610586901006043 -0.025299794897325225)
(0.120333941790583668 -0.182427713471464165 -0.0284634928040598534)
(0.0902485232820464389 -0.195874061397823651 -0.0275223657256777922)
(0.0893985579002753022 -0.182399333538718594 -0.0265522564386685006)
(0.090139216012439391 -0.178494685302639983 -0.0275556483124907159)
(0.18067853291931707 -0.179638812609199672 -0.0301419584705080734)
(0.150959990504135111 -0.196129564831283021 -0.0283549210162128522)
(0.149329408118150958 -0.181952571003281688 -0.0281369777223209883)
(0.150816600248327604 -0.180472149960983375 -0.0288597596383241943)
(0.240614322483289345 -0.173076269215279355 -0.0338032783998185732)
(0.211491192168058062 -0.189980412501518869 -0.0305922705913463794)
(0.208621673825340664 -0.175501971776831578 -0.0310251450661639915)
(0.211802602278755969 -0.176473701171523362 -0.0311856440723369058)
(0.299521341557194842 -0.165824845895816031 -0.040371644222299885)
(0.271338478934367133 -0.182287807158230092 -0.0356053329215752501)
(0.266966209888779227 -0.168275184222073299 -0.0364268223582169259)
(0.27261239199828885 -0.170716718453493621 -0.0357678263465023363)
(0.356971842471158929 -0.158433919596140227 -0.05028936375175172)
(0.32991774180656519 -0.174470096662845686 -0.0438104562420415233)
(0.323938217348445245 -0.161139476805412019 -0.0447358364511146883)
(0.332538353498493755 -0.164224476387486107 -0.0434005204292375116)
(0.412551956493496685 -0.150506585222958428 -0.0641217235947776076)
(0.386817101689282405 -0.166519031818617658 -0.0555201401020593704)
(0.378943162546271251 -0.15372071168852311 -0.0562692869773401272)
(0.391060093809995568 -0.157104184225990706 -0.0547008301246006065)
(0.465673556682835277 -0.140988039285982081 -0.0827355161086416185)
(0.441789183066369218 -0.157826114871337908 -0.0714210539607661177)
(0.431444772722146708 -0.145313436327850709 -0.0716400476102641848)
(0.4478608027814171 -0.148917505770056524 -0.0705135462736749263)
(0.515134138568359545 -0.128508161330765924 -0.107372561519488971)
(0.494270778341129369 -0.146857008238627823 -0.0923046659235253475)
(0.480431230020668121 -0.13422886360323219 -0.0917696723809102582)
(0.502349527684467945 -0.138361563968318224 -0.0919450193241851954)
(0.558743778771065736 -0.111841727338284569 -0.139900661386806513)
(0.542831610863455216 -0.132007058453469717 -0.119495185357758757)
(0.524125759572506733 -0.118963894695176597 -0.118316361528287284)
(0.553268109504454597 -0.124391044903495007 -0.120621099370046309)
(0.592576186473756872 -0.089767754250224166 -0.184265360841381232)
(0.58445308276714858 -0.111583949943962507 -0.155385893560750304)
(0.559146521678493547 -0.0982962291912435615 -0.153694886316260521)
(0.599018716300404153 -0.106112027467442332 -0.158761139823421077)
(0.609005448186534459 -0.0630807840193831904 -0.245521611401051665)
(0.613049864801803013 -0.0837193349405060822 -0.205919717942063346)
(0.579872252326532944 -0.0711236550886176488 -0.20277681470150008)
(0.634070509052128251 -0.082513114755133482 -0.212401314247603473)
(0.600256008708014877 -0.0344901538368717342 -0.336496015490107991)