/*--------------------------------*- C++ -*----------------------------------*\
| =========                 |                                                 |
| \\      /  F ield         | OpenFOAM: The Open Source CFD Toolbox           |
|  \\    /   O peration     | Version:  2206                                  |
|   \\  /    A nd           | Website:  www.openfoam.com                      |
|    \\/     M anipulation  |                                                 |
\*---------------------------------------------------------------------------*/
FoamFile
{
    version     2.0;
    format      ascii;
    arch        "LSB;label=32;scalar=64";
    class       volScalarField;
    location    "0.270000000000000018";
    object      rAU;
}
// * * * * * * * * * * * * * * * * * * * * * * * * * * * * * * * * * * * * * //

dimensions      [-1 3 1 0 0 0 0];

internalField   nonuniform List<scalar> 
29184
(
2.77266997468201174e-05
2.59077704404255831e-05
2.42977979323598766e-05
2.28541242815114518e-05
2.15672780654961306e-05
2.0369255110523656e-05
1.92309784561826542e-05
1.81289188238345116e-05
1.70938351502047435e-05
1.60662942288148097e-05
1.51431683642577065e-05
1.41660521046941449e-05
1.33791526340399932e-05
1.23144715664690479e-05
1.17566986075123721e-05
1.15716637061075816e-05
2.62861822513628309e-05
2.43694807537860849e-05
2.30317080016852537e-05
2.18376041785623956e-05
2.07195817635066339e-05
1.96200462244764647e-05
1.85549495068590725e-05
1.75294651558646262e-05
1.65609692202984886e-05
1.56277753770361146e-05
1.47535230894923867e-05
1.39003858817302549e-05
1.31033164796229306e-05
1.21851563327659645e-05
1.14685119455703488e-05
1.07574026788287077e-05
2.49357038521530724e-05
2.30447733749380697e-05
2.18939645939541993e-05
2.08274023470626211e-05
1.97872404140489072e-05
1.87622184992235303e-05
1.77678956770139896e-05
1.68106766780616167e-05
1.59125205408933378e-05
1.50557687870281421e-05
1.42572355108295874e-05
1.35071931160700116e-05
1.28069789103493607e-05
1.20182486807812972e-05
1.13524144085575549e-05
1.04289802057151818e-05
2.36901606585021931e-05
2.19039427238446262e-05
2.08803369420096631e-05
1.99161117909429819e-05
1.89484171030440987e-05
1.79881655793814145e-05
1.70553904631862473e-05
1.61575226451604854e-05
1.5320272362289537e-05
1.45258281079630997e-05
1.37960704553685424e-05
1.31367592138708612e-05
1.25318787483002806e-05
1.1870871934119924e-05
1.13222285583698191e-05
1.00511133776315248e-05
2.25523359662522145e-05
2.09001500211646193e-05
1.99708447887767238e-05
1.90880250326858013e-05
1.81837769486044132e-05
1.72798078769759983e-05
1.63999862100604581e-05
1.55531893794862021e-05
1.4767634171207863e-05
1.40236293379785161e-05
1.33555645353410852e-05
1.27757758774698638e-05
1.22644423121841933e-05
1.17280405249521246e-05
1.13590290364823191e-05
9.8450785955564324e-06
2.15164471671747675e-05
2.00028749052243175e-05
1.91513323382338744e-05
1.83347157955713523e-05
1.74853137978955214e-05
1.663015964859141e-05
1.57955707260651088e-05
1.49923202873405911e-05
1.42496964954054601e-05
1.35461395627533544e-05
1.29317353737853322e-05
1.24183950049615591e-05
1.19951292070085257e-05
1.15988539756901248e-05
1.15090371003152053e-05
9.70123315700813095e-06
2.05742829835899333e-05
1.91934453694539432e-05
1.84103990064588699e-05
1.76487505902988155e-05
1.68459842469111889e-05
1.60327011033663741e-05
1.52364534760581428e-05
1.44698911561580714e-05
1.37620585540757723e-05
1.30904340554699809e-05
1.25207228516936736e-05
1.20565848650177135e-05
1.17109946960568042e-05
1.14890382118279733e-05
1.18691664969679031e-05
9.47744274316421071e-06
1.97178725668638232e-05
1.8459460863228023e-05
1.77395227524398808e-05
1.70239159369863885e-05
1.6259854730684787e-05
1.54819427318843778e-05
1.47179158466313549e-05
1.39817871767911158e-05
1.33017893702569394e-05
1.26558675841303613e-05
1.21206934417672197e-05
1.16796682156740872e-05
1.13988942943793252e-05
1.14085098588120235e-05
1.23554762805182114e-05
9.1524781571616142e-06
1.89404643810143568e-05
1.77922244039603441e-05
1.71324030805301942e-05
1.6454620797222258e-05
1.57217309188668648e-05
1.49734046138991604e-05
1.42361946759078326e-05
1.35251143435284066e-05
1.2868926362318837e-05
1.22460582698099241e-05
1.17313516787273212e-05
1.1278117705616002e-05
1.10496590268996418e-05
1.13373493028093961e-05
1.21568570982585539e-05
8.68711072436600776e-06
1.82360288620645154e-05
1.71849454062691093e-05
1.65840115850037142e-05
1.59357362992582301e-05
1.52276050414165789e-05
1.45041741223997791e-05
1.37891879643203216e-05
1.30998071494875004e-05
1.24690351963049739e-05
1.18701414969673208e-05
1.13544710168011138e-05
1.08490959821914964e-05
1.06692927135938919e-05
1.1295517813979867e-05
1.15500745140284123e-05
8.0357538279617785e-06
1.75982441579806951e-05
1.6632177331618156e-05
1.60903177501771529e-05
1.54632875012270092e-05
1.47758731005788129e-05
1.40740682934433893e-05
1.33780722959023169e-05
1.27114792024033875e-05
1.21155331196271371e-05
1.15424684040661162e-05
1.0996903646624301e-05
1.04048719238551662e-05
1.02902946700510633e-05
1.13808710308463976e-05
1.10439713687456481e-05
7.27549358953682194e-06
1.701979205553082e-05
1.61306685834724763e-05
1.56492542659623419e-05
1.50362492782762246e-05
1.4369187861583285e-05
1.36872577092727531e-05
1.30095106281065793e-05
1.23739161087814622e-05
1.1830084682596698e-05
1.12833973273053329e-05
1.06859410071113372e-05
1.00186815213677314e-05
1.00599219479854721e-05
1.20230137707460604e-05
1.07158966016238237e-05
6.84486862958254851e-06
1.64951337681173009e-05
1.56807362006147177e-05
1.52632361216052151e-05
1.46589579300283394e-05
1.40163715939680705e-05
1.33537817799427324e-05
1.26977048191219306e-05
1.21100151036644257e-05
1.16406131766352691e-05
1.11213975148737187e-05
1.047549404391422e-05
9.80182785014795709e-06
1.01821288310431999e-05
1.39222783299405125e-05
1.15328912056159381e-05
6.78598546024717618e-06
1.60258351974873993e-05
1.52897355784048297e-05
1.49425109615787191e-05
1.43431944232223893e-05
1.37342100319834207e-05
1.30909277189697132e-05
1.24666843058701279e-05
1.19521639287077224e-05
1.15799705466322472e-05
1.10967902183688728e-05
1.04372448559226387e-05
9.85833155755561225e-06
1.19785232532745489e-05
2.03016897540712362e-05
1.63207687445153338e-05
6.87897780360283903e-06
1.56244036123905032e-05
1.49764935522437117e-05
1.47063561778948879e-05
1.41103295406999349e-05
1.35496267916824775e-05
1.29246514167765692e-05
1.2353176298898081e-05
1.19429493875966637e-05
1.16945482334638449e-05
1.12884268958292987e-05
1.07514718592388997e-05
1.05564191562287538e-05
1.88233816007228861e-05
6.2615822648303288e-05
2.87830677686209037e-05
7.03418826672852195e-06
1.53214559806140842e-05
1.4783312880069586e-05
1.45965756738464056e-05
1.40137338240069593e-05
1.35213619990347823e-05
1.2924363369485636e-05
1.24379796486455958e-05
1.2169439139293378e-05
1.20868469253011362e-05
1.18100786316920072e-05
1.14541741878846624e-05
1.3487180233208171e-05
4.06649385121691796e-05
0.000138391491010818047
4.73565458237840708e-05
7.25999145697915259e-06
2.77644922424393656e-05
2.59727686114295866e-05
2.43894668458019555e-05
2.2974777448992107e-05
2.17191998821130549e-05
2.0557603738726862e-05
1.94613246357078544e-05
1.84158824924969108e-05
1.7441755689053957e-05
1.65158682279212328e-05
1.56878691080277949e-05
1.49021337424369477e-05
1.42822237815623503e-05
1.35942394488525481e-05
1.32744318883854508e-05
1.50008345399624484e-05
2.63259005090828388e-05
2.44355984404711067e-05
2.31237085413565667e-05
2.19564604152016758e-05
2.08678207559874476e-05
1.98032933936973172e-05
1.87807763153083052e-05
1.78083920852273356e-05
1.69061875251329956e-05
1.60618667904497028e-05
1.52978095371260136e-05
1.46108273398979973e-05
1.40316190345409905e-05
1.3469517968423355e-05
1.31568151628292331e-05
1.34773427778371931e-05
2.49769975834288233e-05
2.31112537680598693e-05
2.19846188393139449e-05
2.09434991123582234e-05
1.99322600253581703e-05
1.89417903459279556e-05
1.79897744782086192e-05
1.7085034478814084e-05
1.62534597868164575e-05
1.54835425333476885e-05
1.47978903511716068e-05
1.42161546291630767e-05
1.3746746655777071e-05
1.33104180232895975e-05
1.31650230807428598e-05
1.28359267734859282e-05
2.37327047299972986e-05
2.19698430740669718e-05
2.09688365116440583e-05
2.00287066126212648e-05
1.90893039077688198e-05
1.81629785444081586e-05
1.72718894342000626e-05
1.64254529890587961e-05
1.56541883223898001e-05
1.4944281972709438e-05
1.43279634776832933e-05
1.38387234571284721e-05
1.34706522438215204e-05
1.31783656724263649e-05
1.32323529059152228e-05
1.20081367141330556e-05
2.25956246285629331e-05
2.09649637974523095e-05
2.00565912962021623e-05
1.91964851974673889e-05
1.83199264757469528e-05
1.74491738748858826e-05
1.66100997610868919e-05
1.5813334250834204e-05
1.50922770139811901e-05
1.44292819605412209e-05
1.3873657517967203e-05
1.34650074997350256e-05
1.31942425509169507e-05
1.30431070416995265e-05
1.33063779970570416e-05
1.1034199439235683e-05
2.15598579267859908e-05
2.00664574304048445e-05
1.9233768878529689e-05
1.84384362321706751e-05
1.76163573230357421e-05
1.67936771004988958e-05
1.59986706723643226e-05
1.52437208096543853e-05
1.45629757847240103e-05
1.39352525398402305e-05
1.34309276229142595e-05
1.30887530267271274e-05
1.29094445526234809e-05
1.29154394118462384e-05
1.32683255455424267e-05
1.09763623219389983e-05
2.06170663625103688e-05
1.92560236711851969e-05
1.84887473402199786e-05
1.77470174308115291e-05
1.69716714616830459e-05
1.61901129408274929e-05
1.54321942157716971e-05
1.4711880848251488e-05
1.40619945976666869e-05
1.3459134883322706e-05
1.29949357246890082e-05
1.26996477091161118e-05
1.25977055857083194e-05
1.2800720110467732e-05
1.32775263676264486e-05
1.05206044798518521e-05
1.97591826560832975e-05
1.85218168215092491e-05
1.78124192724721128e-05
1.71157057416233119e-05
1.63798446157123107e-05
1.56329860351556172e-05
1.49062053074927127e-05
1.42140878946504996e-05
1.3586597048300429e-05
1.29995280808787662e-05
1.25619990604258549e-05
1.22828449057846118e-05
1.22454114224554647e-05
1.27081260233412912e-05
1.32805848661070407e-05
9.99329046818553943e-06
1.89795897058941786e-05
1.78559873790368907e-05
1.71973349001665432e-05
1.65384340408175695e-05
1.58354798800992707e-05
1.51178659729962373e-05
1.4417401611459198e-05
1.37481038303058046e-05
1.31365920763254006e-05
1.25580982544252231e-05
1.21298834679956618e-05
1.18276771333062052e-05
1.1840673529347951e-05
1.26097044190541226e-05
1.26597395103212572e-05
9.38283925706208643e-06
1.82729016620115953e-05
1.72527690727172809e-05
1.66366500278676781e-05
1.60098074551150305e-05
1.53346070559221889e-05
1.46421771171077638e-05
1.39643958625194583e-05
1.3314391561833528e-05
1.27164577310752023e-05
1.21423100514482286e-05
1.17007461949447773e-05
1.13355948801006872e-05
1.13844680621003645e-05
1.25091756219334557e-05
1.17895235859093617e-05
8.71011960934718454e-06
1.76342227543092651e-05
1.67073718259044449e-05
1.61241031659612645e-05
1.55264971790180481e-05
1.48761697340663622e-05
1.42061979009690083e-05
1.35489922102007922e-05
1.29184521903431115e-05
1.23381921016450731e-05
1.17671835302010525e-05
1.12844628136849445e-05
1.08226316816012498e-05
1.09069906578156752e-05
1.25742820813833457e-05
1.10225730047746007e-05
7.80572704800752286e-06
1.70586942348258477e-05
1.62161635648466901e-05
1.56556416887678516e-05
1.50895910225142855e-05
1.44635725836557382e-05
1.38142067038287651e-05
1.31781611629204333e-05
1.25735119845897419e-05
1.20230039617977833e-05
1.14569874427488514e-05
1.09137204675930662e-05
1.03661138569936561e-05
1.05606981175460502e-05
1.32422173291362932e-05
1.05677463512843174e-05
7.08979065484506238e-06
1.65428991344930275e-05
1.57777721326192405e-05
1.52324231664514402e-05
1.47069722309569687e-05
1.41057327867698145e-05
1.34759218185009558e-05
1.28667448383255234e-05
1.23020954230888778e-05
1.18004327854286566e-05
1.12434161873503271e-05
1.06447168965540767e-05
1.00725172758045938e-05
1.05117245103561433e-05
1.5144986930476648e-05
1.0692859760029577e-05
6.71872603999457492e-06
1.60874646797927051e-05
1.53960684430608634e-05
1.48644551323361789e-05
1.43946731316578147e-05
1.38178529453373421e-05
1.32089075584998413e-05
1.26399740858348408e-05
1.21367138584574709e-05
1.17060168559811471e-05
1.11690573370969684e-05
1.05447595524251445e-05
1.0025042753427053e-05
1.13256308247608317e-05
1.90322196541238828e-05
1.20833626623845264e-05
6.84146212789517915e-06
1.57007565600668246e-05
1.50847377706668192e-05
1.45738020286848942e-05
1.41775296036312455e-05
1.36229082302895676e-05
1.30418717118718459e-05
1.25340013228679073e-05
1.21194592300470886e-05
1.17872958701416149e-05
1.13095156948589637e-05
1.07823616337271798e-05
1.05889225212410226e-05
1.68114963133840155e-05
4.81963244841345867e-05
1.92561205761515582e-05
6.85747174913655092e-06
1.54099372966050774e-05
1.48785293443077149e-05
1.44122995173900992e-05
1.41049392942205444e-05
1.35772947150463234e-05
1.30424361714526611e-05
1.26279495503936393e-05
1.23381617867262274e-05
1.21469475072046899e-05
1.17787210221680469e-05
1.14090384571636032e-05
1.29389500973155908e-05
3.62096838658940807e-05
0.000115098094902783875
3.74361531170704944e-05
6.88318123286847486e-06
2.7825872338054499e-05
2.6057531224597695e-05
2.44994224831502814e-05
2.31138148151776276e-05
2.18911093578226201e-05
2.0768663617734073e-05
1.97193995278921833e-05
1.87343808248738674e-05
1.78318817877170723e-05
1.70076922095730828e-05
1.62928053601117898e-05
1.56909277988905215e-05
1.52625723925962629e-05
1.49011574618918616e-05
1.52460408206549018e-05
1.86189769909845264e-05
2.63869283349108368e-05
2.4518204380277972e-05
2.32304776907088505e-05
2.20903207780201338e-05
2.10329628575667365e-05
2.00065626011918311e-05
1.9030899828917313e-05
1.81163772288097778e-05
1.72881340304795127e-05
1.65392122004312026e-05
1.58970707444734241e-05
1.53875616812080856e-05
1.50424864313919492e-05
1.48079564542280629e-05
1.49236883149949712e-05
1.60922046680752473e-05
2.5037182610636015e-05
2.3192212782615469e-05
2.20872573842210805e-05
2.10714899696009522e-05
2.00911004979123953e-05
1.91383260405168932e-05
1.82327708219360562e-05
1.73845701962455678e-05
1.66268107403256327e-05
1.59504770958250504e-05
1.53902787666796856e-05
1.4990928011050362e-05
1.47708021462445461e-05
1.46741917526631275e-05
1.49527506067204693e-05
1.49534612610433453e-05
2.3792755130359601e-05
2.20486834732640515e-05
2.10664885873773075e-05
2.01501112365167613e-05
1.92411119608177371e-05
1.83520741168869576e-05
1.750655258845111e-05
1.67150148895276314e-05
1.6015994049816065e-05
1.53979667932163508e-05
1.49083797494979084e-05
1.46048187839415309e-05
1.44951190120389723e-05
1.45723330737826815e-05
1.48151687786810349e-05
1.36997571911294316e-05
2.26562220417832359e-05
2.10415348262331094e-05
2.01484796015445383e-05
1.93106500297671547e-05
1.84642747565234154e-05
1.76305553252951027e-05
1.68357140392402078e-05
1.60916337923300828e-05
1.54401250469035684e-05
1.48664098015465734e-05
1.44370025188968046e-05
1.42154564112398451e-05
1.42063733799548782e-05
1.44698215619161776e-05
1.45323861038454499e-05
1.18707190939838044e-05
2.162179293537527e-05
2.01407218478274465e-05
1.93190383938240486e-05
1.8544699464971038e-05
1.77531643679679136e-05
1.69676354047387246e-05
1.62151316723827374e-05
1.55097326574650856e-05
1.48947411996582665e-05
1.43523783013499364e-05
1.39725265644462354e-05
1.38170231554773169e-05
1.39055780564482197e-05
1.43507478107648751e-05
1.422439944059344e-05
1.15117316420767002e-05
2.06812907763390293e-05
1.93278131393428732e-05
1.85661736717243183e-05
1.78445660051634981e-05
1.71013407474630329e-05
1.63577097289803685e-05
1.56399394560825653e-05
1.49647181050303102e-05
1.4375686691375773e-05
1.3852913212292306e-05
1.35103660826402805e-05
1.33991181910847132e-05
1.35590536460327473e-05
1.42325285890044155e-05
1.41344726728919451e-05
1.11652890850811946e-05
1.98268674480397592e-05
1.85903405732417951e-05
1.78799317415901181e-05
1.72034321746048505e-05
1.65034747938734112e-05
1.57961043546226427e-05
1.51059969391074087e-05
1.44529723387352303e-05
1.38804164534238591e-05
1.33670976831549669e-05
1.30471979159291616e-05
1.29456938238745799e-05
1.31605311244730114e-05
1.41322161743603181e-05
1.37582163725760869e-05
1.05184809438252076e-05
1.90521385426497204e-05
1.79189789147861459e-05
1.72515163123144438e-05
1.66149246239744047e-05
1.59550205745550387e-05
1.52790655688582659e-05
1.4610272667590491e-05
1.3972667220618446e-05
1.34094260757992727e-05
1.28971660755342133e-05
1.25794660815249653e-05
1.24411017383023987e-05
1.26911541581899053e-05
1.4001421765254632e-05
1.29282063307291396e-05
9.82198973893624752e-06
1.83517131654247093e-05
1.7305432314791402e-05
1.66726532286685909e-05
1.60735323664505989e-05
1.54528069541458355e-05
1.48045908453451679e-05
1.41519490185531215e-05
1.35252813771214607e-05
1.29678275786115049e-05
1.2449237220935382e-05
1.21052946672699276e-05
1.18830457500580943e-05
1.21549974484054761e-05
1.38640812883003755e-05
1.20057108590364544e-05
9.06153229283469614e-06
1.77199545796205874e-05
1.67417296157426477e-05
1.61364686947989136e-05
1.55760701026320306e-05
1.49962692210430453e-05
1.43737765638918767e-05
1.37337832628788257e-05
1.31170748960849461e-05
1.25664797994757826e-05
1.20352078262040619e-05
1.16325947248509108e-05
1.12953459104691131e-05
1.16007972596390587e-05
1.39930980155167502e-05
1.11651444738857533e-05
8.02568974311265521e-06
1.71506997958172752e-05
1.62216980108798422e-05
1.56400680503065932e-05
1.51237386658993674e-05
1.45889461050574246e-05
1.39922537516145109e-05
1.33631806972847318e-05
1.27602625515768775e-05
1.22225187854877564e-05
1.16745011849627061e-05
1.1196129732677203e-05
1.07541736629046971e-05
1.11591822042638949e-05
1.4455710370630149e-05
1.05533549287743732e-05
7.24032426551650395e-06
1.66392762840624763e-05
1.57441235259822595e-05
1.51878422142094676e-05
1.47239191294719524e-05
1.42398852602632122e-05
1.36713255726851953e-05
1.30528342701628046e-05
1.24739381111288066e-05
1.19599377083632743e-05
1.1399273416268066e-05
1.08549737114831945e-05
1.03617428067480884e-05
1.09880262589723852e-05
1.52654043368096636e-05
1.04255218128093716e-05
6.80440537771473481e-06
1.61857124556679497e-05
1.53167693625756894e-05
1.47940738002462445e-05
1.43912531326847774e-05
1.39650623439135833e-05
1.34285963627005003e-05
1.28220750992791855e-05
1.22856098030299441e-05
1.18117630131390579e-05
1.12576747432073954e-05
1.06879223598475599e-05
1.0220949843011675e-05
1.16793439155755982e-05
1.75687945861337591e-05
1.08136257532423165e-05
6.64217234974859679e-06
1.57986403360090129e-05
1.4960786571810024e-05
1.44834265785703104e-05
1.4149430126737746e-05
1.37886513071145327e-05
1.3288301708777789e-05
1.27000461358917585e-05
1.22340347086962156e-05
1.18273806865331819e-05
1.13353098673750442e-05
1.08764595938823392e-05
1.06945763447803281e-05
1.65321665066936871e-05
3.10733013948105632e-05
1.47443700038161209e-05
6.7519255151690229e-06
1.55075978634102468e-05
1.47214310252761721e-05
1.43036502196629328e-05
1.40480512577052997e-05
1.37631119672227911e-05
1.33099036347347753e-05
1.27611382498181625e-05
1.24066564881184117e-05
1.21104101638357173e-05
1.17451398481308447e-05
1.14788706414984128e-05
1.29225549653485962e-05
3.46780698478625223e-05
0.000100185512017367649
2.585614858353975e-05
6.60476138909329335e-06
2.79082816227436743e-05
2.61581712934439466e-05
2.46239371483588687e-05
2.32664049625639102e-05
2.20763974573480429e-05
2.09936118053218416e-05
1.99932115610138483e-05
1.90696985567286059e-05
1.82423981153144162e-05
1.751689431495045e-05
1.69193110520695641e-05
1.6485698068909249e-05
1.62420040002004679e-05
1.62011406669066062e-05
1.71752870417518286e-05
2.12660083624630109e-05
2.64653454752502394e-05
2.46125618465313568e-05
2.33484732491319067e-05
2.22350525310775541e-05
2.12088605039633974e-05
2.0221226728866447e-05
1.92940994672642645e-05
1.84396980694244706e-05
1.76878981758419782e-05
1.70353271449079706e-05
1.65163122385805406e-05
1.61784269267432219e-05
1.60466535663378242e-05
1.60903045975157892e-05
1.62346264060577624e-05
1.80479958380209914e-05
2.51110354110252276e-05
2.32820557063144613e-05
2.21989580850888104e-05
2.12079879383633553e-05
2.0257834440693381e-05
1.93432350394176883e-05
1.8485860083083855e-05
1.76972265303179686e-05
1.7015916207735472e-05
1.64351292546680727e-05
1.6001330019269892e-05
1.57818205177161427e-05
1.57902805239126246e-05
1.59806313279138628e-05
1.62223435963797942e-05
1.64785515174583069e-05
2.38625198463659589e-05
2.21337850481264372e-05
2.11716659952583498e-05
2.02781403517062173e-05
1.93981326004714148e-05
1.85464604957504472e-05
1.77486156635603889e-05
1.70159808410879649e-05
1.63923493983870453e-05
1.58684720637165617e-05
1.55077394799762177e-05
1.5388784335063195e-05
1.55216787713732986e-05
1.59102033393135624e-05
1.60102240043178117e-05
1.51406062965522878e-05
2.27223405045885486e-05
2.11217469356606817e-05
2.02470183567335368e-05
1.94298885490632149e-05
1.86109383879892036e-05
1.78136113017494719e-05
1.70660296592285124e-05
1.6380004994995085e-05
1.5801928415995653e-05
1.53202935728047097e-05
1.50207017533688464e-05
1.49857028797631033e-05
1.52305621538962157e-05
1.58566839442968735e-05
1.55643795560699526e-05
1.34613848636966594e-05
2.16848080364382068e-05
2.02158315232838007e-05
1.9410845174679912e-05
1.86547513067183609e-05
1.78886884233069931e-05
1.71385282745559028e-05
1.64332221872010176e-05
1.57849823396411125e-05
1.5240830150827476e-05
1.47873363796439007e-05
1.45366403145111837e-05
1.45668876917768653e-05
1.49172663804740919e-05
1.57806666589459947e-05
1.50636775913112355e-05
1.17159014636568739e-05
2.07419119960536683e-05
1.93974918333245599e-05
1.86511870904270992e-05
1.79450703936518808e-05
1.72248663653370318e-05
1.65156155236518948e-05
1.58456988685123993e-05
1.52270560262938982e-05
1.47053350694352721e-05
1.42665849071182419e-05
1.40513564195198727e-05
1.41232761193779472e-05
1.45501867158745236e-05
1.56487933802233551e-05
1.46825658941821587e-05
1.15149501745938198e-05
1.9885850709351264e-05
1.86543087996587575e-05
1.7958368368202996e-05
1.72944098233757706e-05
1.66141836798061304e-05
1.59402047084057305e-05
1.53000034683724119e-05
1.47034799104755032e-05
1.41928556144300541e-05
1.37572467968455135e-05
1.35622958310757192e-05
1.36405721042317287e-05
1.41227655668223821e-05
1.55577995197739747e-05
1.42705349514188699e-05
1.09069644965759814e-05
1.91098630100854555e-05
1.79777236280176356e-05
1.73244337880044679e-05
1.66972604432839737e-05
1.60520801913486327e-05
1.54085066880263466e-05
1.47941067590525779e-05
1.42129014035311752e-05
1.37031345706964584e-05
1.32614640189380404e-05
1.30656789317625821e-05
1.31027157727126045e-05
1.3617006753842667e-05
1.52962813091296912e-05
1.33175689683969174e-05
1.01691215432793274e-05
1.84074955666264094e-05
1.73617126439398165e-05
1.67426130741236365e-05
1.61491791960428656e-05
1.55349667454289564e-05
1.49184922846894704e-05
1.43282923579743172e-05
1.37562514021043684e-05
1.32394452415890673e-05
1.27842183139059409e-05
1.25575271843768534e-05
1.25011795823492568e-05
1.30305185946853753e-05
1.4876896012955732e-05
1.22654328896653508e-05
9.29503826356088694e-06
1.77721367735156516e-05
1.68016319672852864e-05
1.62075777460484062e-05
1.56475024809399722e-05
1.50612340212267375e-05
1.44713330456410898e-05
1.3906051031510542e-05
1.33378043541151905e-05
1.28100049510181325e-05
1.23359563581084046e-05
1.2047063213036295e-05
1.18655248122717425e-05
1.24344539784411024e-05
1.45802157773172796e-05
1.13616762795284308e-05
8.18785825747710452e-06
1.71983129224286175e-05
1.62944953018125411e-05
1.5716895537192288e-05
1.51926796337134969e-05
1.46330177616064356e-05
1.40727599409729716e-05
1.35346085217466874e-05
1.2966614440145862e-05
1.24302680080243507e-05
1.19359855748430207e-05
1.15627595396095829e-05
1.12509927300062986e-05
1.18869394678025474e-05
1.45189679260332784e-05
1.06385418471583221e-05
7.42135372000021562e-06
1.66826379655570679e-05
1.58411632425333346e-05
1.5273319245528614e-05
1.47901369036040969e-05
1.42581352347277652e-05
1.37338297210567404e-05
1.32256856667606175e-05
1.26583898377313131e-05
1.21248553080758711e-05
1.16177111648492683e-05
1.11608973826904176e-05
1.07459614906478446e-05
1.15582009515296102e-05
1.46247055697004193e-05
1.0289657393205496e-05
6.95784284935792945e-06
1.62249323250742286e-05
1.54496615243811693e-05
1.48870676726610878e-05
1.44518228110477313e-05
1.39511915886815082e-05
1.34718707462424438e-05
1.29973809344527094e-05
1.24381507168114594e-05
1.19291746032884625e-05
1.14322434801652474e-05
1.09241809803019888e-05
1.04823920132725247e-05
1.20285712334643397e-05
1.58144079883134533e-05
1.04122477582448364e-05
6.7097031912947206e-06
1.58322661726562732e-05
1.51374715414796073e-05
1.45770047914268898e-05
1.41999562202029614e-05
1.37357826663591922e-05
1.33121419337628137e-05
1.2876918192184279e-05
1.23434000990446733e-05
1.18956877939334951e-05
1.14725616200562889e-05
1.10526417370638476e-05
1.08471320372645427e-05
1.62286716840876437e-05
2.31264632357984668e-05
1.23173006926099113e-05
6.76335218492194506e-06
1.5536242603734453e-05
1.49403308159019999e-05
1.43849808751851348e-05
1.40808465781308286e-05
1.36658496288578611e-05
1.33142459363071385e-05
1.29333879657048297e-05
1.24627522203033414e-05
1.21356296058321506e-05
1.18670934492666677e-05
1.16258715751572507e-05
1.28302804028939336e-05
3.26965716571604649e-05
7.36864662674945704e-05
2.02467120531873908e-05
6.54823688774902099e-06
2.80085678820162054e-05
2.62713179318641103e-05
2.47585915200442187e-05
2.34268339809578697e-05
2.22679244984280909e-05
2.12235764968378162e-05
2.02708109168701461e-05
1.9407136629291386e-05
1.86527948430671684e-05
1.80198171553108529e-05
1.75361281473550485e-05
1.72503201787338634e-05
1.71988153842334773e-05
1.74412166913916651e-05
1.88122839307089973e-05
2.35104194705492923e-05
2.65593750689800357e-05
2.47174726934994556e-05
2.3473718372375956e-05
2.23840597000920086e-05
2.13874756783088899e-05
2.04375797410999997e-05
1.95575864412332102e-05
1.87616334862487437e-05
1.80824128156539318e-05
1.75229188203241524e-05
1.71192370362286443e-05
1.69369039978478296e-05
1.69992575084847142e-05
1.7307420395822248e-05
1.74283653829824454e-05
1.98554405295550163e-05
2.52002843114943364e-05
2.33825549439418575e-05
2.23166036218288931e-05
2.13468232660456388e-05
2.04250144415456682e-05
1.95475669342468402e-05
1.8736661057042783e-05
1.80056843998739433e-05
1.73973681701284881e-05
1.69103963426348448e-05
1.6596739640399673e-05
1.65414650527315296e-05
1.67595534930925182e-05
1.72170890463667002e-05
1.72762992595404223e-05
1.78353506304119098e-05
2.39501016363732976e-05
2.22320644574094924e-05
2.12821456489792738e-05
2.04064796807031146e-05
1.9553353558647556e-05
1.8738146441514811e-05
1.79857072042125713e-05
1.73093593653106651e-05
1.67582291117148985e-05
1.63275876914738087e-05
1.60910086680750254e-05
1.61430125535679411e-05
1.64931053036579608e-05
1.7164583259212138e-05
1.70432026432603255e-05
1.62121423351808527e-05
2.28134217389407807e-05
2.12208334244721627e-05
2.03510049134314938e-05
1.95473717683078138e-05
1.87536536100847683e-05
1.79920675527310853e-05
1.72884578174775499e-05
1.66567100299930267e-05
1.61498261888683236e-05
1.57606952476994772e-05
1.55885531796020505e-05
1.57269127324023789e-05
1.62004202465677263e-05
1.71337779454302361e-05
1.64752385296408979e-05
1.46652935640438144e-05
2.17874268967393362e-05
2.03195484938357382e-05
1.9508992485118785e-05
1.87607188760750785e-05
1.80181407397777821e-05
1.73032072469805431e-05
1.66400971088935548e-05
1.6043516817586213e-05
1.55686751533946654e-05
1.52078087648997069e-05
1.50864067412625352e-05
1.52877774000800579e-05
1.58714665464684685e-05
1.7009991997864433e-05
1.58173301246229417e-05
1.2388782860391773e-05
2.08676682947274477e-05
1.95100290306784463e-05
1.87437408863244044e-05
1.80381841622341405e-05
1.73400225588756558e-05
1.66662524874350794e-05
1.60364537540294508e-05
1.54659797613615039e-05
1.50114086522649752e-05
1.46671934178562945e-05
1.45811110304391777e-05
1.48209184079395986e-05
1.55029100631565359e-05
1.67188241603147535e-05
1.51606048471850281e-05
1.13588277943256048e-05
2.00501727184969003e-05
1.8779144429301839e-05
1.8044626468535334e-05
1.73724090361033677e-05
1.67142374394986313e-05
1.60775631008798305e-05
1.54745744438651575e-05
1.49210271223897595e-05
1.44762427061160775e-05
1.41398972463447131e-05
1.40715628609635597e-05
1.43159330328549646e-05
1.50521828287292924e-05
1.62742454771962555e-05
1.47869119838483965e-05
1.11298217367685585e-05
1.93322174912268754e-05
1.81152552550106421e-05
1.74024596042820453e-05
1.67574663547576699e-05
1.61378436681887582e-05
1.55351264983358874e-05
1.49524532849463958e-05
1.44068192962814212e-05
1.39646290694405668e-05
1.36303210253668137e-05
1.35562959948003307e-05
1.37565643289014124e-05
1.45293608131993282e-05
1.57664523164182488e-05
1.39478616768666936e-05
1.04651817891056149e-05
1.8710016516841804e-05
1.75086417467767817e-05
1.68102299617592737e-05
1.6190087249051946e-05
1.56105798221916784e-05
1.50383895864471978e-05
1.44695065223048021e-05
1.39245358575103901e-05
1.34825956933862714e-05
1.31452891677076845e-05
1.30308175405051716e-05
1.31290877322212723e-05
1.39150914013637926e-05
1.52004243751158946e-05
1.26852477917135477e-05
9.67908043398613679e-06
1.81748394118274436e-05
1.6951881420862334e-05
1.62644803707753287e-05
1.56708137219030177e-05
1.51343743599867334e-05
1.45882629086267674e-05
1.40281113069811527e-05
1.34802584189559826e-05
1.30414469370239766e-05
1.26941079412926779e-05
1.2496535117937673e-05
1.244644691462913e-05
1.32341164961446984e-05
1.461803697414132e-05
1.16290167391198338e-05
8.47971603042023276e-06
1.77151887673580534e-05
1.64417302623302314e-05
1.5766592759274324e-05
1.52042730872757225e-05
1.47124093728187578e-05
1.41884299027389945e-05
1.36355382497395558e-05
1.30859507617654571e-05
1.26576057869656237e-05
1.22905162787298005e-05
1.19706995752457626e-05
1.17507572075216779e-05
1.25819845114246517e-05
1.43816909956486938e-05
1.08133507067811882e-05
7.60529730697993075e-06
1.73209147398240147e-05