/*--------------------------------*- C++ -*----------------------------------*\
| =========                 |                                                 |
| \\      /  F ield         | OpenFOAM: The Open Source CFD Toolbox           |
|  \\    /   O peration     | Version:  2206                                  |
|   \\  /    A nd           | Website:  www.openfoam.com                      |
|    \\/     M anipulation  |                                                 |
\*---------------------------------------------------------------------------*/
FoamFile
{
    version     2.0;
    format      ascii;
    arch        "LSB;label=32;scalar=64";
    class       volVectorField;
    location    "0.270000000000000018";
    object      U;
}
// * * * * * * * * * * * * * * * * * * * * * * * * * * * * * * * * * * * * * //

dimensions      [0 1 -1 0 0 0 0];

internalField   nonuniform List<vector> 
29184
(
(0.0266571316706958744 -0.0110762490616242645 -0.0205647280831717759)
(0.0864893887333157141 -0.0153765066053647287 -0.0227765859248344332)
(0.153154667617674073 -0.0157288990226813093 -0.0254436362509364855)
(0.226568663632957329 -0.0157693878656325545 -0.029924060959322988)
(0.291914865419726999 -0.0153150637062364862 -0.0364471426461773634)
(0.357534188533947916 -0.0151709516113305663 -0.045729544066350894)
(0.424060148711255414 -0.0153670512315642587 -0.0584479890381901651)
(0.492485026116338875 -0.0157347643473932236 -0.0765959510151933143)
(0.560548798789036073 -0.0155957773460999594 -0.100046719893232022)
(0.627258649174798899 -0.0154874809146212222 -0.135454248376253694)
(0.690931272795196505 -0.0140653381090657652 -0.178697126646525539)
(0.743049912310663752 -0.0124347411236361109 -0.251218546208003379)
(0.782137513317223032 -0.00874399988834597894 -0.329701135069494833)
(0.792533369286093192 -0.00797812443004726653 -0.494917114857753526)
(0.783177804703755642 -0.00179778641109349085 -0.670530325564856367)
(0.435972948717157527 0.0140774913866971232 -1.39642356457121042)
(0.0276918039027035934 -0.0352971171829601776 -0.0206084333003197541)
(0.0879858314274959696 -0.0462999310395029381 -0.0224456751885340859)
(0.153050422148270998 -0.0455967879058941511 -0.0250700847877228725)
(0.216831311181221065 -0.0448042693781226103 -0.0294192746892706254)
(0.280018061689347064 -0.0442259887258875453 -0.0358631320656463207)
(0.34457289948422265 -0.0446046380758874719 -0.0449680003279805535)
(0.410593041290916727 -0.0455220933780614914 -0.0576026151594090374)
(0.477916483563797345 -0.046514499687508766 -0.0749930746309116492)
(0.545525833841413066 -0.0463611251857742532 -0.0989169517741319282)
(0.612122328253467574 -0.0456248548718230784 -0.132118087428097303)
(0.67578144016395536 -0.0423608529961186642 -0.177986638616331627)
(0.732086800739228494 -0.0376710030062171741 -0.243674955222064699)
(0.776626712670825392 -0.0293745427176492421 -0.334768746747732437)
(0.790572142430792435 -0.0244382224782211423 -0.48460013772552063)
(0.789277112539009007 -0.0191367760789325041 -0.680901319454042864)
(0.488587091108645122 0.0502297598022430347 -1.41818596218040982)
(0.0288291898943540473 -0.0612475738346244664 -0.0204616532597996538)
(0.0892354656489872666 -0.0750500423008028245 -0.0223639936564394085)
(0.152695210253332048 -0.073769132503628071 -0.0249610162863410263)
(0.216104655966088244 -0.0726580182448862411 -0.0292324280717338701)
(0.279499309701018606 -0.0727995823878331699 -0.0355759571283622636)
(0.344284062081607334 -0.0740421961499968528 -0.044540070380553673)
(0.410530668837496893 -0.0756647179917154106 -0.0569593569805157685)
(0.478354600648660089 -0.0771810980087750953 -0.0740636156512582411)
(0.546538878693696994 -0.0772286885954735491 -0.0975681709095616301)
(0.614084124317799462 -0.0758722543118167947 -0.13023643000531876)
(0.678933901202856571 -0.0717127147320537894 -0.17528407086876685)
(0.736471282217761591 -0.0637826926147468942 -0.240329339920726387)
(0.780434401956361046 -0.0521032133699888683 -0.330022569388636944)
(0.796093361870844674 -0.0406833979112430841 -0.477658291573435867)
(0.787488045158879491 -0.0388322592808032774 -0.675548399206895023)
(0.467175347662680873 0.0968018060490366816 -1.40466836111703763)
(0.0295210644459659513 -0.0875368384823422135 -0.020255086743733882)
(0.0898800598161941106 -0.102843104063902319 -0.0221529897386445497)
(0.152103360753330252 -0.101883368213602152 -0.0247006783203449938)
(0.214864050893038422 -0.100895302138268264 -0.0288715947333979088)
(0.278192023018473789 -0.101650618126098061 -0.0350732120720953361)
(0.343070203619010194 -0.103648374895848008 -0.04383552872654186)
(0.409497351344982496 -0.106015729150310933 -0.0559572137058790275)
(0.477797916764308994 -0.108197790742493014 -0.0726402234860522439)
(0.546669749725026022 -0.108494050091086799 -0.0955707644947964008)
(0.615429728571438628 -0.106901510797716773 -0.127447870050255596)
(0.682002645643886019 -0.101555226277468297 -0.171488291584942554)
(0.741190928811542693 -0.0901428974573098285 -0.235334838321482026)
(0.786312737322653055 -0.074184416862001501 -0.323387280129801613)
(0.801540006224003454 -0.0558265412528674218 -0.467417229599382034)
(0.793989567541502406 -0.045680773533585961 -0.665018459736085976)
(0.459017412739180453 0.143046314988063472 -1.37734722147556488)
(0.0298601760886276213 -0.114197537630530963 -0.0199892329183078456)
(0.0900610037545466063 -0.130353865366661908 -0.0218400444571962178)
(0.151356124290281613 -0.129690404664121739 -0.0243174500451781711)
(0.213513889612424901 -0.128954577405675008 -0.0283643968041128978)
(0.276679024503865056 -0.130373487971747526 -0.0343876269670190249)
(0.341594221576739243 -0.133239587292579953 -0.0428921402521145467)
(0.408232281710264155 -0.136501292370181437 -0.054633075248495061)
(0.477078769783914447 -0.139469599831424956 -0.0707721327794855748)
(0.546877324940059362 -0.14015083069405701 -0.0929533552864209162)
(0.617280934399533243 -0.138605010739395823 -0.123799869873972998)
(0.686115235098289422 -0.131960124171715737 -0.166569777546117764)
(0.747668408743789925 -0.117238728018209337 -0.228737990533794233)
(0.795095002848572152 -0.0963392888646606715 -0.314611300158152585)
(0.810626079167719893 -0.0706117499610606769 -0.454632139243453581)
(0.804026348530050394 -0.0477712650180871848 -0.650613259719624248)
(0.462970121746997976 0.193870074856153846 -1.34944158693211369)
(0.0299813598765895847 -0.141035563373115402 -0.0196670858640151415)
(0.089896862469065017 -0.157464383546708192 -0.0214375403194361699)
(0.150413015683675266 -0.15713771434886159 -0.0238199235775386035)
(0.211961951646088637 -0.156865313915651977 -0.0277177336436711941)
(0.274862267670227589 -0.159061587720844749 -0.0335356974764016436)
(0.33974698580993723 -0.162895400983636196 -0.0417373081345969385)
(0.406601802730184536 -0.167186034652606202 -0.053024592493758127)
(0.476048268705248745 -0.171096822577334634 -0.0684986405259863929)
(0.546996909896571015 -0.172384161887279147 -0.0897585360935273247)
(0.619442529695870658 -0.171208856664814613 -0.119340649378430697)
(0.691121880628712049 -0.163316880622654981 -0.160578396672318602)
(0.756000185651539036 -0.145490801329568847 -0.220623246536064327)
(0.807291618917233667 -0.118920011724924835 -0.303938081725833475)
(0.824737026073967372 -0.0844801850474330984 -0.43920778935955207)
(0.813639934666592346 -0.0434063491240442301 -0.635462784717493401)
(0.468674937073905007 0.25272621714722332 -1.32406550249138011)
(0.0299313171479515874 -0.16789047861200182 -0.0192987563997451469)
(0.089425415221484672 -0.184296595989649703 -0.0209538724063596908)
(0.149232018038832681 -0.184253370655790422 -0.0232099568549290793)
(0.210142301823252248 -0.184565469880891897 -0.0269390241900273469)
(0.272687877956616087 -0.187660818238717692 -0.0325416367253682642)
(0.337478559575843773 -0.192592498479469326 -0.0404090143071638846)
(0.404544381677486409 -0.198080792065746358 -0.0511756044076485742)
(0.474643081494690644 -0.203127395221498558 -0.0658649201225756653)
(0.546955036629868663 -0.205307451504529781 -0.0860293654193239749)
(0.621878430903401891 -0.204853340760662028 -0.114153732143009279)
(0.696951252934958188 -0.1959214923099723 -0.153652753736833597)
(0.766379215894422261 -0.175477588531055051 -0.211240156001307716)
(0.824131220747072457 -0.142800121145985864 -0.291249281032818608)
(0.846514248545319758 -0.0962220573073433449 -0.420833603200766682)
(0.825263009292964034 -0.0311409899361690841 -0.617735977428189864)
(0.471358033334779603 0.324714200871962122 -1.29491836968771312)
(0.0297009948057235101 -0.194620906539731159 -0.0189030207439383029)
(0.0886425765363145074 -0.210853393131689215 -0.0203824782704218575)
(0.147756439790399458 -0.210984477935287573 -0.0224730903890541373)
(0.207984136029136929 -0.211993043805684345 -0.0260315726418409096)
(0.270116006515777829 -0.216149292911319596 -0.0314320102561945688)
(0.334762895190033882 -0.222339774145613928 -0.0389478484904002067)
(0.402021567511421263 -0.229211672193911226 -0.0491326067270105166)
(0.472811913040751874 -0.235622691232971776 -0.0629254987840077162)
(0.546723948164575702 -0.239028431548584636 -0.081849356175209817)
(0.624455041151620316 -0.239635859975304205 -0.108432628464431122)
(0.703253913837481592 -0.230071901514362243 -0.146077438958398031)
(0.779116681846882209 -0.208212290070815681 -0.200760334849937161)
(0.848119872716091905 -0.169492743642229909 -0.275942314885487427)
(0.877792673020054814 -0.10433718914089872 -0.399287354030140706)
(0.840755778663542674 -0.0082741207983492715 -0.596408804216800759)
(0.47558804715970654 0.411125275837010362 -1.2686625018188642)
(0.0292941175267000843 -0.221076561379685232 -0.0185081616431848617)
(0.0875202693709716123 -0.237104211392502068 -0.0196836004420538092)
(0.14595665222400217 -0.237237842918964686 -0.0215703923548507641)
(0.205480221316415912 -0.239078635460657885 -0.0249885709357693837)
(0.267179504513646138 -0.244489027930047731 -0.0302289706063616249)
(0.331622858708418899 -0.252112340865123519 -0.0373964231785745352)
(0.399017184772747058 -0.260577415757930364 -0.046957220472093511)
(0.470527772533743283 -0.268633366386088146 -0.0597759461747910115)
(0.546242870918324019 -0.273574973967320279 -0.0773973441280851326)
(0.626752324988561149 -0.275483116106635784 -0.102457874946220245)
(0.709490327976615931 -0.266085465845697866 -0.13811912444383212)
(0.795274335514089104 -0.245430715348349537 -0.188934643221286253)
(0.881248685428671408 -0.200640932810147055 -0.257741618537435879)
(0.920398259064098667 -0.108609735539776375 -0.375396068447727327)
(0.873925912418623607 0.0246916151491231826 -0.568112962262505738)
(0.483824821774433089 0.511967278235095247 -1.23521348248886431)
(0.0288076705302339024 -0.247143083471695557 -0.0181454265260250075)
(0.0861121439029275404 -0.263043829172798893 -0.0187723910553521632)
(0.143913641784111729 -0.262913250706638402 -0.0204443596088076211)
(0.202749514887972881 -0.265778040766258661 -0.0237898109493909216)
(0.263995579837050354 -0.272646303333466233 -0.0289516235911031587)
(0.328096477396008224 -0.281885866576543853 -0.0358140518633113109)
(0.395486461824314239 -0.292207258401383674 -0.0447525986072089058)
(0.467707321954647093 -0.302225283862172012 -0.0565821090926068582)
(0.545246427691422397 -0.3088189463022884 -0.0729039790770860535)
(0.627919839410562952 -0.31214631478447763 -0.0964211422594773299)
(0.715183072796483743 -0.304735839567946087 -0.129767954610380459)
(0.815893695922103368 -0.289666150213639728 -0.175398869771568322)
(0.92346973264008636 -0.238591939588670809 -0.237271033162882783)
(0.975944857766712803 -0.110900604852077603 -0.350639399027018572)
(0.919756423340248985 0.0688403770156383737 -0.53877489742985929)
(0.500794999773397032 0.628051313527891786 -1.19802296813315468)
(0.0285140032663290313 -0.272788760903816929 -0.0178206266197548681)
(0.0846325247090049249 -0.288716471842365652 -0.0175236085302386199)
(0.141881677315133486 -0.287949303130436929 -0.0190423958118503892)
(0.20004994794142289 -0.292103421350006054 -0.0224074774383216102)
(0.260701625911521795 -0.300599628029575572 -0.0276382286501549931)
(0.324141846526474098 -0.311688941203828562 -0.0343006672888405209)
(0.391257658341807202 -0.324223776197145097 -0.0426725392417675181)
(0.464104583762561029 -0.336426165398985066 -0.0535281460109582816)
(0.543081005985389442 -0.344328529019715612 -0.0684574522916064493)
(0.626743669723756502 -0.349338564192161916 -0.0902478721396436506)
(0.719967564919166358 -0.347595962777136225 -0.120778481791946155)
(0.840323844888663074 -0.344204947641429171 -0.160241625304668012)
(0.971580507810963834 -0.284616274103886624 -0.21571340175470527)
(1.03744277960302389 -0.113160385767779884 -0.326637176012129049)
(0.964166998357795846 0.131067513072757658 -0.51505474378440752)
(0.517731803089458209 0.77394343754887962 -1.16408165994961221)
(0.0288527263768597608 -0.297947560675822343 -0.0175656830944404437)
(0.083438598300674155 -0.313954078532207581 -0.015771298726578533)
(0.140243484900809595 -0.312147284826770177 -0.0173453917904965969)
(0.197680851298701221 -0.317972123451431887 -0.0208323208026727422)
(0.257307459786883574 -0.328190967117754584 -0.0263919414747200327)
(0.319507343910584607 -0.341482379620205168 -0.0330064722736772079)
(0.385957964935967013 -0.356653789584209902 -0.0408718270602954833)
(0.459258868605190662 -0.37091244072681967 -0.0506426894780334924)
(0.538697225095703836 -0.37920586272564949 -0.0637989962047221665)
(0.621848530303577118 -0.386875960823887588 -0.0836755730924086116)
(0.722966734638047503 -0.396423525794504017 -0.11105593688296822)
(0.86443002430640814 -0.41113635438630225 -0.14397004858511081)
(1.01730193618226239 -0.337563126015595627 -0.193190797881527099)
(1.09090953787886891 -0.113121133093564558 -0.304699476848028172)
(0.999514194999548522 0.205414459489835555 -0.497532733422589468)
(0.530914372266967693 0.925251523560232103 -1.13145096764883801)
(0.030295999251200658 -0.32232071890927233 -0.017371641384826865)
(0.0828878625757483445 -0.338150308182853576 -0.0134114564254235666)
(0.139303076945456267 -0.33498777803949159 -0.0153997683960242129)
(0.195765181577371772 -0.343035296680424817 -0.0191362310957758214)
(0.253539010103784823 -0.354938816057714823 -0.0254075904662828048)
(0.313675167320476234 -0.370904934806444875 -0.0320785199028696122)
(0.379045928034811186 -0.389012646960308239 -0.0393688467658469404)
(0.452518990229273665 -0.404655428278027973 -0.0475831278230705104)
(0.530778609840205196 -0.412214596174471759 -0.0583695693540450533)
(0.611959089891323305 -0.424613708143760427 -0.0765895197523276394)
(0.721876499904475777 -0.451241832686897826 -0.100813489762710706)
(0.878790466487639255 -0.489104832245440768 -0.126533693208939091)
(1.047225417866396 -0.399041953852288911 -0.167621947132976179)
(1.1235615657855087 -0.11782277145448003 -0.278261999715000097)
(1.00285340291701353 0.296312800817699173 -0.484489074754942739)
(0.53195700846137306 1.08561391895045123 -1.10595118575873297)
(0.0330514192396885939 -0.345893418833666533 -0.0171944170727517491)
(0.0830916939514612096 -0.361042757865975394 -0.0104687711989539002)
(0.138986794629267135 -0.356146926857426438 -0.0133371249927906835)
(0.193993997567950632 -0.367035522895809652 -0.0175514781627615322)
(0.248790403374755109 -0.380360734359837416 -0.0248662349099192347)
(0.305966618195905815 -0.399606558577310145 -0.0314946484184139563)
(0.369932756322048528 -0.420610847516276032 -0.0378319175291787907)
(0.443008672331016651 -0.436460829298357167 -0.0435702418878075246)
(0.517886393837205361 -0.44250162061342474 -0.0517243857817001051)
(0.596302775160717946 -0.462179255835774405 -0.0693108740942941781)
(0.712321435512424661 -0.510589967623613195 -0.0901017962456060334)
(0.869411056599920684 -0.576891462428683055 -0.106953576197092767)
(1.04774366281331544 -0.466551532068095576 -0.136133376084711044)
(1.12107088116632059 -0.130712202275231421 -0.241713582492184609)
(0.94457849977438324 0.392507749431378228 -0.466066882901655322)
(0.510252801158782021 1.26001403610801166 -1.09093890259112447)
(0.0365804771028957268 -0.370788214318073794 -0.0169602326331336518)
(0.0836653134777574914 -0.384017541710904742 -0.00715432767518633939)
(0.13862988049808822 -0.376292847201508907 -0.0113951444997162695)
(0.191406409865008148 -0.390450314444636237 -0.0164375767520973312)
(0.242133211484082927 -0.404770241916656448 -0.0246572391637776556)
(0.295611311017519418 -0.428381524977428985 -0.0308957213559667709)
(0.357939818025132028 -0.452033525467931574 -0.0354108546850019357)
(0.429452391793743782 -0.466591240763730597 -0.0376819463464761473)
(0.498681621375059669 -0.470567616266491295 -0.0440570993491214563)
(0.574261042769269259 -0.499424820801004588 -0.0623951992774788994)
(0.687036951401373663 -0.576650138832000336 -0.0781581081310481623)
(0.829073703578722232 -0.676007510121473754 -0.0843978537623815139)
(1.01628477477994528 -0.529409934636512647 -0.100595540526098648)
(1.05084365810308245 -0.0232320032767701079 -0.234696775687128767)
(0.833081467880664395 0.528372625987145739 -0.443527011116140568)
(0.480962129560888851 1.40376069436699558 -1.06371980240900998)
(0.0389653346590161931 -0.400923340927228866 -0.0165033664770392156)
(0.0835702059500994104 -0.408379008622571926 -0.00400175881790520126)
(0.136605189722648124 -0.395978321821428725 -0.00970754700041546667)
(0.185886018745920312 -0.413924652107889646 -0.0160330715901151402)
(0.232035238841789948 -0.428866680592155214 -0.0241987042658325241)
(0.281281349628560662 -0.458714403743859023 -0.0296447135272390888)
(0.341586365877589948 -0.484430266224163297 -0.0307622668781856977)
(0.409657515174594533 -0.496215440929860419 -0.0295338627968259916)
(0.471755857307233351 -0.497602299651077162 -0.0363298307812528198)
(0.543089148850720349 -0.537563262444541556 -0.0554465637203154643)
(0.63685219010865679 -0.652420387610592845 -0.0630833646345692889)
(0.762650032183092352 -0.775892586854924238 -0.0586821369300898621)
(0.918351970097329051 -0.591561518927710805 -0.0625097317399282981)
(0.917142926689964333 0.00181583677067509441 -0.215327092763629213)
(0.680022885827997081 0.643568964288260603 -0.430956167629724163)
(0.436164961882679891 1.52805164694981377 -1.03569857515944319)
(0.0261222141974110124 -0.0110376371778117648 -0.0198864746988976354)
(0.0847645427327031187 -0.0153016465887944198 -0.0220257496983738768)
(0.150129781741985269 -0.0156075814435242353 -0.0246062443909259264)
(0.221595412393297275 -0.0155897639648992052 -0.028919868258428242)
(0.284692278087858075 -0.0150911801850246406 -0.0351905010082072395)
(0.347434517351693228 -0.0148802422371464398 -0.0440659185394288583)
(0.410084604703582434 -0.0149804183279383888 -0.0563377226368014586)
(0.473289223891472488 -0.0151651701627541161 -0.0733907505386543479)
(0.533873590052153402 -0.0148631010916822504 -0.0962720212506779915)
(0.590705248303272645 -0.0143092062633917438 -0.128172911483098784)
(0.638845442421376752 -0.0126724410619098293 -0.17098251229312969)
(0.670948262494930114 -0.0103186544735420684 -0.230785381410669704)
(0.68009065177837269 -0.00647828366691772725 -0.3103570504945804)
(0.658033560264361328 -0.00453124591617738194 -0.424656818145125625)
(0.580207189791466349 -0.00134630954232871141 -0.582687877566202994)
(0.453514097284838325 0.0237925080973017261 -0.740806103697110307)
(0.0271474742986770289 -0.0351771508492429233 -0.0199113832570714175)
(0.0862627467492616123 -0.0460487042472883384 -0.0217015394810992635)
(0.149921987625288716 -0.045240136246878962 -0.0242465815411695533)
(0.212035556828983729 -0.0443285914596877467 -0.0284390510493882746)
(0.273138404284107017 -0.0436238815088676804 -0.0346275680879154918)
(0.334971082221381666 -0.043805023982255685 -0.0433577715477465944)
(0.397333050077134653 -0.0444281192163145378 -0.0554466714064328139)
(0.459713678243413471 -0.0449629539581566998 -0.0720461119001163525)
(0.520439878734936023 -0.0442727995911852135 -0.094713084077862747)
(0.57760064510324538 -0.0425746531322198363 -0.125855841193988738)
(0.627680427383727091 -0.0385636205997885312 -0.168155995658821195)
(0.665476692932866265 -0.0322432670551100267 -0.226767110848866582)
(0.679342799438497069 -0.0228029772832404123 -0.306642486299631922)
(0.665045124501390306 -0.0155966428691625796 -0.421199135054563134)
(0.573575623843803117 -0.00693060182689217517 -0.555321697941714043)
(0.482215385511436834 0.0702864588327256623 -0.828480570981089182)
(0.0282775727504663253 -0.0610197170691727381 -0.0197554228949875302)
(0.0875104973711019196 -0.0746292214467533799 -0.0216193648252755791)
(0.149604136008835709 -0.0732029604489477931 -0.0241451743279827297)
(0.211378073651392551 -0.0719288561245720465 -0.0282640373588925325)
(0.272720347957555453 -0.0718499350674799975 -0.0343496679300685157)
(0.334823712968638609 -0.07276475409323932 -0.0429341785042487781)
(0.397468286042947261 -0.0739048608266255624 -0.0548216286581252252)
(0.460411433117613178 -0.0747458003812269123 -0.0711422631372232994)
(0.521809653177414567 -0.0738796578309592611 -0.0934714852400057583)
(0.580007437126097591 -0.0712930795732838046 -0.124091528021517253)
(0.631392629464371469 -0.0656757870074629047 -0.165780442306529191)
(0.670479033778286992 -0.0555361751681996418 -0.223818772855271519)
(0.684122831560954769 -0.041149772813241621 -0.302441470838110182)
(0.671931856587479226 -0.0272145228455359066 -0.416456133127697747)
(0.573109084789564793 -0.0123808750919731769 -0.55094017641326265)
(0.462061866551892575 0.124775352151403979 -0.811038669894117104)
(0.028971079653476714 -0.0871936248671285469 -0.0195380679248231895)
(0.0881750873304251864 -0.102264566484004782 -0.0214138239742968188)
(0.149071824616131554 -0.101110919874517993 -0.0239059170575519342)
(0.210244957843639196 -0.0999042350973640692 -0.027929787188440823)
(0.271572646499165071 -0.100345807653764954 -0.0338647687297000261)
(0.333836918576523145 -0.101888370422996005 -0.0422400082663884971)
(0.396745238513713849 -0.103591789269910625 -0.0538363205775872974)
(0.460283455370586791 -0.104862434723556885 -0.0697728630342838996)
(0.522499750719806588 -0.103904157197021466 -0.091597243952689214)
(0.582085190583843115 -0.100715547870271607 -0.121508164274444552)
(0.635420358867282986 -0.0932833479079028804 -0.162339127215050061)
(0.67647029967571215 -0.0789321982162446423 -0.219330084195952457)
(0.691555141910307425 -0.0592028338328149939 -0.296359601983464838)
(0.680932567300949088 -0.0370151908547179248 -0.407856607168404883)
(0.581790180574989768 -0.00936107209537260371 -0.544083509652611097)
(0.45371186092722815 0.180998036071609497 -0.795981831675526053)
(0.029322795104776346 -0.113742817990418396 -0.0192536490330574642)
(0.088399312282856024 -0.129617399628353586 -0.0211077926177619078)
(0.14841037244541494 -0.128713913969243532 -0.0235575817456349264)
(0.209036450764716164 -0.12770784482994893 -0.0274643810502494604)
(0.270266800597757539 -0.128722693688824552 -0.0331992088688845485)
(0.332654572967741813 -0.131007534730534891 -0.0412963025992117219)
(0.39588173721387715 -0.133427961727665967 -0.0525134342524591069)
(0.460122756204473626 -0.135250436653096606 -0.0679651479289653665)
(0.523409269475335948 -0.134352501266894631 -0.0891245857329010099)
(0.584891513507989957 -0.130877648307508254 -0.118137472952860909)
(0.640794202382700906 -0.121579471176635992 -0.157863116926448499)
(0.684580553446706652 -0.103158509092861547 -0.213352097840782184)
(0.702540599924997178 -0.0775944698568006574 -0.288352935760401219)
(0.693416667694133793 -0.0463020760706219503 -0.397291360006865601)
(0.600370843433399526 -0.00261025043137928835 -0.53269165008856989)
(0.456053917950404397 0.24599001398882242 -0.780709738146259768)
(0.0294664478789329991 -0.140479762490997778 -0.0188959223839017983)
(0.0883016276795494937 -0.156566385009368009 -0.0207097827688220854)
(0.147576194199160127 -0.155962438057278274 -0.0231165561464332786)
(0.207658298580669892 -0.155372344145584484 -0.0268798949255544921)
(0.268704684024250018 -0.157070931600259422 -0.0323574376263216848)
(0.331167385454703755 -0.160198887423211311 -0.0401049294766793601)
(0.394750054999846278 -0.163474460796681376 -0.0508680830973210762)
(0.459766728487224052 -0.166004047432787405 -0.0657436606531266593)
(0.524377225202994013 -0.165425323294623144 -0.0860980735670770631)
(0.588234248795657 -0.162054615486561387 -0.114050984671527703)
(0.647280307058996418 -0.150967898935842199 -0.152413823085796291)
(0.694956747523398977 -0.128617779226266438 -0.205967814137878041)
(0.717250331889443982 -0.0964625251050962029 -0.278603427593563657)
(0.710880466761456331 -0.0547030034565211126 -0.384381431866966883)
(0.619559445264944997 0.00926528027863502031 -0.522011776166265151)
(0.457503019743386197 0.314916038280343258 -0.770855137344161556)
(0.0294423323978685036 -0.167255739663996345 -0.0184602819687106692)
(0.0879140706901804653 -0.183223112252336506 -0.020233475564588585)
(0.146514365967275212 -0.182892284640463171 -0.0226126767575765414)
(0.206038910915875784 -0.182844320303160252 -0.0261968339437823501)
(0.266832096743772673 -0.185340087447526808 -0.031345556648081363)
(0.329326014989868632 -0.18944367907096854 -0.0386760953970117435)
(0.393285049139323162 -0.193740320527433507 -0.0489312998346465369)
(0.459134259625362751 -0.19717799326997057 -0.0631528036088476463)
(0.525322829718705808 -0.19726806649747175 -0.082589370261621553)
(0.591991789089081011 -0.194439886942020967 -0.109350660641930844)
(0.654800227418494751 -0.181843366759964209 -0.146109097508381414)
(0.707880738618802741 -0.156009531486045655 -0.197330682634599297)
(0.737025388130242098 -0.116828476360402875 -0.267070015208564049)
(0.737233549442355751 -0.0615601074188462591 -0.368065867400838131)
(0.638928741959298052 0.0268338021749319235 -0.508637533011843557)
(0.456271027121243677 0.396411965371007646 -0.763528257644858543)
(0.0292231006821849597 -0.193943795218413789 -0.0179431031605227567)
(0.087202261889807231 -0.209572597494620649 -0.0197089514639500266)
(0.14513677445653908 -0.209474012231021717 -0.0220990735508573427)
(0.204099377548633748 -0.21008021468412813 -0.0254455969941960389)
(0.264607374382400062 -0.213520219856344257 -0.0301780355615165578)
(0.327095860902551605 -0.218760384083389325 -0.0370415539221717327)
(0.391430802375526743 -0.224252160183725791 -0.0467590941522034176)
(0.458153298967071188 -0.228840351723651941 -0.0602602406258781059)
(0.526161979550594849 -0.230003382414024293 -0.078714662796145668)
(0.59593505221500398 -0.228231704387307888 -0.104219756716397702)
(0.663118401330187957 -0.214712509162659521 -0.139204628208684789)
(0.723576739049595186 -0.186655478206849551 -0.187689123088606691)
(0.764959930532971066 -0.140323977996503035 -0.253312899293309135)
(0.772206515920688896 -0.0650900439804714681 -0.349821304642165432)
(0.663384963326484001 0.0539565445444079791 -0.490567477931060592)
(0.455037659439627651 0.488712143061814042 -0.756144420398020878)
(0.0287527876159471459 -0.220407799006672289 -0.0173429907065435901)
(0.0860713769117724681 -0.235549982319076701 -0.0191911994669127298)
(0.143365216175014493 -0.235663332493168398 -0.0216520535115035662)
(0.201823719644522781 -0.237041904178705631 -0.0246641649071655568)
(0.262044166450769889 -0.241595952375780298 -0.0288884216975653606)
(0.324464541747706059 -0.24813918865173612 -0.0352617244681569936)
(0.389145586293360657 -0.255009240871980458 -0.0444262716158364754)
(0.456767775228384576 -0.26102603425110199 -0.0571624477592006519)
(0.526742287736906123 -0.263684804844597775 -0.074666045715989407)
(0.599611791186608345 -0.263573997040788821 -0.0989555021285074554)
(0.671727758282798848 -0.250185896591847978 -0.132028781845290072)
(0.742987929343531084 -0.222501752410303899 -0.177018577292788776)
(0.802523607629885172 -0.16831175140830118 -0.237599487867589693)
(0.818127705547868511 -0.0646463602726238956 -0.331515999335162515)
(0.704118396794347623 0.0926082005476002723 -0.467454378138568494)
(0.458569663066096922 0.591460550761277681 -0.744530941616022068)
(0.02799162749488536 -0.246534575419524005 -0.016664235297771085)
(0.084474297955282468 -0.261094996932447754 -0.018756383915445627)
(0.141232591679780223 -0.261451559215694962 -0.0213495453942904902)
(0.199318115651184263 -0.263718751394945827 -0.0238880908143094296)
(0.259196738336780419 -0.269553835684121057 -0.0275300855261896293)
(0.321411381743028801 -0.277562885805953008 -0.0334104227447739668)
(0.38637870018387338 -0.286019631958695508 -0.0420154441476877916)
(0.454857071394955237 -0.293757860537235904 -0.0540044071329107145)
(0.52670484151318897 -0.29829161343577093 -0.0707242237802273854)
(0.602139184770902336 -0.300538466202887655 -0.0938777896898015246)
(0.680008447741567545 -0.289242101544682273 -0.124669232844266953)
(0.766878895103999092 -0.265911857546457797 -0.165041873776957393)
(0.849749372746377518 -0.203174881837934945 -0.220304481303816579)
(0.878611036297847203 -0.0628539630414457762 -0.313216693945298552)
(0.7590479728656645 0.144055011889305251 -0.444773745676109222)
(0.46889257545020685 0.702897619318536115 -0.727999961929064798)
(0.0269623829555943086 -0.272252762620674993 -0.0159185396980171256)
(0.0825359273202832949 -0.286194282451080528 -0.0184798787309064204)
(0.138975315165328989 -0.286929187391010476 -0.0212310410364667454)
(0.196810708163458747 -0.290126978532072921 -0.0231373633557084638)
(0.256087911792253931 -0.297378992250198149 -0.0261586071409635641)
(0.317865624738237318 -0.307055996634398032 -0.0315462128725727819)
(0.382995616996507748 -0.31735233569111776 -0.0396218629752378079)
(0.452107034846168987 -0.327033584760988316 -0.0509898441642785971)
(0.525272347296657394 -0.33360691915886409 -0.0671698017305995682)
(0.602177833684867658 -0.339118474448493523 -0.0890807560936499182)
(0.68730434046731792 -0.333507835096491734 -0.116720991288341763)
(0.794939755349743038 -0.319856294904343197 -0.151205078290053585)
(0.904091135859355632 -0.246818023380520224 -0.201245476806315382)
(0.947842726992215501 -0.0586886583624859626 -0.295980130909154204)