/*--------------------------------*- C++ -*----------------------------------*\
| =========                 |                                                 |
| \\      /  F ield         | OpenFOAM: The Open Source CFD Toolbox           |
|  \\    /   O peration     | Version:  2206                                  |
|   \\  /    A nd           | Website:  www.openfoam.com                      |
|    \\/     M anipulation  |                                                 |
\*---------------------------------------------------------------------------*/
FoamFile
{
    version     2.0;
    format      ascii;
    arch        "LSB;label=32;scalar=64";
    class       volScalarField;
    location    "0.330000000000000071";
    object      p;
}
// * * * * * * * * * * * * * * * * * * * * * * * * * * * * * * * * * * * * * //

dimensions      [1 -1 -2 0 0 0 0];

internalField   nonuniform List<scalar> 
7248
(
3.68295709926614734
-3.67897190462872459
0.749236733386981157
1.6360133249561386
-2.25218971886587127
-2.2308969262361269
-2.17316262170053953
-1.18378965523222757
9.84724742406820042
-2.73960199049630138
-2.91364865322783029
-3.89153524343597734
-4.2898787153933462
-3.18786463039473489
-3.16142521742455074
-3.26006983412547413
-3.51206295099474408
-4.11534031662074362
-4.36417593974650497
-3.70426887454409481
-3.82006919638493425
-3.99459818882475659
-4.12258123809159294
-4.21332758486595615
-4.10297993197708166
-4.18740944134242099
-4.32247389021050132
-4.44719512668022965
-4.57867029813237458
-4.52650543246575499
-4.59690039903337322
-4.70118565514808839
-4.80878526405210938
-4.93691645352010067
-4.95825833305742858
-5.02035778204464922
-5.10043283779324419
-5.20133332225118927
-5.30813110228967755
-5.3809111484681873
-5.43554393715641204
-5.50400935330526764
-5.59298173146489486
-5.68865644641419177
-5.79206098559432014
-5.84007296667425102
-5.90092069432883992
-5.97767444563250816
-6.05370478755586028
-6.19142935344324652
-6.23217563722514178
-6.28256135101324098
-6.3432400225128216
-6.41267561133743857
-6.53354269849695513
-6.55464174229759067
-6.58119224521725688
-6.61409133436153773
-6.65427064838057092
-6.70252080814498896
-6.75929789364859523
-6.92752881158907563
-6.94335127360827187
-6.96317587380828762
-6.98771271896474921
-7.01771934961542243
-7.05388189729331661
-7.09654676311907373
-7.31788693288952086
-7.32759499830920369
-7.33989283450207175
-7.35533827360295334
-7.37460478914450501
-7.39857085736195597
-7.42862868024520928
-7.71394961754494357
-7.71671504885364357
-7.72046516394898585
-7.72547173711182555
-7.73212092140328444
-7.74098898018505022
-7.75314220538215082
8.52257052839615881
5.61597281333001774
-0.42890874479432739
3.58737736514626704
-2.23526795607981432
-2.28743459799877513
-2.52233661154858524
-1.06373977485074533
17.2722627306739014
-2.91328742397965224
-3.06379456509233705
-3.35335444145485706
-3.50357690897961671
-0.955894889462456376
-3.30527438461530831
-3.40690061039526082
-3.48101769779975534
-3.71059948694512842
-4.20454024434599383
-3.73334404463456337
-3.82207491827287971
-3.91824112162999727
-3.97215336071745462
-4.11275111595286269
-4.12582897249427827
-4.19233172084552486
-4.30197899257945782
-4.42248971463121343
-4.59234547691244899
-4.54746671263895941
-4.60994431837126584
-4.69935694295548512
-4.80457240068774993
-4.93350866681246369
-4.97521413681974867
-5.03300457044085547
-5.10697797163638878
-5.20429451847648927
-5.29875346667670311
-5.3941918087740337
-5.44646631627612354
-5.51195701984531361
-5.59686318369937297
-5.68366399224858121
-5.8030521691604271
-5.85008146736496037
-5.90942978397532226
-5.98417376589500272
-6.05930811505601152
-6.20096034503347049
-6.24153080840998609
-6.29147797933334729
-6.35181342152204031
-6.42307657494599216
-6.58969616243253409
-6.6227853609183871
-6.66278590955594918
-6.71050206923338699
-6.76620690009145331
-6.97121990595379515
-6.99636737834268008
-7.02675008167326354
-7.06275289356020686
-7.10351561209829896
-7.34761685595726188
-7.3641405122779231
-7.38453158771706519
-7.40954056928480309
-7.44035813627427078
-7.72677998328656024
-7.73301575852157264
-7.7411335437001032
-7.75179588837635336
-7.76621805414093025
16.1314208486999178
17.4078059444611881
-2.02472077636110015
-0.607491665884936083
-2.33480676461056547
-2.42865072222961498
-2.44649598787431266
-2.25216221098294422
2.94888469171928591
-2.89387071889009118
-3.02705119310010184
-3.08856830384372572
-2.97985194894254324
0.179697499640781189
-3.31126698937818187
-3.38441767172029007
-3.4247232396975904
-3.57663476725579166
-4.2155822692567595
-3.72350440319437537
-3.78256471665538108
-3.83537284935694078
-3.85688706327087472
-3.92727661144144768
-4.13307892058161208
-4.18910126332796029
-4.27581278241041751
-4.37743137017191319
-4.55884945394542207
-4.55878636851807162
-4.61614727486520771
-4.69331318321915969
-4.7913933429682789
-4.91355596931244332
-4.98574093386467077
-5.04019949577466164
-5.10849083464898168
-5.1997871339303412
-5.29283876488802196
-5.40324230037776676
-5.45365276230603868
-5.51573493137253035
-5.59552222438830427
-5.67578142450043099
-5.81120076790226925
-5.85707642276174134
-5.91446587008151425
-5.98643940737487412
-6.05725629111030184
-6.2085359939448761
-6.24873086294137714
-6.29795741323522762
-6.35782243185425155
-6.43067036495062361
-6.59682457673574607
-6.62990424001008272
-6.66956852242956977
-6.71676590798537543
-6.77261812397936147
-6.97823602044281976
-7.00382282574969572
-7.03448122952998833
-7.07047816058903411
-7.11014715333023162
-7.35460060956446782
-7.37209097890770426
-7.39356016912432068
-7.41969974916340735
-7.45145934380052655
-7.73262755595018625
-7.74006316155826468
-7.74965745334069123
-7.7621867967042304
-7.77886403244224756
24.1107738739690376
27.4960462951364661
-2.38368086755988529
-0.451173053922502731
-2.33928033987663042
-2.41635524406923707
-2.39821000486828639
-2.23798285013370091
2.46402785038731054
-2.85078681879325124
-2.94506463911885952
-2.89335739268566527
-2.71600592019036213
-0.0575689038741984405
-3.28832069095102852
-3.34306664898877193
-3.35736150849287007
-3.52023612945419595
-3.61624234741245765
-3.71013865289759082
-3.75092463292885681
-3.79026319635944908
-3.81220996642946464
-3.85325229934561131
-4.13745550176507759
-4.18222772730689751
-4.24707023748799362
-4.33150144118166036
-4.50709001037414581
-4.56543423082612332
-4.61613085113531074
-4.6826887425557171
-4.7690593739576066
-4.89510454235450965
-4.99143251352858019
-5.04252668094590106
-5.10516689770923104
-5.1914707175810797
-5.28749929203553037
-5.40899822441607014
-5.45741139717480106
-5.51606314744824466
-5.59329656762298377
-5.6669247758443273
-5.81671608689527098
-5.86158582969027098
-5.91677339548045556
-5.98519334353143861
-6.04654077215667396
-6.21421140114161297
-6.25397024413951552
-6.30231267051931443
-6.36081707682853104
-6.43392087827180159
-6.60254883748494503
-6.63551615648008841
-6.67479889517314362
-6.7213869745246928
-6.77748167565872084
-6.98413361928623022
-7.01006057547069528
-7.04097716363652548
-7.07712586549795297
-7.11681870803770078
-7.36068450133026264
-7.37906471770113281
-7.40162069620408758
-7.42901464067761896
-7.46184979846270036
-7.73784216952563764
-7.74641727338810337
-7.75745691622329758
-7.77176294855259275
-7.79131549100176812
35.5165614501777327
38.6920843209065879
-0.974339376338420493
3.70390325222410866
-2.35077249245521758
-2.39043292527546658
-2.35643447424465791
-1.45178864755590098
5.54446360586007359
-2.82853101657011985
-2.85761016318190064
-2.74690578303520061
-2.67038729395111307
-0.824713243293103915
-3.26446433046607876
-3.28910409776364077
-3.23974661405411268
-3.39782977716308121
-3.32978284201228547
-3.6957384694031119
-3.73043819864297621
-3.76197560164594025
-3.81138996313830836
-3.946764773170095
-4.13239041672138452
-4.17298358174837691
-4.22497031837179282
-4.28059265714967907
-4.41829840969805243
-4.56689466793384291
-4.6122459906594715
-4.66957790201565803
-4.73592452495310745
-4.84990015942248842
-4.99421990751049982
-5.04185350195820803
-5.09920138597136408
-5.17886065862031142
-5.2803639822404449
-5.41217867869885882
-5.45865382565712753
-5.51381009316176129
-5.58811459668906263
-5.65504237871100024
-5.82035979329919417
-5.86417730408113869
-5.91686968533463542
-5.98261339954207294
-6.03243227586975728
-6.21832611019234438
-6.25762609027871175
-6.30499119171110145
-6.36204493695474316
-6.43269781725905343
-6.60687679191399813
-6.63974810540940741
-6.67866600150206313
-6.72434181391647634
-6.77993901238646401
-6.98884106525703341
-7.01507788971770463
-7.04619445796285504
-7.08224501010434793
-7.12210952262855912
-7.36573079660359209
-7.38493477834902823
-7.40852229090780412
-7.43714882102713926
-7.47077139911182364
-7.74227261321208715
-7.75186802230244609
-7.76420803683328309
-7.7802824323504236
-7.80268508038611586
43.3789801858637247
44.5213827616905746
-1.39386114707045294
4.10806022147016847
-2.34303273063488682
-2.37256123106491001
-2.42343836695022619
-1.39280994050901796
7.97504535650932667
-2.80177975474911456
-2.83374674608045041
-2.77063765723813038
-2.68534590403131901
0.435963417893390215
-3.24299157180923237
-3.2488510561579389
-3.1883534548674346
-3.36950459084453513
-3.53122025244346105
-3.68214074110228262
-3.71012318120665396
-3.70006287270622281
-3.79653537248608774
-4.00034200893637149
-4.12607868296590929
-4.16684617548942526
-4.21116755379146657
-4.26019222865606739
-4.38822602205996759
-4.56367133286853743
-4.60689982626619798
-4.66252537538726042
-4.70496397758045592
-4.80710730848988188
-4.99351998963481503
-5.03865186772978824
-5.09273905505704061
-5.16457942468193032
-5.26587702023218363
-5.41336908181591703
-5.45803491100505322
-5.51022552641455032
-5.58084610974525042
-5.64699981362773062
-5.82250284493730419
-5.86540837637099788
-5.91605274714496687
-5.97737380134373186
-6.02491387202712847
-6.22097019999299583
-6.26012939782531408
-6.30706482182866068
-6.36283553975674376
-6.43291353525105869
-6.60994485617446959
-6.64280240184964299
-6.68159493591745512
-6.72714794845473829
-6.78262858511533917
-6.99234777877478564
-7.01888363278448502
-7.05015720908579269
-7.08622773501636161
-7.12624930276865864
-7.36962647635159573
-7.38952284807760496
-7.41389293524490256
-7.44331175773435216
-7.47756420816378409
-7.74576137164705614
-7.75618029748824078
-7.76951434629371018
-7.78731181801079675
-7.81211695517145888
46.4395264838244657
54.303192980085214
-2.40466588346034627
4.05743612202991244
-2.31517887142734935
-2.33219910009062703
-2.43525841872715709
-1.65158386875747532
7.26499830009788639
-2.78920951228697245
-2.8297673336712581
-2.85491994028410012
-2.88401476805396761
0.129596972699118851
-3.23207421603084377
-3.25746719842191634
-3.23544397297101671
-3.40841381254420428
-3.68304069818263713
-3.66902035666548176
-3.68802695757793675
-3.6609010074554682
-3.7615979193873148
-4.06733328134975114
-4.1174038899830947
-4.14954937844263494
-4.17527433440772366
-4.22033886708263051
-4.36563783826854124
-4.55907618528256187
-4.59802981817148826
-4.64359769378739884
-4.67777293950292083
-4.76898557988398508
-4.99153216556899082
-5.03427974113019427
-5.08404623074264528
-5.14729455397879665
-5.24463073120395507
-5.41317997136879825
-5.45647061691204538
-5.50658133935066552
-5.57431549638513246
-5.64351324813447963
-5.82339917892598002
-5.86554815810356889
-5.9147441319814984
-5.97229796227835141
-6.02811597899902374
-6.22243325340852849
-6.26119412794116403
-6.30742781886927162
-6.36212144537262159
-6.44220125691056289
-6.61192273379506101
-6.64487727172956699
-6.68314573327300376
-6.72910458594850969
-6.78764111910684687
-6.99469288406459988
-7.02145973971909676
-7.0527359499198754
-7.08907740117873519
-7.12843909953288968
-7.37230173192205207
-7.39261447186016074
-7.41746207592469631
-7.44761770050542005
-7.48268045319698683
-7.74818061149922332
-7.75909536224983665
-7.77330804540822662
-7.79232220997025138
-7.81904535676122503
53.2829285800878552
53.4927085976401031
0.0164809095495570546
6.75398708086845545
-2.27789533325886007
-2.25609392568467992
-2.08660845793966221
0.0775483236434091339
11.0321307675785647
-2.76328753044490183
-2.78381623244773113
-2.60894791741388854
-2.19623049217432165
1.79896600668826068
-3.21967583543777502
-3.25289104235400428
-3.21304666845699582
-3.227519339769088
-2.95053479189023449
-3.66260291224500945
-3.6845325953477861
-3.68573948988026068
-3.70318917610388842
-3.62876228427368197
-4.11149269777032345
-4.13835931602101859
-4.16057937917802523
-4.1985454986770181
-4.29193970978685879
-4.55509794800514367
-4.59091592320436526
-4.63112916864781976
-4.66630142346712873
-4.74672495939667449
-4.98983746647330673
-5.03102088052339447
-5.078350256701742
-5.13586342444126753
-5.22862087018387722
-5.41272282897888601
-5.45523625774850984
-5.50406398211754766
-5.56704842019946611
-5.64688835140064782
-5.82363822529800501
-5.86538839400095036
-5.91374237605258202
-5.96768478282193904
-6.05490434275958656
-6.22300859901927339
-6.26129127956670217
-6.30611908572604207
-6.360468977251311
-6.44811030122285178
-6.61280796522112446
-6.64559144444717109
-6.68382492611943135
-6.72952049560176402
-6.78810275512385974
-6.99586035500285774
-7.02286448692832899
-7.05399173368800714
-7.09050504448240648
-7.13170300605951635
-7.37363864467839392
-7.39413182288659954
-7.41931758034840261
-7.45011281574619044
-7.48650135764114744
-7.74941727706443206
-7.76060242230323283
-7.77528994862596612
-7.79499843272845094
-7.82315329236345391
0.0970005605478849731
0.488665246390203478
0.153964820022459037
0.325917480021301387
-0.284609276131617683
-0.367912381299031033
-0.69005202401128507
-0.261729808133409847
-0.25252760172227795
-1.21685606699279569
-1.08514555179929584
-1.40847798863538465
-1.42107606797987529
-1.5811735851017712
-2.26760459036588857
-2.1391252914989094
-2.20858265298258694
-2.27461865152016074
-2.28595026249097444
-3.19475866262129449
-3.17171479852059868
-3.17876285189000551
-3.25264288095664922
-3.30846247361306034
-3.91220106819035873
-4.02886493093250486
-4.08867747264234183
-4.0285607837207813
-3.97049502844413382
-4.40918751818968602
-4.50440117210230806
-4.59111999453226005
-4.60717263857522674
-4.57603925508354337
-4.84806506612146304
-4.90499196669342119
-4.96262741307407662
-5.00209324144692591
-5.03121318146378194
-5.27931121145170401
-5.32286053036601814
-5.36792275368968852
-5.40699632448785561
-5.45137614720711383
-5.7007493252445931
-5.73571573330735429
-5.77372212535669682
-5.80921172561199572
-5.85528607986066607
-6.11023412396358356
-6.13732903954858866
-6.16761579642003266
-6.19805362347099731
-6.23159480992998027
-6.47977177861802112
-6.49303146257072505
-6.50955671765346811
-6.52916295862342189
-6.55125862795346414
-6.5747770707609865
-6.59890282072487722
-6.88203033703283484
-6.89029215612450674
-6.90049266369607306
-6.91256007811135564
-6.92632799647142416
-6.94147320395737122
-6.95726765851724416
-7.27944618890203365
-7.28221628395466247
-7.2858500278113123
-7.29032565529665444
-7.29557377489280423
-7.30145696743136341
-7.30771857067614583
-7.68599820889145136
-7.68318113262228142
-7.68020698757960751
-7.67710824739518838
-7.67393903718340997
-7.67082998305403763
-7.66810363142719442
0.200084171346911699
0.534757241002249195
0.0259415874424919757
-0.0824880780667704983
-0.551822325019041937
-0.97591578839690829
-1.60591443750816376
-0.656807700459037136
-0.950346164301306473
-1.3547672883299704
-1.37711226783747787
-2.20409865701087071
-2.23087942556143481
-2.6469915914862181
-2.43120880437264697
-2.34370659793170288
-2.46915954729904286
-2.99190194152935351
-3.76859349779346076
-3.36451363493002198
-3.40693219819087867
-3.41483243617293297
-3.59232689286158102
-4.3579318127856963
-3.94790588421510291
-4.07537262401695433
-4.20449102999341839
-4.26084931464287031
-4.52417376136129157
-4.39333709263570604
-4.48148744267776422
-4.5697889622260135
-4.64969304968084352
-4.77056603433768256
-4.83952977463095735
-4.89808799260827055
-4.96548202244460768
-5.03899085203743891
-5.15380590014353324
-5.27789596515097692
-5.32328758106148836
-5.37726384722203843
-5.44245405812263705
-5.54441345061580559
-5.70253128592151715
-5.73883132410451768
-5.78140150828002142
-5.83137857098399959
-5.90453472888195385
-6.1132387680928808
-6.14173015352798846
-6.17489324873214773
-6.21220556724888162
-6.26236637335617097
-6.48195499944559916
-6.49561866052222658
-6.51283116113619354
-6.53363302360192932
-6.55780508429214226
-6.58502438679272384
-6.61668267698761081
-6.88384874061460561
-6.89251815873851204
-6.90335126727322201
-6.91639511659050754
-6.93159095723344088
-6.94879716031925643
-6.96787888392551658
-7.28103564555333094
-7.28412535255647953
-7.28819279967842437
-7.29328426422392262
-7.29941453101733462
-7.30656853968521425
-7.3146949598937967
-7.68720957620029655
-7.68461800936640227
-7.68191313717232305
-7.67913712545223692
-7.67636642547277415
-7.67375847248656751
-7.67160725126636667
0.16557254619245132
0.496427010102135746
0.0182974949838610179
0.00138997597888046442
-0.923469729733558786
-1.20007007320455461
-1.80424584688394507
-0.749073093990153094
-0.542361392562322742
-1.67875950370143756
-1.68919911349865837
-2.38201231113522915
-2.11285347833277903
-2.35175752493427659
-2.6112405618235468
-2.58000391892439129
-2.81487033945331966
-3.00815118312066687
-3.51560287560367346
-3.4079761256743577
-3.45834571216696318
-3.53455040819240995
-3.64183567862362167
-4.1657008102662747
-3.91006520274120906
-4.01179592472012381
-4.17243604025289727
-4.32284360921601341
-4.57222527751452379
-4.36517340244062257
-4.44665092675468454
-4.56235496796792361
-4.68995553564589418
-4.84969262054169725
-4.82960203591866755
-4.88878201130573409
-4.97167382978240191
-5.07624391344374892
-5.20163984710386895
-5.28025772940513249
-5.32881241182861753
-5.39335260170626274
-5.47728127804198461
-5.58870539519370624
-5.7085354174125289
-5.74816857708590145
-5.79881784279137502
-5.86440753290180528
-5.95877947569689681
-6.12012225095502327
-6.15153094496530617
-6.19036162983297444
-6.23866126816422728
-6.30562244376768
-6.48614405921146009
-6.50069607158226415
-6.51932163604015802
-6.54244173200175005
-6.57051216132936045
-6.60438036204412526
-6.64722328203583324
-6.8874330287462211
-6.89689619649700258
-6.90889790210155752
-6.92369876904600901
-6.94157529615572333
-6.96294992468142926
-6.98869727102021443
-7.2839884232128993
-7.28770843113081312
-7.292632918505082
-7.29892579455613877
-7.30676135532425075
-7.31636703031769731
-7.32806349430406279
-7.68928667066318106
-7.68712411985702104
-7.68494911785061419
-7.68283086612119526
-7.68087324292151319
-7.67925391256040424
-7.67826812270745851
-0.18287660060856048
0.253841296452326226
-0.137503132275375695
-0.326434028237264418
-1.08191647703878058
-1.03654894494148664
-2.06672152878451865
-1.98627592531910713
-0.781320667053119422
-1.91281899933908717
-1.72660078905540249
-2.33347777962618785
-2.38118361776271392
-2.22034421720002095
-2.73492170167875726
-2.64252947573763564
-2.88116045841831037
-3.05385945483613019
-3.2746870868054696
-3.39368730886181957
-3.42814867543506185
-3.581311614435994
-3.67739879578624418
-3.88797854858662806
-3.89267678348993718
-3.97679358076504297
-4.13221265516427039
-4.28097652940583284
-4.42049496149066279
-4.3516127368898756
-4.43628441508285842
-4.56495471449570189
-4.7061929621587506
-4.85339253069665233
-4.83190291008007389
-4.89423485374055112
-4.98888120925055567
-5.10421475540309455
-5.22753554662679409
-5.28900581172823081
-5.34115518931237432
-5.41299518704642058
-5.50556422867278883
-5.61345280452554274
-5.71861797326386068
-5.76181597444783744
-5.81885752212962437
-5.89302427830497599
-5.99102847923723569
-6.12997845630113591
-6.16453899209028755
-6.20873710454620475
-6.26579069795874499
-6.34299192153079527
-6.49207768252010631
-6.50781708832631001
-6.52819561143549709
-6.55401254988773285
-6.58632471445370804
-6.6269342145866128
-6.68053422097698579
-6.89249279691515415
-6.90300895163965222
-6.91648999772093287
-6.93343376402546774
-6.95449257250152364
-6.98068777428279663
-7.01383536366375093
-7.28815944809109517
-7.29274355414994258
-7.29881867706381282
-7.30667669493353422
-7.31669033289478321
-7.32938353344979809
-7.34553476291871288
-7.69221800172379044
-7.69066569701003022
-7.68924381144698188
-7.68805709839605012
-7.68724901393379856
-7.68703564058259392
-7.68774685336136443
-0.886997035713192439
-0.233658774157796234
-1.11054391302685573
-1.47812132061207624
-1.20593481296005933
-0.882128440863041874
-2.72869872174906813
-7.11176383262767597
-3.07443931815820637
-1.99103364959939655
-1.62398501685309737
-2.17460866727987501
-3.28242981125502808
-2.55523421555845598
-2.77897745446872779
-2.68071893555619045
-2.81587768469524091
-2.93852521328662109
-3.07649666339574246
-3.40706183070804336
-3.45143343582039286
-3.59034442634542561
-3.6969708903640508
-3.95529593024299597
-3.89985748038395652
-3.99737567108399716
-4.14408925332116862
-4.2684222506714784
-4.38384602800929635
-4.36479140674549182
-4.45009662925960203
-4.58147422196648879
-4.71840872484370522
-4.83510392073930451
-4.84895443449155383
-4.91492762258902616
-5.01242478139977088
-5.12545296201322742
-5.23499380800173064
-5.30383392405518883
-5.35886352337523242
-5.4339839092893687
-5.5264924169797256
-5.63245203809618289
-5.73183867849221595
-5.77771545764687211
-5.83831342694112099
-5.91643188285529398
-6.01613812225032429
-6.14177258524213876
-6.17888776356816649
-6.22657335508216292
-6.28793384912837539
-6.36812821140218333
-6.49938516868098848
-6.51643686128058963
-6.53856304123197063
-6.56680836726751593
-6.60260039882043248
-6.64812186261363713
-6.70806771510936617
-6.89866558331433044
-6.91037032509937621
-6.92541500008277922
-6.94449016409811115
-6.96855754071073186
-6.99906603766244384
-7.03857117732167392
-7.29328149392012381
-7.29888366383221143
-7.30626292134139899
-7.31583130127482661
-7.32815358618383605
-7.34402129257209424
-7.36467969594980509
-7.69587361376214218
-7.69506951560997532
-7.69456579777366301
-7.69450739684415197
-7.69508478699774745
-7.69657774269605355
-7.69940510131451905
-1.61638341712553268
-1.26078504338662256
-4.85620244816939017
-1.85819232348755747
-1.56812536883404241
-0.585530911908224372
-2.67188783550082398
-12.932055728446235
-13.7881683063061899
-2.09123279602708312
-1.60527931076891761
-1.32342743771771509
-3.1164041384393486
-3.22464404743178257
-2.83511630063454589
-2.79568542097599293
-2.83035204057298273
-2.6823875749905457
-2.58909981729229521
-3.46708465283007339
-3.55218681967118854
-3.71195785106075204
-3.78887324254268965
-4.01470713393529266
-3.94708269735578243
-4.06346343925316944
-4.21002019825896046
-4.32366866306033515
-4.44362007640037326
-4.40434864667982851
-4.48991976712792784
-4.61414314142750026
-4.75321231003935907
-4.86074657804316335
-4.8763249169035916
-4.94417192741532219
-5.04027351485310593
-5.15303571980928332
-5.25576215011527026
-5.32295016139523014
-5.37963743268185723
-5.45583638758065614
-5.54706887322224329
-5.64335758757802886
-5.7470942429206362
-5.79475523699661643
-5.85703035683942907
-5.93593165362561237
-6.03750700640960947
-6.15460460459493586
-6.19350511155129713
-6.24299201747620458
-6.30524618564905825
-6.38132283451059479
-6.50763046486262819
-6.52596995424386428
-6.54964159919581412
-6.57981168780309389
-6.61800514526558192
-6.66645324077370205
-6.72898105985190931
-6.90557924390677513
-6.91849408652331554
-6.9350209844638826
-6.95597460799980549
-6.98248556200331016
-7.01615327083677442
-7.05975381742197516
-7.29907998106481948
-7.30576707643246781
-7.31448429626004337
-7.32573737089767274
-7.34023624910851957
-7.35897215313821196
-7.38354771862874237
-7.70008343803219297
-7.70011909724966159
-7.70064002083647559
-7.70182626659984138
-7.70391772218250814
-7.70727909290263913
-7.71248430335579993
-1.17536880869317439
2.60627176244418024
-7.60276906334650882
-4.72382967998953518
-1.94859579417232931
-1.34598943825320871
-1.86038610275358729
-2.81476189474280769
11.7609110620634283
-2.25527980912920878
-1.93423280033913514
-1.45296579686265304
-0.165131260827184434
-4.90157810304267549
-2.92390333535984315
-2.93905412226263874
-3.22468005742525143
-2.92988128643102286
-3.31474068802091049
-3.57317365347245808
-3.70358074792928615
-3.84039924445955494
-3.93109030782637214
-4.11551726066181267
-4.0110992503562235
-4.13116271833058057
-4.27061499101825426
-4.37699080879729863
-4.48701992616750545
-4.45314094080975931
-4.53940066895186156
-4.656095104752211
-4.78676453602519558
-4.93387587144341744
-4.90707033255222669
-4.97504140028554609
-5.06656739996974981
-5.18022594783884571
-5.30497464544084707
-5.34376471209389425
-5.40080833985930564
-5.47609594382259246
-5.56983290928454533
-5.65548578472248753
-5.76306442900987115
-5.81158848648674287
-5.87432824606653092
-5.95221472024934783
-6.04226359278473169
-6.167650650096828
-6.20768126140049237
-6.2580218453721459
-6.31958004917331984
-6.3917977710903946
-6.5163757192189502
-6.53585812342148298
-6.56078175537696584
-6.59231938278810325
-6.63185643123227031
-6.68114818004814026
-6.74325875293731958
-6.91290557547252593
-6.92694710727783836
-6.94478104327380574
-6.96726499432648261
-6.99551989392972295
-7.03097791037941189
-7.07597618533540818
-7.30528748074787515
-7.31304755657708672
-7.323055578510826
-7.33587094780546245
-7.35226344418804434
-7.37329629183722624
-7.40067441735721943
-7.70463761946632086
-7.70556947926809332
-7.70716818720114993
-7.70964125351539398
-7.71327773790120297
-7.7185197315648244
-7.72612669625673743
0.220458828161641307
5.26745146397911412
-1.58099943067442839
1.18969358195681707
-1.80629981977991938
-1.86503876682989134
-1.90263647032920957
0.395355910934945598
16.5998781255041195
-2.43210893885612212
-2.55760756393470778
-4.70731418728060369
-3.52491909689460847
-5.64981047346089671
-3.0211455327082426
-3.10503560873136308
-3.64858527781793907
-4.30538830101364134
-4.41078730823966314
-3.65846732012330689
-3.79134885059318449
-3.98387518796991014
-4.11700899415113764
-4.15245047407489487
-4.0663534100304517
-4.17160167980181207
-4.31359177252241111
-4.4255224924636174
-4.54063698889374745
-4.49568053173763094
-4.57682986886025134
-4.68957649860504944
-4.80149052736726389
-4.95573892957390782
-4.93535996878217453
-5.001470686902457
-5.08757949998219594
-5.19430070765112006
-5.32553702119665395
-5.36365353950583579
-5.41995768280413337
-5.49184749556338847
-5.58320190135444783
-5.68326013976611133
-5.77841434681062083
-5.82699459892763638
-5.88898546603134587
-5.96584313116272291
-6.04691664724534217
-6.18015904422274609
-6.2207623879977838
-6.27133328455554828
-6.33241279009800628
-6.40204289235599422
-6.52517316749448995
-6.5455776325659194
-6.57145142585660036
-6.60386678002546468
-6.64396292658122967
-6.69288358046993004
-6.75226138833835066
-6.92033744006138818
-6.93534641498172366
-6.95428019532005415
-6.97794860474144407
-7.00731068572566684
-7.04344135169805163
-7.08783810032149031
-7.31164403311902866
-7.32041376046455561
-7.33162180537623609
-7.34584135990193321
-7.36380898785192617
-7.38652812207635456
-7.41559504568739136
-7.70932057317539066
-7.71117429488632578
-7.71385911758978793
-7.71761113974337487
-7.72276949543849334
-7.72985131778791601
-7.73978711529711738
25.578647322539446
44.1901735531927713
21.3729866680295721
39.1348486225697556
8.40993650318685937
18.8721930432963632
36.1802129847823721
2.94953331377808681
7.55322667461626551
17.6682652990674605
33.9371185268725313
28.6246414013349195
49.0634013055335672
21.9454479787762793
41.1285647192212309
7.6650667304193707
17.709446918597564
35.6462007714617215
2.50553883961645329
6.17273126705399022
15.3869350867059538
31.7129526628342688
39.8590848542317531
61.898630896961663
29.5327403110865561
49.4359879074171999
9.20964308672186505
22.1116131271510667
40.1022370123955909
2.3593252204272801
6.16559069114659586
17.4558239339470092
33.169853408119593
55.3252354555573334
68.0740202785408428
39.4604850029264753
46.7849049727547026
13.109601657947735
27.3973584411428988
30.6371220423095565
2.80126855266544439
9.01864278942700537
18.135685808749372
21.3871155584890857
57.9682144149799115
40.0358538126173471
33.4107191717653222
20.913944501234937
12.8951045964707873
16.3343161137833022
8.29494412813880899
3.15786481304766653
4.78043247449454611
8.11289347110380277
0.277775586016787202
26.6856137510395683
-2.03454506627249998
8.91200787070090428
-1.76264683355415741
14.6080261484783023
-2.30167688912877111
-1.43372760328369253
0.485576841634042466
6.68094467916989743
-2.3530527215438326
-1.67290844990033127
-1.02861523324588444
-1.61669144710039658
-1.4675476870219033
-1.69590559862501311
-1.26876215490869981
-1.70327468116961533
-1.82898666058275361
30.3466266716732207
-1.54973710674553899
-1.82640523076438921
-1.95255292869480668
-2.35607080028866012
-2.26662646912051269
-2.34595791865311964
-2.20722971409980762
-1.85859266195224926
-2.24459236417160124
-2.18760188958548518
-4.5976672103013243
-2.03012527626219175
-2.20462187174325797
-2.16859071819820048
1.88856343941922944
6.46673687941691355
15.563883897180169
29.9579195689414135
1.17802932780039527
4.0871353479893493
12.1139684406211359
26.7990795899154932
0.216079889347611243
2.99644233832763263
12.7384470543332924
29.6040472844106546
-1.34683925037629848
0.0676199964491814853
10.5533497015790658
28.8651996672738846
-2.57756105934474533
-2.69311588230561938
4.61394572756255172
19.7098186821268371
-3.57463354605369954
-4.02686953317892105
-0.881109923025135799
7.69959332043882227
-4.11531062642102441
-4.59458187335518531
-3.36292090212540273
1.32562365163904872
-4.61850255884225547
-4.74154445443007955
-4.49520909072646724
-2.45840680389779465
-5.08472387275238535
-5.16485250441448063
-5.15409124307280386
-4.04663031329057077
-5.53013642500125169
-5.6236236806857276
-5.59560454246770878
-5.00969695887664557
-5.9435687696457471
-5.99757800909952365
-5.9535259662898774
-5.70162986502148517
-6.27164770293068585
-6.30399036185890971
-6.28516059583324527
-6.15897239311712141
-6.61876872208716271
-6.63231402831923234