/*--------------------------------*- C++ -*----------------------------------*\
| =========                 |                                                 |
| \\      /  F ield         | OpenFOAM: The Open Source CFD Toolbox           |
|  \\    /   O peration     | Version:  2206                                  |
|   \\  /    A nd           | Website:  www.openfoam.com                      |
|    \\/     M anipulation  |                                                 |
\*---------------------------------------------------------------------------*/
FoamFile
{
    version     2.0;
    format      ascii;
    arch        "LSB;label=32;scalar=64";
    class       volVectorField;
    location    "0.330000000000000071";
    object      U;
}
// * * * * * * * * * * * * * * * * * * * * * * * * * * * * * * * * * * * * * //

dimensions      [0 1 -1 0 0 0 0];

internalField   nonuniform List<vector> 
7248
(
(0.54510992827056659 0.593807524626879801 -0.272619832712520438)
(0.395486319682431975 1.13927352432684459 -0.755106784537795894)
(0.386238035067293817 0.457489299074176292 -0.0371724342975370686)
(0.438682974844440299 1.06282200955181816 -0.594664805732010637)
(-0.783804373546931998 -0.392002952719073816 0.112035675174976077)
(0.189140679076638507 -0.209777305562276389 -0.652339490120283028)
(-0.263127705789584998 0.123193851180945085 -0.596246937871633742)
(-0.638266090956817411 0.455421339738382558 -0.114995937829776892)
(0.43668140106492298 0.802451455134209346 -0.434303862518447825)
(-0.265030336556330293 -0.129485478498254786 0.0678881987451485508)
(-0.135951250397896406 0.254526044194569201 -0.398802276977976544)
(-0.354466582129006613 0.333562821941714049 -0.927884493238390395)
(-0.089446409222221801 -0.66418760038512259 -0.821829387276761691)
(0.216411684370194812 -0.595579190571000283 -0.217952168900248378)
(-0.242796235720755843 -0.331780457370369763 0.275059570642890827)
(-0.165805050223779615 -0.246635840609719215 0.242384082018890723)
(0.0367609460491337414 -0.674821857054449192 0.0360335881404431832)
(-0.187104803730386404 -0.744453295673481952 -0.223593391144558062)
(-0.00537144536779384993 -0.989206714868109849 -0.248330903019177263)
(-0.12089789553879457 -0.409615444472698542 0.335297311249663776)
(0.0200172440234253068 -0.326637342367247729 0.254628319385987012)
(0.120602853034111238 -0.428023811464979642 0.185792776275240656)
(0.226806936971308298 -0.70473779731386077 0.0699673408352470549)
(0.00128448221256369233 -0.591925526365603027 -0.144190244701882214)
(-0.0509078504788760614 -0.435905690957785918 0.311191112687511706)
(0.0489168780836594305 -0.434492179165210102 0.296678394646150034)
(0.121561999561444201 -0.442144522366195836 0.268858950300389365)
(0.284029435382423423 -0.369876713596664297 0.182358261843544617)
(0.212715862565817537 -0.368959484187772357 0.0234037965819957477)
(-0.013007277315250261 -0.414342507499864399 0.237748218217414653)
(0.049327186977039493 -0.426403682992429589 0.261203904913930973)
(0.114294715891015516 -0.425438381999219239 0.26144845485640289)
(0.261013105544793844 -0.344969069744955781 0.200015367522684118)
(0.253503329515391118 -0.36471210514159208 0.00286693375930746012)
(0.0117832977670060263 -0.406492082759442097 0.176481308953704064)
(0.0538869144903857886 -0.420100454637118481 0.205126629974797137)
(0.113624437036617648 -0.441720159169304905 0.219566807513829954)
(0.189228302882547994 -0.432362942493615898 0.204560005272592244)
(0.360282985104884823 -0.444009390288238048 0.104848640124314871)
(0.011446502017750021 -0.400187331956869174 0.137104866306804185)
(0.0369782611381096193 -0.41492071778059697 0.165502900817514953)
(0.0722258542370779882 -0.446004873497680643 0.187346215614633882)
(0.100260218557868777 -0.484190914668644168 0.187519241415226579)
(0.238859601561703438 -0.476330599095204366 0.1091082509916073)
(0.00565358560102155461 -0.390190678037414362 0.109037145899595511)
(0.0202176459309624731 -0.402602805533746833 0.131727245249745412)
(0.0341208081306819538 -0.43043140175078809 0.15264081883524705)
(0.0436903493525877193 -0.468866200367877961 0.157783778176965483)
(0.0822976913872429799 -0.481863118101545806 0.114970113014321695)
(8.10322038942018485e-05 -0.384415353378377844 0.0860692683508910011)
(0.0071300061903754805 -0.390162734653725807 0.103502584685256457)
(0.0123944943963614392 -0.406100451812377805 0.12231915298911894)
(0.0133332366713696318 -0.434220864200179579 0.138533747556641773)
(0.0177723980534649356 -0.469943802108164388 0.130574588067760483)
(-0.00928278515655546824 -0.379918307075701345 0.0423641263931709283)
(-0.00689461547285417919 -0.378057327043459845 0.0532697995402656513)
(-0.00404383870990953839 -0.377300585453591741 0.0654086132860074443)
(-0.00116043962791934421 -0.378628127793301628 0.0785725204297391122)
(0.000404402507918830145 -0.383902048875952917 0.0927679947789472326)
(-0.00338748982036027324 -0.396511074555774001 0.106237363942653401)
(-0.015262348727656451 -0.412656354629851174 0.106961857593950896)
(-0.00797073885932955695 -0.376801761904142885 0.0309021248004653602)
(-0.00649656532127000468 -0.373946952350600492 0.0383680018632152828)
(-0.00486443418437067232 -0.371336664775327563 0.0468833420520650829)
(-0.00342805888850488544 -0.36923038894022564 0.0563982032113192339)
(-0.00283922100711630002 -0.367534472353519548 0.0666041237206529274)
(-0.00458115186712888464 -0.36684292609312974 0.0770062338906864485)
(-0.0124120542565726438 -0.371794320814415324 0.0866341651900181947)
(-0.0054463912275696932 -0.372890606642305389 0.0188372116991483707)
(-0.00496343424234658992 -0.369701561549062807 0.0233078290536083178)
(-0.0041507540944814153 -0.36644533021855058 0.0285293484710804277)
(-0.00299265256175028534 -0.363168550336722185 0.0346027929299255049)
(-0.00143627485531386961 -0.359844392011488989 0.0416543934416360104)
(0.000941007264366140739 -0.355828131787323643 0.0498217409672831596)
(0.00451104935862064321 -0.350107011785764977 0.0593488809049872862)
(-0.00205662557974320166 -0.376893420395455037 0.00610118733195257751)
(-0.00207258490998389177 -0.373476396810572764 0.00755344904943833391)
(-0.00196532533114354181 -0.369963985094454384 0.00928375823276220841)
(-0.00163505266130151627 -0.366413962007370309 0.0113535245871998168)
(-0.000886624281947787952 -0.362964936383795234 0.0138709874812442697)
(0.000839350664838802059 -0.360051942344943532 0.0171277179898350479)
(0.00442859735598900243 -0.358765046147402344 0.0217965652736147181)
(0.539510223182382509 0.641424277528946818 -0.326010114121436656)
(0.380360198662686833 1.23089497158140659 -0.562628951689756129)
(0.417517565230218102 0.444329209779179168 -0.137275591734062924)
(0.421891847724613411 1.1639533293160278 -0.499070060770629986)
(0.37470540957614773 -0.527143092432316496 -0.0374028168449032916)
(-0.34336710917583757 -0.269737208665401018 -0.422092122760973354)
(-0.263288320399558795 0.0221081582403585275 -0.322143609661899699)
(0.0148539627196517809 0.408225619174209076 -0.211679394199083826)
(0.431903834621495397 0.94097387340649552 -0.408654703647551132)
(-0.179129909395991355 -0.438677846615895484 0.0983585639806572182)
(-0.216946347797943084 -0.57989305416731618 -0.24683864310574527)
(-0.190363695833750707 -0.122804628444556377 -0.601870822934390204)
(-0.656967524532815483 -0.24016265688727681 -0.667161307648267754)
(0.27769126906411179 0.127977915376955464 -0.304467669217809433)
(-0.247687519548087931 -0.377418268253261802 0.237497133672772948)
(-0.212411112979802336 -0.354387445308550819 0.135235678312498692)
(-0.0570971618599714764 -0.560533177953748019 -0.0394424698869368789)
(0.0266001047409701874 -0.673486644046046634 -0.416449247463062666)
(0.0504522205709980048 -1.10897300074598792 -0.218086887287127718)
(-0.16295721029446214 -0.429953762009953167 0.293200155000619966)
(-0.0238173208299563427 -0.329414965409138893 0.232458492016323737)
(0.0826455517925666766 -0.345567866394167811 0.0941535822180291776)
(0.259448112553573806 -0.470871694054833312 -0.135892188907845435)
(-0.357832068533591841 -0.536349695132920301 -0.346049348250742184)
(-0.0598548740804945648 -0.450095518263990246 0.238947061373030928)
(0.0520810777221913657 -0.449615839812396445 0.227356955288564283)
(0.14293644891852339 -0.430612129599622084 0.183285637230828413)
(0.335066379681477566 -0.362096001052418182 0.102332604038109953)
(0.423141561262680488 -0.300889219602673619 -0.109099946018203331)
(-0.00742244465449856672 -0.434263881307393795 0.175545811778384075)
(0.0665733074002549524 -0.451925917904805019 0.191797191858321253)
(0.138201562746049 -0.45746741761766313 0.183360300279093225)
(0.26503063158478507 -0.420165591959543394 0.143016509495021038)
(0.374000671795327699 -0.404039705924466974 -0.0217188747258673584)
(0.0318448908515489987 -0.426464768914223524 0.137062364143327314)
(0.0749693986376085975 -0.443086234929121414 0.159272933521185212)
(0.13321356310003829 -0.464896610407315114 0.168186188532099185)
(0.183760755056628311 -0.479072766844746367 0.151945420422500088)
(0.373590747125430445 -0.467174652459862172 0.0500068695534039986)
(0.0382273973956146346 -0.417245093257502919 0.112997279980655438)
(0.0592693795455819725 -0.432954125863799721 0.13452264033678013)
(0.0920176669573051498 -0.465425983569568602 0.150111359668604033)
(0.111856763545674309 -0.5025579365058499 0.141478243552254079)
(0.235284681186427785 -0.483131097122930342 0.0666569266075991984)
(0.0249720862622045854 -0.404794417832838427 0.0933887236882181837)
(0.0378388983808948948 -0.418616916392371752 0.110844134707951278)
(0.0507308781697651118 -0.449027680021474418 0.126388252608771345)
(0.0572682513232015689 -0.486875546005882565 0.129159249189576997)
(0.0917214680592999265 -0.489781574092851502 0.093368306931587805)
(0.0129173272875398662 -0.396730227678938452 0.0754584147888257006)
(0.0211466060768079091 -0.405565537302667423 0.0896041971678116222)
(0.0267224564329139255 -0.423950752933011821 0.104602550098645983)
(0.0273176255392482102 -0.454670006810589278 0.117361993237560469)
(0.0274860976398261167 -0.483123546909367207 0.110160945322946582)
(0.00649518394532580187 -0.389542971583256348 0.0582090965062162374)
(0.00965439394054549635 -0.392892377082248112 0.0692112609981098692)
(0.0110098344168723591 -0.40024057724001838 0.0807896090486518448)
(0.00515526821651232647 -0.415483578541148479 0.0913555392746428496)
(-0.0115810264205961563 -0.433050154573431823 0.0905923341838197199)
(0.00255853389834307873 -0.382796062012199845 0.0422474438003897154)
(0.00470592188368518932 -0.382730305088868183 0.0505436642184651994)
(0.00561818476158806521 -0.382849846702952246 0.0593717725484138523)
(0.00295500169461924977 -0.383540501737757 0.0682942167485749985)
(-0.00843181622343692344 -0.389161462952273052 0.0760805536429178669)
(0.000533623230257034356 -0.378013664168568686 0.0259329015012044264)
(0.00240248671700997625 -0.376940660681605699 0.0313874384491075811)
(0.00482587317571684001 -0.375911707780257287 0.0377240042754523885)
(0.00847942550913575663 -0.373938391207089826 0.0451667331358567223)
(0.0131289645062491762 -0.369481245849825501 0.054160420040179319)
(-0.000384906998275690374 -0.380988436725278878 0.0084897058613820145)
(0.000268664718158275959 -0.379752893835278382 0.0103878131087229552)
(0.00151688329565312233 -0.378989920631224997 0.0127324086888261113)
(0.00396877178134689805 -0.37928089350463251 0.0158843758754976319)
(0.00936180430437424937 -0.381998912275939517 0.0204847635977841933)
(0.519539401519204969 0.676199309325627329 -0.296889643653510449)
(0.338282258982145145 1.3168620137539524 -0.47836730414942058)
(0.43105206960365916 0.418874662861646319 -0.162551086861890015)
(0.399083296555311606 1.22996341272685195 -0.418249597986664889)
(-0.138220761486471583 -0.56200674906578918 0.0797118032258590237)
(-0.224196853054498962 -0.410478376554373692 -0.144892406326621204)
(-0.164675565344808927 0.0156691742427302605 -0.235782098214135594)
(0.0187242660090284896 0.115451940525544777 -0.038490012555458572)
(0.432525268309023603 1.04729314021018505 -0.341943123167397167)
(-0.187607494223084786 -0.517497456718020499 0.104085625280249894)
(-0.209146972901777556 -0.537775930502032207 -0.178342745676688452)
(-0.114929467126095169 -0.443986296891388632 -0.367707984641363228)
(-0.426943375356220178 -0.0154259294215880818 -0.263939401855094957)
(0.359372995701921716 0.445526097212601779 -0.268881487459032786)
(-0.285405257145132485 -0.481466154703067362 0.189314887208069299)
(-0.204451945709312771 -0.467167032364497303 0.00100023427995703587)
(-0.1207948549353111 -0.411992967060733906 -0.232395168144881897)
(-0.0355856802817511031 -0.206237183798582885 -0.528396253244523995)
(0.0103947483377788211 -0.715328277371499288 -0.225361094183160721)
(-0.165648266606072819 -0.454317721040492617 0.204188478340731228)
(-0.0482301362968248354 -0.420560781802099326 0.147972463186523268)
(0.0446725832106035919 -0.436201781353401041 -0.00991723497873970433)
(0.243177428644660271 -0.447267538323165958 -0.174910588797895672)
(-0.450369396969551694 -0.419148667997035596 -0.270672332479863997)
(-0.0397826267153047752 -0.460978453784761433 0.139213876304169731)
(0.0514236421673622476 -0.465702190801065008 0.148003345633675537)
(0.143968892183701652 -0.452262747242155427 0.0998986716270199859)
(0.352695111523626703 -0.437301166299574606 0.00453459640263401825)
(0.53621157305838052 -0.286424203869698357 -0.208102009780008312)
(0.0324440094088466607 -0.453598709562723912 0.0928134525524964421)
(0.0825083270179111927 -0.465579649346050006 0.121739549935518915)
(0.150605883515966044 -0.481147391875635988 0.118292737208026993)
(0.248020353837720281 -0.4741188821261485 0.06858657050150474)
(0.350896528583523215 -0.395380369967183565 -0.122291836483428978)
(0.058148766242207009 -0.438636962647733664 0.0936415436837110815)
(0.0901943398200068802 -0.452438932859490495 0.113771610263213696)
(0.143016366158556507 -0.475801693442278073 0.120399788764090826)
(0.177971766275054982 -0.496478970675837239 0.093978500701173695)
(0.329364319762780577 -0.474461426386694474 0.00597643344037380227)
(0.0507699649006754516 -0.427474442339814298 0.0910542885450297823)
(0.0726022199993497097 -0.442890719864156401 0.105472297085240807)
(0.102698209923637568 -0.47410933498354968 0.115777928968686467)
(0.113835851455833623 -0.50631648241572591 0.107695845311389454)
(0.217133401966162654 -0.493163571628110475 0.0414781339753947514)
(0.0369170227390517233 -0.415941335093339581 0.0776072481823233962)
(0.0503611559024432359 -0.42987536594852549 0.0902116239909673268)
(0.0627731369253697324 -0.458490029134962895 0.102173185854281687)
(0.0656231125298674944 -0.505061212793347369 0.105172169994113121)
(0.0951540262450241842 -0.498867374877547343 0.0696875699479520688)
(0.0238789116373532805 -0.407767578296481747 0.0637094907372454111)
(0.0322499102378019029 -0.417469809897338506 0.075155904786086844)
(0.0388267594373524899 -0.435820821941031555 0.087177994270925388)
(0.0402996996945901576 -0.464501050121460479 0.0976642293121034594)
(0.0364980807563630369 -0.4958427912805487 0.0929520954004350308)
(0.015029251987709269 -0.399528489951520183 0.05023061928092247)
(0.0185399848177136284 -0.404502745269046893 0.059372246346954205)
(0.0199184157364188895 -0.413438004931812209 0.068991452655146307)
(0.0132434178935973076 -0.4294869704508677 0.0781020179354925681)
(-0.00768219678690745117 -0.446277130407892297 0.0787548663797977139)
(0.00905082773455369131 -0.39265266236605717 0.0368019648030560864)
(0.0117924022753596158 -0.394087810387551307 0.0440409799744671607)
(0.0130868981490697596 -0.395513687987332163 0.0518964586020828483)
(0.00994169831960475467 -0.397494881196752858 0.0604567666266815421)
(-0.00133470215224274977 -0.40470851633467908 0.0687254984338658004)
(0.00469556292957369441 -0.388076820994857352 0.0228045056479778963)
(0.00725747679926468103 -0.388902609198097327 0.027666216229363258)
(0.0106113786714645154 -0.389812388178646829 0.0334157735279900087)
(0.0157020836231111759 -0.38961765066633125 0.0404497607132158002)
(0.0226552047708407887 -0.386195907573161856 0.0494747819444450732)
(0.00105588316992780238 -0.390706125606668786 0.00750796371976179995)
(0.00205167912059426878 -0.391469812449526777 0.00923224721821167167)
(0.00381263836692190142 -0.393080174570620944 0.0114433653551737693)
(0.00719569972662608467 -0.396286836374159346 0.014509215212187794)
(0.0143824667878794926 -0.402810033279071777 0.0194071952273693962)
(0.528423000729049019 0.715528710705439663 -0.23716628100682996)
(0.334937628761116213 1.33402271760546864 -0.338061955190292251)
(0.464047800371810204 0.453372383212376051 -0.140602741372113926)
(0.399867896723397231 1.26222155560650284 -0.311266322190666689)
(-0.0821149321215103728 -0.634056245799775264 0.0496213789442973494)
(-0.0905303107716983746 -0.578939584100202409 -0.107498282695369929)
(-0.0490393594626242976 0.0904558450068780884 -0.0943291270584423747)
(0.164536272647581139 0.172584447233692206 -0.0871564888065194526)
(0.436376222631096933 1.1156342539031725 -0.279266870853998261)
(-0.15805254786757833 -0.561992199641775825 0.020161707381682506)
(-0.119570846898060315 -0.504386683112245326 -0.177701887025860428)
(-0.0253909085639250284 -0.187684524141882414 -0.273392072322849566)
(-0.187800998434096034 0.144316640079573622 -0.174094318784499685)
(0.391677052589996244 0.688778886936499579 -0.230263522396564974)
(-0.181460235830389838 -0.501153712966483922 0.0337893188493497837)
(-0.0915907568485190698 -0.51882886089153657 -0.121663313914437729)
(0.0263611658740667658 -0.324890672555429916 -0.281644904238810889)
(-0.111057423727286581 -0.080454416132469217 -0.277441555861936695)
(0.172229753629935423 -0.187307960606317769 -0.195300886488028375)
(-0.09249745096239681 -0.452626181158668039 0.0499332666913718179)
(-0.016294582127216465 -0.466372497220879589 -9.27754698506512432e-05)
(0.0148161690652579836 -0.377270004288010441 -0.125981396646436483)
(0.108449834942373147 -0.269380277761273212 -0.19200966542882969)
(-0.293873679807630461 -0.340177992772171534 -0.145601342319715332)
(0.0294996114980130703 -0.424871502017151903 0.0550221087107729129)
(0.0959573419360073426 -0.445517636187591881 0.0676382559799305477)
(0.156205526676588297 -0.445301359399504881 0.0239902395611858929)
(0.372457631242091247 -0.382841531135744373 -0.100544570913315839)
(0.522101980886338191 -0.173951390602361561 -0.233427723778781265)
(0.0743667483267991536 -0.435340314510070214 0.0522839853980342634)
(0.113685323279124159 -0.449428454606018601 0.0696043245595145965)
(0.153204089787055964 -0.464740207282924256 0.0645186948623619055)
(0.268337302638334441 -0.428622993436913013 -0.0110233962446208197)
(0.342792693799165438 -0.271511838680829121 -0.194211817400854136)
(0.0753198607823566957 -0.437026714307804931 0.0652377254914852933)
(0.103993537680892395 -0.445696436221575176 0.077239546482451113)
(0.144086962907800681 -0.471669132769712729 0.0798293723393664334)
(0.169488895774242254 -0.482483018622060222 0.0471822219247291438)
(0.308621622771299009 -0.395649807073633841 -0.0268274927884240844)
(0.0593468666132849973 -0.431892180711297646 0.0674925192043794725)
(0.0793207370427072567 -0.445927528771438486 0.0783663040919551773)
(0.108249025011525085 -0.474398580999612074 0.0866227283049632729)
(0.109961555375165401 -0.50365105790209741 0.085609409663180952)
(0.229661499432919053 -0.47022859735141942 0.0300431132158472322)
(0.0449886501226690952 -0.42080216637897816 0.0610416078407734833)
(0.0594890179026484334 -0.437380002962795944 0.0710337772794759903)
(0.0700094889755466798 -0.465014920474818738 0.0812965486535640047)
(0.0683926222718291843 -0.500700197985089024 0.0857221585642510692)
(0.104790803470710875 -0.47504789562383043 0.0437073568258831979)
(0.0332058644969260575 -0.415984220794530735 0.051676215961513304)
(0.0412458830799802417 -0.425848437021565884 0.0609807448204604113)
(0.0474682293211030198 -0.445159750458554326 0.0708063730513177475)
(0.0495946296694790151 -0.472932441907423118 0.0789148491785826717)
(0.0526686835208402676 -0.493645325111448541 0.0754501481130776808)
(0.0220077343502073919 -0.407239314099084038 0.0416022639212620809)
(0.0261003064233557118 -0.413501658670147543 0.0492849183288549125)
(0.027650603311007823 -0.423601630129982143 0.0573138149018272425)
(0.0207371068203709256 -0.440724530358912292 0.0656146002838330356)
(-0.000638375296314511176 -0.456382660398698958 0.0686228502366982296)
(0.0146335470202625835 -0.400759777166855347 0.0308581317649341477)
(0.0179569169243266741 -0.403359147451578026 0.0370486298331006297)
(0.0200299872593840932 -0.405872160423943584 0.0439185555028684532)
(0.0175874325185167019 -0.409126987402114228 0.0520926304446482288)
(0.00732710046006568999 -0.414591019236713765 0.0611000266765466399)
(0.00834991348385164672 -0.396551206340604534 0.0192776723313334876)
(0.011603759682030694 -0.398972178500600128 0.0235302420985759632)
(0.016057022176523543 -0.401505378086241482 0.0287306456244648262)
(0.0228212962514984623 -0.403018094515792291 0.0353926077766726008)
(0.0326454778611776353 -0.401768011258779811 0.0439260318957048757)
(0.00236061403553429212 -0.398970101547110323 0.00638536893611769789)
(0.00368594856181231421 -0.401459694888704199 0.00793127971669771101)
(0.00595830056527747124 -0.40519248120138146 0.00996718618442445949)
(0.0104831854729576981 -0.411049018889242723 0.0129767050081893466)
(0.0199588860078862909 -0.421124072718805365 0.0182319565941288578)
(0.521187007910918987 0.756506420594412421 -0.178801246071124187)
(0.31845191699651676 1.36751680588430857 -0.265441806304073546)
(0.47630615974490631 0.544020796034765053 -0.120361190574545585)
(0.388836513563352082 1.29621474791755453 -0.24787508681792722)
(0.0421715705637017574 -0.582254838628257554 -0.0823062221023453805)
(-0.0234577206052184184 -0.303690636153491234 -0.204517763532032687)
(0.127866278269785527 0.422332874641400347 -0.0980099370590917784)
(0.252663095825804207 0.329482867849713312 -0.0796098976552613719)
(0.426433190776785487 1.17093157098304546 -0.226102904632184215)
(-0.0453888157649665058 -0.474284871129913355 -0.100813807710507991)
(-0.141263609511410149 -0.217054208030546092 -0.192544054379486795)
(-0.0326913559855273456 0.264352664662214298 -0.148001740930984699)
(-0.171400042867659419 0.264656915991840269 -0.0880254515775723556)
(0.389980309391844193 0.802891444495341666 -0.193387606851053023)
(-0.0540860230642138118 -0.407306314844295192 -0.0606137893012034801)
(-0.077045481734462809 -0.399293245099525462 -0.122008296837382124)
(0.0666022094057259068 -0.163606207597235709 -0.182149934388970564)
(-0.0943673293775725425 0.169175859989919464 -0.179019636684667749)
(0.207721329162876861 0.0394085223547424035 -0.150460638816349551)
(0.0147414355413712471 -0.408352969956966072 -0.00225261358221977639)
(0.0323190359935601537 -0.403957406487468251 -0.0278765274159234466)
(-0.0127501862666028858 -0.314791007477855156 -0.110811182814546022)
(0.125064581808415898 0.0192439117475807428 -0.219348965051164524)
(-0.0622351049288936836 -0.240017366398795423 -0.0885466888365932792)
(0.0607397007478620993 -0.423133174134202983 0.0287710554387859037)
(0.109764516817226293 -0.421121984414797812 0.0380036373891695575)
(0.151314213175137213 -0.392753193764618369 -0.00146430941766323604)
(0.29959591099521482 -0.122238591427006632 -0.142280431460152068)
(0.338542858739701136 -0.037504365834194725 -0.218672034723584069)
(0.0726662005628494756 -0.438042007140485856 0.041924546917653939)
(0.101024814225129794 -0.429938364156347896 0.0462616509968568415)
(0.134473763564752935 -0.419937829404123386 0.0328644620704873144)
(0.293931201713718004 -0.329305974077731489 -0.0460689657872429686)
(0.345496469979791054 -0.154416667072535624 -0.179205739149567528)
(0.0755211593224631716 -0.437011078492639482 0.0487016558316597445)
(0.0975814979054402398 -0.444455822670792311 0.0531985032031998054)
(0.135448940170726922 -0.459179350903809014 0.0532313683146531449)
(0.180434435990300485 -0.439302994221038356 0.0214394100631821044)
(0.3048542441943069 -0.293445174018839794 -0.0356884051324386636)
(0.0655471310035909693 -0.431060706224801748 0.0507460964938216685)
(0.0850863690908578163 -0.446797509590579012 0.0586249327699024173)
(0.113636739067806455 -0.47120060366783173 0.0655764426864109407)
(0.112732759858662795 -0.491788321944077289 0.0672327042941265329)
(0.268832333444294913 -0.426732840011708137 0.033179746651185435)
(0.0529243699808194107 -0.426175304321441795 0.0458141769128355622)
(0.0667676538438333189 -0.442048614938549522 0.0546458411858423074)
(0.0768819107795453566 -0.4686094231233629 0.0648518668683511212)
(0.0688732730890639772 -0.500889855274302631 0.0729220898518502941)
(0.140683197330497389 -0.43196209505993538 0.0416085106647639952)
(0.0404143372719424215 -0.420849079959401295 0.0403051176469228431)
(0.0485931019939667697 -0.432203797837041659 0.0481444403346191138)
(0.0535136376895897145 -0.453182929968790615 0.0573537439206077276)
(0.0539177338369221382 -0.47800244998842395 0.0665746999917151694)
(0.0669191612843477723 -0.485637018914529706 0.0675899264544937567)
(0.0279211721692959776 -0.413200768717754019 0.0326663708477309411)
(0.0323494740048905355 -0.420074335395840659 0.0392171575697305846)
(0.0334728030118154607 -0.430900358302314102 0.0466053456577055214)
(0.0256906181247652729 -0.450109330493574489 0.055971236161690141)
(0.0042068247705661227 -0.470816900376647973 0.0601922920605869813)
(0.0192991820703784026 -0.407053959349181538 0.0245706037063047091)
(0.0232147899179782138 -0.41070764895484152 0.0297120442578477952)
(0.0262268020449567263 -0.414361011564928772 0.0355861098740383325)
(0.0245996445333658553 -0.41834530379617646 0.0427757830781804321)
(0.00963168849792035708 -0.420393043398711586 0.0505123479477598905)
(0.0114655821525662012 -0.403380174530729274 0.0154411018600921421)
(0.015421486593120471 -0.407080286201086328 0.0190026926152406378)
(0.0209938239285019854 -0.410861539692851829 0.0235059614937950905)
(0.0294070500677098487 -0.413917003510198778 0.0294422855612101256)
(0.0421254593095404736 -0.416097773253467085 0.036743898082722895)
(0.0034892972420320495 -0.405685060895728922 0.00514659933231254377)
(0.00515401310286246316 -0.409659274713361332 0.00647369580934185201)
(0.00808817386722315325 -0.41525118145585399 0.00823692516311613256)
(0.0137356580851993211 -0.42352034344259154 0.0111404166378414674)
(0.026359882359619724 -0.43644963616096194 0.0161651828855221072)
(0.517630434708795772 0.781466050160580572 -0.13695799481680615)
(0.314270918878524319 1.39831892019858928 -0.174571337509589558)
(0.484301330020215082 0.574382963108519329 -0.107624153336826067)
(0.386797420616054377 1.30807373563749163 -0.168234645606888528)
(0.230756211891852553 -0.693851058210412708 -0.022238116665659953)
(0.112046558504846169 -0.379211452259880066 -0.141226560012209346)
(0.188990148918495471 0.427218356464676763 -0.137478025778304369)
(0.310264970028564457 0.417047814586497145 -0.116451115049922435)
(0.42596815126533305 1.17360542159525916 -0.157795513985656749)
(0.0825375011218797139 -0.571318908342294152 -0.0253433029164163021)
(-0.101634885926048316 -0.168218327873440238 -0.0630834180030529906)
(0.0432306877514567964 0.331547859515540388 -0.145176549630892548)
(-0.066536530048918574 0.342137043341528724 -0.113950862896605443)
(0.393749359865693982 0.821132043536296208 -0.141011863483576777)
(-0.034722603933892128 -0.42060966732924282 -0.0206161711837465275)
(-0.115190037687972785 -0.357962389478817478 -0.0100945231624453673)
(0.131137930897147065 -0.0677600760194616292 -0.0341968640535354959)
(-0.0732672384929669851 0.270469233607500747 -0.10560192687901343)
(0.244435704842936585 0.157016545184396866 -0.103119546870623302)
(-0.000519745529435875625 -0.40485331891611559 -0.00599353042681386415)
(0.000709648537894854749 -0.436383090693479858 0.00192406266743199231)
(0.0786497476198614043 -0.342929587852913165 -0.031880419099894447)
(0.164898975964995864 0.109889657157173831 -0.147328543013309665)
(0.0372995815061408151 -0.177753435660083281 -0.092901181784966258)
(0.0408785919128981864 -0.421775539561053625 0.0031727874248455943)
(0.0797885630065687385 -0.408839486386068873 -0.00180684358824311289)
(0.0628520306266913131 -0.403338320788599547 -0.0347397247755528993)
(0.237701085737276274 0.0533699389845209843 -0.198263623387201549)
(0.26452069834401537 0.000333172875901998136 -0.180013320296539797)
(0.0570598954907265976 -0.431842193995411905 0.0223364298872366709)
(0.0914762307517314466 -0.416402928360908975 0.0182725850900928855)
(0.126609294911064318 -0.416002710597802916 -0.000727658032856851739)
(0.269478026157280226 -0.285851325637915654 -0.0407983772439617642)
(0.310022451074271066 -0.13097227203564224 -0.131056921757705919)
(0.0721402548920510311 -0.432675782217901206 0.033344264913631981)
(0.0935652453725277777 -0.441284750432874018 0.0373281440204887849)
(0.133022061297394995 -0.451815716008610258 0.0391422284534060708)
(0.213233778347035025 -0.410262207837058634 0.0199943961573818621)
(0.303325668815642824 -0.265222837053821381 -0.022426348478986672)
(0.0714329117305282785 -0.431744096959251089 0.0353599719113057015)
(0.0906129192961678959 -0.445969396401411811 0.0421060203783657702)
(0.119734661076934298 -0.471175895406469203 0.0494836097222418336)
(0.124570881362291608 -0.475655346909368282 0.0517210632151437685)
(0.286989930101513191 -0.40085318322412633 0.0412920621510592667)
(0.0598899221260816988 -0.42917497669464838 0.0325334124546518763)
(0.0747634978330944666 -0.444748082033595726 0.0402541433048790101)
(0.0877504373344333566 -0.469345841820859366 0.0500841709654280542)
(0.0834113675570785085 -0.495280296939957676 0.0604477219750967423)
(0.18255422023107673 -0.423512113906815701 0.0589930855724762268)
(0.0464167109342524947 -0.424476004990066325 0.0291902194751843258)
(0.0556940923118132425 -0.437132160934384284 0.0358704852766415505)
(0.0627140572733869278 -0.459922463770126966 0.0447136110676240525)