/*--------------------------------*- C++ -*----------------------------------*\
| =========                 |                                                 |
| \\      /  F ield         | OpenFOAM: The Open Source CFD Toolbox           |
|  \\    /   O peration     | Version:  2206                                  |
|   \\  /    A nd           | Website:  www.openfoam.com                      |
|    \\/     M anipulation  |                                                 |
\*---------------------------------------------------------------------------*/
FoamFile
{
    version     2.0;
    format      ascii;
    arch        "LSB;label=32;scalar=64";
    class       surfaceVectorField;
    location    "0.330000000000000071";
    object      Uf;
}
// * * * * * * * * * * * * * * * * * * * * * * * * * * * * * * * * * * * * * //

dimensions      [0 1 -1 0 0 0 0];

internalField   nonuniform List<vector> 
20536
(
(0.4997662867771685 0.866540524476861584 -0.513863308625157722)
(0.465673981668930148 0.472537200564352722 -0.154896133505028538)
(0.542310075726474494 0.617615901077913421 -0.298671380829183042)
(0.551829934172957448 0.535665026139484413 -0.19966804025750623)
(0.417084647263436137 1.04343576390461101 -0.674885795134903099)
(0.387923259172559431 1.18508424795412548 -0.662254431375833175)
(0.465695893292799035 1.05940036132077675 -0.826510422770656006)
(0.34859511541506949 1.19305660897728449 -0.679249913983793197)
(0.435777872591725568 0.760155654312996143 -0.315918620014772777)
(-0.126014027944763352 0.442560792279809545 -0.0760841860636571193)
(0.401877800148755959 0.45090925442667773 -0.0647605883415369454)
(0.367604657862870055 0.492218323829951954 0.0178161978762974502)
(0.437682187954681667 0.88794991222541475 -0.514484334125229315)
(0.430287411284526855 1.11338766943392287 -0.549109328712906075)
(0.464682717228283748 0.982037450907336962 -0.678179820496444652)
(0.407187644857721021 1.2020864477736517 -0.66379892966987275)
(-0.308848422476289852 -0.300890129140675477 -0.270151907472652053)
(-0.524417355051630785 -0.271799492228359973 0.089961936960062272)
(-0.204549481985390802 -0.459573022575695322 -0.0213669586027312799)
(-0.483445884797543135 -0.422310138208241481 0.241443334971979007)
(0.0263934368403337394 -0.043291727190665652 -0.624293213995958385)
(0.0265947143393710991 0.0472890035937263004 -0.52557088354912973)
(-0.0771132150495986435 -0.239757257113838579 -0.568981091669775951)
(-0.319528463331460788 -0.267106710808080794 -0.202538093127746233)
(-0.288785296198818764 0.289307595459663447 -0.355621437850706212)
(-0.308797143959295806 0.389691898797274616 -0.762065715555012124)
(-0.263208013094571813 0.0726510047106518342 -0.429565966807824662)
(-0.116444552933206338 0.0531648532545809932 -0.677848674070729684)
(-0.300397795588762506 0.628936397436294925 -0.274649900174111394)
(-0.363856250089519606 0.0939400059072087457 -0.468412662553269299)
(-0.311706064118583204 0.431823479456295845 -0.230241300811956651)
(-0.869850042198733631 0.0315011694938839848 -0.472982713279636591)
(0.326546542717558896 -0.133741569775627372 -0.326128015709348129)
(0.434292617843209161 0.871712664270352766 -0.434037046165523743)
(0.440051181581544659 0.712064403360948117 -0.461062385261977625)
(0.435464444817671825 1.03583549505821737 -0.536059467573944515)
(-0.257006184112602509 0.0625202828481568884 -0.165457039116413379)
(-0.253913286138542971 -0.264875575824388143 0.171473884694020029)
(-0.222080122976160976 -0.284081662557074566 0.0890274287692380956)
(-0.309021397514771534 -0.119653648361644702 0.123835542386274727)
(-0.13516403788883749 0.294044433068141708 -0.663343385108182693)
(-0.150878150310838011 -0.0433160515882668531 -0.0782090974795429106)
(-0.176448799097919773 -0.162683504986373517 -0.3170381455016274)
(-0.32191976707102804 0.165407672262298799 -0.269135057504335085)
(-0.154238400858305091 -0.165312389221703271 -0.874856940257576099)
(-0.158852818039936394 -0.359992866542323209 -0.445925452548971979)
(-0.272415138981378702 0.105379096748578829 -0.776203831226628838)
(-0.398377874337686622 0.164185904017388168 -1.29293526789480606)
(-0.0531648114912333658 -0.629883395478061603 -0.519890778088506256)
(-0.138275606476303686 -0.911057121855881613 -0.522711389210659405)
(-0.373206966877517865 -0.45217512863620013 -0.872360980175057699)
(0.259621974827154434 -0.654764256816319334 -1.45252512054553473)
(0.105520119501200965 -0.596204339182545007 -0.233141535959712765)
(0.247051476717153329 -0.233800637597022021 -0.261589929677662647)
(0.152931466136956906 -1.29154609663627928 -0.214162767433509121)
(0.347037345409134945 0.245252080950195572 -0.406873662150261439)
(-0.219718577192343029 -0.289208148990044323 0.258721826330890692)
(-0.18184706562977529 -0.341457711135763842 0.305178440946277274)
(-0.245241877634421901 -0.35459936281181581 0.272998340509355231)
(-0.253117562438005039 -0.382844078926370235 0.264030722115247307)
(-0.0795165583006129245 -0.460728848832084648 0.139208835079666721)
(-0.0728939031001770987 -0.225149948973540875 0.248506200702438923)
(-0.189108081601790962 -0.300511642959134906 0.211024233913092274)
(-0.176439134348903764 -0.370287798346732755 0.21441984915434123)
(-0.0192031896124092646 -0.709637576363965628 -0.0937799015020577276)
(0.0786818995416227324 -0.484764334182755108 0.110913182207842548)
(-0.0101681079054187409 -0.617677517504098716 0.0130543604285115709)
(-0.1025092070740585 -0.656340974749231032 -0.0165311374449538806)
(-0.0210500864306614466 -0.8668300052707959 -0.235962147081867663)
(0.0198510666204606834 -0.808023608587365882 -0.0768130251546557119)
(-0.0802523494947079141 -0.708969969859764237 -0.375915571940984905)
(-0.10543774167700791 -0.544385132290949869 -0.308865108219603501)
(-0.00204348157761508834 -0.768651395245086078 -0.196260573860529891)
(0.0225403876016021382 -1.04908985780704911 -0.265769683082947794)
(-0.100491996199206041 -0.770314136114009007 -0.241736503728756907)
(0.135324593574370711 -0.139016665208803292 -0.364351020936634129)
(-0.0650721903060424156 -0.368126393419973108 0.294962815317825311)
(-0.0859028730088352704 -0.422914659216360567 0.323244211968587714)
(-0.141927552916628341 -0.419784603241325827 0.320737323062841584)
(-0.122931368722024911 -0.394820980729538362 0.358081022630149293)
(0.0967976915538690946 -0.37733057691611388 0.220210547830613695)
(0.0344670610535423236 -0.40580265861496112 0.275653357016068523)
(-0.00190003840326553376 -0.328026153888193339 0.252183748980401412)
(-0.00668817242350404784 -0.374250722846403316 0.275632628998737528)
(0.170627063251739292 -0.566380804389419956 0.127880058555243981)
(0.121082426297777712 -0.43823605411411326 0.227325863287814817)
(0.101624202413338943 -0.386795838929573643 0.117715064185110241)
(0.0541867238306928956 -0.482267445862207267 0.214368638121788885)
(0.122850015599378762 -0.648331661839732343 -0.037111451933316747)
(0.255418186176865958 -0.435906617360357296 0.126162801339396002)
(0.243127524762441011 -0.587804745684347152 -0.0738114788280436196)
(0.113309797563064127 -0.704516484885747252 0.131794612768423719)
(0.107000172389190448 -0.404949078670080731 -0.0603932240599433512)
(-0.178273793160513866 -0.56413761074926172 -0.261012140697946204)
(-0.0267547212276340249 -0.694690895849238821 0.0161326119136264573)
(0.161868195620893912 -0.292298893565396289 -0.25576740261157116)
(-0.00761070112477286228 -0.435198935061497982 0.303934753666830815)
(-0.0319575638970631473 -0.42233746635625119 0.274469665452463207)
(-0.0553813622796853061 -0.443000604610888082 0.276661718396754741)
(-0.073346742822923347 -0.417193350629402493 0.345840693122036413)
(0.095243826670517992 -0.438318350765702969 0.282768672473269755)
(0.0491220325303494548 -0.428592737424393189 0.27894114978004042)
(0.0504989779029253946 -0.442054009488803246 0.261374609464407437)
(0.0157794617474173136 -0.411342471433749857 0.337615592261801156)
(0.19532349512256425 -0.406010617981430233 0.225608606071967172)
(0.117928357726229865 -0.430892904428813284 0.2651537025783961)
(0.132249224239983809 -0.436378325982908932 0.218708839012370232)
(0.084046290045500599 -0.421271918570436166 0.31255541786672375)
(0.227677627285098966 -0.369418098892218327 0.102881029212770342)
(0.272521270463608689 -0.352665777279457859 0.191186814683114326)
(0.309547907531950495 -0.365986357324541267 0.136186091518403191)
(0.195843806958198974 -0.376800908426906556 0.220440631083786975)
(0.233109596040604383 -0.36648236979014065 0.0131353651706515723)
(0.317928711914248874 -0.334924351895223016 -0.0445133622224218178)
(0.0966884742273673575 -0.473622261026971969 0.057618813000082765)
(0.313714235709335043 -0.240359273350350094 -0.0893305354445700639)
(0.0164404709349892861 -0.420373095246146966 0.249476061565672758)
(-0.000611989774122172897 -0.407325360116571222 0.207114763585559497)
(-0.0102148609848744226 -0.424303194403629069 0.208316609224003885)
(-0.0318038354021169256 -0.398542142213397454 0.263972049151646793)
(0.086909187267071919 -0.425921032495824414 0.261326179885166932)
(0.0516070507337126477 -0.41941850402302655 0.233165267444363972)
(0.0579502471886472054 -0.439164800448617276 0.226177443097224845)
(0.0258908317899571895 -0.407181116483365135 0.29492950767870918)
(0.177075885616501366 -0.385203725872087732 0.230731911189543698)
(0.113959576463816575 -0.428625593821125694 0.240507631185116422)
(0.126248139318532238 -0.441452899808441157 0.219099223292734319)
(0.0946771288901058355 -0.400746931778852067 0.3007644108248822)
(0.247106565039541232 -0.354840587443273847 0.101441150640996389)
(0.225120704213670864 -0.372483719770114241 0.202287686397638194)
(0.263021868564789485 -0.382567330852249698 0.176375018944788436)
(0.234182991716032352 -0.329807291247913748 0.225418458381154846)
(0.306893157310138054 -0.404669539578608184 0.0538577869418112448)
(0.313752000655359131 -0.384375905533029416 0.000172463796396486388)
(0.234934270086121333 -0.443437004969786497 0.025401881435179189)
(0.304134432169563762 -0.313676929377229241 -0.0819162212491695435)
(0.0328892413607811615 -0.413296268698280289 0.190803969464250572)
(0.0116148998923780236 -0.403734815982892015 0.156793087630253958)
(0.0218140943092775021 -0.416478425836832811 0.158881752325986697)
(-0.00263655952390254343 -0.390935810045916432 0.193119029368431477)
(0.0829869036996557924 -0.430910306903211693 0.212346718744313545)
(0.0454325878142477074 -0.417470448061919353 0.185314765396156045)
(0.0644281565639972104 -0.431593344783119948 0.181989363310621322)
(0.0368456092113962561 -0.402820137383515409 0.227816438469039984)
(0.152156833984695927 -0.437041550831460401 0.21206340639321114)
(0.0929251456368478806 -0.441890095168354646 0.203456511564231973)
(0.123419000068327997 -0.453308384788310037 0.192848536955374183)
(0.096537047889652422 -0.421282030870365143 0.245490103137399607)
(0.267023827125239588 -0.438186166390927001 0.15470432269845355)
(0.144744260720208129 -0.459812557744466166 0.196039623343909369)
(0.186494528969588153 -0.455717854669181133 0.180633339780430252)
(0.177400447551232909 -0.412974283619673199 0.224519230333060288)
(0.299571293333293964 -0.456713898330502965 0.106978445557961085)
(0.366936866115157634 -0.455592021374050082 0.0773217537948204109)
(0.335352281351648018 -0.448752956336391007 0.122973779559537547)
(0.35742334057252495 -0.447957303022298692 0.0170403411450319939)
(0.0235315684566890955 -0.407554024868733045 0.151303883562159541)
(0.00855004380938582248 -0.395496048995856719 0.123071006103200015)
(0.0248369497066823 -0.408716212607186047 0.126005362895056094)
(-0.00163258292425632213 -0.387366926081568863 0.149386616158551838)
(0.0520428641325182406 -0.43046279563913864 0.176424558216074306)
(0.0285979535345359734 -0.408762607542664025 0.14861507303363003)
(0.0481238203418457855 -0.423937421822198346 0.149682703191525796)
(0.0231276858791359362 -0.400257813830625531 0.180826980717558733)
(0.0908764301768607147 -0.465097894083162378 0.18743272851493023)
(0.0531733311838800266 -0.437858197793538018 0.169993517224940521)
(0.0821217605971915343 -0.455715428533624567 0.16809643159635157)
(0.0570831691171629213 -0.429385531874638793 0.205300199080183071)
(0.155592561832096743 -0.480260756881924267 0.148313746203417085)
(0.0719752839552281615 -0.480017718736927668 0.172651509796095975)
(0.10605849105177155 -0.493374425587247034 0.162758872534458227)
(0.0881668935247102159 -0.466875249339864185 0.206814852209900923)
(0.16057864647447323 -0.478431707688363739 0.112039182002964505)
(0.237072141374065626 -0.479730848109067354 0.0832314234333864228)
(0.206862735276501841 -0.478206314365166141 0.124042398778131169)
(0.217794788986787807 -0.466755707364315042 0.0265952657251077862)
(0.0115510441896273155 -0.396396741785580597 0.120382195574670475)
(0.00286730890245788517 -0.387956451035228411 0.0975532071252432909)
(0.015312835931613103 -0.397492547935126395 0.101169476868895242)
(-0.0046478031404205214 -0.380791626231746339 0.117142896618755488)
(0.0260825867629247976 -0.416517103642267461 0.142184032042496217)
(0.0136738260606690341 -0.397241870623973203 0.117614914967501066)
(0.0290282721559286944 -0.410609860963059292 0.121005652559723259)
(0.00932407249210072397 -0.391260310774251774 0.141598411096249238)
(0.042174788537616581 -0.449648801059332914 0.155212298506106239)
(0.0232576512635216011 -0.419671978346127794 0.137479985912182856)
(0.042425843150223512 -0.439729540886131254 0.139110449908189382)
(0.0234197096134073461 -0.416896451486534203 0.165529343476752938)
(0.0555958060283357897 -0.475364659234711884 0.136376945595643506)
(0.0285117930119786304 -0.451556858139496364 0.148158762866803601)
(0.0504793003378946753 -0.477870873186880318 0.142701987418505372)
(0.0356657169574115945 -0.454322344596930994 0.17359552338541856)
(0.0500350447203537704 -0.471087176488266812 0.122772350541041131)
(0.0870095797232714463 -0.485822346097198654 0.105373013560903922)
(0.0744557959996288571 -0.479121241878221915 0.126570793372270812)
(0.0739433738717971134 -0.476840978903740442 0.0356085036497639645)
(0.00256811601665908173 -0.387289044016051798 0.094785926518073646)
(-0.0019814032530076635 -0.381611629045341239 0.0757389408184492574)
(0.00649917974571703402 -0.39057279052865812 0.0807445918755722164)
(-0.00810889822554758215 -0.376346968402216486 0.0908717392502425142)
(0.00895228635392743451 -0.398131593233051806 0.112910868837187706)
(0.00298478328122803171 -0.385609931215722679 0.0910375525574976807)
(0.0141383061335917173 -0.397864135978196642 0.0964681000961394169)
(-0.0016152066299334987 -0.380518217011093729 0.109887689067673336)
(0.0114198809505797957 -0.420160658006278609 0.130426450272880301)
(0.00639944845214008694 -0.396601665341556164 0.107543573884032947)
(0.019558475414637691 -0.415025602372694813 0.113278691299822834)
(0.00355326324335477305 -0.394604990043401882 0.130834707466327221)
(0.00946089551615494385 -0.452082333154172011 0.134554167812201142)
(0.00497287342550470097 -0.416753694412012266 0.122385555749647629)
(0.0203254311053089366 -0.444445435505384456 0.127662451196823262)
(0.00524956474217302006 -0.421080130975813038 0.149112859697816791)
(0.00125502466290409315 -0.445924002707434874 0.118768222830855572)
(0.0226292478466455296 -0.476533674508765825 0.120511281477913568)
(0.0100649918896806249 -0.458614536038973453 0.142045736693697994)
(0.0148203205724291905 -0.518664108351167386 0.0787886961046229545)
(-0.00851621510090236518 -0.378987817059580567 0.0478169629667183002)
(-0.00862676200794251086 -0.379025390420174246 0.0366331255968181252)
(-0.0141776904921290005 -0.375493840894914221 0.0441597912422270339)
(-0.00610320743511367104 -0.377678956248525821 0.0593392064131365374)
(-0.00669559039706209107 -0.376812871021504348 0.0458189007017404254)
(-0.012371353835562756 -0.372342924566518185 0.0556248189991239567)
(-0.00328388212613157883 -0.377964356623446684 0.071990566857873306)
(-0.00445413644714010796 -0.375324759197826041 0.0561459776690362081)
(0.00122567261770813694 -0.383421778518424072 0.0618066870129550874)
(-0.0100928756972047395 -0.370246268414156032 0.0684983120477822144)
(-0.00126276986315887831 -0.3812650883346273 0.0856702576043431863)
(-0.00229424925821210355 -0.375031570818708804 0.0674853618205292355)
(0.00424697715631310035 -0.385760252437774898 0.0738595904433772404)
(-0.00773404743905128055 -0.37015471122815985 0.0826993211637131742)
(-0.00302070165298889666 -0.390206561715863431 0.099502679360800303)
(-0.00121740924959874773 -0.376738655329046046 0.0796860592498000453)
(0.00570711846239559464 -0.392071313057985649 0.0866656146864755589)
(-0.00640914344607101255 -0.373798986880460538 0.0983398172612059418)
(-0.0113464249037860936 -0.40458371459281256 0.106599610768302142)
(-0.00398432084374457547 -0.382896715979963831 0.0916217989166698832)
(0.000883889198076030953 -0.405997326548461268 0.0985698313685945127)
(-0.0094034465375935003 -0.384308750880533234 0.113738227262694017)
(-0.0138372014921145561 -0.393908270529579496 0.0967980113919846008)
(-0.0134216875741263071 -0.422853254601641471 0.0982472968867211666)
(-0.0190538057116203252 -0.399933334420805253 0.116662533874997573)
(-0.0296357214200062592 -0.421406381694751531 0.0867851056724305292)
(-0.00750910677294453106 -0.375374357127371661 0.0346350633318403198)
(-0.00670856504344962117 -0.377083351145523105 0.0248696682498068464)
(-0.0112136199898292196 -0.372572806841045656 0.0319452907797676058)
(-0.00605642604950482923 -0.372641808562964028 0.0426256719576401794)
(-0.00572999978180830163 -0.374067436978996082 0.0308379154584117569)
(-0.0102554709233287616 -0.368627901293365978 0.0397672776294579824)
(-0.00459357763848085559 -0.370283526857776601 0.0516407726316921722)
(-0.00450759413942603427 -0.371093178285703429 0.037706345261572724)
(-0.00115295014301379246 -0.377066363393763704 0.0446529054798415689)
(-0.00913396344614094899 -0.364819276903283696 0.0487714173116603547)
(-0.00362669223420957355 -0.368382430646872594 0.0615011634659860806)
(-0.00321035572512758582 -0.3682133408029023 0.0455004980706223972)
(0.00063893149759017883 -0.375980347014546967 0.0535207712411554931)
(-0.00819173937837579767 -0.361460465346715387 0.0589285253053318248)
(-0.00432848030143354913 -0.367188699223324644 0.0718051788056696672)
(-0.00213774793121508265 -0.365270542577110779 0.0541292585811444307)
(0.0013894818772358826 -0.375192159528235925 0.0629371641759031292)
(-0.00793754336391789238 -0.358593167319210038 0.069960538260573954)
(-0.00981916123865213611 -0.369318623453772532 0.0818201995403523147)
(-0.00182007230138135591 -0.361870080063170341 0.0634139874289847277)
(-0.000813075086254829577 -0.37519171391544337 0.0723641224273560146)
(-0.00939325328433055461 -0.356815795306472228 0.0814990606160582581)
(-0.00395050244897602459 -0.359142232740843337 0.0729915230475027821)
(-0.0104219352400047854 -0.380477891883344188 0.080664979899652281)
(-0.0155363670091598106 -0.360611459695429404 0.0929300734614216389)
(-0.0220892921110894709 -0.380438763580086714 0.0852633360207208368)
(-0.00539842422934330973 -0.371296084095684098 0.0210725203763783495)
(-0.0037515084036564548 -0.375435161532902906 0.0124691995155504897)
(-0.00734859605822303381 -0.368663921187251498 0.0194870976511839662)
(-0.00480644572461537325 -0.368073445883806694 0.0259185887623443675)
(-0.00351800957616523824 -0.372221377713949308 0.0154306390515233215)
(-0.0071971831714572141 -0.364460409230065008 0.0241391430494315544)
(-0.00389720076074876257 -0.364806940277636382 0.0315660707005029698)
(-0.00305803971281248203 -0.368911144888263209 0.0189065533519213493)
(-0.00180856543211219568 -0.372229497193559633 0.0273441516925073749)
(-0.00675267022041725271 -0.360044133162781055 0.0296084762862936952)
(-0.00264938229993280216 -0.361506471174105559 0.0381285931857807681)
(-0.00231385261152589365 -0.365523383767904997 0.0229781587585625585)
(-0.000295082922370152104 -0.37005460550916397 0.0330962159575588846)
(-0.00601848006804665218 -0.355460724985587395 0.0359989524033260816)
(-0.000868424658553952383 -0.357836261899406316 0.0457380672044595815)
(-0.00116144956863083182 -0.36206301972809285 0.0277626904614401045)
(0.00169479916020149951 -0.367878049895873194 0.0397394977943611311)
(-0.00497836060268438789 -0.350726081087308184 0.0434615108497756961)
(0.00186840916326450599 -0.35296757178654431 0.0545853109361352229)
(0.000890178964602472375 -0.358376352507615681 0.0334747294785591523)
(0.00471021638675095215 -0.364883261497206735 0.0474039139264404857)
(-0.00333080653290881296 -0.345364398593941857 0.052165067619817436)
(0.00446982335730482152 -0.3541858981715576 0.0405727230893009466)
(0.00882000693243491576 -0.359794128817795267 0.0564501119163959286)
(-0.000789838232252905448 -0.338669210756478767 0.0622836165179804294)
(0.00471639912609484856 -0.347415384962835583 0.0650656459601818143)
(-0.00211663121171618918 -0.3751849086030139 0.00682731819069545397)
(-0.00266082197711297588 -0.37292264423954935 0.00630419622694585163)
(-0.00209500589278569828 -0.371720190952513574 0.00841860364110027029)
(-0.0027917037596952906 -0.368553696068912473 0.00781462318163381534)
(-0.00191619997340598445 -0.368188973550912346 0.0103186414099810091)
(-0.00117511616470961436 -0.375476210909866659 0.0089376901728031987)
(-0.00282354810977228279 -0.363915655122595827 0.00961805267649208824)
(-0.00144829355925039124 -0.364689449195582771 0.0126122560342220302)
(-0.0006831939715716233 -0.373083427921324318 0.0109238701100803186)
(-0.00267028958012453235 -0.359045048259655497 0.0117761587638140833)
(-0.000408260549445600912 -0.361508439364369383 0.0154993527355396527)
(0.000315129506852667135 -0.370977428507510143 0.0133469433406283935)
(-0.00216833536831454593 -0.354043935716613301 0.014400200682612203)
(0.00192329122367931806 -0.359408494246172938 0.0194621416317248969)
(0.00240406122309285136 -0.369666417924788049 0.0165440958945957568)
(-0.000840455261178324237 -0.349267772099720819 0.0177389178821279574)
(0.00689520083018163414 -0.370381979211670986 0.0211612206692542888)
(0.00200928237601278106 -0.345655310271133887 0.0224584104461496015)
(0.00747141167457604678 -0.360146198116422789 0.0253932743637111415)
(0.47969213469161287 0.936159624555176095 -0.444319532905596171)
(0.478513894206300194 0.506892552084888259 -0.23164285292774961)
(0.529524812350793739 0.658811793427287018 -0.31362162399706589)
(0.40112602319365015 1.12582372846338186 -0.530849506230192891)
(0.359321228822415961 1.27387849266767961 -0.521759502417891152)
(0.357438762061410231 1.34063128453827396 -0.523382572812708391)
(0.415345434888194254 0.804141269547602677 -0.318172826252346108)
(0.216185763974934692 0.397136535585834005 -0.174477492966573444)
(0.424284817416938631 0.431601936320412771 -0.144793997131163893)
(0.426897841173054404 1.00547420732514481 -0.453862382209090476)
(0.410487572139962509 1.19695837102143976 -0.45666764494604406)
(0.401610222300792963 1.27160183608639166 -0.534058137142582434)
(0.0184751451874759672 -0.398440150548858008 -0.229747469802939447)
(0.0977877500900786178 -0.468506661639598587 0.0304778735678768592)
(0.11824232404483806 -0.544574920749052893 0.041752904225182616)
(-0.185978830923656246 -0.123814525212522147 -0.372117866211436832)
(-0.280156728486890105 -0.363442371545390774 -0.334465382933359145)
(-0.283781981115168391 -0.340107792609887216 -0.256828979359628062)
(-0.0641184200561902007 0.215166888707283482 -0.266911501930491846)
(-0.226826008116654848 0.00806120343857444355 -0.462007216298144563)
(-0.213981942872184 0.0188886662415444009 -0.309616409939692916)
(0.0728694819639700841 0.674599746290351243 -0.31016704892331709)
(-0.321056780906580352 0.00403073200387657482 -0.439420350923674818)
(0.016789114364340104 0.261838779849876802 -0.0899370604664966322)
(0.354797551842803593 0.418463766644487534 -0.35656118643268031)
(0.4322145514652595 0.994133506808340117 -0.36462130198939724)
(0.435034429737530259 1.13932655632350333 -0.481532684660752608)
(-0.20538519295632518 -0.509285450391606553 -0.074240039562545726)
(-0.213408714472039518 -0.441608280484215132 0.167927848826714854)
(-0.183368701809538071 -0.478087651666958102 0.0865960813517350075)
(-0.187656590090896247 -0.351348841305935411 -0.424354733020068486)
(-0.214678730388872752 -0.510955975180839017 -0.0558014823966230186)
(-0.213046660349860306 -0.558834492334674193 -0.2344671246875287)
(-0.225679472455414393 -0.181483642665916489 -0.634516065291328868)
(-0.123730428846861182 -0.429354741909377391 -0.320656646410663937)
(-0.152646581479923077 -0.283395462667971776 -0.450830151958655612)
(-0.374466158585643805 -0.056092370755161769 -0.485814488433039648)
(-0.315183709895923092 -0.426691046472683688 -0.541805277555665432)
(-0.541955449944518053 -0.127794293154432692 -0.452955044902326076)
(0.164071744817555071 -0.517788341351535619 -0.261277278252468659)
(0.318532132383016642 0.286752006294778261 -0.285503591732167106)
(0.35462463682183365 0.63405728852309573 -0.404242273971943955)
(-0.223850207898876108 -0.365902856780906338 0.186366405992636014)
(-0.205322364921274925 -0.394286844431807504 0.265348644336696526)
(-0.266546388346610263 -0.429442211478164693 0.197955681806066236)
(-0.171335607845886084 -0.457460311631148753 0.04789660421278151)
(-0.118114216904879457 -0.325329367395631064 0.183847085164411117)
(-0.208431529344557553 -0.410777238836524006 0.0406055753007879966)
(-0.0278117980815643928 -0.617009910999897104 -0.22794585867499903)
(0.0127741949662973434 -0.403193034519156834 0.0273555561655458995)
(-0.0889460083976413296 -0.486263072507240879 -0.131984363630486295)
(0.130905022550125788 -0.891229822396018556 -0.317268067375094609)
(0.143024108647271997 -0.548165145011133448 -0.276170718185454023)
(-0.00449278777039047606 -0.439861913922314773 -0.436014993650953475)
(-0.153689923981297827 -0.732334723703701451 -0.282068117768935256)
(0.0304234844543884268 -0.912150639058743606 -0.195457538170808826)
(0.212717570525129823 -0.134446778418522983 -0.329702266816689016)
(-0.0980383604676224318 -0.379684363709545947 0.262829323508471768)
(-0.111406042187478044 -0.432411478633497437 0.266073608186825294)
(-0.164302738450267466 -0.442135741525222836 0.238889815257562782)
(0.0458600980158722082 -0.33749141590165338 0.163306037117176339)
(0.0141318784461177196 -0.403785113205745338 0.229907723652443968)
(-0.036023728563390596 -0.374987873605619138 0.176578031133759694)
(0.141829248390856366 -0.408219780224500617 -0.0208693033449083576)
(0.112791000355544971 -0.399001494418864455 0.13871960972442865)
(0.0636590675015851204 -0.390884823873784482 0.0296249836154934623)
(0.110580023283998796 -0.503610694593876973 -0.240970768579294448)
(0.297257246117525742 -0.362848474547087463 -0.0167797924348675603)
(0.251312770599117052 -0.459069616188999663 -0.16956896453851425)
(0.032654746364544851 -0.323815234616377734 -0.227574647134472591)
(-0.404100732751571656 -0.477749181564978087 -0.346094821287717347)
(-0.100086775445300036 -0.108742991191124946 -0.362781884024348245)
(-0.0118168098258671014 -0.449855679038193346 0.233152008330797633)
(-0.0336386593674965415 -0.436353093130480263 0.207246436575707516)
(-0.0498187503978996873 -0.455536986024375812 0.182889892546685001)
(0.102859097745580413 -0.440113984706009265 0.205321296259696362)
(0.0593271925612231729 -0.443772657772612322 0.209577073573442657)
(0.0517523599447768101 -0.457659015306730699 0.18610699423192037)
(0.225080858918640686 -0.396354065326020244 0.14280912063446935)
(0.140569005832286209 -0.445307343146774726 0.183322968754960819)
(0.143452670551112521 -0.441437438420888728 0.140934522483507463)
(0.35514823910190424 -0.331492610327545956 -0.00338367099004648064)
(0.300048505633131402 -0.401590069342921019 0.122674556766565468)
(0.343880745602552107 -0.399698583675996366 0.0463899125662505726)
(0.398571116529003955 -0.364741074393967635 -0.0654094103720350845)
(0.479676567160530531 -0.293656711736186016 -0.16766137842861531)
(0.524391327859258793 -0.557216504928439327 -0.150575034405220354)
(0.027353420421798301 -0.443094899606099435 0.183671501818352678)
(0.0122112230985253895 -0.426932542546358595 0.156304087960855514)
(0.012510782377174021 -0.443931295435058826 0.129066012820448661)
(0.10740133776373248 -0.454696667761234075 0.187578746068707253)
(0.0707713530189317541 -0.444237640659031652 0.175535062689753302)
(0.0745408172090830379 -0.458752783625427485 0.155327297078040327)
(0.194076330061951408 -0.438816504788603234 0.163188404887057131)
(0.135707562923043645 -0.457748059593918788 0.175773244405596218)
(0.144403723131007494 -0.469307404746649504 0.15034680763875119)
(0.303083767179571972 -0.412102648942005267 0.0606488173845776621)
(0.224395693320706802 -0.438876144789878686 0.147480964958760563)
(0.256525492711252689 -0.447142237042845947 0.104339800535875563)
(0.3737957094603791 -0.430696708011397311 0.0141439974137683167)
(0.362448600189425485 -0.399710037945825269 -0.0782714599287452767)
(0.440807802798909798 -0.388536356533482896 -0.0869535360151091757)
(0.0535161783980737521 -0.434775501921672525 0.148167648832256305)
(0.0350361441235818236 -0.422998628457303016 0.125029822061991369)
(0.0449968285468779899 -0.432550865780978566 0.112254381761089997)
(0.101839073612843167 -0.453991422668218236 0.163729561026642184)
(0.0671193890915952607 -0.438734444730661144 0.146897786928982643)
(0.082581869228807725 -0.447762583894305954 0.135366342654087701)
(0.161561938985995607 -0.471984688626030713 0.160065804477299622)
(0.112615615028671651 -0.463862342185166088 0.159148774100351581)
(0.138114964629297399 -0.470349151924796594 0.143841509581667942)
(0.265516255323976325 -0.47312370965230427 0.100976144987952043)
(0.147808759301151421 -0.490742545057833546 0.146711831987377112)
(0.180866260665841633 -0.487775868760291831 0.122812065932690423)
(0.30443771415592974 -0.475060422490639567 0.0583318980805015222)
(0.351477533444105483 -0.470818039423278323 0.028164448356262993)
(0.354100019147570333 -0.452829943809534841 -0.0242120950540998942)
(0.0484235292018767582 -0.425099609560651293 0.123759960158717791)