/*--------------------------------*- C++ -*----------------------------------*\
| =========                 |                                                 |
| \\      /  F ield         | OpenFOAM: The Open Source CFD Toolbox           |
|  \\    /   O peration     | Version:  2206                                  |
|   \\  /    A nd           | Website:  www.openfoam.com                      |
|    \\/     M anipulation  |                                                 |
\*---------------------------------------------------------------------------*/
FoamFile
{
    version     2.0;
    format      ascii;
    arch        "LSB;label=32;scalar=64";
    class       volScalarField;
    location    "0.0599999999999999978";
    object      alpha.water;
}
// * * * * * * * * * * * * * * * * * * * * * * * * * * * * * * * * * * * * * //

dimensions      [0 0 0 0 0 0 0];

internalField   nonuniform List<scalar> 
7248
(
0.00137410017791710082
0.00258347634040708525
0.00108515358203136163
0.00141922526030552202
0.108645093511281682
0.00540901555599474036
0.00128127110211783074
0.00108863739316444191
0.00133250996700076132
0.12285524430597794
0.0131659248346079633
0.00359935750434675107
0.00232685261839871279
0.000910540019262648164
0.0838171206375517702
0.000301024434729930165
0.000334988605052031357
0.000781024904408244105
0.00138746749119526987
0.000141295298674985672
8.12809271311255692e-05
0.000350440943899175657
0.000693600966380800415
0.00144024025289411555
1.12998410355061578e-05
6.45268015612477778e-07
2.26328182680692553e-05
5.58719935437563891e-05
0.000317051641777148403
-4.71483979253063817e-07
1.91041317587734095e-07
5.40833736434268748e-06
1.82011385997738705e-05
1.00384601139860651e-05
8.1974102257853809e-09
3.13657025319700912e-08
1.36524753898847489e-06
3.51850995380976378e-06
1.03794716810266214e-06
1.73955767246042009e-10
7.6641915673516683e-10
1.0206579746890181e-07
1.78981151863241715e-07
6.30060668768465777e-08
-1.09299593383254932e-12
-5.6560196865874984e-12
1.33376552876219574e-09
4.73077374271330823e-09
2.03445312827438484e-09
-2.69607429842857628e-14
-1.806918877804332e-12
2.27843692143521036e-11
1.52116721783447445e-10
3.26739041825249957e-11
-5.40209216711083969e-18
-1.9455207165793811e-17
-5.3643131221411117e-16
-6.67269832841728159e-15
-1.44149689877655406e-16
8.67324598947060486e-13
8.22399034171977806e-12
-3.69608037219240846e-21
-2.71575888699652684e-20
-1.10455651737647868e-18
-1.50544830706852656e-18
3.95399280833650475e-17
2.81753647988408899e-15
9.00019808557765979e-14
-3.42309517102928708e-25
-2.00907595193771598e-23
-2.56967722191094412e-23
-4.79738775925779888e-22
1.40871298284167599e-22
5.80398700931671719e-19
2.66051531709812403e-16
-2.62717529362260804e-31
-7.20335102120721325e-31
-1.0739637996994133e-28
-5.28138964059323755e-30
-3.07144150222526882e-27
1.42563393513504201e-25
4.55159012672710904e-20
0.00165984795855284679
0.0053272758838989135
0.00108659087325081163
0.00262386971225524353
0.0876671401067321276
0.0011966192823725753
0.00102241249107826995
0.00106453687412174139
0.00107978550491691014
0.112212995313522385
0.00606262547805678891
0.0017667038670855003
0.00129357740308865812
0.000886196307911635978
0.13676923681499914
0.00114903940277366915
0.000710104969829678618
0.000830356966432463329
0.000784779766937357469
0.000211399918886137563
0.000511603386169849476
0.00104283061782350049
0.000543098495861349699
0.000617524451101896335
1.25607786497413656e-05
1.29171989348927121e-05
7.5838526216043004e-05
0.000109078964348752235
0.000206436268259404382
2.68986803532686202e-06
4.75139471823398316e-06
2.48672327820148013e-06
4.89109427409395781e-06
6.27593462500111136e-06
1.57061864851356591e-07
1.56590098384135066e-07
6.52421577119978317e-07
4.60628618512138175e-07
5.64914015370949927e-07
1.12612936691824501e-10
1.19612706990794082e-08
4.27603146064544951e-08
1.44916841449360129e-08
3.10036961996058617e-08
6.2401777479058813e-13
-4.0318236272330966e-12
6.93104664673585859e-10
1.82877464408133693e-09
9.22558442196195076e-10
-2.0454917912248806e-14
-2.22567009177171123e-13
1.45319492444699887e-11
9.10478895427711037e-11
1.36797289439541629e-11
-1.83982745170673984e-16
-2.39070509226293472e-16
4.20378685941888166e-16
4.0839637578644599e-13
3.42207786868065221e-12
-1.03752012347898073e-19
9.66940158089840202e-20
1.99102886468846846e-17
1.25523149907700948e-15
3.66950598918556741e-14
-3.62799872940872678e-25
9.74293399957428982e-25
9.51787244242142238e-23
2.6232177209073936e-19
9.54765838385518791e-17
-1.04943394223887817e-31
-3.59089627723823027e-31
-2.55425893360341133e-29
6.69166982877714859e-26
1.60529115994768188e-20
0.00167708737526781775
0.00500538058163989621
0.00112191953115494932
0.00248013998793105133
0.0678173490380078736
0.00135230290935279803
0.000972108132754626693
0.000995526967036741532
0.00106442335144720434
0.15147360982686342
0.00129961169055204002
0.000766432713712732953
0.000866518915550710698
0.000885247731383208259
0.116916250284817447
0.000658133253551952311
0.000398494497333978738
0.000777932503059411678
0.000936713573847207425
0.000691590583921539875
0.0053479802249654252
0.000146067444173016533
0.000158523562308177682
0.000679231839345190332
0.000561706748983447344
0.00118082179899225699
3.45442158062503316e-05
2.99318071599127488e-05
0.000146812929652351672
1.58940509551652825e-05
5.81584118166991546e-06
9.88720477159553575e-06
3.21698022343580545e-06
4.13967128519771556e-06
1.83409343074792554e-09
2.6535918808382573e-08
9.86572700935059073e-08
1.93435428215650196e-07
3.07438701203356151e-07
1.75338840265811609e-11
-5.49587578506557804e-10
1.17249809987914607e-09
5.37437577318780538e-09
4.5506853608187948e-09
-1.57162955210769415e-12
1.16052190954945754e-14
7.23467348562046509e-11
7.55199652957042818e-10
3.27340784631950857e-10
1.54708214290959574e-12
-3.54671182134177358e-14
9.23185634483602667e-12
4.55554562715245915e-11
6.26965243834514013e-12
1.92713558147491036e-15
-2.13717333222283423e-16
5.52854852533780714e-16
3.10920655288743505e-13
1.69449514188132319e-12
4.76107434257864068e-22
1.59419013799931565e-20
9.23921599639343811e-18
6.83287816734472323e-16
1.7331303641984647e-14
-6.18921940772216683e-25
3.20624205592730154e-25
1.70600676018266152e-23
1.35141816086031997e-19
4.26658414702478772e-17
-5.36275679481944783e-33
-2.05413857163324204e-29
-4.31320507431262337e-26
2.79509241061817637e-26
6.81606366825299179e-21
0.00161976097133502417
0.00554682545023056986
0.000990437587585531274
0.00193918368688776295
0.0970158493857893878
0.00091820647769429544
0.000864306324041658105
0.000756160801193649697
0.000942635215388245478
0.0786266856369162992
0.00128418140992728018
0.000634999892666186219
0.000500455443276553503
0.000751077879379800917
0.146712083824098866
0.00147244528957623838
0.00130335840326686577
0.000406759662852307846
0.000400075818486075093
0.000838086761248560321
0.00336701304540144072
0.00182159535736551204
0.000191477992441409255
0.000115971294584974678
0.0025340161006658854
0.00412596168846561095
0.00172063916879425152
2.63585060253540253e-05
2.11523798144715237e-05
0.000353058452258937067
0.000233369917307237257
4.46657542992943407e-07
1.60527719492210799e-06
3.10928861115912012e-06
1.04382665615061587e-09
3.93381966627044605e-09
8.80552740918060247e-09
4.24622924786428937e-08
1.37422426609446143e-07
1.05132559099057606e-10
1.35890829776950809e-10
3.28976690459732276e-10
2.74179359387410425e-08
5.65111051464179177e-09
1.00442151933824746e-11
9.18954905153732487e-13
3.4851322905614384e-10
1.15013658490302911e-09
1.51723410788677279e-10
4.73253751672201075e-12
-7.54282856753359226e-15
2.29306656339224887e-12
1.59328071613723927e-11
2.38985339427616896e-12
1.94487682630543694e-15
-2.62494594809998193e-14
-5.06733567589888109e-31
1.52624439109700613e-13
6.93463064731888295e-13
3.16859491382268778e-21
4.897971797003565e-19
3.45087150395967991e-18
2.30748714770138591e-16
6.41895517215398289e-15
-9.10763164272164821e-26
-3.66608174100934036e-24
-3.07592701130988993e-23
5.70853282032487465e-20
1.38079630464456006e-17
-4.68704136262345642e-29
-3.36203412803759693e-28
-5.71968529896942965e-28
-3.19140366884460636e-25
2.2119477462653445e-21
0.00179305727680661672
0.00589474386692086759
0.000794827736372879568
0.00203961288721141035
0.0974840879428073848
0.000923807744037996592
0.000637805744390497996
0.000508148866219232343
0.000788304160619854419
0.108412826196668505
0.000613826308101928777
0.000508254476436543513
0.000453280349906340363
0.00037846863458609344
0.0793189704224303016
0.00114742444265022656
0.000410391580168863602
0.00032495901209053619
0.000181316436899868168
0.000208433420609657077
0.00225786955345066206
0.00307289075250674051
0.000199622555079651833
6.59187334748876394e-05
0.000103339505596361755
6.44798793765067701e-05
0.000323621628997450761
0.000291688479878782344
5.92140922325362185e-06
0.000141509494338566124
7.16063383901180947e-06
3.79254757724496384e-06
2.93644250937195112e-06
6.39447020742522384e-07
7.04180299646987663e-06
4.20061906127467443e-07
1.07288157368488109e-06
4.72732555352144977e-08
2.41424590449323048e-08
9.86377631103453198e-10
2.0017926621838224e-08
1.82723795717575656e-10
3.26869812326524707e-09
1.07879018215810132e-09
9.74551178528417301e-11
1.56590142968507849e-10
2.62875477692504438e-12
9.5079203436764154e-11
5.85929198523889544e-11
-1.90769657991919189e-12
-4.87765276127535537e-12
6.68031785572278201e-15
2.50966272231724849e-12
4.91905092721035489e-12
-2.11237597054317265e-13
-1.37123001503313118e-12
-5.67138665765897966e-18
2.84552823764647924e-14
2.1458772777681545e-13
1.71950814945371851e-19
1.21315630546199575e-20
1.28045220132485822e-18
4.49350749090567457e-17
2.11111745780185244e-15
1.88251210936117239e-23
1.7466265082186788e-22
-6.1430027579724589e-23
2.28588622662620314e-20
4.78363055159851845e-18
-1.13106552632181716e-33
-4.20334465931552496e-30
-7.19721732607538316e-26
-2.23615615017307001e-25
1.11767381592512677e-21
0.00188254277157544033
0.00567642055675005464
0.00105732901474966099
0.00210612817954929695
0.0574241942115806883
0.00158870538092580104
0.000804998642289725332
0.000558429818948854629
0.000409417487052301404
0.0640094043453128952
0.000429646031481010506
0.000486768902577115205
0.000324983703385824671
0.000190419709939345099
0.127322089140213618
-0.000104150797281870445
0.000202063085229298465
0.000180378615749768258
8.34233157464269874e-05
0.00169239681482069105
8.84972443648311756e-05
6.92056474299305346e-05
0.000332528418870166591
2.13344139179212896e-05
4.87300887805709374e-05
7.16610211039613558e-05
2.40194232674904217e-05
8.46730378096838038e-05
3.69735640743454389e-06
4.14951070946411538e-05
6.07346195769365764e-06
8.07678659548821124e-07
1.60983282101025272e-08
-2.40607975650327887e-15
1.08702937933483793e-05
1.36741491351649726e-07
9.89870964047329195e-07
1.80253317867279644e-09
2.32453088672787292e-09
1.65344620217069723e-09
1.29767819950270547e-07
2.31318707469682235e-07
7.26306133379548988e-11
3.45727026206134217e-10
3.41373657012378549e-08
5.03730919848087023e-08
8.63661775229691761e-10
1.15180137716526948e-11
5.03528014017673886e-11
8.99079240147097453e-09
1.41161013483842355e-08
1.98596802856753525e-15
3.0227918514922988e-13
3.39535141769677722e-12
-5.52797355463420926e-13
-2.72726087097650094e-12
-6.15204908664552451e-20
6.2915843470712028e-15
6.92798649286875941e-14
1.50958920020614555e-19
8.33193541909903698e-21
5.90594593400628654e-19
1.59570959583966268e-17
5.73783742625401909e-16
1.03236381010768586e-23
9.23509795712186472e-23
-2.03307599206961439e-23
1.26910530975117982e-20
1.8235391320879325e-18
-3.66707713849800599e-33
-1.56004128349363471e-29
-1.9426717956468413e-26
-2.42442687728926563e-25
6.05751566339092174e-22
0.00234380969491183085
0.0053648055269250091
0.00172407523151582674
0.00113448199550510338
0.157294404066915722
0.00326736897905653646
0.00163857890237801727
0.000742737127591366442
0.000314893188034825946
0.178064329062950027
0.0023710261821361352
0.000457717417196158922
0.000566828399140268811
0.000101464013288467917
0.0645636876403757887
-0.000246829021211306804
2.6306037715317589e-05
4.5756354990873584e-05
2.62891627578703443e-05
0.00346110298988686624
0.000109144272469883092
2.07457038198145448e-05
2.70483366094221282e-05
4.09604205435157631e-05
0.000164335117608895053
4.27657152370081032e-05
9.28556153693129886e-07
5.73194974810696243e-07
6.34963334113068033e-08
4.52892623211057345e-05
9.54907262525183786e-05
1.56370204470173291e-05
1.37017892067473396e-07
-2.05224830065122942e-07
8.85851445310350212e-06
2.33710631934274945e-05
4.14591828991310251e-06
7.68962253142212165e-09
-1.77769625449536837e-13
1.48627149149393762e-06
1.09979723434243336e-06
1.51716984747314525e-06
7.87925698228940612e-10
1.28768123921703802e-10
1.30681193913878691e-06
6.77278528278420889e-07
3.17209202702549675e-12
9.46235112997210007e-12
2.5557866092172218e-11
6.39154054251315143e-08
7.97356387919353372e-08
4.82517450368488629e-15
4.4395808678176175e-14
1.4097438688740238e-11
-9.93338858755578759e-15
-2.33905936729867921e-14
-2.91279794514266836e-20
3.26922084259611259e-14
2.82138599954048609e-13
2.15714192525242909e-19
4.13451756909618348e-20
1.27247707465825216e-18
7.07786318674872468e-17
1.54527453210341786e-15
1.15440703264814158e-23
1.01524329837097923e-22
-1.70850668425904703e-24
3.33942284264414428e-20
3.68755043306047971e-18
-5.5831255725655451e-33
-3.41441698835733524e-30
-1.81252899716057539e-26
-9.78612281622070975e-26
1.30315933560444802e-21
0.002470127960186952
0.00201078654466285787
0.00198995009571510976
0.00119165789858806251
0.28588924317756359
0.0101540718245500469
0.00298323878321759151
0.00115088776228178691
0.00040547781610623002
0.249936937360593442
0.00915197006446686126
0.00254787387710879616
0.000436001343555903007
1.99964257635803396e-05
0.0785883308826301891
-0.0012232661770665888
-0.00084525768141149372
-0.000161214315839923624
1.35342597354958517e-05
0.000592688452432516325
2.30665372638556501e-05
-2.05255513650502766e-06
9.63585643137415432e-06
1.12222598917181234e-05
0.000403035793339789634
0.000132819524626125586
2.05763220351644407e-06
6.14559273799669487e-07
2.35818993109825078e-07
0.00027344012101817119
0.000185238360802036093
3.14300838267460636e-05
2.71120427689844618e-07
3.56141892926175781e-08
8.24146030853389796e-05
8.34107986535102851e-05
1.04500386042858259e-05
4.48441038750797369e-07
5.95384906106635536e-09
5.94121080514847481e-06
1.40865744693189049e-05
7.64469803064186981e-07
3.48239574499201094e-08
2.66974452835842869e-09
7.15991997384667399e-07
4.95579136158412827e-07
2.14351445940011062e-10
4.23915390895043721e-11
8.88459247087806501e-11
-3.46582932349908643e-25
-3.97037606029512442e-25
1.68793730536625651e-14
1.58695274847866692e-13
5.49017953343693333e-12
-1.04083008361032945e-13
-9.03544089590644262e-14
-2.42965433711146013e-21
1.87952554670088497e-13
9.09406926953841099e-13
9.80961500936014929e-21
7.25254228809336598e-19
6.24403437979368896e-18
1.57352037734499939e-15
1.31366579225884549e-14
1.89822125300365707e-23
1.32674628819354114e-25
-6.73504020781349105e-22
1.20341509990830658e-18
4.01363903471384204e-17
-1.93917079725767233e-33
-5.02213170018315729e-28
-4.89104103055755779e-25
7.59910130394581135e-24
1.56583357858711753e-20
9.59368178980643641e-05
0.000122678112661974862
0.000210414868806853441
0.000134626510545130283
0.11880709164139619
0.00268921313826977256
0.000685742097398701011
0.000151810292594725817
0.000135404816270959049
0.152565877841601166
0.00419628789602483239
0.000910021225472328532
0.000149749230640079239
0.000125490636697735028
0.0666712935011383456
4.19551084311526072e-05
1.7375597540841557e-05
0.000192677587061174018
0.000152212687590266285
0.000453696423076715982
0.000124151469482957879
-1.72991500493044277e-07
0.000101663608268595478
0.000130221038108729604
2.78151732383384233e-06
1.18963199293085018e-07
2.7128453199989021e-07
1.91262077662168544e-06
1.47673934259448166e-05
-1.45841549494372548e-07
1.33707414177004786e-09
4.34177659783733982e-07
1.17278409197492583e-06
4.04841220509400158e-07
-4.53445490588978539e-09
7.42019856221645224e-10
4.95163248939936141e-08
1.34908271523859739e-07
3.90157980979001526e-08
-7.01985618619567709e-13
1.84910733916969757e-11
3.25334371940135645e-09
7.75965924290043725e-09
6.66410464141424286e-09
4.59323882658181793e-14
-4.61691020695323023e-13
3.2966461763353763e-11
3.30940555552852147e-10
4.5534129940899331e-10
2.59713163545112959e-16
2.41490095199811099e-15
1.6795258515289186e-13
5.9261482627549388e-12
1.82224057672552692e-11
-2.19677716816310894e-20
2.48904603454313514e-20
-5.33725170897454306e-18
2.98555736026969909e-17
1.29470869835833187e-15
3.26978091278352873e-14
4.85645944286480282e-13
-5.08802930905478042e-23
-8.72051483995954367e-23
-2.61902746574762847e-20
-6.14925994132944775e-20
2.88373985603077363e-18
7.19563120270308274e-17
4.3043644161512703e-15
-8.65381301495535533e-27
-1.67171631513836727e-29
-3.90667751329940769e-24
-5.37583106349700957e-24
1.51572473009581459e-23
1.54496449690705141e-20
5.27178175084416513e-18
-1.0387641938800683e-34
-1.16692300864868157e-33
-1.41383335866201678e-28
-1.10831445295395945e-30
-9.18099521406275886e-32
7.23290222895329413e-27
1.1044856790108033e-21
7.68049307044007195e-05
4.16244208764173559e-05
0.000106041559624928751
7.56768185386905482e-05
0.108929678686153497
0.00325023023211120027
0.000593867202931799062
0.000112759209019135234
6.39929159038097245e-05
0.161339103538303691
0.00663597985076809851
0.00243584145261982205
0.000384422923837902594
0.000145645011395868833
0.142935338186696376
0.00160116939829231834
2.37073316981035866e-05
0.000468326774166789189
0.000386764785890626826
1.83335476500717951e-05
-1.68001795148999866e-05
3.54824956784678588e-05
0.00012967180016699813
0.0011044908670417965
5.27699423814319187e-06
1.95473850010976912e-06
3.84897113319562526e-05
0.000106929912827400953
0.000175473487878815843
3.52558114365294568e-07
1.618070474287113e-07
7.39704920975918437e-06
1.85456147665929039e-05
3.42111045429331456e-06
-1.19756016797169966e-10
6.40291410268021266e-09
7.10244062594737147e-07
1.70036846055691696e-06
4.05380360574565824e-07
-6.2522377627439788e-11
9.18254283654812283e-11
3.24272152084946409e-08
9.77320573488354973e-08
3.38172712517389477e-08
-1.02644932234819259e-12
-4.32630008044111359e-12
8.63182101717385211e-10
3.61371221000184259e-09
1.22164351415313102e-09
-1.20886220004841721e-14
-6.05545386629360036e-13
-2.06884605933880849e-13
1.34863829872297654e-11
2.07797232483463701e-10
-3.96459165029215368e-19
-5.72491691264347125e-18
-1.24121556630785451e-16
-7.65519223986536594e-16
-7.44913007399959579e-16
1.11972542841053907e-12
7.34022657744117292e-12
-2.21538153196944281e-21
-4.99241802099841634e-21
-3.17237585996367607e-19
-1.27044642945604308e-18
3.53224682844250413e-17
1.12592132384639517e-15
6.7130114506507574e-14
-1.90052118071638307e-26
-7.20287926604381532e-24
-1.58728342978199445e-23
-2.79907731978015538e-22
-1.97285399154808344e-22
1.88090469692842631e-19
2.04086154728083892e-16
-4.90875055475603568e-31
-1.23961415362209381e-31
-7.74204617439685305e-29
-3.59065070291369906e-30
-3.51599955024693316e-30
4.68440667063307586e-26
3.05505615450526193e-20
4.19228389061622049e-05
4.08480070017225517e-05
4.32561558447636761e-05
2.91320856885645728e-05
0.128544276334400687
0.00162868879824092571
0.000610511018194249489
0.000221585248293979669
7.4930730607594676e-05
0.157591346102214036
0.00393571793174324856
0.00125545750303614288
0.000625216266368543811
0.000242712364027553831
0.0638237860192166911
-0.000283701066349352851
4.18981165514132936e-05
0.00123400624648859944
0.000980918259094899075
7.35089397082551541e-05
1.89770771609365873e-05
0.00027307176693180474
0.00182229957760412045
0.00319405689179721444
1.49754181523927552e-05
6.769458256868614e-06
0.000128304254497991186
0.00054781984415564844
0.000593468574989945512
2.44709864518181255e-07
6.01646827307313528e-07
1.38923051376346541e-05
1.49943917423339358e-05
1.36036416018296045e-05
-2.22445961105451039e-08
-8.80425913216464564e-09
9.12083963443480697e-07
2.87600634959315105e-06
1.2632847299722346e-06
-1.5792096106087951e-09
-2.20075752703001433e-09
5.98119880421847051e-08
1.85756848756083756e-07
7.15092265563723816e-08
-2.69503400139854371e-11
-2.31890577760439755e-11
1.829993597732039e-09
7.3009599037973901e-09
2.4036487305727688e-09
-1.90693447223155432e-13
-3.18714777647904067e-12
9.43668754338662219e-14
8.98044372510174744e-12
3.5188092690110172e-10
-5.72513182592159994e-19
-8.49740106256052125e-17
-1.26226140530057264e-15
-4.65750788489613661e-16
-3.48765338293934066e-16
2.31027140448314081e-12
1.49335434570005577e-11
-1.61385726656520698e-20
-3.03980617555806555e-19
-1.31108502855215371e-19
-1.35205161316816864e-18
5.68644417045113589e-17
2.05286974141912588e-15
1.22540821746242194e-13
-3.38645703894142933e-24
-2.97443260572287885e-24
-3.70747600478516288e-23
-9.37209851816669052e-22
-1.60625818890077861e-21
4.15491074912765445e-19
3.91398749491388378e-16
-1.3877429214301295e-30
-3.14259979885790813e-30
-3.27066932254572263e-28
-1.33969185146404282e-26
-6.69362262562691825e-27
5.5598395602087251e-26
5.96882789067687387e-20
4.723451172828544e-05
4.15814283666554818e-05
0.000148939572044231081
6.83256017693890331e-05
0.15109968571485799
0.00399778953958198745
0.00213290244083647875
0.00108003228154920352
0.000403547847347957944
0.170234770658697965
0.00687655519561180054
0.00274586360982431591
0.00182292600801136923
0.00100970873559970593
0.0964808158798740462
-0.00063965198021926099
-0.000128324345343485416
0.000702398533146859471
0.00230500290206305924
1.78801703446111702e-05
2.20640187756833168e-05
9.80309843362677365e-05
0.000764103918545235017
0.00223778704816668568
5.38104515028922481e-06
8.31439334439974445e-06
0.000139805296705516527
0.000586681994723236427
0.000692342459069541908
3.46346748425439116e-07
9.21737786577155713e-07
3.8216235938202157e-05
4.19277982676722605e-05
1.79997819991207941e-05
-3.40247051152476243e-10
7.97500217828914761e-08
3.57698526534569535e-06
5.95565145158090342e-06
1.83206941843680899e-06
1.40821987923981373e-10
1.79603502437798003e-10
1.11755470232382531e-07
2.99532553259932368e-07
1.07482462580482231e-07
-1.21787857099555213e-11
-3.89938057008981071e-11
3.12717007371716332e-09
1.1524668178192317e-08
3.61869136521010204e-09
-3.01714218274934327e-13
-1.98688946914391581e-12
3.26006751603209498e-13
3.29083296382153828e-12
4.32959814220757322e-10
2.12414680152272413e-19
-6.96550597245201664e-17
-1.43603202369334205e-15
-5.61207597130327691e-16
-5.93671320706020373e-15
3.06269171051447202e-12
2.1052438979752984e-11
-5.97146746288640227e-21
-4.85961560605408731e-19
-2.90851705462966082e-19
-5.74053356102068617e-18
6.39952361594536573e-17
2.61181677077638241e-15
1.88786198659448929e-13
-8.03370718803673343e-24
-1.0525764238738195e-23
-2.84671232145790878e-22
-1.64837163854217157e-21
-4.82468261133637427e-21
7.34472977932903766e-19
3.35482779907798699e-16
-3.27586510169078954e-30
-9.9734798740194588e-30
-7.7434772103910647e-28
-4.76113528855404504e-26
-3.04736728346179885e-26
7.61983173914979959e-26
6.75381963393650174e-20
0.000150413673219897186
7.30003279900309538e-05
0.00200750175712765318
0.000569315264960762891
0.0921822322944994554
0.0103994275255240905
0.00761356064399894023
0.00506352341843698331
0.00280355931335003316
0.142444206053743305
0.00599406864623180415
0.00489604264480904099
0.00337787537664772583
0.00180016697486075285
0.0666621066269027646
-7.91516581339447097e-05
0.000250519837869936075
0.00102105468482320311
0.00113143007042575258
3.51133764982330832e-05
2.01596281559543095e-05
9.03183088227058094e-05
0.000829441460346627994
0.000837043311754014302
1.94713474813781816e-05
1.05444174962286516e-05
2.40638937640602418e-05
0.000325865156653115824
0.000407851881738648927
2.59023579541337754e-05
1.63395719364685956e-06
1.88868287272391918e-05
1.70819323324992436e-05
1.26855680840914677e-05
-6.77962694965019891e-09
1.16827878218541832e-07
3.80331564950305794e-06
1.42361475272050079e-06
8.80926680312149761e-07
6.37430608304567002e-11
8.10887060269789519e-11
6.13836936091842167e-08
6.92376174990749373e-08
3.62021940577743152e-08
-2.75856789963030442e-12
2.55318302072719972e-12
4.63701864094827574e-10
2.43429643060963064e-09
2.79974897345437214e-09
-1.86195918427914361e-14
-3.62577576804721365e-13
-1.38559958251385608e-12
2.72803495736726117e-11
1.9959098720659915e-10
-8.17451043038489845e-19
-9.15630021421854953e-18
-3.15716227284966151e-16
-3.66076555377784909e-15
2.7660075037772658e-16
1.20558971223787033e-12
7.88253114407681025e-12
-1.64196598716396267e-21
-1.26825561609647919e-19
-1.40651083036617417e-18
-1.2704537172183113e-18
5.1991178942828764e-17
1.62655666838565686e-15
9.06581003904565785e-14
-7.70509993154171478e-25
-1.89776752438267046e-23
-9.90016838835352208e-23
-4.8954869904004219e-22
-5.50574254710329832e-22
4.28804353282052674e-19
1.33259081389090513e-16
-4.54040842503559838e-30
-4.62181556297641912e-29
-3.14123985719638755e-28
-4.68741561727056744e-27
-5.55402363965097246e-28
2.692250246289777e-25
3.03037207389510274e-20
0.000357739889581409985
0.000262123269577483014
0.000487361762314463464
0.000396677793087971391
0.0916021487049208383
0.0101102791499960293
0.00187624024975695854
0.00363921791057666586
0.00220473355057807267
0.17694194260496976
0.00943769579085198922
0.00468836876608226538
0.00212431212406013039
0.000628070830843113596
0.132445794542085438
0.00151019717696483451
0.000789991568499179243
0.000521705424331750638
0.00072125334666134377
3.6381935580232694e-05
0.0013437803272250404
0.000260860093588918644
0.000250961480952689307
0.00039623533942957233
1.35322752655641883e-06
0.000140306749669463912
9.32340215745169215e-05
0.00021633492437008115
4.43355079505343105e-05
-6.76607270035122587e-09
8.5610357312725917e-07
1.4449168500065253e-05
1.98628304659499353e-05
8.25785881131267622e-06
1.6559749598869658e-08
7.9975554165357452e-08
3.67606494682995247e-06
1.98876892910341824e-06
5.68399732726344002e-07
-1.97462449936941555e-10
2.44948548993255272e-08
1.84273673809977484e-07
8.12932186862189466e-08
2.51650066178399626e-08
-3.5187615253180238e-12
-1.41668417773713778e-12
9.53832039652366741e-11
5.90220228639840662e-09
8.15766394546063479e-10
-4.13548739933379007e-14
-4.21155127248557015e-13
-1.35971213462844865e-13
8.35003294465025806e-13
8.53164756200012307e-11
-3.55288079880044436e-20
-1.96380003072396472e-17
-3.17449556754886798e-16
-5.56127030066560601e-16
-8.32638055275079359e-16
6.54919709138880965e-13
4.93599496092342434e-12
-8.42494349710697007e-21
-7.03146097103562754e-20
-3.44286521203069772e-19
-2.32833832081485167e-18
3.527696013476593e-17
1.0569897587275e-15
5.22510220687042475e-14
-2.15276895280890751e-24
-1.61261745683906394e-24
-3.4699445644543154e-22
-2.3579429073743323e-22
-2.96508488770122255e-20
2.7761935960450949e-19
7.44728316562067415e-17
-6.90770783383458111e-31
-2.29428165323016983e-28
-5.61263339732416626e-28
-3.10143062565477413e-25
-6.88436595986907903e-26
8.29112718891584907e-26
1.64132008178589123e-20
0.000431928340717268515
0.00121528845777211267
0.000596457576309454584
0.000507818116315059305
0.118128067844316842
0.00382645119064410968
0.000777233760183756333
0.000734769715887928282
0.000554979281129985976
0.138188478846375334
0.00324927412919214431
0.00184421778388298195
0.000537789963136378699
0.000498497150586258613
0.0270983686783105512
-0.000178188014844552259
5.41658642470036953e-05
0.000323897327916063517
0.000636803545478856659
6.70154428968924409e-05
0.00013367968644520842
5.04882957296175065e-05
0.000295420399986203298
0.000860459366038912122
3.74333893231030925e-05
5.3695069060825284e-06
1.63197524013537257e-05
0.000187744474603684203
0.000493245654889371476
3.9225648902457493e-07
5.6983726922457577e-07
1.66712920159526583e-05
3.39301454069079994e-05
9.85995945892623533e-06
1.80583253123632017e-07
1.95872094006270352e-08
3.04497897215995245e-06
4.91481806424110902e-06
9.09257957688842217e-07
8.66587736667649178e-11
-1.69548403174774928e-10
1.33671532506025533e-07
2.78786317679449389e-07
4.86770939690364888e-08
-2.06061520151886053e-12
-4.28910966792680587e-11
2.18425881526760395e-09
1.04036040234540805e-08
1.37114362871435052e-09
-8.30798210755093353e-14
-6.28854123932955841e-13
6.72424751075816152e-12
4.70594041394792873e-11
2.13774428884835281e-11
-5.22273203542821677e-18
-2.12805554632898647e-17
-1.10216083064546702e-16
-9.47726457849672621e-16
-3.65644701208799198e-15
8.15542405567637339e-13
8.19213855052836145e-12
-1.9434748666782332e-21
-1.39528401117069479e-20
-1.37149982357053539e-19
-4.37267040572764938e-18
5.08616020177500356e-17
2.865653284554982e-15
6.28298766136112702e-14
-2.89776189477737339e-26
-3.57794862370780034e-24
-2.39154501686194473e-22
-9.58327414313919563e-22
-3.53960711740957056e-23
4.92002770622504886e-19
9.01827790700345812e-17
-8.99769585366967344e-32
-1.3004802395151674e-30
-7.58095304802691961e-28
-1.3334955882225591e-30
-1.92299312875218186e-28
6.94148684454830574e-26
1.57973118036637163e-20
0.000901511266457951754
0.00327269225472981472
0.000760463088003019219
0.00127713789797143833
0.122244049305042263
0.00228896302480663134
0.00109330602163633123
0.000944827959518608962
0.000917962937161173132
0.202311905952599291
0.00772473292129688578
0.00180406355903093099
0.00104473928385102064
0.000642708549497337687
0.0816184872985601939
-0.000620281961995288855
-0.000120734885371363382
0.000411594765787638261
0.00158766541303545874
4.4139172664048341e-05
-1.46801582240409707e-05
1.55902818783370625e-05
0.000165406308926352159
0.0013053901970630534
1.63276663686056348e-05
1.96596668989587464e-06
1.34756840857543796e-05
8.0485299132581416e-05
0.000524878303724261993
2.37821924600962789e-06
4.67785076505265384e-07
6.37455146318891009e-06
2.63643849275955967e-05
1.85808607537303106e-05
7.91280468712480644e-09
3.78612583077766147e-08
2.08722617785928749e-06
6.40326435645178963e-06
2.01239906588625469e-06
3.03948369102822844e-10
5.41220029680973031e-10
1.63243376467253115e-07