/*--------------------------------*- C++ -*----------------------------------*\
| =========                 |                                                 |
| \\      /  F ield         | OpenFOAM: The Open Source CFD Toolbox           |
|  \\    /   O peration     | Version:  2206                                  |
|   \\  /    A nd           | Website:  www.openfoam.com                      |
|    \\/     M anipulation  |                                                 |
\*---------------------------------------------------------------------------*/
FoamFile
{
    version     2.0;
    format      ascii;
    arch        "LSB;label=32;scalar=64";
    class       volScalarField;
    location    "0.0599999999999999978";
    object      p;
}
// * * * * * * * * * * * * * * * * * * * * * * * * * * * * * * * * * * * * * //

dimensions      [1 -1 -2 0 0 0 0];

internalField   nonuniform List<scalar> 
7248
(
2.55693403022260934
0.928495504559647244
0.593942928788981028
0.977121872955290627
-3.32601389469948572
-2.30778752885218452
-1.82370697434357343
-0.720803989636652709
0.747934724188496602
-26.9587388116345892
-7.90495801035907419
-3.49128618153819303
-1.68528135601197704
-0.38161840834569638
8.42467003533613479
-6.26565160544984501
-4.69336320422092701
-3.866106414011103
-2.90053382813085037
-6.53200993403538455
-6.39775920137963006
-5.95435265034359151
-5.41633022466750091
-4.64212098770128456
-7.30017606658583951
-6.51109806124889889
-6.00811723596643255
-5.60429307195230475
-5.1616858058880446
-6.25207972892783292
-5.98371764168006237
-5.77577995977046221
-5.53097171423627643
-5.24084681902609528
-6.08596306830731582
-5.92080721533520915
-5.76734265914230804
-5.59086092361973108
-5.40808102791747558
-6.13256605869222593
-6.03866369908171308
-5.92991194984307057
-5.80678922696262489
-5.68216933148817116
-6.30874660723913294
-6.241500431587788
-6.16451685066483623
-6.07930742633149102
-5.99253192335731377
-6.54514472517380419
-6.49442849530132094
-6.43836984913576504
-6.37826641228503544
-6.31715112495276188
-6.88239000837577297
-6.84924273509988524
-6.81378026522729741
-6.77566601074755503
-6.73506670424345977
-6.69274447232761371
-6.65013957894361862
-7.15174484789754317
-7.12611261908414306
-7.10006036344778835
-7.07305528226181313
-7.04510940909390193
-7.01660014215292538
-6.98813592500079217
-7.42989596267789754
-7.41341685029935515
-7.39702032960141675
-7.38040332990016523
-7.36358273919550577
-7.34677809254025593
-7.3303094350249749
-7.7191510286675733
-7.71091531259973717
-7.70289661504923284
-7.69522174670559611
-7.68801019293717047
-7.68136733890224388
-7.67535575350002741
3.29280676825383711
-0.230089577151398217
0.439343746085818943
0.258952843733572635
-0.49176005907551712
-2.73913961814430129
-2.29193794184078481
-1.24713042753945391
0.120294559196468143
-16.6389891314394731
-4.65318060820588286
-3.13640563035486775
-2.43892576088909419
-0.817858206140019917
7.6645627283709814
-5.2754949197545713
-3.89622935958432937
-3.46452106141237293
-2.86844966334399309
-8.04024012996683979
-6.36845735101760013
-5.28197290072913628
-4.93562316409374091
-4.39901536628683321
-7.20090035030637488
-6.42006531551164805
-5.81227027856496203
-5.31462229995696323
-4.89426177412443053
-6.2367314366086184
-5.93301587910678307
-5.64784130314452515
-5.35473008125425487
-5.08141712844615689
-6.04562959968110469
-5.8807525916027803
-5.69650188360086496
-5.50012925651660556
-5.32433734622997434
-6.0999402599782675
-5.99987869172218513
-5.88515035674776765
-5.75846720392942935
-5.63765712536628083
-6.29299730996590956
-6.21962961476913545
-6.1390279244854371
-6.05275698118612304
-5.96719648111866263
-6.53609963175945818
-6.48174124261187412
-6.42356418104378069
-6.36267719177088331
-6.30193631341905292
-6.80855684085211355
-6.76837138239462277
-6.72646870507516059
-6.68353735797486515
-6.64089856347899232
-7.09727381855502593
-7.06910030548242752
-7.04035547075929102
-7.01140838871844263
-6.98289165364177666
-7.39590746028544554
-7.37863779221258564
-7.36132383734771967
-7.34421157322667995
-7.32762626975653131
-7.70277728320484734
-7.69481916889538997
-7.6874028346700749
-7.68063166877029868
-7.67455321593967899
3.45885108258686813
-0.237777955444832045
-0.90313077675153064
-0.593654665509234292
4.21751094144218541
-1.54137626929660598
-3.69746020515189144
-3.0073667836799336
-1.16012620866348293
4.29425843773850602
-0.231244859434069028
-2.69582192517835084
-3.18393744362010533
-1.7815506538613084
0.0332174776775104874
-0.415976935967751871
-2.51861477925865085
-3.00667496078652796
-2.7386882870712812
-8.31472837466294479
-4.55468987999951835
-4.95477502983743179
-4.67446473053751532
-4.04223531860198015
-6.87282149427701405
-6.2217730782087779
-5.40478644593801683
-4.9949484658297294
-4.5882817652198824
-6.09464905914825295
-5.87095731618624761
-5.46801193602331725
-5.14471965200248604
-4.90407971944170384
-5.98653010274417596
-5.80657539305374559
-5.58788015531372295
-5.39291663306763969
-5.23375141744111616
-6.04094856225137455
-5.94219519451855938
-5.8251440528840428
-5.7047942926477333
-5.58982604581757325
-6.26437102490944309
-6.1886109058449339
-6.10786876763599285
-6.02326387611604641
-5.94008186147161865
-6.52081808509381311
-6.46456158761766631
-6.40570666880865414
-6.34524746554929564
-6.28569203667783594
-6.80010204955820807
-6.7586347051969593
-6.71612644451943908
-6.67322053655743108
-6.63106272283427334
-7.0928142756510697
-7.06386498906503668
-7.03464701050854746
-7.00558156902034312
-6.97725000880831381
-7.39405105372584437
-7.37625151376072807
-7.35859307656848038
-7.34132375214619515
-7.32474071786782144
-7.70237878408639798
-7.69420326098483454
-7.68663855889676384
-7.67978766812803748
-7.67369037611226279
4.39212126067545761
0.592336836896263819
-1.5282184413444293
-0.679698325815447646
10.1577668506395753
-1.91290514574347892
-4.99276279434948478
-4.35396374964562405
-2.15370238093786348
13.7093389832591015
2.10678625998837177
-3.20236229973074549
-4.29398498650329064
-2.91954331761839025
0.456028465943404626
-1.04156922516261297
-2.01062330022029023
-2.91672366268790206
-2.95037889232301609
-7.16769090880944848
-5.96917850761848179
-5.51063463838152323
-4.55121318332081781
-3.74650481527241075
-5.31993429703311449
-5.43995532291866368
-5.47565959741073716
-4.93188375478351748
-4.29390696446061426
-5.58445883693845602
-5.7042803165197693
-5.3940332973931735
-4.99536515754716248
-4.75306449107830797
-5.79909280495398072
-5.70269256249128631
-5.49942796983724769
-5.29057079091957672
-5.15148691212558241
-5.96898130220048273
-5.8856299147183293
-5.77646732962087217
-5.65518723357291542
-5.54552151659271519
-6.22677724828624868
-6.1529989552919524
-6.07551182861510419
-5.99531028470348204
-5.91421835170782639
-6.50030633295232896
-6.4440667492606547
-6.38614343898060355
-6.32735564448372934
-6.26960276401013861
-6.78875005422568023
-6.74697044721723316
-6.70469346244686903
-6.66244764573578951
-6.62121963546800441
-7.08687889925302006
-7.05759075175000294
-7.02834277160800625
-6.99948296296840233
-6.97155693576527646
-7.39146962499453064
-7.3733683020077514
-7.35556501771050897
-7.33829451615031303
-7.32182586235419386
-7.70172975114711633
-7.69341225151564956
-7.68576644528378328
-7.67889145678361107
-7.67281810540331755
6.18121934842023624
1.94298801452074521
-0.832653012596090925
0.111551757389924511
6.69896957247573255
-2.992241648142965
-5.17754855373096845
-4.40114604039882895
-2.19605103876170338
6.99484322682519633
0.710798841998130371
-3.70779738411149307
-4.5129529526508616
-3.49594123747493946
0.216078357816684274
-1.6683341283618196
-2.91924613688044765
-3.4699892141123958
-3.33922518440529048
-5.2838260475237897
-4.50425205617499813
-5.10653338088120634
-4.38641788352289197
-3.75127701107453859
-4.77168735455174708
-4.92371804399204027
-4.77976191273025908
-4.41837489757134172
-4.16568168754434875
-5.44814407096527908
-5.41127597176961039
-5.20926110382019125
-4.89770034648231434
-4.66977817330655665
-5.67059450115937125
-5.57341622094141176
-5.40949021931487462
-5.21852782493176459
-5.09024837437569921
-5.89708458481687803
-5.81722283739213442
-5.72018858838964839
-5.61093664715840923
-5.50851483062021163
-6.18526316417083244
-6.11484872528979118
-6.04199639308506686
-5.96669725151017261
-5.89087464838561559
-6.47677606350964652
-6.4217352717084335
-6.36596734771641426
-6.30973548541456708
-6.25465587959319347
-6.7757038392977762
-6.73447550682747131
-6.69308214599002849
-6.65196356148420964
-6.61200170339971116
-7.08010249538031022
-7.05093466654375245
-7.02198232272117373
-6.99357566140306641
-6.96621753198558746
-7.3884724680599172
-7.37029000374776189
-7.35250987941153866
-7.33536452198596578
-7.31909595236867361
-7.70091788591454218
-7.6925362492643492
-7.68487140191317231
-7.67801720035381852
-7.67199497395245267
6.07208069309635512
3.4167825850527187
-0.861995531797388637
0.122189272583917763
11.0970134967115541
-3.5842963839479367
-4.90113061662311011
-4.03977149780144273
-2.59178165720968856
10.0671777535977185
0.0123996261980456879
-4.18909059037026843
-4.62026144283290119
-3.79031732236608665
-0.743854749628610534
-2.43728775413919774
-3.44389768233174687
-3.80878698417368522
-3.71697143634066496
-5.28996653040490994
-4.47095603805267316
-4.45507356014541767
-4.13152717015271254
-3.80775306259061219
-5.25669124668019005
-5.01328479941876637
-4.74444803731085951
-4.39569826480968473
-4.10240936579780335
-5.42331002198248413
-5.31202293360026001
-5.14969304029733355
-4.84813806248048973
-4.62359934136349082
-5.62431166365541557
-5.5023143774877914
-5.34367389973904583
-5.17359297012463593
-5.0451939548620377
-5.85040773713713591
-5.76860195222302341
-5.67165191006711389
-5.5748399591294362
-5.48006331478037723
-6.1464887976385123
-6.08137641673399187
-6.0114860959318408
-5.94183091011791653
-5.87181199006600707
-6.45357957647861458
-6.40110265944141066
-6.34733818987459042
-6.29423560152916206
-6.24200935631523723
-6.76284157246280859
-6.7227171706573241
-6.68246846235418079
-6.64271742723145042
-6.60411155226580071
-7.07347917399212367
-7.0447166293008241
-7.01623057961302532
-6.98840330140153565
-6.96166513473236748
-7.38551655777084548
-7.36740964527611464
-7.34976135289059318
-7.33281198505590481
-7.31677717225649538
-7.70008342014837854
-7.6916965737597538
-7.68405625039281759
-7.6772511028680821
-7.67129301214766279
5.38525521473050794
1.40673591491358074
-0.608267348040461897
-0.917501015897713046
-2.02538764566060081
-4.53094545596606668
-4.54670458997533622
-3.80371951599837388
-2.87044898592740161
-0.487917558456956613
-4.92619228985533653
-5.4885710055313961
-4.77490113239450498
-3.91815185237190766
3.97037795206531996
-4.95607659395388467
-4.64839580312882461
-4.28032271111113705
-3.91558313270397873
-5.0904783926970758
-5.19901080754119516
-4.56774036738648181
-4.09842006435717643
-3.84092608051083317
-5.64032402290167134
-5.40562361175762707
-4.78528303132667165
-4.33731935768219667
-4.07103720752273368
-5.59873120506952127
-5.53362685554379041
-5.21422350954676972
-4.76773406776219844
-4.59349424443465093
-5.66394313309585407
-5.55562568494448161
-5.31113831029309491
-5.12722744055427171
-5.02120928803433486
-5.82474138446454859
-5.75568052524945006
-5.63064664607863374
-5.54085607528345747
-5.45449720474052935
-6.11612994342868532
-6.05863161229973457
-5.98794034649711726
-5.92113193933066917
-5.85406639888154334
-6.43413593617789292
-6.38492401389534159
-6.33261319825330293
-6.28181809272497027
-6.23166631314628816
-6.75213486843071742
-6.71329158567874629
-6.67419157683147102
-6.63565597115459482
-6.59820535490167792
-7.06810596926690327
-7.03980587684954617
-7.01181230655439691
-6.98452890800487047
-6.95832410433453585
-7.38313010709237716
-7.36515790799755266
-7.34767115753887534
-7.33091856356802563
-7.31509570877786341
-7.69939157548380049
-7.69102727243869211
-7.68342935042066877
-7.6766797183408384
-7.6707818756375028
6.25500108244458897
-2.20037212974145824
-0.202778925246442476
-2.73921861787078402
-13.3077103541088491
-5.46874656828575567
-3.48805504302540026
-2.42278260818905888
-3.11131340541306489
-28.6917816452071293
-11.7128530593770783
-4.61384396390523488
-2.96081291287234105
-3.36313432263766243
4.56566044901268242
-4.2991582979997558
-3.57487602083548195
-3.02718035273965302
-3.37009284483455263
-3.34806451686141626
-4.06488615709023371
-3.38762746037206686
-3.37984847853752157
-3.71705203218658298
-4.47118416076381653
-4.7501450930457727
-4.18217412040616665
-3.85537157991777235
-3.89791101857277589
-5.19929950595441248
-5.04564362118627674
-4.80941342474794364
-4.57402463396490599
-4.47678785613779429
-5.33493140238632169
-5.35169297705496838
-5.25185232455649231
-5.0703348895705096
-4.99944785207205911
-5.71993665467588031
-5.70053581062723591
-5.60318503895674791
-5.51406433455965495
-5.44672619452309092
-6.08423237164126451
-6.03398358817549862
-5.96938474894518567
-5.90717158400292419
-5.84813911485262228
-6.42181842260503544
-6.37471082646919207
-6.32461900962425627
-6.27517380550197412
-6.22736693306001854
-6.7458641200443914
-6.70788572155876217
-6.66963056331437176
-6.63194492060040641
-6.59536035456993552
-7.065015502505406
-7.03704157453014911
-7.00940503784218194
-6.98247818928473496
-6.95663043358952038
-7.38178256583233949
-7.36391643112475869
-7.34654315747275444
-7.32991674196844745
-7.31422993896589624
-7.69899360076028927
-7.69065252802065924
-7.68308618292238421
-7.6763734142205049
-7.67051424446144114
-0.588535249118131931
-0.817133780673833021
-0.988426475005688587
-1.04745138306565799
-7.65000532961158797
-1.34843641659934832
-1.08822214668027195
-1.67888845409014031
-1.67940447842756457
-20.8180279040254277
-3.57462939749007624
-1.54286268322999565
-2.19112640443615225
-2.36903938028081562
5.36789238442412397
-3.94187677225666722
-3.99136863411634657
-4.08514279124696866
-3.79367976364357862
-5.46642385148031718
-5.12670493708403541
-5.2068853425991426
-5.3974252163405616
-5.1808444318483442
-7.08926737932327811
-6.25889831303637223
-5.95049850342307263
-5.67044381540732179
-5.33539792670935675
-6.70476988721556744
-6.24077055165558114
-5.93652768413265086
-5.67257064507917352
-5.39725513074487129
-6.21071360316847354
-6.10279583283499072
-5.95196693946528299
-5.7737097008391931
-5.58339415196207778
-6.05664021955946996
-6.09023837632179621
-6.03275503094144128
-5.93292763957839764
-5.81302157464116664
-6.19526286897249179
-6.22900572492782789
-6.20724143135516737
-6.15049347433785254
-6.07526816001585424
-6.46041072957944174
-6.4705268316473159
-6.45359664236918285
-6.41675533993232516
-6.3673760835069162
-6.74485075529925915
-6.75403885195448961
-6.76032722827031485
-6.75611697140851941
-6.73987452861062497
-6.71356518735783592
-6.68016502135587498
-7.08022992237432902
-7.07493130805447823
-7.06951656696217601
-7.06050674565188885
-7.04640238917176287
-7.02760575652678465
-7.00507649666874066
-7.39649040053183615
-7.38895422249871547
-7.3818371867647512
-7.37369143025353502
-7.36374243583480581
-7.35195746747560985
-7.33877329673208934
-7.70976889439951041
-7.70376606854522983
-7.69826645061811288
-7.69300122183503898
-7.68781791620850985
-7.68270218942727379
-7.67776275717932766
-0.511520231999553321
-0.727733205508887648
-1.08141257057175944
-0.958128444600990781
0.734778456874266794
0.491090898732361225
-0.729742352163454289
-1.31948198258595384
-1.42415196401480304
-17.1208212940580893
-2.84662692977884646
-1.38650499849259745
-1.73152906081181612
-1.9197444257534102
-3.90975591921471732
-6.8705978389926905
-5.09984344684475133
-3.8995296021851038
-2.92554177802819426
-5.86971865874167253
-5.68716094301876751
-5.78669079193675806
-5.83265543531627895
-5.34494848098095687
-6.66332462964994576
-6.23201697512864072
-6.05640153869167985
-5.8108272200476474
-5.4583779388386171
-6.5417184962565722
-6.16790654768270485
-5.93719114058149344
-5.7052371874416048
-5.43527416693125609
-6.18626313203961153
-6.08667511673224571
-5.94471890842112582
-5.77576967022523746
-5.58693375651980517
-6.07921868009418187
-6.09025778713378774
-6.02967633790739832
-5.9305845750657058
-5.81128387853258488
-6.21582610285744419
-6.23569039054609586
-6.2082574659588472
-6.14983510519554422
-6.07407636398550466
-6.47238837568348035
-6.47578833057046488
-6.45542370338039628
-6.41690887648178432
-6.36670618359122642
-6.75952559087757177
-6.76436278135296387
-6.7665311948864808
-6.75936693773388431
-6.7413063684987744
-6.71384373154813918
-6.67980000186438172
-7.08668509330827501
-7.07974835280136805
-7.07267904927205038
-7.06229788942782299
-7.04728291465542522
-7.02782712032994361
-7.00488187874687096
-7.39926761201121241
-7.39106789426730959
-7.38326775617205122
-7.37452758214872439
-7.36415036321797967
-7.35207573092576094
-7.33868266171584693
-7.71050295280420706
-7.70432173812211829
-7.69864176458432148
-7.6932176987636689
-7.68791746050968339
-7.68273524623684878
-7.67774104947269986
-0.0665690027686300922
-0.310858090604984261
-0.487609639244832138
-0.596210623759646285
-5.75950042211803748
-1.7906971177785147
-0.682417382656719251
-0.814429190267477399
-0.980636746990223962
-19.9593165342660086
-5.14520533055776674
-1.01760178194567974
-1.15644685355629928
-1.54009989473633491
1.05501635024529605
-7.29846517001547035
-5.31045646693429596
-3.393599995643787
-2.53071860353182476
-6.71305019120760704
-5.95919542835555749
-6.18353539288043308
-5.985160510830144
-5.05756202839348212
-6.65210937957247594
-6.03586374492129885
-6.0305865899743436
-5.8970135335949232
-5.55384328067794186
-6.33696568008776939
-6.08122383880640083
-5.91150015542869944
-5.74087822033651207
-5.50413694536046627
-6.14783533765957202
-6.05205546634703229
-5.92312133045953004
-5.76874373622665093
-5.59294570549433878
-6.10131304357732152
-6.08594771367842213
-6.02183099536848587
-5.92364137646683098
-5.80513549542700957
-6.2438444616244686
-6.24429787502061284
-6.20881502332706781
-6.14715889900381551
-6.07015564394642126
-6.49078055408043042
-6.48408071782448125
-6.45810753564034457
-6.41653762950225559
-6.3647434564722003
-6.78364514385586226
-6.78142737428441933
-6.7770258774579224
-6.76494398884130366
-6.74360534590130456
-6.7140718608521075
-6.67880423510293664
-7.0978949197241219
-7.08812478580980354
-7.07824151728384887
-7.06550635647149061
-7.04875316100655702
-7.02809368822945224
-7.00438661234305382
-7.40413440199708806
-7.3947954179517783
-7.38583802356176289
-7.37607626556893781
-7.3648967191250625
-7.35224145267215157
-7.33845642146770327
-7.7117579084491652
-7.7052940616884209
-7.6993270392799289
-7.69364164389429206
-7.68812968466448332
-7.68279083984788524
-7.67768531318019143
0.446674068439383287
0.153997466831825136
0.0249340337437136128
-0.0674055132309665517
-8.74947853512622942
-2.10556489044606643
-0.524591340362166036
-0.295128902627816991
-0.425888980399740547
-26.8639479406045893
-8.20589033505209287
-2.053129468410404
-0.916047632490725405
-0.94173197428642208
-9.70489716534160607
-9.57775184052479922
-6.73438621355706246
-4.16111638979031984
-2.88309900435681143
-6.69027323323674938
-6.04079515421695934
-6.42771270304552722
-6.38345247935771098
-5.38441292791562542
-6.17591963344676032
-6.07002723383705334
-6.0980638582576816
-5.98797535552641502
-5.65232067379096037
-6.22346298864142966
-6.03678546828119167
-5.90547944679378833
-5.76115682286358499
-5.51447282488574064
-6.08679419412918143
-6.00474511053716942
-5.90625611182276078
-5.76330782405364417
-5.580161615023294
-6.10629505166435305
-6.07675294406438571
-6.01342990686028056
-5.9156264482751455
-5.79632175065368305
-6.26663181305835959
-6.2511595218162741
-6.20839596358627865
-6.14314856718697389
-6.06459857142612702
-6.50964913279331814
-6.49268460908469347
-6.46051761502118804
-6.41531787323020364
-6.36155301971325038
-6.8102294979028235
-6.80050034380872237
-6.78891021439779596
-6.77119999189931665
-6.74593949643930735
-6.71385838210314922
-6.6770435618345978
-7.11127217443589732
-7.09811620393325349
-7.08485933891365249
-7.069256771067848
-7.05032468268657109
-7.02814278595641184
-7.00346988954177796
-7.41011186814928102
-7.39936548370901903
-7.38897683385878778
-7.37793592502893159
-7.3657266797549017
-7.35231374174188534
-7.33801921128902812
-7.71329844132003117
-7.70649830269130387
-7.70018060426373285
-7.69416753675706033
-7.68837953140993768
-7.68282809247935905
-7.67757140447027187
1.03982480886365947
0.652136446021589933
0.579256472620246932
0.609807805665970815
-11.1101300703568882
-3.68576126955262495
-1.04003623750788776
0.185297129847917574
0.0929628906364321494
-30.7501660925691453
-11.5924467755582903
-3.52720456771579194
-1.81387782459869307
-1.52174245523060847
12.7170975215992996
-2.60110276450536571
-6.9021000915820423
-6.35869980047183514
-4.52858084005129591
-5.91820377987525603
-6.01407065490213455
-6.71460907163955412
-7.04659909788973149
-5.76794461892290489
-6.63119020383368785
-6.53388943725148952
-6.43929459771091395
-6.24106719683052358
-5.69846773517900651
-6.10992222979252375
-6.01502456705886068
-5.90018999785802478
-5.75264600986138319
-5.49148836998140855
-5.97410315150572835
-5.95454537725133726
-5.87896618041312458
-5.74143900813276886
-5.5556208087825425
-6.09800723682374102
-6.06534560289799884
-6.00075755238928554
-5.901818701785567
-5.78154068408790778
-6.28398088651580089
-6.2552312903662175
-6.20584053308438488
-6.13683951707599284
-6.05621069242895871
-6.52610723518879077
-6.49978033195487725
-6.46154413492846746
-6.4126382797087631
-6.3567876944680437
-6.83514979524330979
-6.81833531418073946
-6.79992763934327193
-6.77671575567129914
-6.74748394783672456
-6.71274609592775295
-6.67429401406344258
-7.1244809776216611
-7.10790829923875656
-7.0912428399885199
-7.07269700700879245
-7.05147901697366386
-7.02767976492211055
-7.00198092241220582
-7.41617235782092887
-7.40396732876246233
-7.39208594436777844
-7.37969047203245232
-7.36637319334003315
-7.35213681981736578
-7.337287296185246
-7.71487238948752108
-7.70773457572331822
-7.70105215145471345
-7.69468636694538688
-7.68859254431039396
-7.68280137183101974
-7.67737257328335243
1.04708716234230659
0.835956327414896894
0.690983222331209124
0.826653041799581878
-5.61342706053562779
-3.6356675597447321
-1.00734516432132981
-0.172834624940584547
-0.197023128338546627
-30.1967860734799842
-7.20328927812202124
-1.13510574306736345
-1.71847411545529738
-2.20450979341259368
11.8576698469019561
2.99269416290495194
-3.51364111441723859
-5.29477962142405545
-4.46225442228903102
-6.6119070008124794
-6.57415662795799705
-6.35381857497232971
-6.27492981050937981
-5.56712075790200611
-6.51059802367249318
-6.71260118920530591
-6.50884274174196431
-6.10293813634067206
-5.58445369804391945
-6.04775458942475375
-5.95148242910139746
-5.86535714602383607
-5.70553474360843005
-5.4313104986792986
-5.90315099312791514
-5.9147067268520761
-5.84878573486742237
-5.71271535881333836
-5.53230300692686949
-6.09365490551910138
-6.05561376512140725
-5.98903345376785534
-5.88777758333884194
-5.76654933791188729
-6.29604855080099934
-6.25671466110025065
-6.20116794145781203
-6.12857076935709166
-6.04606350930560854
-6.53804307320606348
-6.50405628985874174
-6.46045793284767633
-6.4081353992161203
-6.3503443791988996
-6.85505872855857135
-6.83252254248236124
-6.80843898640687772
-6.78041384520485035
-6.74754315858666054
-6.71032329433495178
-6.67036089813559663
-7.13568163402519673
-7.11609445055818224
-7.09637318590758337
-7.0751222425309086
-7.05176062397643211
-7.02642945983984557
-6.99976200060950315
-7.42148850245225056
-7.40794727318410295
-7.39467141830721353
-7.38098825670938474
-7.36660259927625383
-7.35156713351387392
-7.33618141664827661
-7.7162908172752136
-7.70885047706363746
-7.70181956057127515
-7.69510441369250309
-7.68870230038784275
-7.68266750102992635
-7.67706389542275502
0.771774561063094833
0.877943913380923036
0.236447832597123764
0.67759012123238227
-7.29593365021338514
-3.43347298959723801
-0.960958580240758309
-0.427392782175554764
-0.156541856835661797
-27.3591177650252462
-7.83587937852440497
-1.42434920803428877
-1.27967663183218949
-1.57227046502630063
2.53680584714423674
-3.82923100196607402
-5.16061725270200533
-4.01249585535686748
-3.51302803083374338
-7.2039432590360768
-6.67181440966160544
-6.03671820921344437
-5.60008534558599003
-5.00808317012956916
-6.86239699622014143
-6.68759844864215047
-6.30791278859063897
-5.91344399698869072
-5.43086682493795436
-5.980106616202578
-5.97595397289352004
-5.88063631999180814
-5.68853378249005637
-5.40355231729893504
-5.92330064187171246
-5.90178134725900438
-5.82383964101195684
-5.68407386889079724
-5.50124883025259681
-6.10456285202450566
-6.05201346200068713
-5.97439651492345014
-5.86786521392586913
-5.74409323079290157
-6.30433403664250136
-6.25625178801916348
-6.19357609981648149
-6.11652207094938305
-6.03177872856942354
-6.54524922012982202
-6.50486471709623792
-6.45645975903838742
-6.40094661739793303
-6.34145368099954609
-6.86911000051844667
-6.84224853477743888
-6.81366639561172249
-6.78161544606465405
-6.74560295873826465
-6.70623073280361393
-6.66501500278662906
-7.14396005251844279
-7.12192632645372381
-7.09964644900324693
-7.0760774655176375
-7.05085229260834367
-7.02419044289748662
-6.99669719449452998
-7.42559093546652971
-7.41091275827229179
-7.3964193632686257
-7.38159286705785611
-7.36625037097752511
-7.35050152594679407
-7.33464826382701585
-7.71747032713868375
-7.70976259598346658
-7.70240515300974149
-7.69535561125354572
-7.68865910922448403
-7.68239376716557576
-7.67662790453963506
1.15180102455264155
1.1792960874591234
0.0621622771481593617
0.770571930813805928
-4.34028702433010949
-2.45939987807377758
-0.977611545081651379
-0.466592066476580136
0.269516089838943707
-28.4258061053826623
-7.14008509529150714
-2.30980767143901033
-1.14174698416718901
-0.681448981247030794
-3.41037573285808548
-5.40836903181287809
-5.01310675536745265
-3.74709456053271239
-3.1105753237526006
-7.27244037819148215
-6.7435924928220361
-5.97750786431216596
-5.35410783169090898
-4.78170508888486445
-6.53541161639123924
-6.76838849470176385
-6.26025762325180324
-5.76408020744125515
-5.36191383446016445
-6.12272394631111183
-6.02691932057370039
-5.87545410961226366
-5.65035914392267546
-5.36959990467356896
-6.00450682680602554
-5.92168214020282679
-5.80917315444585203
-5.65393199173343675
-5.47096412374317609
-6.12632410213666923
-6.05182863341538457
-5.95847873612396839
-5.84394715424746902
-5.71793536231330712
-6.31003125738134063
-6.25275893957078566
-6.18265378306001079
-6.10083163014884811
-6.01424076359100468
-6.5477757201972917
-6.50191757954845695
-6.44933396207707865
-6.39113096402799208
-6.3304381646516763
-6.87779409382480278
-6.84766956845580221
-6.81543668627637
-6.78006812034735429
-6.74147586509491603
-6.70037710353769889
-6.65826333192004771
-7.14914055764717027
-7.12520170199444891
-7.10086399343329955
-7.07539049661588848
-7.04863362778319757
-7.02090140743875057
-6.99278832276904083
-7.42834131214548421
-7.41272293341417043
-7.39720519535454013
-7.38140151831343694
-7.36524401374877513
-7.34890013067484738
-7.33267885260161467
-7.71841535864254968
-7.71045129654649308
-7.70277128520195209
-7.69540240581508517
-7.68843344831550457
-7.68196174043456548
-7.67605598125769273
0.412301318388205829
0.264854424030011693
0.173954030096794554
0.0678764212827429603
-0.106018604904831726
-0.0449858125954860633
-0.119711488682646694
-0.693537078083583669
-0.361150657257101937
-0.246295720174264821
-0.297242834480517804
0.113470005511991268
0.101980967030898872
-0.0327409341644355756
-0.0448497649215127137
-0.300597718471399045
-0.176491304093247869
-0.195475526290278978
-0.737210830444031906
-0.451736566479318924
-0.334778028172146191
-0.343951642933499446
0.0554006368560175932
0.0586724042427120285
-0.0466403786890625671
-0.067534289737852804
-0.196961689492138659
-0.158289114473948
-0.197260584444517217
-0.363117769672886892
-0.279406204203991093
-0.277086179571965685
-0.329645746625889746
0.154629227139041481
0.118059334538665572
0.0469754306088761009
-0.0119397811357475625
-0.0117757106229234854
-0.0569806833320438688
-0.143198250401315397
-0.0499255514045990889
-0.0721060384561766909
-0.163304806427867266
-0.278755928550606047
0.142243432978953699
0.0105806679361508671
0.043076537538798032
-0.149186029000738074
0.116428204045394779
-0.0827612173130423123
-0.264309330904799689
0.25982936250121158
0.0513352524136081456
-0.179112613637668616
-0.355370544440551717
-0.610107696677193445
-0.660608800380058314
-0.508222703366999706
-0.580367525792183647
-0.151424602268110942
-0.436812510413961963
-0.555511539825767731
0.315012498993145762
-0.0980557373416761635
-0.411210974613803071
-0.564629764310342841
-1.26990232933094149
-1.00721813829545659
-1.06378221986098742
-0.90282091959061761
-0.904892418372976737
-0.910767520744104386
-0.836000791283700861
-0.300842157737086779
-0.710804178825378052
-0.81492788637284197
-0.809791551652265795
-1.57748223753968575
-1.11139778060114969
-1.34138762146826518
-1.02114343265158802
-1.40826594454946386
-1.16577686638918809
-0.973558339950370888
-1.38345675965935211
-1.26981921107535767
-1.09220540244068243
-0.982587555380236011
-0.812411878057915704
-0.686108963043016828
-0.608262539833015259
-0.635123449979813071
-0.987604095149649419
-0.968777988912734367
-1.00956836113511783
-1.07540325168076412
-1.55660740217913496
-1.51528116269924462
-1.53281309265493926
-1.58265773157845757
-2.28438099459108379
-2.22728152096928422
-2.18778354026830435
-2.18822511543556297
-3.37555400726811783
-3.15345150419306153
-2.95161307916575089
-2.84370150938471067
-4.47826325340344589
-4.01308765333359041
-3.69665041612749778
-3.50208076034420301
-4.89833411095993121
-4.54243442455504809
-4.27294922739085425
-4.08912879675324081
-5.1302510376273105
-4.90470078404824239
-4.7198466485518118
-4.57699629488710436
-5.40330905042162701
-5.24824790503147831
-5.11618976814760984
-5.00840277581397419
-5.69460476740398569
-5.58839886268006936
-5.49337471185622572
-5.41097626359776918
-5.99771643927923392
-5.925299220015952
-5.8572940939839313