/*--------------------------------*- C++ -*----------------------------------*\
| =========                 |                                                 |
| \\      /  F ield         | OpenFOAM: The Open Source CFD Toolbox           |
|  \\    /   O peration     | Version:  2206                                  |
|   \\  /    A nd           | Website:  www.openfoam.com                      |
|    \\/     M anipulation  |                                                 |
\*---------------------------------------------------------------------------*/
FoamFile
{
    version     2.0;
    format      ascii;
    arch        "LSB;label=32;scalar=64";
    class       surfaceVectorField;
    location    "0.0599999999999999978";
    object      Uf;
}
// * * * * * * * * * * * * * * * * * * * * * * * * * * * * * * * * * * * * * //

dimensions      [0 1 -1 0 0 0 0];

internalField   nonuniform List<vector> 
20536
(
(0.356490632457537204 1.129515888061984 -1.19872786517348007)
(0.141107138604521037 0.295213501170954962 -0.811858175375197666)
(0.149749445054235902 0.409875627288000088 -0.947921773079678842)
(0.261391419664182278 0.124656781408620881 -0.864029428953683842)
(0.390042366692409159 1.76198433287374101 -1.295393177281978)
(0.28411210135123216 2.14750014211532925 -1.35096348976781022)
(0.502305218855192637 1.76324852721976244 -1.37169615393015132)
(0.682897263624269835 1.53430220447279786 -0.977420998914064199)
(0.201653779711025521 0.938294264734059857 -0.908523487483694492)
(0.36446644086132729 0.26770047443749978 -0.258354609995249451)
(-0.053195202717571187 0.337923692621492577 -0.716595834973158152)
(-0.0274348202930976906 0.348809545904765039 -0.687586396584409898)
(0.452353353226670862 1.22165930142475365 -0.84847698287702733)
(0.331841933506452302 1.74697288516585547 -1.13054218106978066)
(0.438243984140076481 1.39540461714876551 -1.093252189995503)
(0.648845702905178512 1.47889953046458689 -0.947437140274818956)
(0.0831690882728259168 -0.642182302056140131 -0.273405186136140343)
(0.152133503090259858 -0.717937466879733144 -0.0982892202065136916)
(0.0911374837349605837 -0.867245789731023065 -0.196210439420360927)
(0.0746984348879918131 -0.841027201451676976 -0.10264446053847423)
(0.316320828924051556 -0.169858485642248813 -0.135555094742568022)
(0.332458044414556786 -0.3932005173556678 -0.429186414900018964)
(0.0449604324831577029 -0.600065859257839285 -0.576059646119010949)
(0.0774490720124998977 0.106045116887461099 -0.216386979552340042)
(0.531215858175022149 0.147861994229767313 0.164746919971689304)
(0.661553821974106837 -0.0298668545927145944 0.148227868780505256)
(0.048695891898870837 -0.215606764483969482 0.059939501775435694)
(0.19035569409971817 0.278794081137456462 0.200781735548405726)
(0.493319662481019661 0.535054780524274465 -0.198308105388580069)
(0.794001344090918382 0.0811167636754771548 0.353660590953216836)
(0.255623956706439559 0.204155742961873415 0.158862291556045809)
(0.47908944401320902 0.282958522471956964 0.000787373766670871602)
(0.484944562643854382 0.803920731566305946 -0.179346489001587839)
(0.339812280231026942 1.10544679532369505 -0.559963511670141689)
(0.454186152154215317 0.838428741879174488 -0.640278054205478675)
(0.716270392113874221 1.08002740473253578 -0.517194501409879104)
(0.246677945163607221 -0.617666514524426224 -0.254070448970390994)
(0.422438999547782357 -0.897197102929429557 -0.0561752427113877684)
(0.244805032587689181 -0.719568610326248415 -0.118149506003357968)
(0.246803229789584355 -0.711003708857305017 -0.116566925535094595)
(0.8563268422297583 -0.30551345219282372 -0.145403451376945964)
(1.12693767821936519 -0.536868048681981902 -0.400214705133686177)
(0.610777193259821383 -0.382168194050959253 -0.544659492455204175)
(0.617448082002277854 -0.442956337503903008 -0.0985284606271292912)
(0.948462287937230197 -0.0299086826495353619 0.337141539762032372)
(0.789285527338009718 -0.185109503769978728 -0.210860644567876038)
(0.117275321950141467 -0.188542013339492442 0.173183319305881489)
(1.17176731392701239 -0.202941215081832521 0.151583873408631914)
(0.616644697902150374 0.391673148770227186 0.372622207340211897)
(0.704879939771919095 0.153961555694327318 0.250413374051377424)
(0.399106083872478368 0.188689846642572268 0.633732950705406473)
(0.97845241782154857 0.0779986158054573331 0.38734863736964853)
(0.361532244758890509 0.621579852786779297 0.296540354382856586)
(0.193127253675189792 0.923013054283217671 0.178079946376286991)
(0.56799196690429099 0.603707849691585308 0.0632838624810827116)
(0.624254205542769003 0.912780657604696288 0.0875586450149816037)
(1.38512521516276998 -0.547664260069514075 -0.202319498874683396)
(0.779171167521053976 -2.33917666832607907 -0.124539951254336034)
(0.606426018729119387 -0.610841017888839488 0.0285803463828338648)
(0.739578947618943383 -0.647204953449466047 -0.136254580994410679)
(0.877632404310101033 -0.307034749285010733 -0.465671898324616362)
(1.04699705434739121 0.102577386026075107 -0.29810978750788103)
(1.30804496111283974 -0.439465682252994816 -0.276088165858600298)
(1.55790052989937644 -0.595713872191744653 -0.300896815234513226)
(0.623665926991950559 -0.0277315989848720135 -0.297588810278529792)
(0.13039800398595483 0.346649946018281252 -0.475032519697638933)
(0.332336445897962407 -0.0696720045936099763 -0.47629759497031593)
(1.06506104556559222 -0.31158162269000117 -0.347538631558510336)
(0.362352828133646165 0.289333964269609556 0.174331521094023445)
(0.570448046644837947 0.472085454550729977 -0.129748064402188057)
(-0.156351599381974932 0.259230098317610236 0.0548924998389541188)
(0.971190434962889482 0.113994524137801256 0.0346952920335111201)
(0.262982134838443293 0.496864171782072539 0.289714087656659292)
(-0.183820923259235353 0.593249853036192265 0.407073797187588349)
(0.699009212050372697 0.389217963602709494 0.273422776763736608)
(0.305533518926813186 0.641135645686597089 0.41074152615186349)
(0.741699928489870208 -1.75878881966392409 -0.220330239887534612)
(0.551499514615326314 -2.40013688637726785 -0.64163372576189015)
(0.995652238068195694 -2.49687574831816494 -0.224350470769953764)
(1.54155161914113226 -2.89057958721718489 -0.654555442372037222)
(-0.0214771385118390154 0.568526591745753929 -0.307470408880905544)
(0.0605891438149942091 0.677524519479576592 -0.168352984562720104)
(0.803605872260241272 0.520391893965832963 -0.298799177686466855)
(1.05851690149286748 -0.323675344693079958 -0.593869159130056889)
(0.0808469624308485735 0.61074694735317947 -0.307191773821297587)
(-0.394822856453953153 0.406692287870589031 -0.287309679422855568)
(-0.188789235362364582 0.692490935564751053 -0.644075600040664775)
(0.370204128730041548 0.620546203613938752 -0.513093423776896929)
(0.375764613159749239 0.569898686315504444 -0.0143654978395540978)
(0.12018505226801468 0.425952386360756441 -0.211341416332863574)
(0.228899238995587756 0.665058894927782918 -0.285320501232577795)
(0.83092180291990303 0.608358021706706609 -0.0539316414611491213)
(-0.0070925232549949313 0.579991667415257539 0.090344128169732113)
(-0.202043748797748224 0.60247295665111078 0.243924387394852143)
(0.666644014567395082 0.530461711264711311 0.18873357681596703)
(0.251328927826413473 0.611371569655101199 0.295525352611964942)
(-0.218534185921844815 -0.212323126197533907 -0.589656470437073477)
(-0.158668849493038666 -1.20493686359656405 -0.633846916174951369)
(-0.262739998317738255 -0.608261205365787871 -1.08638389389092183)
(0.123587679868014236 -0.548301182053673952 -0.755288199827717888)
(-0.320059582425728795 0.57512224889043595 -0.148192255104669934)
(-0.424705674122841992 0.241111055621565318 -0.154373379494300356)
(-0.39075589531144922 0.714363146015281836 0.0504921257469989476)
(-0.422321310085091772 0.430234463742985795 -0.33069805159598864)
(-0.40580257028472827 0.42299270272741174 -0.191459321934421084)
(-0.513589163459234999 0.183365383018104261 -0.197671356393630954)
(-0.402133853765359817 0.602611892156945994 -0.0823046283993973393)
(-0.37713742158220398 0.227301064639056166 -0.307413101925167076)
(-0.307788621211734115 0.496293726933594415 -0.106631790323579223)
(-0.429574628942354153 0.263619065082033865 -0.16936689989758788)
(-0.399051531486281308 0.524871946369974141 -0.168222135164275421)
(-0.314354006805162012 0.319811054642599069 -0.189324756853192694)
(-0.376425554157633957 0.392461455433986195 -0.00431287641055188176)
(-0.437339857580817615 0.610728942797281071 0.0797189163862099259)
(-0.0790957019446984488 0.566637875712629135 0.0346955824921812289)
(-0.217795324616170266 0.559350155800897531 0.184678386205935741)
(-0.650241849011295892 -0.338557380431946442 -0.198563825232176222)
(-0.459957377904599896 -0.393539167191638117 -0.107821014241719665)
(-0.469516341150315819 -0.44709733186451861 -0.38320004742964664)
(-0.497192340036842872 -0.0787924278175219234 -0.228423771895099104)
(-0.557304160620571087 0.0373453012233352297 -0.203852480783261208)
(-0.53365040472788694 -0.0270518649332852669 -0.142055645122266788)
(-0.580731216221131441 0.120234804386117736 -0.149065977265126104)
(-0.542445969617162849 -0.0922797632577680299 -0.245242976678992447)
(-0.549527875515521624 0.13749551665205717 -0.175578934356797639)
(-0.52665535013410969 0.0408087755225159249 -0.155507267596925347)
(-0.553706541357286475 0.147600283863447701 -0.125397631222600336)
(-0.580846175465383641 -0.0409595394348806624 -0.213531595709059524)
(-0.497804984576389165 0.254423012392710868 -0.0670479859845607984)
(-0.47138618992999759 0.13752472807557159 -0.0929321226363632735)
(-0.515688732101273084 0.263629449160518003 -0.0772825316867925133)
(-0.500162088669892979 0.145919448804865848 -0.11537080566439116)
(-0.428037326149848685 0.231483264939431388 -0.0196323122815996523)
(-0.466183449074641598 0.334487322077114402 0.0186823788927585124)
(-0.413509369253388048 0.266206410834104068 -0.00422607638111877418)
(-0.402843517770200721 0.318115279418257235 0.0389159283055408936)
(-0.493386253800061403 -0.183313006572521087 -0.0513128341318095094)
(-0.393697732924415067 -0.230029420977423127 -0.0175464693642749352)
(-0.475121654901522084 -0.225547920584442285 -0.0143384517831527652)
(-0.442313647139771338 -0.264903948399011657 -0.00667836565055731496)
(-0.455122362028332283 -0.051852097141880063 -0.0937104319359310656)
(-0.408980509955223559 -0.0939991555158108671 -0.0743268128346828705)
(-0.472572713493480623 -0.0564646689541312974 -0.088316259922849541)
(-0.447336534053059454 -0.134982513084443839 -0.0989421554349320942)
(-0.451664716673403299 0.040970999685325124 -0.072860455876491384)
(-0.400601159273817897 -0.0133515557241595268 -0.064415414096847895)
(-0.449609943559412639 0.00111473237418511823 -0.0604074056695359379)
(-0.462884962684329937 -0.0370170275479306393 -0.0934413913503829158)
(-0.420688121765685041 0.122734081744274665 -0.0455164489334024952)
(-0.381986134025677382 0.0647812913563670933 -0.0503298235757220422)
(-0.42725925144485366 0.101271994791314685 -0.0455906116017117738)
(-0.448463439507968076 0.0552329835062612198 -0.0665504581434253617)
(-0.337440983998154642 0.12253532766807039 -0.0257085958267503356)
(-0.370388667323694909 0.161699884020090473 -0.0182249166406788232)
(-0.397807905613635382 0.142529473267878959 -0.0258045077553823304)
(-0.34750485275401638 0.176546472389626785 -0.00735424902655221809)
(-0.348286992638752568 -0.165404842469147273 -0.0405604480671480291)
(-0.295617606344523776 -0.190529605908372784 -0.0292983684740044867)
(-0.35167987338169282 -0.207721538649611931 -0.0385698192242031959)
(-0.329069258528125519 -0.203608765215674559 -0.0347555024211800428)
(-0.344056467022987145 -0.0776336951912345724 -0.0450317949955995681)
(-0.30333319629886174 -0.113072343969619946 -0.0364708480794527293)
(-0.349261765138624336 -0.110380734786207552 -0.0446448333249856166)
(-0.342961856599329429 -0.123240593544168844 -0.053597905085081575)
(-0.334776047090199536 -0.011348911702548474 -0.0418847817960785324)
(-0.297728874133390331 -0.0497704589836789404 -0.0362696982997244843)
(-0.335623043607668425 -0.0407619409526720766 -0.0389123524279650773)
(-0.34327100026503371 -0.0612648553626289338 -0.0549410108127136934)
(-0.308664753644998013 0.0492691973765130228 -0.0305219704690699763)
(-0.28343118439907905 0.00711592600609406 -0.0304809320639209264)
(-0.315049535558583671 0.024046711770504263 -0.0308576183078782262)
(-0.331775322435482301 0.00714831467970299117 -0.0460909685281896478)
(-0.255167747466689354 0.056388295060688709 -0.0183617550098950991)
(-0.278885863123735422 0.0797419152719531371 -0.0177887668599426042)
(-0.298012994475980397 0.0720566811655769246 -0.0256114915168133839)
(-0.267855071462299477 0.100447404261439513 -0.0138471879248488056)
(-0.256510259059715529 -0.151309814503313655 -0.0252087684863091938)
(-0.217347018603232411 -0.168939826877041149 -0.0181588372996907485)
(-0.254820675149940501 -0.176654042198932493 -0.021925469379574427)
(-0.244197405112962812 -0.186606114642325682 -0.0238574787184597306)
(-0.258174609073897221 -0.0935321275977142319 -0.0277087513835776872)
(-0.225360659654719464 -0.118486612694517227 -0.0222563516074082701)
(-0.260106098448788792 -0.116145820782661779 -0.0263852382846337732)
(-0.256885494055108965 -0.128781840825610699 -0.031473460569522195)
(-0.251012925991339342 -0.0399404310614901448 -0.0248658485675668783)
(-0.222920271866660719 -0.0689167162162348523 -0.021659764695739759)
(-0.253225620621776504 -0.0614002089913868801 -0.0244988785938309306)
(-0.256816173511443813 -0.0731723617385665881 -0.0308977440313539034)
(-0.234527272501646206 0.00879926656623329639 -0.0183207166047460804)
(-0.213421734237727451 -0.0234603582565020598 -0.0178523626613834689)
(-0.240195122821593887 -0.0110344451505245932 -0.0195261707771406771)
(-0.247447520506464902 -0.0205507651380070627 -0.0252555078248259506)
(-0.196388268447288294 0.0173550047290510281 -0.0117075696565917264)
(-0.218410111433628901 0.0334130551337481208 -0.0121910649793244372)
(-0.22675160450977791 0.0288937578902409772 -0.016347124644183867)
(-0.209930303125559325 0.0518415893723686155 -0.00984887213761959264)
(-0.189637917264772415 -0.141519243561897073 -0.0152064204207897555)
(-0.15962974113817191 -0.156157710630994678 -0.0110818171849134603)
(-0.187263287432171355 -0.161109906821890553 -0.0133196546703028829)
(-0.182782404601914833 -0.165790014175748956 -0.0151338172340964687)
(-0.192632820458633114 -0.097684144602582082 -0.0162073649195703523)
(-0.165294426256792804 -0.117217357416441972 -0.0130280095808547255)
(-0.192382131176608406 -0.116809627130283006 -0.0156531888532226229)
(-0.191468932212425808 -0.123531437705916486 -0.0174668121628473137)
(-0.188378083820226389 -0.0549572092309316557 -0.014646278789556445)
(-0.164666658088207851 -0.0775798804652941404 -0.0127077894803519637)
(-0.190147782754052336 -0.0731257197538193182 -0.0150624649134653045)
(-0.191856572314630158 -0.079506694787432719 -0.0170522555958413473)
(-0.17802489062144003 -0.0152847219200624683 -0.0112392157132291289)
(-0.158524368630330148 -0.0398087295686090498 -0.010706893093953675)
(-0.181798999647492604 -0.0323035019178530003 -0.0124996207382635366)
(-0.185226780263250568 -0.0371996538133012727 -0.0141909182452251495)
(-0.148037160569670534 -0.00527054911262018772 -0.00757943627621101516)
(-0.168518043417221458 0.00481787958385359281 -0.00853302952184975191)
(-0.172724772218549122 0.00187030575541280225 -0.00990250564173615795)
(-0.162598506270643844 0.0208894221026760737 -0.00669848336559999459)
(-0.120151531784280771 -0.197956332195314111 -0.00234174808138896658)
(-0.0975943843767147212 -0.20600938272261457 -0.000200992869703050072)
(-0.112573762070373146 -0.210813531326577569 -0.0018528592002509418)
(-0.130535757102950206 -0.168610384222778714 -0.00648713894680161274)
(-0.106222251111239632 -0.179153603780236148 -0.00382917381931933542)
(-0.124134554392933277 -0.185510840791845738 -0.00572759673421830914)
(-0.137227546354783597 -0.134781079452330033 -0.00890340634497843904)
(-0.112803439178550513 -0.14838720078268447 -0.00640569839565146518)
(-0.135646581481498912 -0.151045481581645796 -0.00788830521976945608)
(-0.13335321569234071 -0.154246332157238736 -0.00865498515086934178)
(-0.139312617387551546 -0.0989370311081869264 -0.00952843414163639588)
(-0.116138677361607504 -0.11533522098783143 -0.00752952510475561089)
(-0.139052000251463831 -0.115260020999054663 -0.00938161049290873149)
(-0.138432334822599534 -0.119103712961693559 -0.00997702717782583161)
(-0.136795493575584709 -0.06335877064978504 -0.00876840378474922667)
(-0.115919657554928307 -0.0817988387279369039 -0.00742415003559540425)
(-0.138038889510431473 -0.0791750085939484649 -0.00921625863536172305)
(-0.138782471693662701 -0.0828891267670952558 -0.00978715325539930743)
(-0.130217256439137313 -0.02966886447937786 -0.00704711365693556999)
(-0.112239544472770278 -0.0493495300418609409 -0.00641098249282876908)
(-0.132878817284398598 -0.044528684584321819 -0.00787593593093818475)
(-0.134558442422918312 -0.0475351810027573596 -0.0083883332840295529)
(-0.105668499399328736 -0.0186336729152612145 -0.00479576819650490843)
(-0.124437407754741991 -0.0125814996974022708 -0.00582123362172340484)
(-0.126631758548199386 -0.0145601740449332155 -0.00625340209328448596)
(-0.120678833257769999 0.00159120711439897193 -0.00459247686381773421)
(-0.0836172804284052995 -0.188905020750242236 -0.00168841860763342807)
(-0.0635743028484536121 -0.199852682616908084 -0.000278988814833991275)
(-0.0795725977510276794 -0.20241295462845324 -0.00140793552717549805)
(-0.0891292798112144208 -0.160857211008443912 -0.00374773326816920088)
(-0.0680766199036975522 -0.172974625027734003 -0.00202986954535549005)
(-0.0857484347628195559 -0.176313996477980711 -0.00340946657127439703)
(-0.0928132444887135033 -0.130548083264527104 -0.0050318171554286353)
(-0.0715229036699005088 -0.144110518404876292 -0.00334675105826195713)
(-0.0919045022757171287 -0.145092395474112623 -0.00448495236449922372)
(-0.0906824498363717341 -0.147261072780104724 -0.00490993790122395708)
(-0.0939966968734143454 -0.0991693526004930048 -0.00542524099871461319)
(-0.0733658785404696645 -0.114139241442494835 -0.00399727373049260041)
(-0.0938452922277488166 -0.113766244879243111 -0.00536162218852727964)
(-0.093449368213369341 -0.116267818677620247 -0.00561631784585578473)
(-0.092582927914142063 -0.0679816641179841613 -0.00506672874367496053)
(-0.0733499068101268609 -0.0840086478756130184 -0.00401728849584491714)
(-0.093333093091989533 -0.082220653907315186 -0.00533314448120071269)
(-0.0936436046583100645 -0.0846248687531540866 -0.00555074852223945599)
(-0.0887893322597795576 -0.0381303024421760228 -0.00415963703239811012)
(-0.0714172346526384394 -0.0546873877209951079 -0.00355336628064024246)
(-0.0903881280545095478 -0.051629398508489438 -0.00465395920086570606)
(-0.0912226256885886877 -0.0536422506236637828 -0.00484253779119335741)
(-0.0677368989278782641 -0.0269320292296445253 -0.00274673979155994584)
(-0.0852642713607676961 -0.022973371428315046 -0.00351306654904680717)
(-0.0863738862630207549 -0.0244371579311059677 -0.00371227168220748154)
(-0.082789821019785062 -0.0102022094193395287 -0.00290400840194796105)
(-0.0480470522679749962 -0.182857984480321006 -0.000620439752556059976)
(-0.0311025400054563729 -0.197125763251897124 -0.000198069620989495222)
(-0.046066919915813756 -0.196260007643418416 -0.000582933194114413017)
(-0.0507907812877695375 -0.155789420754485236 -0.00162888733544825455)
(-0.0329685953191503761 -0.170140627800893063 -0.000885976783098676632)
(-0.0490826695983291594 -0.170289685764461768 -0.0015554434564886276)
(-0.0527061890971918037 -0.127487207133849922 -0.00231220763332592267)
(-0.0344030792311908334 -0.142071018782899655 -0.00141991719672916955)
(-0.0522236116157830874 -0.141121748993626367 -0.00194687456863173601)
(-0.0515400378610779003 -0.142655209470350958 -0.00229246446384173252)
(-0.0534449892352339903 -0.098677648747204777 -0.0025893212276229074)
(-0.0351919983123388791 -0.113474234434327165 -0.00170475086115370205)
(-0.0533269106333827195 -0.112277459780675548 -0.00246737120571522512)
(-0.0530217625749031252 -0.113999003767217 -0.00268451434115705816)
(-0.0528908255974961453 -0.0701270297319304542 -0.00250392603281021121)
(-0.0352035144432672337 -0.0849579335800034613 -0.00174088349976184924)
(-0.0532339921182803863 -0.0834217911664461853 -0.00257132768040231998)
(-0.0532623168158133098 -0.0850816317935004507 -0.00271252494381070018)
(-0.0510921775158506633 -0.042615070424036644 -0.00214046903980208338)
(-0.0344113957545657684 -0.0572287357358427159 -0.00157563533292401836)
(-0.0519045102548173903 -0.0553264811435269718 -0.00234315352998308579)
(-0.0521893321670926086 -0.0567487501774910433 -0.00243704743507159932)
(-0.0328979014666742203 -0.030951454358440985 -0.00126389738672670268)
(-0.0494393607864804518 -0.0286983451464342919 -0.00186958036020229033)
(-0.0498924247714928812 -0.0297628870615015556 -0.00194644696955688823)
(-0.0481676222114752889 -0.0167692413048889967 -0.00158126730027686991)
(-0.0160635186268380838 -0.185499123404532423 -0.000463606651532117949)
(-0.0155083849207757717 -0.199760253975499485 -0.000398886363082304012)
(-0.0167836780979460885 -0.157629812711386541 -0.000677006644379588712)
(-0.0162917829945967776 -0.172513129287220429 -0.000621516764840907964)
(-0.0172014249462160429 -0.129129226638203087 -0.000812460424556951319)
(-0.0171085227610844604 -0.142604279270781426 -0.000712528284818713135)
(-0.0168890080512823088 -0.144314298270506458 -0.00079799368190295282)
(-0.0173008150943966578 -0.100512308921588536 -0.000856313133292652996)
(-0.0173274981593991677 -0.113908275372116452 -0.000824922025374080401)
(-0.0171924055905708049 -0.115621460972985438 -0.000876878359034205567)
(-0.0170544605448449578 -0.0724130067271801514 -0.000812592799875654537)
(-0.0172136983216027439 -0.0854630583860742088 -0.000836565124732672051)
(-0.0171597669655227415 -0.0870520159046042213 -0.000865760566287480915)
(-0.016501037228466249 -0.0454623370419424619 -0.000699063679848637006)
(-0.0167894179740744887 -0.0579035978101983262 -0.000757816262397282962)
(-0.0167974724404397271 -0.0592620480895178839 -0.000778989964614785839)
(-0.0161163839322478637 -0.0318499234958377966 -0.000615642194506974775)
(-0.0161621695004272835 -0.0328810034660358685 -0.000639332009853853136)
(-0.015724041847264808 -0.0202259758657316671 -0.000542004050069980182)
(0.180877668661657609 1.42785988134134101 -1.16223230471725159)
(-0.0445528962678563289 0.523961148735226367 -0.889577929542765267)
(-0.0012452527268223951 0.681368439313158936 -1.10942263654318451)
(0.225911668165275081 1.99567443484396856 -1.25246902046464381)
(0.167619854982656163 2.45421150718751546 -1.37713727486665727)
(0.487354224128668523 1.77971433195362105 -1.00249583023403699)
(0.0986938193403553848 1.14660231305328431 -0.979814645290156827)
(-0.162037686872458592 0.32259634899355244 -0.224291375688895733)
(-0.040005106377897115 0.521673893769750707 -0.833898999331174839)
(0.219300860510808771 1.60666569651429647 -0.909612217473072859)
(0.254531819172853668 2.04712441020193525 -1.23807291353308546)
(0.511422646390469748 1.74552732793570287 -1.00864969282035832)
(0.0705501520402279092 -0.825129346932722996 -0.54626241759861649)
(0.183809013232389545 -0.707567803454522193 -0.2667908655133579)
(0.0565281759953185844 -0.957995106463376711 -0.305507372797609478)
(-0.152964399090713021 -0.645814138099561674 -0.279633002195973313)
(0.323279581328422549 -0.591593080003292027 -0.704209743653566589)
(-0.468157797062335179 -0.757473435099218495 -0.515984054203233677)
(-0.216765133922892317 -0.159313015751864795 0.273283868558255927)
(-0.495582608125094026 -0.494220257084953485 0.258844095796891438)
(-1.00675418457522259 -0.32048423757123734 0.188755538443016513)
(-0.0916553995732942023 0.774547757761288702 -0.154088947871810655)
(-0.139271303512002315 0.246333076852338129 0.493769179421917614)
(-0.391034280502183695 0.362254536157119056 0.0984925675336759954)
(0.0479949712623633229 1.24911722732220376 -0.254183856780451078)
(0.0181050122943445142 1.5295192570356122 -0.760180372241067714)
(0.401745911256001009 1.42993581230721145 -0.668737762084557152)
(0.338969265006471732 -0.484070289852779223 -0.424738191568311552)
(0.428792051769026572 -0.725408552838359033 -0.0792494480536722473)
(0.19148839583842106 -0.571515935447985624 -0.291559821028998856)
(0.0895384233326151496 -0.265196755197627865 -0.165732645660703143)
(0.791884476153295269 -0.386798003204061602 -0.396906745826030138)
(-0.101797263800830942 -0.383095636034501752 -0.459471977640189599)
(-0.314466505602183588 0.0300565159526147152 0.479329406660553459)
(-0.339673759489907412 -0.124376495560375305 -0.0551250656703221598)
(-1.07559945308151539 -0.223440846393019227 0.285737282067395959)
(-0.192500420219959806 0.720029752155558977 0.39367427051328141)
(-0.462125455281415687 0.314412217437971653 0.420932944491080374)
(-0.786228046997253349 0.446005292423106825 0.479933003727186114)
(-0.352225914342933488 0.988190259290888218 0.251166005497612144)
(-0.35497311425834871 1.25051130082811013 0.0267711148200653476)
(0.173419168305169319 1.22661763013002179 0.0219044462417065863)
(0.752576081455314294 -0.502642440072319951 -0.0514180023113927284)
(0.822907089276261772 -0.960763369422614866 -0.216539276994485941)
(0.407574957580227992 -0.436994591143102795 0.00444291732123186511)
(0.33321819582145995 -0.202102937561594503 -0.286299165835647351)
(1.06465377902568803 0.0691577702838256092 -0.345924591699578454)
(0.566414048126969383 -0.304377749346191495 -0.207298029361881825)
(-0.342814481423721951 0.217289692708872162 -0.113521527839797548)
(0.0131492065496380227 0.5788124300782993 -0.482283469993747882)
(-0.663715186819694991 0.149188733508389848 -0.344171692573125187)
(-0.763757625741061208 0.563145987084193389 0.278424679475413051)
(-0.49790040703122479 0.6938068222715148 0.00311900909682760741)
(-1.2146361211468184 0.405846137995347744 0.176136243491669314)
(-0.648846806895426065 0.725022094919966387 0.357397295887282529)
(-1.03401275675759829 0.757799513526245527 0.285835489561277245)
(-0.429988949348177218 0.904745418706434879 0.362330472116320301)
(0.956416230534056333 -0.217695034688399847 -0.511045866382671132)
(0.181412725135125075 -0.137278319217710887 -0.733962504532268523)
(1.0410538673230032 -0.363696187076266442 -0.557734315360950084)
(0.642558770245012623 0.64435623778483031 -0.541908895857678097)
(0.352260833133791751 0.631604821868248512 -0.220751111113766663)
(0.285436617358591438 0.497570223237922604 -0.394781351499121691)
(-0.0610343812506520117 0.746802883139354279 -0.365642933057123642)
(-0.196100232673770802 0.709222367285622712 -0.29844575635195425)
(-0.521126440096093213 0.843555009772721021 -0.105596826400763011)
(-0.442732028169047054 0.697633165263389365 0.0820916255086991953)
(-0.290337344758710258 0.642270310567047753 -0.131153443734224051)
(-0.680268897394937122 0.689009719720482972 0.0883241425980698797)
(-0.632291083123571074 0.6718632357092581 0.266882441050140695)
(-0.956228636508643426 0.672515404995256305 0.369231667268092367)
(-0.543833541858177449 0.710275246587460551 0.454989633082464928)
(-0.724408239608703819 0.318425066847030425 -0.443667749263367051)
(-0.573587489975017739 -0.313331045350056958 -0.721739133534630595)
(-0.954407262196882322 0.193868771940342133 -0.86251708137884231)
(-0.432992527454442611 0.741852789281792102 0.0227120283919559907)
(-0.546781437409738724 0.295812007469479443 -0.0194152836734060585)
(-0.385615775477762268 0.76878056718971477 0.0153283039796079934)
(-0.398820487733243911 0.704491135799508617 -0.0639562670290536595)
(-0.442251231663412181 0.373706687500951873 -0.0392696638378401755)
(-0.529998036571310949 0.786765774546542507 0.111001795293707989)
(-0.498133293766871543 0.639307162233660797 0.0536373718072188088)
(-0.485165634645199351 0.427984449852726045 -0.0456954918956753511)
(-0.635106624615701665 0.643063438898874407 0.0629118539325977943)
(-0.527097752497825311 0.45605677612001394 0.120379005790060833)
(-0.710104102092510847 0.620482157976196103 0.215659214778093689)
(-0.489211028937785342 0.588178532294959977 0.251738411139435236)
(-0.542690721703340317 0.0116948529535458728 -0.297486667944670713)
(-0.484680618147238285 -0.104927231742462559 -0.223215911648745158)
(-0.539195099565740299 -0.57424958951753402 -0.370836234183197055)
(-0.51846422837995243 0.230489787026230658 -0.0813969759032016349)
(-0.519653524986725013 0.148597562284949025 -0.0955773286476568062)
(-0.501692105162631075 0.152888422379388489 -0.0724519967066937637)
(-0.536339175689272696 0.27373421637190809 -0.0210088887044617492)
(-0.47666113478258948 0.127194358352802517 -0.0353314954213140645)
(-0.505269400972466642 0.326818185052831445 0.0548381468668829725)
(-0.500558058025996844 0.343693758844921038 0.0210461420871665209)
(-0.471561793616129266 0.204045625872725012 -0.0169558602081265053)
(-0.559718750543543253 0.305013319996985943 0.0402082437945223831)
(-0.408534790248487711 0.257544102759347526 0.0274970580395888509)
(-0.490742080743347076 0.354818264524921767 0.0673958554523761688)
(-0.406476925855064342 0.348479778627476366 0.0869737572221288974)
(-0.501287939294032259 -0.0986995829660522878 -0.0213065723517330864)
(-0.433103795358799504 -0.17380627025603948 -0.0105787369247889763)
(-0.521438653167681121 -0.157988104709593014 0.0610549358745394039)
(-0.443699622454493847 -0.00349783943806609597 -0.0495118481657692289)
(-0.412853968676881233 -0.0565356439365186647 -0.0483022691619304501)
(-0.488013959553027232 -0.0347576400220060283 -0.00275032060198776573)
(-0.433591804874210951 0.0614157274801744452 -0.0312784669249788483)
(-0.384631827893263223 -0.00483851122724716226 -0.0377776281835315308)
(-0.43250999005396229 0.0464161560919622157 0.0186274752366695322)
(-0.386695037842594125 0.140237797067130493 -0.0105049442557045326)
(-0.360322652977759783 0.0764543121364955197 -0.0206749023514640924)
(-0.404136706811080215 0.0918547532750237095 -0.00221634659627025898)