/*--------------------------------*- C++ -*----------------------------------*\
| =========                 |                                                 |
| \\      /  F ield         | OpenFOAM: The Open Source CFD Toolbox           |
|  \\    /   O peration     | Version:  2206                                  |
|   \\  /    A nd           | Website:  www.openfoam.com                      |
|    \\/     M anipulation  |                                                 |
\*---------------------------------------------------------------------------*/
FoamFile
{
    version     2.0;
    format      ascii;
    arch        "LSB;label=32;scalar=64";
    class       surfaceScalarField;
    location    "0.960000000000000631";
    object      alphaPhi0.water;
}
// * * * * * * * * * * * * * * * * * * * * * * * * * * * * * * * * * * * * * //

dimensions      [0 3 -1 0 0 0 0];

oriented        oriented;

internalField   nonuniform List<scalar> 
20390
(
0.000156767895941077416
-9.73550930705603787e-05
5.67813457708806681e-05
-0.000106145256453090258
0.000239765386019618254
-0.000102722725733477637
0.000167222205429616913
-0.000147670558044843002
0.000286191959276798984
-9.22962780061542152e-05
0.000199362475083875309
-0.000153825577440336878
0.000329305483616346682
-8.33079243070651386e-05
0.000198249021054018587
-0.000158499241580255408
0.000362367896141647212
-6.34985989274991969e-05
0.000195228244381860053
-0.000165339230088326264
0.000388664146100354678
-5.04794562336071702e-05
0.000195186432283848933
-0.000171740926665600732
0.00040779489866519256
-3.88454280734784504e-05
0.000196742847678389959
-0.000177730971559653469
0.000422926655758967915
-3.20273932651032387e-05
0.000199256188055288143
-0.000182924311414343964
0.000434676981724130317
-2.6077007660721444e-05
0.000202088571657401843
-0.000188172016422924124
0.000444048426009042497
-2.1458303720439854e-05
0.000205765307415979262
-0.000193934209899250531
0.000450721775275702587
-1.68012770619498501e-05
0.000210275363002818941
-0.000200267562352453868
0.000455448599030825818
-1.39544883621341445e-05
0.000215301124898013418
-0.000206145951241822696
0.000458115774002921638
-1.18097637211918801e-05
0.000220192968567670832
-0.00021103764922495615
0.000459649423076792258
-1.13291181797862436e-05
0.000224242420432580364
-0.000214432862618623229
0.000461093750694694055
-1.29943715456498404e-05
0.000227380670055027584
-0.000215816154318669004
0.000464392233278209299
-1.79308718274254614e-05
0.000229413093100107329
-0.000214802103876106035
0.000470274887740063227
-2.45935743013528046e-05
0.000230079879986522375
-0.000211427609322283717
0.000479424673871722145
-3.09877686667128338e-05
0.000228350639986276831
-0.000206601056682570742
0.000488694434415019711
-3.12718989294938907e-05
0.000223640273019208119
-0.000201660162772484744
0.000498370515299633951
-3.08947282685804095e-05
0.000217677677687117926
-0.000196406915509448623
0.000507401878177109796
-2.9161270680095299e-05
0.000211792112301489676
-0.000191526142032993001
0.000515686004004986998
-2.70458429117694081e-05
0.000206821236092558281
-0.000187810335487246605
0.000522495500195805881
-2.40033238027596335e-05
0.000202295689517258462
-0.000184755555217136144
0.000528625296855242443
-2.18611145553012356e-05
0.00019779193380289222
-0.000181615052648101497
0.000534534547162218016
-2.10104435629605386e-05
0.000193948153328995165
-0.000178334715862391165
0.000540910975249991573
-2.18610072271584092e-05
0.00019126734549924126
-0.000175346114999475923
0.000546420096081687463
-2.05241269829136203e-05
0.000188797401491861284
-0.000173548896055773593
0.000550809008656782733
-1.83271905287925204e-05
0.000186468468296664594
-0.000172318614744192047
0.00055421053737937881
-1.59556668340875808e-05
0.000183509743245802544
-0.00017046819494459292
0.000558155062261459834
-1.72302298543533913e-05
0.00018165806445996589
-0.000167737371952624378
0.000560796508381029672
-1.54319401607030852e-05
0.000179209357889865772
-0.000165919859375422463
0.000561993723042911349
-1.43567247592832307e-05
0.000176834964787039492
-0.000163398916598207067
0.000554221886981642355
-2.77816017570626961e-06
0.000172501868195969687
-0.000161062239750907614
0.000517572949186143635
2.89408881486773722e-05
0.000163276292128740157
-0.000155061848007945885
0.000416353978217577202
9.97093940268254129e-05
0.000142684463794281292
-0.00014091481278361015
0.000220243359492824464
0.000206258693018032381
0.000101243542980416834
-0.000111372987014751387
2.51569095182262371e-05
0.000212544592006242724
3.76846891966241282e-05
-5.52212982812566401e-05
4.11152426294775396e-05
-1.14750133335151347e-06
-1.48362523417932891e-05
8.05415257136221982e-05
-7.24154172085211795e-05
-7.73242626231572777e-06
-9.54928939580708852e-05
0.000199317504919634467
-0.000122080186050931358
5.51966284159329836e-05
-0.000131049030036094433
0.000253473069226925506
-0.000134479526789750396
0.000151981994199157713
-0.000155196593530963089
0.000281532977618180013
-0.000117295384309162165
0.00017165956260796288
-0.000166773560500446644
0.000302459829947254895
-7.94532705956382899e-05
0.000159946844155010355
-0.000173086727191618014
0.000329797408114523513
-4.45502626026415959e-05
0.000149809409453789167
-0.000173704562130048783
0.000347286746691182987
-3.00271016334468865e-05
0.000147209217908106306
-0.000171550849323896039
0.000353269904501609647
-2.46123807175087926e-05
0.000139162807218295645
-0.000171064515798441435
0.00036812212974924631
-1.92113662527303562e-05
0.000136308477010288172
-0.000173760660677247845
0.000385443685343859425
-1.45261878725854827e-05
0.000139482538341116304
-0.000180035591802447454
0.00040724649126031953
-1.03864893016800841e-05
0.000148580220612131797
-0.000189554909643932317
0.000429157463899774061
-7.6148688037812898e-06
0.000164706666910176475
-0.000199912592229638058
0.000442826848992871887
-5.39838812481896012e-06
0.000182492214032129829
-0.000208502360895816599
0.000450863929236656287
-6.65785266146180526e-06
0.000200170571494616607
-0.000213832347139895939
0.000453696329893008812
-1.33402406403345151e-05
0.00021530094860750963
-0.000216444003098409594
0.000455966874636569962
-2.72310287857425891e-05
0.000221848831874440339
-0.000214874041842423775
0.000460248914263387072
-4.46807604478508067e-05
0.000224403928183617937
-0.000208673064899591004
0.000468317654602954953
-5.9594676003379602e-05
0.000221373307082354306
-0.000200358882744699476
0.000475601453713879918
-5.79141601413244513e-05
0.000213155885104393886
-0.000191645988201126613
0.000483421801708106144
-5.65776344939623047e-05
0.000202364139037468295
-0.000181708974379212775
0.000489619732553532323
-5.15837660760063121e-05
0.0001894580652879619
-0.000173642080522731172
0.00048859342159155621
-4.12819722316384716e-05
0.000179890184468660115
-0.000166066782886811781
0.000485599348189905372
-3.11505318556409339e-05
0.000169149523708833952
-0.000161427748340125122
0.000487443310662009194
-2.70746729283109053e-05
0.000160817888415840788
-0.000153098845241173172
0.000498714671714303032
-2.30743331405121413e-05
0.000158042797884119237
-0.0001462004454721577
0.000492250887942021409
-2.15790672624251401e-05
0.000153250333638070958
-0.000143349224032150713
0.000460678608486397563
-1.46251263701286115e-05
0.000135413653636544574
-0.000135302156943508468
0.000444387831503211634
-1.02468600753664377e-05
0.000125591754477355521
-0.000124675985937585244
0.000467993352322059538
-8.82008144404349056e-06
0.000128130172742308855
-0.000115384855095659135
0.000470513599609406383
-7.39852538229081133e-06
0.000125756770383227785
-0.0001160917479702304
0.00045969970882483107
-5.23870540043824937e-06
0.000118417702364642224
-0.00011544976417190647
0.000428246138056299105
-4.80380910710736033e-06
0.000108871348092381533
-0.000107775260433093945
0.000447513880540754321
-2.898950813925319e-06
0.000110907502284483903
-0.000101606144146596964
0.000454938978601347526
1.81005400456245183e-05
0.0001126222507236134
-0.000105320179589224989
0.000451938009255002833
0.000101822795444841412
0.000124254696267659949
-0.000119902573905281728
0.000352282354435006992
0.000305642639822621166
0.0001185372919894854
-0.000117901614663140219
0.000165225367937102977
0.000412338950582347207
8.30887592520486575e-05
-9.56787597983010046e-05
0.000218488506867298458
5.10505487255633877e-05
-6.32769176077860963e-05
5.46847679929399883e-05
-3.71240703131454756e-05
-1.06468056725815954e-05
-7.40060702943423778e-05
7.61357832846659309e-05
-5.90622567778080124e-05
2.65365269386128487e-05
-0.000112792284508318706
7.77047785758195654e-05
-5.66881119499470712e-05
5.96399789793377162e-05
-0.000129663224055149076
7.35840238144807072e-05
-3.46771408400200801e-05
4.33986669226185375e-05
-0.000121487602600764438
5.45620206672700028e-05
-2.21217873888306336e-05
1.96090182179886663e-05
-8.14316290856789216e-05
5.1640815208540687e-05
-9.12635437986662501e-06
5.70701600481545025e-06
-5.15777810341413984e-05
5.42893463397109064e-05
-1.03224354593484076e-06
1.81489977102120197e-06
-3.13792156194764689e-05
5.21832842205936326e-05
-3.59059630549260177e-07
-1.97830833209230548e-08
-1.90566570160067262e-05
5.07647877118527806e-05
-6.17487512229298205e-07
-4.8350382465640131e-07
-1.55165015799461683e-05
5.35772395862158082e-05
-7.78225325534013493e-07
-6.15138959047589405e-07
-1.67671923063568846e-05
6.33161088537353262e-05
-1.42515705586628293e-06
-5.58166251431563373e-07
-2.11236984332665312e-05
7.60331080749778495e-05
1.08823951796763721e-06
-1.69934225930429178e-07
-3.14805296989616445e-05
0.000114799693432303857
5.26910704436509387e-06
7.62054545371249506e-07
-4.98178109395866145e-05
0.000152131403612041965
5.86732583829271728e-06
3.39804563143424621e-06
-7.54645164557972848e-05
0.000228878975907330221
2.53496021873656861e-06
1.26578526008595499e-05
-9.94298603136959335e-05
0.000266570622715674101
3.18098854129185595e-07
3.30006848893294835e-05
-9.80786872653789709e-05
0.000271270808838821654
-1.09231686835053931e-05
5.25386954326019848e-05
-8.58426228820645669e-05
0.000243317024261318813
-6.13505458020566968e-06
5.26535805486815417e-05
-6.47418810371754212e-05
0.000208523175732828255
-3.48011592687629529e-06
4.04206471171272407e-05
-4.53837175648528829e-05
0.000182715963412539756
-4.21910277016790783e-06
2.28789268841550639e-05
-2.70096446771210214e-05
0.000155889640828670982
-4.14898490069364827e-06
2.81690856050864139e-06
-1.25794306874445867e-05
0.000120010568258630728
-2.64849429548760668e-06
-1.1238763917237061e-05
1.23698236640437984e-06
0.000105344380980057018
-5.08977602811199727e-07
-1.82452649721280833e-05
1.13280151031821384e-05
0.000104215149943046089
-1.03452588734254912e-07
-1.87919755512042177e-05
1.80226541179001899e-05
8.03140146801177481e-05
2.58298124195707493e-08
-2.01709394399576511e-05
2.34031784836649063e-05
6.26010458442239037e-05
8.29216782579775242e-07
-2.00364350941670101e-05
2.53480040856240529e-05
4.55558913930456194e-05
1.17940557297285141e-06
-2.17167654854075137e-05
2.0604239578502234e-05
3.77667652856681396e-05
6.99114129766302251e-07
-2.35332005970017133e-05
1.8853849684737609e-05
3.61085981823238043e-05
5.35815744447651363e-07
-2.37956149613546849e-05
1.83648123747792382e-05
3.30283963378270084e-05
4.34109688512657421e-07
-2.34484438572850596e-05
1.68515442792309128e-05
3.10306901485355149e-05
4.48080777231115202e-07
-2.35228998433835112e-05
1.63461975142024548e-05
2.95985904766306546e-05
6.15431385120532041e-07
-2.42498543278356663e-05
1.6370710641241366e-05
2.96416542543991445e-05
9.2629180856588573e-07
-2.37641707730815091e-05
1.65606665786847433e-05
4.70373523424302467e-05
1.52939930718250579e-06
-2.03342272854840012e-05
1.54362654210412308e-05
0.000113825491329564126
2.43967363325580556e-05
2.16032374419960717e-06
-1.12830787454429134e-07
0.00024542261584783228
0.000154661078867444424
5.75150036698077649e-05
-4.455319175454496e-05
0.000170957290865626381
0.000493179743127459473
7.82019062642626012e-05
-8.36371386006848968e-05
0.000397529908176792268
6.81508947397980021e-05
-7.61657073031616103e-05
2.42777977448932743e-05
-8.64637100319001054e-06
-1.27624798252494666e-05
-2.9776762790566887e-05
2.06505992990283792e-05
-2.0460110753602633e-05
1.75720399993976409e-05
-4.98798655271794498e-05
2.47869151203081707e-07
-1.15795063520512667e-05
2.78571560411125342e-05
-5.20941893223330924e-05
7.57022706476240322e-06
-3.38706254478833438e-05
2.52919042708629272e-06
-9.49753086365901022e-06
1.42541297183396408e-05
-1.8294817768099749e-05
-2.74963738343581082e-06
1.20678142923970514e-06
2.0287019911038744e-05
-1.02724702812277642e-05
-4.1250344733323066e-06
5.85773467664931582e-06
2.11698467745354525e-05
-4.71670797154905808e-06
-3.80256777555342541e-06
6.62923090488080274e-06
2.420019287260039e-05
-1.81171388291434339e-06
-3.10080373061563986e-06
6.60371517826308227e-06
2.74418207453200859e-05
-4.76919295910267393e-07
-4.90135173830117891e-06
7.62028258823715362e-06
2.75416393786572571e-05
-2.8213224198303113e-09
-5.49472275677723325e-06
7.48934054170206751e-06
2.60595580145355957e-05
1.79286557578824058e-08
-4.59171379216274602e-06
6.18016957051268456e-06
2.93256285086632096e-05
-2.93757270549334802e-07
-4.29393907135562386e-06
7.09799490965810279e-06
3.17491850609110776e-05
1.7502791639776178e-06
-4.74842238234745653e-06
7.57858054179584017e-06
3.34011154432402546e-05
3.26470487250894329e-06
-5.27576326117733311e-06
7.76074759482710368e-06
3.07240830443727828e-05
1.58041975896147052e-06
-6.37358469876517444e-06
1.21495519257417549e-05
2.47847879299352853e-05
-1.03886662439959515e-07
-7.04993983452548179e-06
1.44595369960724156e-05
1.50867371264635084e-05
-6.25435206293569332e-06
-7.42796498524231602e-06
1.44096266032133152e-05
7.01300694078268618e-06
-3.5995128668395692e-06
-8.98499450822774041e-06
1.44887550917168168e-05
2.76267612974190764e-06
-3.14439041857511387e-06
-1.33544815726769482e-05
1.57197416734977838e-05
2.0100276044771993e-06
-5.15331587434329658e-06
-2.03163712370291343e-05
2.01974575321557099e-05
3.01231921371609104e-06
-5.23133554329100926e-06
-2.48806550088997929e-05
2.36179403170822665e-05
4.6682231997798171e-06
-4.17947560541802335e-06
-2.64741146747764878e-05
2.54875917582308992e-05
6.92190550759885603e-06
-3.33294734257335013e-06
-2.79582739345107957e-05
2.58013617333002952e-05
9.84584105494640419e-06
-2.21707764806061933e-06
-3.03553506068054289e-05
2.60409307470539575e-05
1.2709149124909161e-05
-8.49734031387373774e-07
-3.15332508760144591e-05
2.84421820586864314e-05
1.3662142732843137e-05
-4.00921702232481466e-08
-3.12986134491679866e-05
3.01149953867862334e-05
1.42092510774037433e-05
-5.73908936048786782e-08
-2.63232957989187269e-05
2.68540385369411391e-05
1.42488238935721826e-05
5.61932135476631652e-08
-2.26069731922185369e-05
2.29360372171299637e-05
1.45293885507822531e-05
1.06740129823083613e-07
-2.07921398168165279e-05
1.99484316596412684e-05
1.53600871751251257e-05
2.00414043885453337e-07
-1.84399832518185108e-05
1.65077940653566641e-05
1.72574789515485613e-05
3.90374433712938852e-07
-1.65546372157773982e-05
1.35040459514485498e-05
2.01020327285558121e-05
1.09669616976753784e-06
-1.73869228538752367e-05
1.25960068441437271e-05
2.29497826943104733e-05
3.00514078871374848e-06
-2.36089713721949179e-05
1.56394521737599664e-05
2.90351205031438596e-05
4.02775962591773243e-06
-3.52018121274007468e-05
2.31360756960895604e-05
4.74880236768980581e-05
1.37934294749941151e-05
-4.91189324887070388e-05
3.58622557001864103e-05
9.31727209838806113e-05
0.000104121778369340676
-1.2775740679822609e-05
1.02827154813993358e-05
0.000128386889472319963
0.000465607345056445212
5.46542660481700961e-05
-5.95544815562497164e-05
0.000532432354126290575
6.35430106922797147e-05
-7.01845621401572491e-05
6.84844424407021853e-06
-9.64951731007774493e-08
-6.51463014998906285e-06
-6.46137619205216083e-06
7.41768470354550746e-07
-7.66914665235157734e-06
1.15420059906553059e-05
-1.84695925957151089e-05
-2.86910253710988937e-06
-4.10726652666107402e-06
1.52565375391288831e-05
-1.92169988113485778e-05
7.44853141296201422e-06
-4.64079808662333873e-05
1.04017724183053585e-06
-6.55252942746599165e-07
6.84142935863755093e-06
-1.91223662779937522e-05
-1.67773165249959834e-06
2.97637343231684387e-06
8.58686226961526793e-06
-8.87182819765590761e-06
-1.89099837337481092e-06
3.19287547650004668e-06
7.02526395404682292e-06
-3.49943876047709417e-06
-1.64766410777337162e-06
2.62831057781789717e-06
5.48909465396897739e-06
-8.86730290246347985e-07
-1.48967617555169456e-06
2.28025454503257495e-06
4.49449392152149806e-06
-6.53451600873060601e-08
-1.28478926089132681e-06
1.78873474841255689e-06
4.78497476775354039e-06
-8.77032672970126227e-08
-1.35153150499408934e-06
2.21632843887408749e-06
9.07257048079698159e-06
-3.43757152611075688e-08
-1.77655072450545277e-06
2.86384023571763337e-06
1.35520602535988887e-05
1.06700568665456884e-06
-3.14551196666065541e-06
3.7702140958720559e-06
1.41189157162397936e-05
3.27391977678847275e-06
-4.37934864662297432e-06
4.17850729058212495e-06
1.48260582274564021e-05
4.40585377681797597e-06
-5.58444001526624643e-06
5.5015544325702326e-06
1.39808553034166263e-05
2.41229383746455327e-06
-6.97365560093840633e-06
8.61373165910170152e-06
7.77855385891912865e-06
8.34642524747362063e-07
-8.53554529094886115e-06
1.26968138298341117e-05
-2.99293730779855607e-06
2.21186032537115535e-06
-1.25131050616061539e-05
1.67622284470139639e-05
-9.13651289586917649e-06
1.3421632351460346e-06
-1.84489582625048726e-05
1.96096440728956654e-05
-9.51871618597450947e-06
-5.08366743406642978e-06
-2.42415321350717726e-05
2.43231096835794398e-05
-7.44162774380245825e-06
-8.36403693371451964e-06
-2.46277223910986337e-05
2.39468040884849005e-05
-5.44960947004790409e-06
-6.2732459085872865e-06
-2.32494084353788718e-05
2.23193392400605738e-05
-3.27701066199926822e-06
-4.10663801044396239e-06
-1.94417114901332473e-05
1.84895927833625866e-05
-1.42374055547842313e-06
-3.53378648755864549e-06
-1.71049905596706323e-05
1.68956172483318569e-05
2.04100438870295127e-07
-2.86136494793182883e-06
-1.5369045475241365e-05
1.54101620422784939e-05
1.62612252785376227e-06
-2.23553322715023565e-06
-1.32330326515209237e-05
1.355074658742382e-05
2.99558718571146083e-06
-1.74065359965438805e-06
-1.26232198395319758e-05
1.27471651648118014e-05
4.1519930346015494e-06
-1.14548774762637494e-06
-1.15242051309974782e-05
1.21194356923678197e-05
4.7373219173759591e-06
-8.5906906745785464e-07
-1.06245416536895779e-05
1.1437640177929738e-05
5.42022052787908703e-06
-4.78222606647533905e-07
-9.7798611691156702e-06
9.92244861592485571e-06
6.1946107863316421e-06
-2.14303237006358434e-09
-8.71855120341102609e-06
8.09001903573030181e-06
7.63181677168627233e-06
2.03126140170125482e-08
-7.46767086850185038e-06
6.09186683860666051e-06
1.00391855531843626e-05
3.72149009258352261e-07
-7.71211304244140656e-06
5.29928388119265478e-06
1.33412898170852406e-05
2.104134562846117e-06
-1.15009456784418659e-05
7.43648728096765075e-06
1.72126932949223164e-05
7.68659435327065791e-06
-2.69145590181029128e-05
1.6531738798621352e-05
2.55053632189843802e-05
1.7050591461711003e-05
-5.51191660803011487e-05
3.94802235156160514e-05
4.56845884038206809e-05
9.19265997529420667e-05
-5.26469168279586491e-05
3.82179906433350268e-05
8.26842994294710689e-05
0.000430957885959651983
1.65573614644672014e-05
-3.02703858496476259e-05
0.000620607263864389339
5.37891893870462841e-05
-6.03226151264463643e-05
3.16363311599508545e-06
2.01505925411848444e-06
-4.28226420777112686e-06
-2.12167285630619241e-06
-1.21009693438087192e-06
-8.88055002764453641e-07
8.33015181303135874e-06
-1.09650559598832244e-05
1.94966781267043417e-07
-8.85974575612742893e-06
1.05505046877487295e-05
-8.3185729037435246e-06
6.42397235337829064e-06
-5.39659486079349424e-05
-1.16036329087110834e-06
1.26843620597663401e-06
4.86210199146006396e-06
-1.73394795834085231e-05
-1.92170219351536743e-06
2.49735661887232787e-06
3.80758196124623404e-06
-6.4455258376432622e-06
-1.41703713833005971e-06
1.84409984927476651e-06
3.13076146226259961e-06
-1.79972120946563271e-06
-9.06147352241622422e-07
1.16371774588107866e-06
2.36613369664902622e-06
8.6538907126444094e-10
-8.48944309880671846e-07
1.00805047592159361e-06
1.89613718425898746e-06
1.53596427958772218e-07
-1.02485049453725618e-06
1.08425534251283646e-06
1.40313660697973461e-06
3.05552614502905364e-07
-1.57473538248196149e-06
1.25882608360459452e-06
1.70096245633387505e-06
2.32743161168303577e-07
-2.73945924676556528e-06
1.83653858294648658e-06
2.89439856533831551e-06
6.96838289849805841e-07
-3.53392285227764305e-06
2.36013829091091644e-06
4.75144637985786369e-06
2.59065311011745931e-06
-4.1439463182629342e-06
2.71499885600240677e-06
6.81239471721157908e-06
6.16922270582730623e-06
-6.26325222658887843e-06
4.23525707585716194e-06
1.92123385853097713e-06
1.10008055235221539e-05
-8.19340055606552232e-06
8.39788562614811879e-06
-9.11039899975552323e-06
9.93219546673069787e-06
-1.38794067101388851e-05
1.44439909776138489e-05
-1.3696281849438632e-05
7.231346770596006e-06
-1.90797168477854277e-05
2.04826924109214844e-05
-1.49495690703705979e-05
1.1833824570678418e-06
-1.97856122831604735e-05
2.02096602898636916e-05
-1.41588261664795063e-05
-4.98341823158337718e-06
-2.29932165343522518e-05
1.85287151830881218e-05
-1.06518425079457516e-05
-5.39194091500604133e-06
-2.42335076099957339e-05
1.53925197829893086e-05
-7.87058092520712647e-06
-3.72859718034850632e-06
-1.74327343952429438e-05
1.3071784174220771e-05
-4.95417327860299152e-06
-2.6306292210314557e-06
-1.4085229511974626e-05
1.04591739656619589e-05
-2.78398586241029398e-06
-2.07225668961666535e-06
-1.05686351628234729e-05
7.91149040414791472e-06
-1.11790470144922215e-06
-1.71858597221922154e-06
-8.16876686119718376e-06
6.04678110761053165e-06
1.66378166490225456e-07
-1.47301009215373658e-06
-6.17879025504480205e-06
4.81463516083490014e-06
1.22450189233068375e-06
-1.19157873710445992e-06
-5.24257466788689613e-06
4.62307557372527032e-06
2.20566604854489205e-06
-7.25583646676553862e-07
-5.23798691476583662e-06
4.93109362543625347e-06
2.81860530864677677e-06
-2.93396455002643191e-07
-5.15605011354100444e-06
5.06977771915069511e-06
3.48126794344143534e-06
2.46475016398651226e-08
-4.95108787712249185e-06
5.009597024927909e-06
3.91692059792015624e-06
1.2257598817323913e-07
-4.19929956911214991e-06
4.32687835281817396e-06
3.7871251304045239e-06
5.62961259558720423e-08
-3.23927952088081716e-06
2.47226274098817275e-06
3.88784467758378065e-06
1.66202773576783849e-07
-2.26501138450866882e-06
8.29478570359039625e-07
5.00101474231495858e-06
1.49536608667912488e-06
-2.83121825699721384e-06
1.09267646685108018e-06
6.9041127693196454e-06
1.01655765588203078e-05
-1.5166690784613464e-05
9.90791513768916104e-06
8.95885599147424699e-06
2.86408503439625145e-05
-5.27349886788884467e-05
3.68274917090616899e-05
1.50085186356330456e-05
0.000101182062798344048
-7.01887045015030058e-05
4.93998860048442046e-05
3.98114956549409007e-05
0.000350567065142430871
-1.20170836990771054e-05
-4.27580921660354419e-06
0.000657659248213057204
4.24095734492874722e-05
-5.08146591126749936e-05
1.88831569630329641e-06
5.15963913260374622e-06
-4.61366453026407634e-06
-9.55788050378972577e-07
4.87041885549981306e-07
8.95124032524533251e-07
7.22643419230303229e-06
-8.14383435962782217e-06
3.9147784348347371e-06
-1.75913858254531783e-05
5.18754045204548194e-06
-1.96036345216310878e-06
4.45448819027159436e-06
-5.06719705803141204e-05
-2.95557993856008909e-06
2.6333470102322953e-06
3.59416166353352042e-06
-1.41356094114868391e-05
-1.6081139383601481e-06
1.83798031804193744e-06
1.98711083198525221e-06
-4.32246590651428061e-06
-8.33869315418781922e-07
7.3999249376643955e-07
8.10015081667788646e-07
-2.80160677329380947e-07
-4.25764135542970499e-07
2.54143276258079501e-07
4.10321042761674796e-07
3.17845416213546322e-07
-5.6247402075379093e-07
3.45990957618355248e-07
-3.22142413314555707e-07
9.97044368842198033e-07
-1.16570422906212871e-06
7.81545832951273668e-07
-1.6742264401780281e-06
1.93336717880448324e-06
-2.99189508493649535e-06
2.27653959252844922e-06
-2.62767985806178369e-06
1.14201116713741605e-06
-3.62091143655785157e-06
3.14541567386987106e-06
-3.27981809576370271e-06
1.73524836720985192e-06
-4.58341292251175369e-06
3.35306494961296592e-06
-3.79410563294126019e-06
4.60238167790815029e-06
-5.83013816416446187e-06
3.38579753545307528e-06
-6.60368116380014326e-06
9.92224513936457484e-06
-7.75804107670937868e-06
4.71734099834581262e-06
-1.1754013386504102e-05
1.28172760538839885e-05
-1.25243845028836178e-05
9.86327859280406755e-06
-1.69177274201513942e-05
1.3595436410582159e-05
-1.55014687698703292e-05
1.59608979539365589e-05
-1.776194953973981e-05
6.3798227607764216e-06
-1.7408073090342911e-05
1.78766397204570913e-05
-1.4047572658770482e-05
7.01339513270105717e-07
-1.61014912809531006e-05
1.2342108595988445e-05
-9.54202482272141618e-06
-1.79158471814296452e-06
-1.46940958577583699e-05
8.87238099779306377e-06
-7.69708082169139843e-06
-2.0045819663487322e-06
-1.0151803470491208e-05
6.13358150575064415e-06
-5.4795999529558833e-06
-1.85313508358170495e-06
-7.90140087128179658e-06
4.18597280996658251e-06
-3.31905262382830663e-06
-1.84835004501578669e-06
-5.40357999077030687e-06
2.67088085989607895e-06
-1.76264931459106533e-06
-2.03917853195365326e-06
-3.07830634886963218e-06
1.73382001155477597e-06
-5.44693679978742329e-07
-2.06691897860723419e-06
-1.78626711560678686e-06
1.06060691274133948e-06
4.76218413630236002e-07
-1.68780964060086377e-06
-1.19608533208023013e-06
6.77329722334718928e-07
1.37261201203517363e-06
-9.8514806365652705e-07
-1.02573371082178657e-06
5.7370889851757937e-07
2.2972158944916561e-06
-1.78024965287951087e-07
-1.18429412306106324e-06
7.65629606640553374e-07
3.25666602166576448e-06
8.74325198887024833e-08
-1.43013151221179449e-06
1.05095224216241704e-06
5.37406280808053813e-06
2.4181147246821055e-07
-1.47304460512516631e-06
1.3239835252242759e-06
6.14512507414128843e-06
5.95943006613862168e-07
-1.62271895137762737e-06
1.03890400362203382e-06
5.58202872917741149e-06
1.78315153626407447e-06
-8.51107411750794845e-07
1.96732759633012303e-07
3.74413951537478132e-06
2.42720225650247896e-06
6.02993254141782489e-07
-9.86972229532130438e-07
7.33502869128343784e-07
3.78758632659628463e-06
1.33283096570273555e-06
-1.86576276631697839e-06
-9.26476602841945645e-07
1.58656018437513642e-05
-1.24520598391611805e-05
7.05708355970530308e-06
-3.82304353732903792e-06
4.4573291156929087e-05
-5.595171926949142e-05
4.12880250176034014e-05
-6.9853337472430709e-06
0.000128663905141859682
-8.14411270650383906e-05
5.4825282670175086e-05
6.77373340349729239e-06
0.000348867955231379123
-2.87448234192984622e-05
8.28727314693433668e-06
0.00067817534132311836
2.91516075354007639e-05
-4.02710118790550054e-05
5.90743747128604795e-07
7.73982245773827014e-06
-4.52392348911966795e-06
8.20005139271094368e-07
4.38776157244155128e-07
1.38647614304961363e-07
6.11847520201973713e-06
-5.66180636026395742e-06
7.31561085748608234e-06
-2.44756258408246887e-05
-1.49038529637694552e-06
3.01768802898688752e-06
4.55188767751969672e-06
-4.56931445142706719e-05
-4.24117425598063507e-06
4.2218401048873718e-06
2.16758297710242723e-06
-1.03328599392519045e-05
-1.14165768224521416e-06
1.15442668280395553e-06
4.89766666838264833e-07
-2.08763583717686049e-06
-3.60331623457940749e-07
3.39239929152031209e-10
1.73410756178580041e-07
1.3586933059837281e-07
-9.84250479929737012e-08
-1.77162950420938092e-07
-2.83938551576636603e-07
7.69926241205172803e-07
-5.14174833842717274e-07
7.57897071023267829e-08
-7.91959280952129924e-07
1.82128130809877865e-06
-1.04922462808955089e-06
5.23872403604144265e-07
-1.82206085297498635e-06
2.36126118134483035e-06
-1.32179293133045897e-06
1.39654168262215004e-06
-3.36371632744330667e-06
1.79387208938244635e-06
-2.99836956823973541e-06
2.07818403051877946e-06
-6.62796622880446679e-06
3.16625646996425895e-06
-3.43537252314380134e-06
3.18983378854494214e-06
-1.1208286748092234e-05
5.79844994450337659e-06
-5.225431382963016e-06
3.9244235087390263e-06
-1.59319171646838884e-05
8.56757762892141735e-06
-8.28047928824742341e-06
5.70630726404817499e-06
-1.90040137942810688e-05
1.10849756613355693e-05
-1.10123919767258483e-05
9.80654895521867327e-06
-1.73759865072933745e-05
9.06693840278487484e-06
-1.18102876778565802e-05
1.29262058401125343e-05
-1.15429902536334032e-05
4.14943602478063388e-06
-1.04086508242279682e-05
9.04744089003151796e-06
-7.76567648431030191e-06
7.89366238939901155e-07
-7.12166253488783259e-06
5.01764770146009661e-06
-5.82227369193015451e-06
-6.05569431437435173e-07
-4.76213214998175708e-06
2.24111839584171776e-06
-4.67739995835460902e-06
-1.31186864993597117e-06
-2.7823521802307034e-06
8.40395988335493855e-07
-3.69213185400508423e-06
-1.76005844246072505e-06
-1.48318805163693342e-06
2.10375012266441645e-07
-2.71693086938252076e-06
-2.12457439520385196e-06
-5.40733859679480269e-07
-2.18983813874630108e-07
-1.60436189219890545e-06
-2.40846072578243784e-06
6.42130235937276763e-08
-7.32671999054835703e-07
-5.29400561468972589e-07
-2.21029136614864926e-06
3.24574281195496758e-07
-1.20590458597229872e-06
4.54999069403076823e-07
-1.62583859533414041e-06
3.67903599101475538e-07
-1.20278843965966528e-06
1.58164347968923483e-06
-8.62906983419904993e-07
3.64737396942110913e-07
-1.07377573820749308e-06
3.96790117567086648e-06
-1.44605099467402871e-07
2.41834816163216885e-07
-6.13660760365305095e-07
6.47085527715949846e-06
2.69368144503282387e-07
2.50282820143761344e-07
-7.58764775918550966e-07
7.01093018040339084e-06
5.74561364345551117e-07
2.31073226084652863e-07
-7.3020252099368934e-07
7.13218977482477001e-06
1.56104349406450026e-06
3.64736256197129865e-07
-9.6271364584702041e-07
6.16074626371982633e-06
3.36766367158691294e-06
7.05003063794740965e-07
-1.2458145440719396e-06
4.16374303660577964e-06
4.64880160443346462e-06
1.40671475970570707e-06
-1.7318803635718958e-06
2.86034276046835549e-07
6.32435382129029095e-06
3.01177488085379528e-06
-3.21952749745514591e-06
-7.79241310482452074e-06
2.21744352800337355e-05
-1.25458768316337331e-05