/*--------------------------------*- C++ -*----------------------------------*\
| =========                 |                                                 |
| \\      /  F ield         | OpenFOAM: The Open Source CFD Toolbox           |
|  \\    /   O peration     | Version:  2206                                  |
|   \\  /    A nd           | Website:  www.openfoam.com                      |
|    \\/     M anipulation  |                                                 |
\*---------------------------------------------------------------------------*/
FoamFile
{
    version     2.0;
    format      ascii;
    arch        "LSB;label=32;scalar=64";
    class       volScalarField;
    location    "0.630000000000000338";
    object      rAU;
}
// * * * * * * * * * * * * * * * * * * * * * * * * * * * * * * * * * * * * * //

dimensions      [-1 3 1 0 0 0 0];

internalField   nonuniform List<scalar> 
7236
(
1.6979435536800772e-05
1.09328235488949471e-05
9.36579970916431833e-06
8.6581469877055518e-06
8.22372133856773552e-06
7.91024410748082852e-06
7.6577647122592019e-06
7.4519895187210879e-06
7.285183600580536e-06
7.14788974741053058e-06
7.03236452879560775e-06
6.93409062895780761e-06
6.85032697543187118e-06
6.77847070274902468e-06
6.71558533263694534e-06
6.66419150146216326e-06
6.61916851821297248e-06
6.58115552697745867e-06
6.54798862309638361e-06
6.51973960818920018e-06
6.48784039604182009e-06
6.46531523781929671e-06
6.44648752844836979e-06
6.428302732547778e-06
6.40143695431616376e-06
6.38707466500541435e-06
6.38014457415206722e-06
6.37251707793112255e-06
6.35513430455885399e-06
6.3501517597105732e-06
6.35515480346017881e-06
6.36552024891450172e-06
6.39022996828003725e-06
6.47916501804891837e-06
6.60484767144874586e-06
6.97083968257929259e-06
8.2926450414560377e-06
1.34955048910035125e-05
2.38984109195479279e-05
1.34506691714257381e-05
1.05296694270116724e-05
9.6853532962334546e-06
9.10246549847027236e-06
8.66871952092130269e-06
8.1944143080545401e-06
7.79499138159967379e-06
7.48099683777394109e-06
7.24446399087418022e-06
7.0697177852504294e-06
6.945735222560964e-06
6.84077051146171096e-06
6.75758430132108056e-06
6.69297838963628731e-06
6.65378034647635206e-06
6.6242704138707545e-06
6.6125863571920109e-06
6.60569198600275504e-06
6.62436494329389591e-06
6.63023794185765977e-06
6.64804408836071107e-06
6.64569044003448759e-06
6.68857655920339039e-06
6.70160772630290554e-06
6.75075504307656701e-06
6.74430986815249787e-06
6.74368542439225754e-06
6.8547841289049895e-06
7.15444277717588482e-06
7.15848944956027449e-06
7.06191643016987562e-06
7.50746240067924471e-06
9.04277100302677557e-06
8.99607030337830746e-06
7.07594635215426915e-06
6.31915168153425158e-06
8.07661226901336219e-06
3.11595630495609729e-05
1.86645871859970361e-05
1.59903108975241873e-05
1.67216266007809102e-05
1.71480376791248306e-05
1.64748206905422295e-05
1.60162199929157338e-05
1.42884082314798833e-05
1.24774507316655524e-05
1.11691183155412185e-05
1.03396317480228238e-05
9.82712575882231902e-06
9.38297550463059979e-06
9.15673155519194968e-06
9.17869359129923476e-06
9.55298140661292442e-06
9.93881206996853313e-06
1.04759926885858977e-05
1.0443047999236921e-05
1.13798854457646138e-05
1.30424690752710859e-05
1.49205118994204534e-05
1.32642088147876068e-05
1.45861336906617775e-05
1.82197845919037953e-05
2.70553919311311392e-05
2.31367444947949148e-05
2.45218876911601122e-05
2.72889716548745139e-05
3.97118900194362359e-05
5.61953273898911572e-05
8.10308375772415335e-05
0.000111144446002780774
0.000144851519261204984
0.000104712681772227062
2.93755900197918427e-05
7.9487484009609928e-06
6.78500274482172111e-06
5.25838281030865316e-05
3.81719294502794e-05
3.73403373856443432e-05
4.33189854921933176e-05
5.08434492034806742e-05
5.67792116320863804e-05
6.14423240821961909e-05
6.39997179304658854e-05
6.39578088901349384e-05
6.22712952040239596e-05
6.0324138939129794e-05
5.88642807842253493e-05
5.71605402962302496e-05
5.70195678023370397e-05
5.92688010682257055e-05
6.28885228010908284e-05
6.74398907977903791e-05
7.45431413865251083e-05
8.36838179685189457e-05
9.74074202651505587e-05
0.000114294240747398688
0.00013814462954925795
0.000165478115302964107
0.000205927991076724983
0.000256350407948812504
0.000343999360558763941
0.000436212857839628492
0.000579556014742258581
0.000769722101699398063
0.00111236798517612878
0.00164818745437869695
0.00248395588106028109
0.00362361701207703163
0.00477431530148511758
0.00155557914211873439
0.000100153144821627267
1.17190458118773332e-05
6.31847648174060015e-06
0.000109111125327183587
6.07658192281071235e-05
6.61698647554015461e-05
9.44564869991181341e-05
0.000128790311490434837
0.000166581648971147935
0.000210670764869484467
0.000264565489784322934
0.000298801354205505435
0.000310515120743885299
0.00029254290636087011
0.000268909030688307699
0.00025114783160176484
0.000237803814183895569
0.000231806560723277823
0.000236470507577416124
0.000253313592365571219
0.000288790254090931758
0.000338711515568937101
0.000406669887283736954
0.000494941210373354848
0.00063106185402257329
0.000815904068375633172
0.00106155927652057001
0.00136743059724680777
0.00184884147423917738
0.0024592985795479287
0.00319468134893902394
0.00400885869825654776
0.00511108012044986151
0.00637842230114727977
0.00779283346343201747
0.00926510863352671653
0.0108731360726361474
0.00740448687847618508
0.000302799793455646536
2.6009635098186116e-05
6.25583746678456136e-06
0.00013271633274641062
9.302392717044374e-05
0.000131606515539249677
0.000211424721133093846
0.000282217693896888596
0.000335684100307285041
0.000410058148295894536
0.00047679370862659863
0.000579134279181014707
0.000704398580786887835
0.000667900484319473549
0.000606322438089424722
0.000566800469263875921
0.00055188906438697065
0.000517775255215865635
0.000567439473315760811
0.000601387597829724303
0.000672036972076604853
0.000794128609704480761
0.000969546103672882837
0.00118099961121183056
0.00144579779010143477
0.00182986478484920847
0.00238011341337555091
0.00303915220211222912
0.00389673665009679891
0.00495471420588165963
0.00615293949962011921
0.00752253125826072254
0.00923300378526273682
0.0110129463598000899
0.0122690122578839097
0.0133966028563029527
0.0123549790501045424
0.00712368236468046302
0.00074262629871423068
5.17103156864461727e-05
6.35884766643536213e-06
0.000171622263991980909
0.000169724498281432449
0.00028671905867809998
0.000366158664023070362
0.000328364147250460078
0.000301050822737702157
0.000334436185474615993
0.000416379988190719119
0.000540377703956583001
0.000677815553370137163
0.000663089283937093408
0.000664658603827011332
0.000651318524033913499
0.000652331255003035641
0.000633497839795331701
0.00074447917320685634
0.000888380383168825257
0.00111182845086562742
0.00133664124265578995
0.00157336853691089195
0.00173267800839170321
0.00206782530832942246
0.0028677227577641796
0.00405383289161225305
0.00514599455517051989
0.00656238861676070734
0.00830959528488261004
0.0104272379955695979
0.0116010151286310825
0.0117030872150161933
0.0120580083354367776
0.0130839784261749005
0.0136704026866624924
0.0100081195672286887
0.00433503040974827711
0.0013841009618496135
6.96590001599899057e-05
6.43923651668484648e-06
0.00032009721132507347
0.000358398962498276507
0.000559955462922655397
0.00035551078326981697
0.00022589074016593773
0.000220685259781299939
0.000263987761214340563
0.000353945835376753978
0.000502632222516946419
0.000800887962785100794
0.000787314791941556066
0.000765447753855033781
0.000721740165535995296
0.00070807532368417068
0.000694766841326393192
0.000831080760764025227
0.00110290685038002254
0.00148332043377189405
0.00208901312737501833
0.00250299479180074924
0.00274299000262196628
0.00306135573199049164
0.00405068424304565796
0.00622824157179124524
0.00822668432641792541
0.0110083567729212812
0.0131841449052818114
0.0133250124205556708
0.0130335149788913859
0.0124791896862781367
0.0123531313373782675
0.0136118638093768868
0.0123768919413405135
0.00604618590614737581
0.00278932150320129919
0.00192693596972574508
7.35167697305714421e-05
6.77193715713677498e-06
0.000749967121256711849
0.00091535488529643366
0.000675121082342696344
0.000218981628025468011
0.000166884465715907553
0.000187239874327584414
0.000242757460651914177
0.000344223908026472861
0.000545913938676449587
0.00101920885003072372
0.00105951947721079874
0.000963060339386110861
0.000870274405155363777
0.000771435711711715389
0.0007747992278195054
0.000935591463315238762
0.00127173168165589201
0.00185516732445516609
0.00272548798925644105
0.00342634896434129872
0.0043184316222650166
0.00532382517418690613
0.00650812547949120544
0.0087867206333623344
0.0122481910957823736
0.0136707665482160012
0.0150745655899514833
0.0155378619500255721
0.0140396466364924605
0.0123306758020143448
0.0118690588406552416
0.0127767195037851323
0.00908428996200233256
0.00342050197525167916
0.0020937717667547733
0.00231965633467689017
6.64543193337706464e-05
7.28485546056936043e-06
0.00193831380936828365
0.00244821059915658126
0.000379715922653819373
0.0001454506143351737
0.000144666443057525211
0.000184553865109007034
0.000271163611963159826
0.000473036520973381435
0.000870166446116878373
0.00136019484731492082
0.00121555876418620221
0.00107755044760169468
0.000962026114842112106
0.000960287185394002331
0.000963453533077432422
0.00118450074711845001
0.00164244583281409934
0.0023470576523750169
0.00347887914207204363
0.00443539792000496782
0.00570771443106172713
0.0070740557558603501
0.00470950027573563499
0.00177292990308417593
0.000181484758324554747
0.00011705383684439862
0.000138976805097955743
0.000206425811193762569
0.000434493099055530206
0.000796963011550768838
0.00127384174374447416
0.00154839627609695742
0.00134867231368835804
0.0011127992033185105
0.00106904620323377002
0.00118486604722773531
0.00128689324240411035
0.00155392076417279891
0.00222722960650955162
0.0033791929061426011
0.00436559145511417144
0.00550700933415161284
0.00640862831733454534
0.00748077057225712133
0.00619244375958471864
0.000481446821706234913
0.000109621726501341792
0.00010405051889394037
0.000146779122939009489
0.000323776014400576012
0.000691129611736885393
0.0012857112619207192
0.00198555688926874228
0.00211911319675036312
0.00182278395679310516
0.0015397308468432392
0.00148705294061610648
0.00174711129162647989
0.00213287447821727425
0.00254113970751382486
0.00335292130994520668
0.004315733302488578
0.00538242877534164579
0.0061699685775188683
0.00699801552916188077
0.00790154952001138368
0.00941995375983413138
0.000217348794065191551
8.46510505672064278e-05
0.0001032782273971548
0.000205705308467931032
0.000500219159583741068
0.00106739991367577492
0.00208951001250077704
0.00316111359627732798
0.003068994181016289
0.00264606564169967383
0.00243979956349452088
0.00242886162543460302
0.00268598126775602833
0.00318475167261622312
0.00373673827022286608
0.00452533056914251712
0.0055432713861294329
0.00628150170276124773
0.00686707349323522915
0.00751724952787950675
0.00828484058521947696
0.00461583198781708327
0.0038967497049608819
0.00365749711163926685
0.003639774081199892
0.00384438189284410595
0.00424740295972034047
0.00493367495714535937
0.00593430085202503298
0.00669589050008921518
0.00709453180276950479
0.00543114929950801965
0.0052005438518365971
0.00530854712446960329
0.00573988937701124056
0.00651950000298104088
0.00732225344187487776
0.0076787698117571461
0.00790838427568659776
0.00758241686290335795
0.00797721178748172534
0.00843993259331690844
0.00859856910405755459
4.1139323453265569e-05
1.7171108683283546e-05
1.1910853718149208e-05
9.98870084590348109e-06
9.03042164076456636e-06
8.47801458181896167e-06
8.04759499574708178e-06
7.73896924715749718e-06
7.50311979000721016e-06
7.31497186473950535e-06
7.16300264440043623e-06
7.03571382756268452e-06
6.92474204659048976e-06
6.82818256523083964e-06
6.74534006211290047e-06
6.67480886338788316e-06
6.61497914468131257e-06
6.5646956888683761e-06
6.52090763903124279e-06
6.48207800252709991e-06
6.452523548458631e-06
6.42921121411367565e-06
6.40649112164147316e-06
6.38229262601101482e-06
6.36447602492969835e-06
6.35679321120546722e-06
6.34451959617427229e-06
6.33832127631431152e-06
6.33346627825822421e-06
6.34021936300385646e-06
6.34533102364616716e-06
6.35258344824528047e-06
6.37955015763481669e-06
6.46235993444584583e-06
6.58905918342840555e-06
6.93200568887694439e-06
8.20114085748502505e-06
1.32886503864634174e-05
0.000468240633517412875
5.16907518384319671e-05
2.55718017695329164e-05
1.76966314997990859e-05
1.40601769908614328e-05
1.16880273513648429e-05
1.03694039576508839e-05
9.48727007403056038e-06
8.77295735293987368e-06
8.24541844436515618e-06
7.88557624882946439e-06
7.60940484955108774e-06
7.37039196964173733e-06
7.186739439766158e-06
7.04719401705235664e-06
6.93459866867093257e-06
6.88950313868209362e-06
6.84669720906607658e-06
6.81576791852648171e-06
6.81876400371504723e-06
6.85039404840244324e-06
6.83548882002726485e-06
6.83964411809675305e-06
6.93816156534612491e-06
7.05999205951424075e-06
7.05884994354445719e-06
7.0575086575406833e-06
7.40865222107077565e-06
7.77558819915835853e-06
7.94722831945416873e-06
7.63662442307500143e-06
7.62361203275170423e-06
8.24224399554784998e-06
9.5046533472922163e-06
9.44141702031899626e-06
7.58606114604610863e-06
6.45599467951528018e-06
8.05485585370676387e-06
0.00260574459035730135
8.9885768100479241e-05
4.88685289451571856e-05
4.44948128482372984e-05
4.59382330240114904e-05
4.69784026769094388e-05
4.87384494967460852e-05
4.88751447234919343e-05
4.45968228085761944e-05
3.77013014059639863e-05
3.16612497668533252e-05
2.58086541378083437e-05
2.11701509042744031e-05
1.78316075955062049e-05
1.65219420703913585e-05
1.55681611963982306e-05
1.50576120311851468e-05
1.54823989198314926e-05
1.65299304357527195e-05
1.8755345148944848e-05
2.25354480482682596e-05
2.25909354872239865e-05
2.40819801422715022e-05
2.89145975407352162e-05
3.8348351792265294e-05
4.12971700508977418e-05
4.57322816093288348e-05
6.40593281895122463e-05
7.61621513306830856e-05
8.51488861013429001e-05
9.79062686110456995e-05
0.000121667663412903238
0.000157342699278066101
0.000207696203788002855
0.000130911192887068887
3.2490679180728228e-05
8.1938887267919093e-06
6.81802916459429028e-06
0.00150401764583817576
0.00011725622017302493
7.90126943814465699e-05
8.90537949599675804e-05
0.000108254173783215815
0.000127426352049541574
0.000148827912686257357
0.00017250611396126274
0.000189153316580617634
0.000184334104267739381
0.000168042378592842787
0.000148391562778436967
0.000132300310128950722
0.000121166428112520517
0.000115493863263998439
0.000115294229843821084
0.000119117128306320597
0.000127207707535495663
0.000140962653478114865
0.00016071513355847428
0.000189177905534002906
0.000220489618506379152
0.000265333132708349113
0.000331972652462270124
0.000420858223769384398
0.000533684276580774107
0.000706812633744828122
0.00102746890106140596
0.00134179924635076386
0.00173680959626075948
0.00226622949314120564
0.00297754496646504465
0.00394085684056899241
0.00516410362617878219
0.00197986277690010435
0.000110643818235575125
1.2318241839072915e-05
6.37633189142997426e-06
0.000924185669932151965
0.000158850825568747952
0.000138585597042273302
0.000198797563596516557
0.000263991775648129046
0.000325558842917986918
0.000389488064963361359
0.000484386425295422476
0.00058947779634206676
0.000706366341628029189
0.000780733412424495631
0.000743749764132402465
0.000658216997164787687
0.000565693633365078516
0.00050008600128933719
0.000465534402522313744
0.000451673656630809171
0.000462352633241810409
0.000503793181733199879
0.000572368578170612372
0.000685277718727083794
0.000827495316218931497
0.00100362228655821208
0.00124500665266895696
0.00162124057955268333
0.00210864409846490877
0.00263702244802976144
0.00338864610551863326
0.00425581006303046155
0.00517981031027747469
0.00617206436404953585
0.00734189030381232188
0.00863910015520793356
0.0102966861362581742
0.00630095630856391999
0.000347838322636559233
2.80902183148121853e-05
6.32480474724840549e-06
0.000730080771949037492
0.000277615335010000254
0.000307613964331311727
0.000489292922777615825
0.000505603777030088795
0.000447363827212222866
0.000426014613465150265
0.000444340414354580965
0.000519900640213382423
0.000635801826271402827
0.000749434419877080581
0.000756250879133280149
0.000775660480870628537
0.000750006313940050715
0.000714041401019119932
0.000734468688062397696
0.000769388893914857582
0.000838331987245101743
0.000996059090270973732
0.00120746802364406864
0.00145898481623796239
0.00174287777874909959
0.00202319004468732048
0.00240796321297949813
0.00303811769168956447
0.00385745447795519079
0.00473058226683577016
0.00580924808759696563
0.00710127014865856356
0.00862223049098679445
0.0103532403833079285
0.0119823141001857598
0.0117641242196419131
0.00957031568598957182
0.00353731343855888435
0.000708563435958677523
5.35187153727514792e-05
6.37771058100961901e-06
0.00131079004371930491
0.000657638231639147636
0.000869192730707025454
0.000890243560594447363
0.00047148003667614566
0.000305195379263815199
0.000283769714042518973
0.000320437688907092039
0.000400046705659383721
0.000528917319778769495
0.000739373529885429463
0.000806358038406263813
0.000839913675453500715
0.000835527056641701391
0.000823125717143574956
0.000828090389454631164
0.000904379566897941752
0.00115502148516432842
0.00150774866966106179
0.00188749616416356296
0.00212707426901330822
0.00221788303359471287
0.00258637662777517
0.00345201682390413461
0.00484852506113584054
0.00607924706103521017
0.00759778385029089096
0.00938936328638464643
0.0114924272529819474
0.0123598578990947085
0.0124341817674911807
0.0130004196009378421
0.0117920727281141165
0.00578100611461929148
0.00182091010372503249
0.00116003156322816089
6.45303269176060576e-05
6.53384098968730154e-06
0.00858839607251731668
0.00250594131264837141
0.00288438851939391795
0.00071982664814809218
0.000271823296288676187
0.000206919816425035801
0.000223728600379266345
0.00027577644100545951
0.000366081337707654844
0.000527090831158751115
0.000846935637726941941
0.00115345271822356408
0.00111161094374587492
0.00103840585799772523
0.000994841877542938704
0.000901916950730416922
0.00101447631272767193
0.00132151579825098451
0.00188742504161668804
0.00272228650029158678
0.00322151768748280823
0.00353419949071567558
0.00397048285717507745
0.00461552187568156549
0.00652833932940551868
0.00991972909884886525
0.0128910966747729436
0.0139051294034879275
0.0143839591241082497
0.0141797492972321644
0.0133338685153067144
0.0131996148111602138
0.00956576260797337846
0.00274553352922266925
0.00115631624875056106
0.00149478609759645599
6.5940204036009939e-05
7.07510010118225658e-06
0.0123793713132232912
0.0124329543092938487
0.00268392455953024578
0.000355752751450115002
0.000169907805176228952
0.000170239539521675146
0.000211097057428296617
0.000288873014427425113
0.000449862840336100818
0.000827654221760778077
0.00149488644281978969
0.00154887318676869804
0.00145361579441539881
0.00135501276138736857
0.00122713309965069616
0.00118224515268606253
0.00127413023940835886
0.00163929228709695112
0.00233189994050227558
0.00340446618759276216
0.00417805588565324168
0.00512893928447471104
0.00640705671747714665
0.00804010600226014518
0.0107565208279704633
0.0128261646011852762
0.0142033100434294547
0.0155785063734278483
0.0167572311019625261
0.015272289328358132
0.012560190099041961
0.0114338468294055782
0.00463416997432671528
0.00134498182842755819
0.00086323361268329942
0.00186062528423151558
5.96063716442618246e-05
7.38360983240128017e-06
0.0135446364956608428
0.0121582552958564398
0.000784161803781538522
0.000167488296782333362
0.000136642805325311615
0.000161087800822812196
0.000225157694675677685
0.000424588596306337094
0.000842448658098607491
0.00148186035966862105
0.00214165142279163683
0.00197162638095842776
0.0018282169890878081
0.00168923601788180497
0.00155835524947766442
0.00160501102409813358
0.00171494620221156191
0.00219847985433242006
0.00319406975470172072
0.00420849456727722879
0.00520586920725508214
0.00625389298649979032
0.00750948910540564802
0.0107229865850903845
0.00566206260769045681
0.000293641300238977969
0.000119142999152837363
0.000123694812726222948
0.000167987388370184295
0.000341843642399021496
0.000727185605509039702
0.00147553439485984439
0.00249089719762677925
0.00275414967083063584
0.00240999923034523195
0.0022309998959148614
0.00206166811311791695
0.0018490414042994167
0.002093138251625441
0.00251302308403751574
0.00329804014410823958
0.00412450632703379415
0.00508670309189719703
0.00589086901364553085
0.00679850861427449236
0.00900082717451268673
0.000817758281936316225
0.000125593083564968952
9.73753550663496761e-05
0.000123612087331480069
0.00023015067684312496
0.000543893507138763755
0.0012355347142087407
0.00260745736001381356
0.00404314203229950379
0.00359219569314636698
0.00288975908958555815
0.00252362750620014351
0.00232823810091889764
0.00245016016973927022
0.00280531345142898516
0.00349299818166619487
0.00410455810442020806
0.00494374325207891981
0.00577110982758017796
0.00649402759819689857
0.00733785710936584942
0.00871428754246445121
0.000273254944229607978
8.35270895903068275e-05
8.92775791266722151e-05
0.000142450001088483057
0.000365059164939959629
0.000887951395057702043
0.00222988960442633069
0.00487206549869080574
0.00634893892267303101
0.00486795820179709935
0.00388162701742766122
0.00328339378176316756
0.00316965086375028873
0.0034001193519060933
0.00387564175733838773
0.00436224796538632349
0.00501473179832142516
0.00584455148120185605
0.00637332339823840164
0.00700835338246995777
0.00781939655467459201
0.00901731311822864812
0.00664955157901059388
0.00531337706804780891
0.00470383737361568417
0.004530020544353296
0.00462555412661648339
0.00493392410700977356
0.00543872166833487408
0.00612584118555985907
0.00652198907854845914
0.00732055974530309607
0.00646983611866513292
0.00608079552359197788
0.00601669198513747876
0.00629264528830634096
0.00686459942406072565
0.0071427073045849717
0.00726991650253036321
0.00819614064433660076
0.00799525650739022105
0.00819833528051518677
0.00829871915181461597
0.000160470824839213384
3.39430886087205774e-05
1.7887707474355629e-05
1.27372678731523489e-05
1.07261228409029807e-05
9.69971259646829658e-06
9.0135687918220899e-06
8.47260347326847407e-06
8.03657773389145545e-06
7.69646021901582398e-06
7.44321813617140038e-06
7.24143165762100622e-06
7.08538822790401934e-06
6.95919179959293557e-06
6.85449781379439724e-06
6.76476607537318904e-06
6.68693081569141178e-06
6.61998361670246476e-06
6.56344864471544085e-06
6.51939149693709146e-06
6.48080506283806944e-06
6.44795678107222455e-06
6.42173014327713524e-06
6.39841476349440031e-06
6.38373206152672036e-06
6.36758128861225968e-06
6.35671353520399701e-06
6.34767343883376737e-06
6.35249413905850856e-06
6.35632415676238004e-06
6.35973880444504213e-06
6.36975544131591536e-06
6.39947660523816792e-06
6.48465992761737684e-06
6.60358596739682498e-06
6.93747544702957378e-06
8.22017439540354858e-06
1.33475645278971033e-05
0.00167180841211712504
0.00012057083064213093
5.81754047417796063e-05
4.59031154349549136e-05
3.94754854189132806e-05
3.1696599228986292e-05
2.4236645199865397e-05
1.84030554883366494e-05
1.43659021469773768e-05
1.16336530759382502e-05
9.98866733724928451e-06
8.97115457615464889e-06
8.364829344078523e-06
7.96271481160659804e-06
7.65700732273248593e-06
7.4673581559235249e-06
7.31340309608894052e-06
7.3646080555939004e-06
7.28350711329033546e-06
7.29190695556969609e-06
7.34670791688720923e-06
7.43098223633446115e-06
7.56480504812380368e-06
7.72839211495988947e-06
7.76242659600928848e-06
7.57466959180868861e-06
7.85298952801625896e-06
8.33259831402234566e-06
8.59332706720027034e-06
8.47239238811193826e-06
8.6533236902897259e-06
8.85372615879132089e-06
9.17472526321704908e-06
9.75888728001085757e-06
9.66169541488683657e-06
8.37148190948864456e-06
6.6660169371707713e-06
8.17505299340293181e-06
0.00706655815409551122
0.000190994723458291126
9.50785837562639631e-05
8.5509371658095532e-05
9.059753330593911e-05
9.34402275588252444e-05
9.48705513043327973e-05
9.22416990922903505e-05
8.75049128165197534e-05
8.07084817176174696e-05
7.52184646325641099e-05
7.07296334703733451e-05
6.75357757563387068e-05
6.27747403256731398e-05
5.75904581926128752e-05
5.31385531260868016e-05
4.92191978140054485e-05
4.62782832682044113e-05
4.98282107562141212e-05
5.86293027240768823e-05
5.99703317038835073e-05
6.04748601498822529e-05
7.05954370918478207e-05
8.11760060005159716e-05
8.6348070291559134e-05
8.53413011626208239e-05
9.4982672955883096e-05
0.000106597024529325046
0.000120388562434360736
0.000132942983994850081
0.000151628176092405664
0.000182663297405268607
0.000232109502596029963
0.000312933998885201218
0.000164908278545045875
3.62563161623379818e-05
8.48317887257932391e-06
6.94520838409908924e-06
0.00619728974060020695
0.000304316272533108174
0.000166441579848306497
0.000172550141660243614
0.000213283454579741888
0.000256018715466810364
0.000299143242160882525
0.000340861440765121316
0.0003795775817649044
0.000417027686866460997
0.000433468325948698375
0.000421453769542220818
0.000385558497412271403
0.000349389205253131411
0.00032506073993817915
0.000308040341999166168
0.000299062615758269356
0.000295049430537295838
0.00031207839376455257
0.000341504974480467093
0.000376248093551863067
0.00042931058959083104
0.000507506912265537867
0.000595998882112842333
0.000726864321739452272
0.000876462087322264272
0.00105605557564676916
0.00130421251508051851
0.00165481558535170831
0.00209236326625736931
0.00259440774298847149
0.0032734789885591367
0.0041789463749896073
0.00550191032697847516
0.00212939930828179779
0.000117547759539811665
1.28182806707663608e-05
6.51530166752575538e-06
0.0060656898701985304
0.000516304579505086477
0.000333278953638233759
0.000439068570441753273
0.000630736368092414419
0.00070769895526352712
0.000667730676946825369
0.000663533936368382467
0.00068239311106329636
0.000748869860960852513
0.000865165444557039389
0.00093346536029213507
0.00086961464166213098
0.000785243586941492401
0.000727770907171656567
0.000701342591768967902
0.000700897072502649088
0.00075627803691855728
0.000838283214024352708
0.000904904907841420523
0.00101747771888849206
0.00116041209346829342
0.0013490447092638475
0.00157606798549188472
0.00192379287244907231
0.00236361624577155699
0.00290264819163547341
0.00352466975257055819
0.00425111853563566074
0.005047150340354618
0.00587407908362353251
0.00670899731866610779
0.00747107488201270795
0.00914598106269645487
0.003712758569980715
0.000363278744500745369
2.78403433958436423e-05
6.58850439887209895e-06
0.00647862893476270404
0.00118443724272831899
0.000958566666944608479
0.0015142525833173057
0.00154953819539856911
0.000827059529936466885
0.000519499258548760182
0.000447036179728797539
0.000464843633208986758
0.000551868022204518452
0.000694593652174850117
0.000832239694796854191
0.000864419732971029742
0.000909052001924734606
0.000907520990459194138
0.000894600299164190443
0.000890059905337361079
0.000967773672343624032
0.00115024231516768069
0.00144718321165291861
0.00169921297645231773
0.00186602515918309715
0.00195776787243541689
0.00222710464480000737
0.00268647059973742752
0.00351905504186670205
0.00464177577846268657
0.00559531624757717526
0.00664068393468930564
0.00795713255381904315
0.0092273230930135005
0.0099315756433998488
0.00993989086426397273
0.00672716783227169258
0.0015459895964093028
0.00065966176878837744
4.73361825711015902e-05
6.64231255258679195e-06
0.0114510661494663518
0.00460051473199769075
0.00459356246530371378
0.00509833868806938532
0.00123289075557635771
0.000445800647342588978
0.000294001685189359684
0.000287917742484009606
0.000327953864064881408
0.000408627049555643012
0.000543723128812299123
0.000766286375380324835
0.00101755141759840161
0.00110527149119236316
0.00112698041959620552
0.00109876485993340022
0.00109892161380899744
0.0011322234175655001
0.00140871546279482877
0.00192886462541526707
0.00270617001654357373
0.00302203756872687591
0.00304057324358910893
0.00301860565351950126
0.00375148271320375299
0.00520499001084478649
0.00714923283497670512
0.00871546564060114888
0.0107436721633811464
0.0129172698676500025
0.0128642928282376549
0.0117255585572908442
0.0101020045397498641
0.00270677975719412888
0.000685572644285810102
0.000846375532790572525
5.06544299227074468e-05
6.54116096324038721e-06
0.010449874169022438
0.00977039444322664805
0.00862632673750532951
0.00280476508972761496
0.000492289239896896431
0.000229233675515855051
0.000213439135466307009
0.000244104713166050472
0.000309655892602524109
0.000413284268478510998
0.000593418962772665265
0.000974462182249213275
0.00159346816568156462
0.00160566634110340719
0.0015780093662134309
0.00150807968364389264
0.00154431865959851278
0.00154374335186805768
0.00180654595211854059
0.00254826705908975945
0.0034860667061813312
0.00417294178328124054
0.00468035110572101454
0.00512608642600042089
0.00598946326778445736
0.00789245498676930529
0.0115066644750490953
0.014097117792926878
0.0145840843403408655
0.0149032933312815662
0.0144340421515751667
0.0120856620081914203
0.00558024310715906149
0.00100773844523787152
0.000413214022397808453
0.000790613101141051603
4.80610156429890466e-05
6.64950318524924415e-06
0.0107823044897049723
0.00917257256920745757
0.00674712294577455105
0.000765798704439186822
0.000212609435595176842
0.000170996645912589745
0.000191225654335598101
0.000245634262916078557
0.00036435794459043012
0.000627449475834126417
0.0012113440257135405
0.00207201928032024621
0.00242090185485766734
0.00225949043705486264
0.00217219215167862049
0.00210441243213171751
0.00221547044295795003
0.00236469492767381068
0.00277902408572014599
0.00365790689346403089
0.00447713208149958485
0.00525658560544843816
0.00624680856859912391
0.00772614513929903522
0.0099031462614552427
0.0119890843179906448
0.0136068940516076119
0.0148523551474061405
0.015716126944138261
0.0163034384002963412
0.0141622965408827219
0.00887238574102228519
0.00234712837459376744