/*--------------------------------*- C++ -*----------------------------------*\
| =========                 |                                                 |
| \\      /  F ield         | OpenFOAM: The Open Source CFD Toolbox           |
|  \\    /   O peration     | Version:  2206                                  |
|   \\  /    A nd           | Website:  www.openfoam.com                      |
|    \\/     M anipulation  |                                                 |
\*---------------------------------------------------------------------------*/
FoamFile
{
    version     2.0;
    format      ascii;
    arch        "LSB;label=32;scalar=64";
    class       volVectorField;
    location    "0.630000000000000338";
    object      U;
}
// * * * * * * * * * * * * * * * * * * * * * * * * * * * * * * * * * * * * * //

dimensions      [0 1 -1 0 0 0 0];

internalField   nonuniform List<vector> 
7236
(
(0.472826478173387632 -0.140966470602200827 0.413064752941691371)
(0.870345768257558494 -0.143296367031822747 0.713630425306745808)
(1.09052460542242091 -0.0955019586894519795 0.770730758854083153)
(1.26901036105787424 -0.0557950803033107692 0.802518455040651002)
(1.40419020525852623 -0.0352517953746834811 0.825794152677882365)
(1.50181357648388336 -0.0262117014923383893 0.844738478016013983)
(1.5793920520216278 -0.022269333377915989 0.862408350528083623)
(1.64465288118323438 -0.0209779373069111305 0.879551506100961777)
(1.7002634193217474 -0.0212379397970742269 0.89523632985556878)
(1.748819105608163 -0.0225029202887286582 0.908264890640331224)
(1.79272878142978698 -0.0241254916454704434 0.918213221592407813)
(1.83353332800202606 -0.0258257196788286049 0.924808203658426753)
(1.87278775807835274 -0.0274929898325748934 0.927111437590117049)
(1.91175589592252759 -0.0288492728176470842 0.924916573536854747)
(1.95121523863384461 -0.0299959806711990844 0.918492309549653219)
(1.99064651684721228 -0.0300780869722984436 0.908544397196346609)
(2.02959526395978385 -0.0302686386153837167 0.896123761921029272)
(2.06806431482918196 -0.0298400027119624309 0.882229500515200993)
(2.1055889436038604 -0.0296216809557646558 0.866979831612277541)
(2.14160785039589197 -0.029163706363210095 0.851647725304486847)
(2.17719042680763319 -0.0298435231917988583 0.837689570815067452)
(2.2118471263632995 -0.0283203869574657867 0.824530829805958376)
(2.24420194316879495 -0.0277460964242274254 0.809903993243185849)
(2.27576524277187664 -0.0276757737025831695 0.794643751915227292)
(2.30922968196572409 -0.0290863143643228378 0.780970274998043612)
(2.34247615656321395 -0.0267240228505976687 0.76874854355402622)
(2.37263289918421005 -0.0247864251936527648 0.754503651749370507)
(2.40032094516083605 -0.0245889843318239654 0.740438517358067427)
(2.42933686148343853 -0.0273615726193700455 0.72788139281339248)
(2.4603912654506388 -0.0275730139997892448 0.717125003520346138)
(2.49016809000784578 -0.0257974990444197194 0.704988915034733155)
(2.51752665004739962 -0.024229406895031131 0.689746566290297625)
(2.5401038847316082 -0.0219813460655076988 0.673569203187658228)
(2.53972691139529916 -0.0104086957562197473 0.660526222189059653)
(2.45309121038457745 0.0302766363400216246 0.652047648192442098)
(2.16896492019112319 0.146610604510054088 0.642703183745620632)
(1.4360124330975228 0.279708741471683231 0.624780887696381182)
(0.372493691240086022 0.194381020844841407 0.414510625351319661)
(0.651109473473722722 -0.364301475186350809 0.565361245953583835)
(1.02283298651784715 -0.390254365883900223 0.802672185773969704)
(1.18471318948117044 -0.323428099562745042 0.878457441276168538)
(1.33206371073263408 -0.247875136836474913 0.890339603375056576)
(1.45766712434852108 -0.194463534606308469 0.883947169760427531)
(1.55431798003087795 -0.157999082443894046 0.877923216951649654)
(1.63160812982231151 -0.130492824177314559 0.877369457885119108)
(1.69569560191515989 -0.110631454161258233 0.882020885182538628)
(1.74968929771737081 -0.0968451302615248311 0.889102401162832345)
(1.79714931028673131 -0.0880276119987789679 0.895450423645311577)
(1.84039527254363477 -0.0822324966975905847 0.899961104349664365)
(1.87967990776485028 -0.0787660611137599581 0.902450357233743228)
(1.91648300218577572 -0.0775425989478204097 0.901154513374387456)
(1.95210645672123206 -0.0779547346819314674 0.895196549699502575)
(1.98816968729217414 -0.0800399408403015961 0.884641583628366424)
(2.02431196526796731 -0.079835602331175079 0.870381806236765532)
(2.05983135714000243 -0.0805923064136307016 0.853852513701732541)
(2.09496919183619079 -0.0792341865047892502 0.836842896019929894)
(2.12912416018257433 -0.078586977302075256 0.818668919850245369)
(2.16200510813099367 -0.076718063178835047 0.80103249254649822)
(2.19605439552569548 -0.0791720394227714008 0.787120255583189543)
(2.22886606095571471 -0.0747894990318042907 0.775815233838265783)
(2.25879692559973888 -0.0734985500361646643 0.762324131089857526)
(2.28304002277404683 -0.0736334095050663745 0.748404665453115903)
(2.31157698523582678 -0.0801040563242720188 0.738065921236125688)
(2.34504625949082479 -0.0755376576241725411 0.731704765508529809)
(2.36778167703976061 -0.0717940061873151708 0.722803503749339216)
(2.38657209461110265 -0.070707815245476216 0.715967433396921149)
(2.40639167423529354 -0.0761254444803147606 0.712950761840752345)
(2.43084127333494227 -0.0760353641484945164 0.714463336879122002)
(2.455159611722733 -0.0732559885772344765 0.714736493114383364)
(2.47761392444393325 -0.0711982925161935704 0.710296377096948595)
(2.49729236840548818 -0.0687691193055800648 0.701944609330156011)
(2.5147739358037926 -0.0511100095534783652 0.692772702386748818)
(2.48363222961616037 0.0132345532679087191 0.685622953700188775)
(2.34861897305808798 0.21039277871975226 0.684417478197863582)
(1.95705086920709803 0.591636876447976023 0.683612836982959715)
(0.820991673279421352 0.640623397676962858 0.695044359788205446)
(0.804553963790825111 -0.483665767959571724 0.636556415177316648)
(1.12125662187415087 -0.593875908203604364 0.955820219838503626)
(1.21807773091031901 -0.548670886469063701 1.0417817923945405)
(1.33102741506883682 -0.450721304624093932 1.04238258436526743)
(1.44320997027039355 -0.370977222993358335 1.01693259083123233)
(1.54012894729194172 -0.309088026021568041 0.985567136739806671)
(1.62238435314936291 -0.257922978692700477 0.957832615677826182)
(1.68810472246552767 -0.221001807976303727 0.932968695633994538)
(1.7383323935956223 -0.196725742900905554 0.915343492634171141)
(1.77793635222002422 -0.181821482996569611 0.903533286358992882)
(1.81044640197426343 -0.170280916875208882 0.896504449490352351)
(1.83802584676201985 -0.161053213679609064 0.893102887092687037)
(1.86467042836153474 -0.155664350191829115 0.890861110144448465)
(1.89061648700200546 -0.153304517714684674 0.88730947329834009)
(1.91819183583091801 -0.154460570036531603 0.882544384368675772)
(1.94667512567177781 -0.152254404774802288 0.875366062806904766)
(1.97366885951992899 -0.151738463860324663 0.868530287763143671)
(1.99953386574128844 -0.148072315630778911 0.864452420029102719)
(2.02474778733022154 -0.147239167866924869 0.859312367284717937)
(2.04878029320362698 -0.142983115581750225 0.853051805487288761)
(2.07241924733822946 -0.148495848073287723 0.852599221429033105)
(2.0943474720130677 -0.138926208612318747 0.855181318282494773)
(2.1068979458878303 -0.137514076426415416 0.850698234567511369)
(2.11478867032004869 -0.132946052996377462 0.84479990188715659)
(2.12260805219010384 -0.147153046264289128 0.846949070163786844)
(2.1329375553123171 -0.132204095883722866 0.865913742529763608)
(2.12391614460738465 -0.122644661747269804 0.87756732448593322)
(2.11471396373531961 -0.117641628769136378 0.88236430055486692)
(2.10794255562059751 -0.131032311027607179 0.897563312983870376)
(2.11468152418872402 -0.129274013349272604 0.909561697555109294)
(2.11077972049483842 -0.122414452328186887 0.917014415105059433)
(2.09602623932476995 -0.114314135761550723 0.910931118436787202)
(2.06287045058075913 -0.106602852943305446 0.875707993346516611)
(2.0141176896564339 -0.077006400290254462 0.830428362565221123)
(2.04393082928851255 0.0484200388557362721 0.786155040925703319)
(1.93798055103931643 0.425645203889583434 0.736425055335657053)
(1.73313356795734008 0.999441932272996603 0.719383410144161406)
(0.889416481954284133 1.1390030507618687 0.731757066954856095)
(0.839946162430124987 -0.514937175138993508 0.782453900836481475)
(1.07221493298951476 -0.790270862390672124 1.12586298141120134)
(1.08991987811355262 -0.762971979034621661 1.19973018669187192)
(1.1654048924847058 -0.651607157985559127 1.17590194367364242)
(1.29307293615352092 -0.560956330947160131 1.10402031039019177)
(1.4545597643222874 -0.476211063983804417 1.00030252134921471)
(1.62683295259523009 -0.388745232833738519 0.891566507260796892)
(1.78337954937416687 -0.311488187313199993 0.798251338706116864)
(1.89931557323253197 -0.253619123662203183 0.743771439888438968)
(1.96326996840938106 -0.219474827628031804 0.725689967460683039)
(1.98485373274605315 -0.198592961342790669 0.735480818292726934)
(1.9830872824381518 -0.18760900873226044 0.760375080572142203)
(1.9692343621322479 -0.180327426954747572 0.797665656719986682)
(1.95764898002320042 -0.17630674628683049 0.840467668865975237)
(1.9555481810533939 -0.182008292364608776 0.879628588529508093)
(1.9628002396049089 -0.181477501849356182 0.903332621368152511)
(1.97288070725601417 -0.184347493919211541 0.93043596302554199)
(1.98500371727442704 -0.179947193423285384 0.957892938940618888)
(1.99587700680030111 -0.181833112789974799 0.980712178316912375)
(2.00445330902747498 -0.177564953993337993 0.991750311354614222)
(2.00114390263912334 -0.195601976885618756 0.994693674229054303)
(1.98429605211146654 -0.175829708730660866 0.995221242037071185)
(1.96232648809232013 -0.165903425683423145 0.996049320634292634)
(1.93283646974702994 -0.151550775870585963 0.994812370472361707)
(1.88814186535319117 -0.196737411949109375 0.991857985451547575)
(1.84239241356115957 -0.153948977668551396 0.986234867604832921)
(1.8046107525288646 -0.134677896884595805 0.986362963105925306)
(1.77064088401134545 -0.127520192585668379 0.984543933500140467)
(1.72935349763445378 -0.1783843870013406 0.971550557437285467)
(1.67838039029309649 -0.154864274161368692 0.930114399626885802)
(1.62478630591596129 -0.137723517123332195 0.854830956653708007)
(1.55234794414501742 -0.109757876883113586 0.749739252227772157)
(1.47138946106540747 -0.0867179055567771362 0.642824190779077931)
(1.26872737641033106 -0.0910157294156302282 0.45621822388469474)
(1.22395851315431736 0.0845165500553060889 0.609338580151745912)
(1.27016796498542472 0.611792532720542015 0.726066975667437164)
(1.30877744427942 1.2902554603677534 0.742262362705239043)
(0.820930643057838028 1.72280252605146789 0.750812834965247866)
(0.73810158927621361 -0.570147326429784607 0.902766655926063311)
(0.947509730885959911 -0.923872110737640528 1.22829733851220513)
(0.886069423912201004 -0.892292652997549451 1.22351613071877408)
(0.897909416915675385 -0.805043462280780941 1.15002932809946246)
(1.05534097733599963 -0.735633989687786594 0.976835485860231945)
(1.34458371253140863 -0.634519250319749317 0.738962417272307048)
(1.70405134706059691 -0.48904401266990144 0.482184162158547147)
(2.05444560296835332 -0.32308889130627394 0.263894746424536364)
(2.31751779912715028 -0.181415725606159511 0.156534890899610896)
(2.46224736283699386 -0.0916682246206235868 0.157489146062323088)
(2.48820820683883115 -0.0511051704949831848 0.237983310503483397)
(2.43914742063479961 -0.0377557820636896108 0.353376624115065541)
(2.36665591938787445 -0.0418291459452074174 0.47334975285080777)
(2.29610224115782779 -0.0606955791628922131 0.586513350493695573)
(2.24046313700758937 -0.0949212785061072511 0.688660504356554681)
(2.20656307270650753 -0.117970711254885022 0.780354807171374509)
(2.18620044125041435 -0.13418837113059176 0.852443902832441425)
(2.17189305892724605 -0.1382583832020568 0.899698208534897015)
(2.14780257483608805 -0.143998942858566598 0.934440441434058466)
(2.1055373315753414 -0.144408584239839016 0.961963754836181795)
(2.04873788789625211 -0.14970975346337323 0.976337172220636984)
(1.98714956553742361 -0.129606345960911445 0.974473867017054407)
(1.93116392688135874 -0.118040285584205859 0.969305029920802697)
(1.88258058050722021 -0.107999314113550252 0.968016981171353152)
(1.83287493971562521 -0.126396127906229366 0.967628257367166622)
(1.78771551119842265 -0.0944207048955042205 0.960886129561222324)
(1.76027468631187323 -0.090188586995779918 0.942968784298958695)
(1.74475329362771014 -0.0962152103179143431 0.890679491796692591)
(1.71760232682041503 -0.132501291504995844 0.779680742259223014)
(1.66133036189848426 -0.116121688046534971 0.614481017877050006)
(1.57650348682300057 -0.0946050395233898472 0.441613113081370634)
(1.45244024116871451 -0.0591936931377477216 0.29834433168882224)
(1.27520802934170363 -0.0111621416847283439 0.206406649335400094)
(1.05609217902464136 0.0102911098829184984 0.0701019009109748459)
(0.612110538489183287 0.199816861077656116 0.1532432418744335)
(0.638818286316384265 0.604143899346984425 0.62748430301285274)
(0.73344343295385328 1.38285433896569088 0.73880506418320524)
(0.700657589407308157 2.0413114098198557 0.759690773093561256)
(0.753962524891182762 -0.729105344519066056 1.01770441315148985)
(0.833577358762496834 -0.990052460570694182 1.20020571381013896)
(0.636236287576009141 -0.927193784046602465 1.15008548306414871)
(0.62476962576046402 -0.898936942323263488 0.926994032300124227)
(0.913881880175374417 -0.914344386076854532 0.582125113745337819)
(1.37699404255503377 -0.860067896042163049 0.222702381774364772)
(1.86582279651516214 -0.694414916236420598 -0.0794913781112379231)
(2.29949903919232757 -0.442983833901447521 -0.262392317064463643)
(2.64044688236285552 -0.181751420639698846 -0.305689964133527448)
(2.87689908942827044 0.0341094421474539 -0.275869196173407216)
(2.96951368686293371 0.194384970733230411 -0.169219993742706992)
(2.89828276215381742 0.209361761184956863 0.0160480980607129314)
(2.76374860213984874 0.177695859420620467 0.219490677769572845)
(2.62473303952276327 0.122223415855477621 0.403867401109132884)
(2.50302070410888167 0.039216230331228355 0.555196303174847805)
(2.41049385331753596 -0.0216173394152363238 0.671403678454442931)
(2.33739986877473127 -0.0611513807500566609 0.750354044332374626)
(2.27824783143877951 -0.0752564418339745356 0.790564166368646126)
(2.21160939927066602 -0.0763047882843978925 0.811073452439380005)
(2.12322520849044594 -0.0707518378205113513 0.823426355251067776)
(2.01612839107080699 -0.0736315495917522767 0.820282026379104412)
(1.91000934775132536 -0.0723566969075484234 0.802279858152252001)
(1.83458892556246989 -0.0660176790286842452 0.789500139249260768)
(1.78483596118263832 -0.0551499435455874085 0.792016637497682585)
(1.73729727039416026 -0.0650977867903107243 0.791630059868087876)
(1.68616513704403048 -0.0722941220803728773 0.755084751197737436)
(1.62774209829664662 -0.0907637258509158551 0.663030473055000291)
(1.54686043199197831 -0.112170990639690313 0.505936314598934622)
(1.42149334001138183 -0.135505687310790074 0.296543179177479854)
(1.26229502870605015 -0.125594582340855354 0.0841419231887243491)
(1.10874763334979987 -0.083653341059848188 -0.0805009274593707219)
(0.961658042102874533 0.00334277226596770005 -0.161012227292110871)
(0.749632879155037068 0.110209855268356041 -0.15404233051144503)
(0.578393704975599721 0.232145996465284055 -0.190507000651252256)
(0.323412675147523476 0.415583989464760828 -0.208285720621835396)
(0.252772363985600212 0.557437623347595279 0.481804657977362882)
(0.156139710713905366 1.39669743298824978 0.721352485965406798)
(0.640783851035940044 2.18203647477415164 0.760496587710597138)
(0.777044798105389956 -0.792889957234760967 1.05257444779990483)
(0.712426670135563489 -0.906722996083728749 1.04723754128493751)
(0.455547043670061602 -0.878559981434323789 0.882878874217425724)
(0.639612245164248305 -0.993787773601599422 0.481618048100921958)
(1.13155173833446554 -1.15438341712087333 0.092248047653125595)
(1.58435915869088828 -1.13376231186185583 -0.158315941442882635)
(1.94014150702169519 -0.934898791318318323 -0.289632008285858278)
(2.22660326592890367 -0.634371923697289564 -0.338435460327942694)
(2.46421895825461501 -0.311709555560982565 -0.328895689868449859)
(2.65814294398335527 -0.0225900283049855211 -0.287516168015446938)
(2.79472075875104453 0.200430827168028042 -0.204524549427329672)
(2.87509878250066375 0.34117971027630839 -0.0789822745689698347)
(2.83434413461303247 0.373185922120580271 0.0978074735701786047)
(2.74169460611996874 0.325028145292312387 0.290346360182123231)
(2.62917934818467414 0.21420942610950594 0.446154083121076017)
(2.53340538580480912 0.115890905756336635 0.551741188223274337)
(2.43861800601577849 0.0405608712464554169 0.623737360252309303)
(2.34077074674255492 0.00489669486406482495 0.656952090161076474)
(2.23308531766566798 0.00534229955886041108 0.660729856036556318)
(2.0982378324981843 0.0177500464371513969 0.650531720819408354)
(1.91263060886165404 0.0170643462279250653 0.627270390477948747)
(1.73759365787260678 0.00525161715675461632 0.609533441233300555)
(1.63704875260107285 -0.000297774282927784498 0.601262492430772566)
(1.59296931201534675 0.00967568890332881799 0.586813706333518037)
(1.53930304170797139 -0.00211846271171813559 0.544571386643152966)
(1.44756859826144058 -0.0301778434538244981 0.443552018717433993)
(1.31278625110973191 -0.0614019323520467938 0.276096192512606253)
(1.14818429070891592 -0.0871980842668128725 0.0659136965574303457)
(0.983343384521234487 -0.099116469269576124 -0.150342694320510645)
(0.851566823009745399 -0.0825376757369271491 -0.322231484291699621)
(0.768507624728647198 -0.0162226701131802931 -0.434518532091442367)
(0.683398797926692891 0.129571223360262278 -0.454805546045374542)
(0.472173363113156386 0.2844450844217154 -0.366991403735538346)
(0.362675960716801582 0.42277871246030907 -0.36030751218724999)
(0.185494571794947549 0.642470886505394745 -0.494169784218847552)
(0.175578046876358751 0.590593052256329631 0.336569743485333916)
(-0.222409962422935037 1.3955379929533509 0.705549188911097636)
(0.616176094633093197 2.21883622483137977 0.756305502234453364)
(0.701476145269185447 -0.650045140857527182 0.937515949156763062)
(0.610696434873875038 -0.75678132390426045 0.871150438550223671)
(0.472412709589039581 -0.779696070536373242 0.540596185216294933)
(0.943693690639879956 -1.15225067596030506 0.0228984237516779154)
(1.38936754944205276 -1.36449395726749123 -0.239926474591607153)
(1.68032046203701269 -1.29181344439150081 -0.325267778970163679)
(1.88875894074375927 -1.0681482956561168 -0.335674189331395756)
(2.05836349168836508 -0.74011774083442794 -0.314081020870401129)
(2.20765144974087368 -0.384927075347147984 -0.254562344320978129)
(2.36739894758442171 -0.03925231010566263 -0.169310458523968088)
(2.50560873002612805 0.229049694273853133 -0.0732682311489516042)
(2.62796286794302203 0.405790843613645424 0.0288345949777520788)
(2.6813965650685132 0.485159724016949845 0.151470287655488894)
(2.63901263220960525 0.456628392016097118 0.296981050643779831)
(2.56457047103457692 0.345432179410316065 0.420615927557040248)
(2.47558441818397368 0.224975318212503939 0.505112674306500087)
(2.37969252211701088 0.135881524468148857 0.548687068522932253)
(2.2520754560539582 0.0910810139040679062 0.547430965424902438)
(2.1087007748153801 0.106118427373806751 0.512681038958079149)
(1.93558667263156559 0.134605797323934046 0.464405298376128262)
(1.72652119129357118 0.14143486720389023 0.421125995755705806)
(1.53082929271218959 0.111300208817343441 0.404967233341023636)
(1.39638969645967537 0.0645934835474203523 0.399128063528512989)
(1.31524811118222784 0.0456179182658666971 0.357568007061398352)
(1.22095737941248195 0.0231416742597935696 0.256191266039409726)
(1.07502962175439309 -0.00997168584620098178 0.0956135362748180978)
(0.894701670964204832 -0.0461850839290060822 -0.104968564297337807)
(0.729965520700764037 -0.0777397022108289593 -0.304672343336775842)
(0.605803011452667128 -0.0812605000485910056 -0.470275474073677424)
(0.56598173791113493 -0.0627810394214931289 -0.585507910446166568)
(0.563131486845490969 0.033512559245971435 -0.669689102587626817)
(0.521337992738679201 0.256507042073708558 -0.642238100543615187)
(0.31130303418236599 0.422598811225478821 -0.472401471684805507)
(0.270741832752500411 0.619066191283627942 -0.525480929620611104)
(0.0811772729173843716 0.833651965648206206 -0.60453153629282208)
(0.256204534237392867 0.642731199620194538 0.259248283386839695)
(-0.446243561859803961 1.37040409949913244 0.693085517776041216)
(0.609768947397516747 2.20796761268065511 0.747329123220238256)
(0.546746239667015965 -0.323611652211372502 0.78368322292720205)
(0.463962417205301847 -0.53292774186560965 0.622844296284569499)
(0.659319272808642998 -0.717254651751979111 0.0696984960567609835)
(1.20472751131065459 -1.34064161415698613 -0.31058597583254921)
(1.50744250582754225 -1.50561444924607413 -0.388739507447965815)
(1.66490709679239202 -1.3914634543083586 -0.376156622025446863)
(1.78031797100653799 -1.12024690992297171 -0.331899607602338775)
(1.88253139568999073 -0.752307094952841648 -0.23733187750965451)
(1.98906304856510374 -0.382411556123267382 -0.0984590186479930851)
(2.12334624667447436 -0.0241912812746057915 0.0396654369073036472)
(2.25757954139224948 0.254792392839516657 0.162166796494142673)
(2.36547378074290204 0.433216177373227984 0.257158557377955177)
(2.44491881865183558 0.535122958327441833 0.326187674931489979)
(2.45668175463680516 0.526920143677219288 0.397982211524688434)
(2.43399067353265863 0.445867704157000388 0.451288300497489026)
(2.37145630750855396 0.333373525299602735 0.48251983706638818)
(2.27833261617508098 0.24518989996083701 0.485502307907890895)
(2.12985456031182085 0.195266615894776563 0.445774719355275018)
(1.93600447955213362 0.215445001896032412 0.365842911497706424)
(1.72676559562185794 0.249124469686473254 0.274472102859133649)
(1.52043760844172371 0.265018591237326018 0.199056939930731841)
(1.32768937402085729 0.231988025120724278 0.158546468053004486)
(1.14703231667683636 0.155357494850989097 0.128994357992638503)
(0.976396518069242547 0.0962144083070992223 0.0561434618210871345)
(0.803860510228889047 0.0618985707262175236 -0.0852919347886548496)
(0.619861822519087724 0.0228515251752464989 -0.268514451481662253)
(0.447516664427247579 -0.0163283918692546798 -0.440465318841843645)
(0.362603592160675725 -0.0588324001729023591 -0.53714984123694054)
(0.409012896865828868 -0.0969415204341536468 -0.587251165070541759)
(0.495672116864215029 -0.091577199075418253 -0.682432325913638227)
(0.47714806779373109 0.0481687222809950022 -0.784341495017481738)
(0.393288746996334371 0.410453733324562364 -0.740084433965491506)
(0.197779436209829629 0.590865464196250301 -0.566326432967791948)
(0.138780918624411831 0.805321124622116691 -0.684049666757201469)
(-0.0058771264221994246 0.961259496939961822 -0.605279797891763893)
(0.370542568456531884 0.709784836059884294 0.222472954602973977)
(-0.563530417123324634 1.34465439357943661 0.689098222810123895)
(0.609839464232347805 2.17715180375668149 0.734319215687720628)
(0.356395379175347193 -0.255027982073551429 0.453890394206679981)
(0.300335350625894948 -0.289292011358618428 0.287168600351701664)
(0.919097599702829671 -0.908786182600124337 -0.326315599387762889)
(1.35690102219277176 -1.520345407257506 -0.450281689795612117)
(1.51655257579135538 -1.5726280669239785 -0.433731963411103427)
(1.58957772556986177 -1.42625041056066193 -0.37733918107347153)
(1.65534901049358241 -1.10631483839730094 -0.278826418077585625)
(1.72892138080769797 -0.699959415023985065 -0.120811469528048623)
(1.84709635212932488 -0.28604658773088093 0.0970637592413767236)
(2.01373285486798759 0.0683055480296178852 0.292296182071822341)
(2.14215989313472344 0.315848930720634413 0.438957716034902523)
(2.23039254217533145 0.466660950612898251 0.521068670102902365)
(2.29110384921388288 0.568998257618881786 0.551513471781301279)
(2.32591079842467563 0.55209892302757424 0.559389316743110654)
(2.31596177633602052 0.496676872095222266 0.533015258258529911)
(2.27292828407205016 0.405205914579416682 0.501742046281758114)
(2.16479685187250315 0.327806631210502797 0.450417374550263594)
(1.97915208070390736 0.290050118890431308 0.361164833889005665)
(1.73628426412079584 0.315115366351946646 0.237274215017352519)
(1.49346482095802435 0.347384255167281997 0.107892389622916862)
(1.28117436526588713 0.36546894556630205 0.00238486936612953421)
(1.09745142237403859 0.341449110094130814 -0.0716592977213000304)
(0.204579462457627287 -0.169016728505774094 0.247503206837944495)
(0.355755236471791081 -0.0876087819913732579 -0.28283343541382977)
(1.12735626266751887 -1.20740224089878923 -0.487405580005357886)
(1.3939770182071074 -1.63756603996160588 -0.487695009452175032)
(1.44968418252548714 -1.60540920130001097 -0.432963654397094777)
(1.49004452434656187 -1.41754120950291429 -0.332610385613293258)
(1.5378184133341164 -1.05861311936388924 -0.196501674970437745)
(1.59533225659276789 -0.626271564930593216 -0.00341699514443529265)
(1.72277269399426469 -0.221624444631737361 0.2331173051730836)
(1.89656412370197525 0.0869741712995829586 0.437255890563978789)
(2.03563975139993714 0.319181157627062173 0.596223786640022624)
(2.13856774508192249 0.467685437442534768 0.663641524940299044)
(2.20003246724864931 0.545162516040569201 0.678265434257194655)
(2.22758997094599698 0.547417733977786591 0.660313049614377756)
(2.21270721338032761 0.513981235486594912 0.609957842618016)
(2.13695850926864628 0.442234719089519557 0.52938347577627265)
(1.98068573241953261 0.388487359467966364 0.417607012697918945)
(1.74959828316660237 0.377951692611286805 0.274897400012656667)
(1.48629389005172063 0.406024362967993491 0.116008456854152953)
(1.22860662951573651 0.435724791155060409 -0.0400056636902036203)
(1.00799284639917519 0.448776123926104886 -0.168966941915678293)
(0.821545975111515281 0.426121505453609883 -0.263740552061579259)
(0.0371545279484578397 -0.175886595547604385 0.013540353843554731)
(0.703953310677736699 -0.322866002163930133 -0.493783319428313994)
(1.22898348900946108 -1.4456849154967939 -0.536357836483160488)
(1.33428960506397232 -1.68321212552576438 -0.492114242640067701)
(1.35144426545630436 -1.61391601772959969 -0.395543599204276453)
(1.39543666372648834 -1.37996597653633835 -0.265316747559206201)
(1.4109389016837024 -0.973018526162747754 -0.102168512718451981)
(1.44320117737063014 -0.525197842323580688 0.0997397540530143845)
(1.57491258686432034 -0.143190047873545723 0.32065846169388823)
(1.74649038615756624 0.138905119781092296 0.510970110791720611)
(1.88965825860130487 0.34323784316331496 0.635570477409917345)
(1.99755127655957954 0.468642935937743199 0.701419683099395286)
(2.06150891097853606 0.523102952708674573 0.692153615180358117)
(2.0674098309199338 0.527830071953663937 0.652416319095819097)
(2.00734020856897377 0.512918290808572541 0.571274920731405289)
(1.87939200358761638 0.47183673633982498 0.459397018106961375)
(1.6845677912507846 0.448029632829864688 0.320957055898197341)
(1.44786191392975727 0.458208242681869105 0.161478447972137951)
(1.19267952772084662 0.486594398384340043 -0.00790675271809832339)
(0.941738114015775007 0.514027735987068413 -0.174042472374966339)
(0.721032787653101304 0.521610552552677076 -0.310750368426396417)
(0.534488344267272986 0.492045406510388639 -0.411643518539957953)
(-0.266535628836743921 0.318856066891305578 -0.43878412180798565)
(0.962964680323630473 -0.849364372927167044 -0.573492424890763353)
(1.21907805540583936 -1.60962420376116588 -0.548699484587424124)
(1.24554316182618674 -1.69350241646276745 -0.464933497001023766)
(1.25656985149777034 -1.59699843638033689 -0.33998889404457705)
(1.29377026291848907 -1.31311303460259632 -0.190267732954572971)
(1.26514408338697404 -0.88531551295099209 -0.0314174824614173245)
(1.25109990572187924 -0.44288095602787142 0.149514209293027195)
(1.3676367157357463 -0.0977989141428571573 0.342013787175355299)
(1.52913498156148853 0.145658277724963314 0.502629015921329914)
(1.67276853686632077 0.323549318820233744 0.606278263972234166)
(1.77287860400878872 0.435949406186560973 0.65157873853081949)
(1.81777324346714941 0.491269091198030972 0.638769286679953363)
(1.7896191401514765 0.512649987670081408 0.575268891865997167)
(1.69455564490139898 0.525601018613857551 0.470448418458110806)
(1.54239544484444346 0.514700850401567322 0.33996827425316628)
(1.3440074984517334 0.50959536223378088 0.19192731293479956)
(1.11954571816055592 0.52494479143911732 0.0333920351105993843)
(0.883532877982480702 0.554768494183787597 -0.131205319844051954)
(0.653890276808031023 0.580356364242776923 -0.287158920400129747)
(0.449197454312256328 0.580056316803562066 -0.41632736597768244)
(0.275021906960066065 0.544523655905550186 -0.508964476896093365)
(1.24677434468227477 0.143864849635321174 0.461979096351349872)
(1.38183685853656235 0.295875546385665988 0.540228079069811074)
(1.46871909880437301 0.404980655522521549 0.563635375709469866)
(1.49206271182284889 0.471183433211513403 0.534501498520726037)
(1.45072423432356201 0.510288953486114916 0.460543305780862999)
(1.34776662698790739 0.538773782809639834 0.34891288056008235)
(1.1946846781384779 0.549433227391680989 0.212192609054647374)
(1.00633981125150695 0.557927594779997205 0.0638005574591914565)
(0.79621590795125019 0.579463953249063746 -0.0894241135594861514)
(0.586574610258527751 0.609789731477417107 -0.237764224167680366)
(1.13347131155617831 0.379165172759876046 0.46481501650003082)
(1.14747349963157053 0.454023008810621576 0.42334285212527567)
(1.1015113328582915 0.505562230957651515 0.341433743778773113)
(1.00211805764744866 0.545286695945822464 0.228131518775004982)
(0.860656902273095659 0.573853156924510777 0.0943089138132763155)
(0.687808725169235746 0.59483407482553563 -0.0491107243594530798)
(0.501893697967471741 0.621594791566435156 -0.189273911646285875)