/*--------------------------------*- C++ -*----------------------------------*\
| =========                 |                                                 |
| \\      /  F ield         | OpenFOAM: The Open Source CFD Toolbox           |
|  \\    /   O peration     | Version:  2206                                  |
|   \\  /    A nd           | Website:  www.openfoam.com                      |
|    \\/     M anipulation  |                                                 |
\*---------------------------------------------------------------------------*/
FoamFile
{
    version     2.0;
    format      ascii;
    arch        "LSB;label=32;scalar=64";
    class       surfaceVectorField;
    location    "0.630000000000000338";
    object      Uf;
}
// * * * * * * * * * * * * * * * * * * * * * * * * * * * * * * * * * * * * * //

dimensions      [0 1 -1 0 0 0 0];

internalField   nonuniform List<vector> 
20390
(
(0.622978253299455775 -0.142131418817011801 0.563347589124218562)
(0.561967975823555177 -0.245577591497202652 0.489212999447637631)
(0.238029835854424193 -0.157369301465471456 0.277559000579113202)
(0.800426676840604756 -0.0913686172940732927 0.409382069174164087)
(0.964994535569710044 -0.119399162860637398 0.742180592080414647)
(0.946589377387702768 -0.246591488394733105 0.758151305540357701)
(0.678418884792328702 -0.164789916439785161 0.749022913641909982)
(1.06046966688094013 -0.0934203588902846604 0.597856226558983184)
(1.19351405726710613 -0.0756485194963814056 0.786624606947367022)
(1.13761889745179556 -0.194931793612135917 0.82459410006512579)
(0.969349348669100719 -0.115521485198212356 0.843315962694588528)
(1.2183524990996013 -0.0692831900615432095 0.681971864107288717)
(1.34279475796421499 -0.0455234378389970801 0.814156303859266739)
(1.30053703589525416 -0.142343135712078656 0.846429029207853789)
(1.17518392046901154 -0.0694115974480974673 0.869616357695062292)
(1.36456715904214687 -0.0466480476505529637 0.734210797083207467)
(1.45183876902299724 -0.0307317484335109144 0.835266315346948174)
(1.43092866480352354 -0.109065983188955912 0.854870661219154893)
(1.32351553214549034 -0.0420277097056986279 0.880794854375187453)
(1.4800525203859356 -0.0340708466955002287 0.771706894383421993)
(1.53982281913969565 -0.0242405174351271804 0.853573414272048803)
(1.52806577825738077 -0.0888448258267702795 0.861330847483831819)
(1.43144273073533257 -0.0291948760437230961 0.88988053320078897)
(1.56400788014346648 -0.0285315557165200691 0.800174943800773475)
(1.61222609355243196 -0.0216236353424135615 0.870979928314522645)
(1.60550009092196966 -0.0748924742366280094 0.869888904206601365)
(1.51831530563869288 -0.022771697212789873 0.901024590795906688)
(1.63053425542799624 -0.0263373383663714003 0.823642934124178105)
(1.67261513451003729 -0.021107938551992677 0.887393917978265168)
(1.67017424154919714 -0.0654036303879228231 0.880786195641750203)
(1.59172507538313557 -0.0192837717450623537 0.914025212337538973)
(1.6867851926474462 -0.0258017178102021016 0.843607003283319501)
(1.72438516753552462 -0.0218704300429014425 0.901750610247950002)
(1.72497635851955922 -0.0594339678265959834 0.892169365509200563)
(1.65421616541292371 -0.0176373509233888198 0.927032857110671737)
(1.7352185863697418 -0.0260527513021436806 0.859934961916521079)
(1.77066795086067152 -0.0233142059670995577 0.913239056116369574)
(1.77298420794744716 -0.0560584615086307525 0.901857657142821401)
(1.70855268283179251 -0.0174852345562450211 0.93838012914615665)
(1.77789947161317086 -0.0267636773020701532 0.872545996091578235)
(1.81313006878165739 -0.0249756056621495172 0.921510712625417283)
(1.81656202698671088 -0.0540547436387793165 0.909087162971036089)
(1.75741642603470294 -0.0181226603715764524 0.947424652776599707)
(1.81689485507071935 -0.0276929743194243919 0.881777296116700859)
(1.85301907731598248 -0.0266593547557017543 0.925959820624271956)
(1.85660661788343817 -0.0529320232935618709 0.913629280446084935)
(1.80224490116463931 -0.0193105416418164096 0.953616626486922025)
(1.8538854005160943 -0.0288191293281525804 0.887641607367994467)
(1.89218980553611282 -0.0281711313251109888 0.926014005563485898)
(1.89463538013206412 -0.0529481786849037572 0.914132975482252252)
(1.84462662031419922 -0.0212757772022944755 0.955993183795894486)
(1.89034285845964578 -0.0299954566101526196 0.889267574684988404)
(1.93133401559710971 -0.0294226267444230964 0.921704441543253927)
(1.93193117632187983 -0.0535445345530977182 0.910056561618178717)
(1.88620720451375745 -0.0234180732422030746 0.954454255801516549)
(1.92724206576243651 -0.0309734743038366615 0.886509417956789614)
(1.97119296548173928 -0.0300370338217487674 0.913518353372999914)
(1.96969246296300948 -0.0547942706331143448 0.901566946589009821)
(1.92787521928759142 -0.0253311989205471863 0.949302582493305014)
(1.96498066289127227 -0.0316060151492791458 0.879573007909444149)
(2.00998673645520443 -0.0301733627938410784 0.90233407955868794)
(2.0074792410575899 -0.0546844497081550238 0.88946310171655607)
(1.96934979493771012 -0.0264929737421319318 0.940366835601747164)
(2.00287783717427104 -0.0313530248669183359 0.869791708100777106)
(2.04897764149156192 -0.0300543206636730738 0.889176631218115077)
(2.04471331054989314 -0.0550754457609529333 0.874988137811380851)
(2.01032029991416206 -0.0274101419275208716 0.929007812878944295)
(2.04042840348561771 -0.0312053666469355208 0.857847815061872687)
(2.08681585643547951 -0.0297308418338635416 0.874604666063739211)
(2.08151675333268615 -0.0543400524396734572 0.859536198267565443)
(2.05068058162206279 -0.0276436463561256472 0.915712453777230651)
(2.07785906617357119 -0.0308114360386876375 0.844870551777175627)
(2.12375496572763112 -0.0293926936594873754 0.859313778458382194)
(2.11735655189321736 -0.0539667875771754207 0.842824375731261455)
(2.09003825445018787 -0.0279383932725954763 0.901224101906280106)
(2.11448745203765931 -0.0299820770827545664 0.830229633937272116)
(2.15888258185186022 -0.0295036147775044749 0.844668648059777261)
(2.15180647926344282 -0.0529092550068876455 0.826340108925492478)
(2.12826274680532013 -0.028042624002256291 0.886442061630146161)
(2.14941133474309165 -0.0292138198566254913 0.815751175726314504)
(2.19522958368298093 -0.0290819550746323277 0.83111020031051297)
(2.18662241116666412 -0.0540508547409278076 0.812404913199128442)
(2.16549941779400656 -0.0278624113513880681 0.873560658235927656)
(2.18366281795212558 -0.0293987958939843537 0.801805956067362602)
(2.22794119081724773 -0.0280332416908466095 0.817217411524572168)
(2.22035659365950711 -0.0511233783922259433 0.80017303182211208)
(2.20065219224566366 -0.0266691024316117256 0.859316288243046067)
(2.2178560213729468 -0.0288309127285349444 0.789781135211044649)
(2.25977019365935483 -0.0277109350634052974 0.802273872579206571)
(2.25149943438426714 -0.0504564563981013195 0.786114062166521688)
(2.23350567735328509 -0.0265949124317052671 0.844328821925658835)
(2.25069660166716679 -0.027681215900098595 0.775244910651056718)
(2.29164146462554141 -0.0283810440334530054 0.787807013456635508)
(2.27940263277296173 -0.0506372408255094941 0.771524208684171597)
(2.26630625494087479 -0.0272644856020354681 0.829496170948219591)
(2.28227308767970438 -0.0272684092892219905 0.760092969032319044)
(2.32707347622356586 -0.0279051686074602533 0.774859409276034916)
(2.31040333360077543 -0.0538562225276760231 0.759518098117084706)
(2.3004332126328606 -0.0275630111321464137 0.817561087716380808)
(2.3145858385201703 -0.0277941126046074918 0.745280665020310651)
(2.35766132731352718 -0.0257552240221252116 0.761626097651698308)
(2.34376120802701937 -0.0498058988976980629 0.750226654531278014)
(2.33298340365326951 -0.0251743374178339599 0.803546665968470353)
(2.3474747329028971 -0.0270937580068871114 0.734522721348979335)
(2.38634897591502337 -0.0246877047627383633 0.747471084553718801)
(2.37020728811198556 -0.0472176852608861136 0.738653577749354917)
(2.36316343475181379 -0.0243685429707441725 0.787188859442910727)
(2.37866080329577656 -0.0253075519472282587 0.721441131669888658)
(2.41353570833346653 -0.0259752784755969933 0.734159955085730065)
(2.39344651988596935 -0.0472694588318791631 0.728202975377494233)
(2.39236404886026977 -0.0239384708778837448 0.774050001521956021)
(2.40722489890764102 -0.0246292950085800037 0.706697810258453685)
(2.445686177789959 -0.0274672933095796434 0.722503198166869254)
(2.41786426785936603 -0.0520540525443330751 0.720416077327072357)
(2.42210927442884749 -0.0251317249745721845 0.763809945289111947)
(2.43585040805780739 -0.0263476512329951368 0.691852313079527659)
(2.47595007924112709 -0.0266852565221044821 0.711056959277539646)
(2.44561626939279053 -0.0507206086152331981 0.715794170199734126)
(2.45186355293534408 -0.02426177355229657 0.752106270634619434)
(2.4661879910121085 -0.0274606328119950532 0.680928966779292821)
(2.50383895653766642 -0.0250134529697254374 0.697367740662515501)
(2.47266385086528961 -0.0470772358394706478 0.709862704074558204)
(2.47972413943160053 -0.0231559163488718536 0.736476139714141276)
(2.49697745445482511 -0.0272634874014612907 0.670210555212542913)
(2.52960004202634625 -0.0231053764802693663 0.681657884738977815)
(2.49757028724566643 -0.0451329850518482276 0.700021471693623165)
(2.50628853333484614 -0.0228469524964330026 0.719881961527657488)
(2.52616207236190116 -0.0255087762876784405 0.655377081333504696)
(2.546038376060618 -0.0161950209108636181 0.667047712688358829)
(2.51869812656854819 -0.040687471070491199 0.687756906258907064)
(2.52910961661791811 -0.0213097035947303511 0.704370202546692581)
(2.54865278511155946 -0.0217158654060462877 0.639433593223519336)
(2.51619997402437567 0.00993397029190057693 0.656286935190750986)
(2.5272504235995461 -0.0157534535097608556 0.676649462287904235)
(2.53023569108735247 -0.0112835715500141515 0.690004561395610061)
(2.54567237537257629 -0.009784231961669115 0.628659248924238412)
(2.32449369776575088 0.0884436204250370478 0.647375415969031476)
(2.46836172000036891 0.0674526550818953241 0.668835300946315492)
(2.44645448470781934 0.0285512808533389985 0.679141114546747859)
(2.45665558192755684 0.0310938244888838318 0.622340160353841321)
(1.75656775277821242 0.213159672990869853 0.633742035721001185)
(2.25879194662460581 0.254803699175173259 0.663560330971742163)
(2.16529007304784304 0.143959336102791241 0.670093867343392713)
(2.17051339834921242 0.149379810396102736 0.611775356019882977)
(0.748182569632710126 0.237044881158267495 0.519645756523849478)
(1.69653165115231008 0.473719417874922832 0.654196862339670449)
(1.43583642753959317 0.277537763015296535 0.652533539959897047)
(1.43151356103073568 0.281752054253920248 0.591587210987468803)
(0.596742682259753576 0.353828305183755909 0.554777492569762498)
(0.376074424327725865 0.196161454801472929 0.432691392512700168)
(0.364048199600515598 0.19195620359447349 0.392165456137313184)
(0.809716366545300992 -0.377277920535125433 0.684016715863776215)
(0.727831718632273805 -0.453081563506069485 0.600958830565450186)
(0.336368196064157077 -0.376918980824848426 0.125641880663740296)
(0.882944622649495137 -0.262361941507302299 0.520350178422000154)
(1.08594096626062031 -0.356841232723322632 0.840564813525068955)
(1.0720448041959989 -0.494500380401137696 0.879246202806236554)
(0.889262768926641023 -0.41051359063760634 0.898635827132412079)
(1.1456880198071886 -0.291260667345982494 0.679042627789986697)
(1.2703283504626639 -0.285651618199610213 0.884398522325612557)
(1.20139546019574461 -0.429854157300779527 0.960119616835354517)
(1.10198566223080019 -0.339002872865342697 1.03619677727644555)
(1.28326671450292951 -0.259641807040135286 0.750739429192997965)
(1.39998334240990263 -0.221169335721391858 0.887143386567742054)
(1.33154556290073556 -0.339886621274927803 0.966361093870161891)
(1.26530496339066634 -0.260820594160097285 1.04292489864412108)
(1.41571256171496707 -0.210037985896015217 0.77749298523825261)
(1.50461172592056958 -0.176231308525101243 0.880935193356038537)
(1.4504385473094572 -0.274896467241302345 0.950439880295829931)
(1.39245258100090585 -0.208478267886827717 1.0173242426881437)
(1.52825913568744731 -0.169657485070193542 0.79029173468942826)
(1.59260387385498148 -0.144245953310604552 0.877646337418384381)
(1.54722346366140973 -0.226828476609961693 0.931745176845728218)
(1.49014970167756111 -0.17357796199503156 0.989098031791090571)
(1.61385652942801094 -0.140269457223485911 0.801122946739082464)
(1.66392264457970707 -0.120562139169286348 0.879695171533828923)
(1.62699624148583721 -0.18797554449823109 0.917601036781472645)
(1.57241786635544134 -0.145587831011958213 0.968462125542680408)
(1.68145185734059854 -0.118245190881001189 0.813614788429150582)
(1.72291866543164152 -0.103738292211391622 0.885561643172685486)
(1.69190016219034378 -0.160157800935750799 0.907494790408266638)
(1.64357742126930995 -0.122822750298154509 0.956897437054580524)
(1.73762777329060691 -0.102477559771994159 0.826385142165668385)
(1.77316397544165216 -0.0924363711301518648 0.892276412404071961)
(1.74401084565649667 -0.141117574091570525 0.902222946898501688)
(1.70370903928684725 -0.105235635040666076 0.95101926609370524)
(1.78540165762341596 -0.0914937678974300644 0.837897390201394532)
(1.81873174641667323 -0.0851300543481847555 0.897705763997488027)
(1.78754283125337787 -0.129396734601077951 0.89949185500215223)
(1.75626295625859763 -0.0928789055279780895 0.948060372901119996)
(1.82720486301864127 -0.0843003286436271176 0.846951632584958314)
(1.86001240004933388 -0.0804992789056752922 0.901205730791703741)
(1.8254208372589491 -0.121200215528396688 0.898232776920008358)
(1.80407588484401837 -0.0839135981813631943 0.946770212538378342)
(1.86475791922498257 -0.0797794603917619943 0.853759969955027453)
(1.89791682632339298 -0.07815433003079017 0.901802435304065342)
(1.85885287726343496 -0.115697979418521557 0.897776622163215077)
(1.84754639963366007 -0.0775545693208814363 0.945691912833092174)
(1.89912259515532766 -0.0778245364964167408 0.858064479482768871)
(1.9342930610462139 -0.0777486668148759386 0.898175531536945071)
(1.89057671527365523 -0.113109105700723564 0.896007811759417905)
(1.88714803928251551 -0.0747560855072750552 0.942248423506669153)
(1.93219573803603217 -0.0780418481481918308 0.858302860944609947)
(1.96986801306299575 -0.0789973377611165317 0.889919066663934499)
(1.92136147186161876 -0.112635538540654473 0.891253011498921333)
(1.92475166263254671 -0.0747498071363457278 0.936114155220867938)
(1.96548285521715238 -0.0795500514946571174 0.853507139642807666)
(2.00675856918451911 -0.0799377715857383375 0.877511694932565978)
(1.95318076156154596 -0.11495737697558317 0.883592983998521042)
(1.96203176256812695 -0.0766195113496412616 0.926738099111366398)
(2.00018104151803255 -0.0814280070043234133 0.843302445140355905)
(2.04159443997527656 -0.0802139543724028903 0.862117159969249092)
(1.98549354546987256 -0.113323165037861689 0.872873934521835149)
(1.99886554005824002 -0.077596978231936356 0.912553403439986699)
(2.03542281972239714 -0.0810712149141064042 0.830111818320336203)
(2.077923137056918 -0.0799132464592099689 0.845347704860830995)
(2.01675010832996593 -0.114012975669099084 0.86119140073243805)
(2.03480407752896975 -0.0790510652630168897 0.896343361905352243)
(2.07033404397768539 -0.0813116278372811585 0.814796972893638172)
(2.11176254327270785 -0.0789105819034322531 0.827755907935087576)
(2.04725152878873962 -0.110684806475731132 0.850647658024516362)
(2.07060952150256439 -0.0788182196074576902 0.878460860668700549)
(2.10582808422277123 -0.0807422617734224191 0.799610756992567451)
(2.14600937545567616 -0.0776525202404551723 0.809850706198371961)
(2.07693597375639794 -0.110334478107215167 0.838990643567481653)
(2.1055569018130571 -0.0791021868561373742 0.860454640475071364)
(2.14107885458442704 -0.0784727909890638592 0.781966113520181527)
(2.17758268646851993 -0.0779450513008032447 0.794076374064843771)
(2.1053927006673101 -0.10705255457539814 0.827042149016893546)
(2.1405729163171916 -0.0788185545439603202 0.842642118237008519)
(2.17442228810782989 -0.075917556264403635 0.765928844689388599)
(2.21456050525997217 -0.0769807692272878319 0.781467744710727663)
(2.13423682143196247 -0.11305087227750725 0.819859738506111269)
(2.1760560601347505 -0.0781692790833608125 0.831612701829394285)
(2.207176648140174 -0.0765812280090894387 0.750590477740545103)
(2.24293237870152362 -0.0741440245339844706 0.769069682464061599)
(2.16160676648439143 -0.102739712055368304 0.815498276060380278)
(2.20855247988483328 -0.0743073272635431659 0.816418086023361633)
(2.23994482196163469 -0.07582637195031805 0.741557287094694928)
(2.27113261477199879 -0.0735659797706155194 0.755364398271486603)
(2.18284743574378437 -0.102502357840726296 0.806511182828684503)
(2.23784069290762933 -0.0735508504469253727 0.802649249340043558)
(2.27104319236041752 -0.0733917044419633569 0.726757702207616818)
(2.29487631951464843 -0.0768687329146692244 0.743235293344620795)
(2.19891434654704776 -0.100173885155628695 0.796602283670136191)
(2.26603183417352128 -0.0748363922491155215 0.788894156383664447)
(2.29749946669421234 -0.073091187545062955 0.713564599174240755)
(2.33203392171367518 -0.0778208569742223077 0.734885343372327693)
(2.21709251871296553 -0.114903308614466848 0.792507495699956266)
(2.2958540923639652 -0.0773017640130043704 0.783999165221530459)
(2.32524868854454114 -0.0759408264248426501 0.69906260385120822)
(2.35525940579831872 -0.0736658319057438837 0.727254134628934512)
(2.23899190740157072 -0.0982732674104582343 0.798809254019146819)
(2.32542480346874036 -0.0730405527232331764 0.77114097070599108)
(2.35678002577806289 -0.0759073740692847027 0.6974317058044468)
(2.37729716951086845 -0.0712509107163956934 0.719385468573130127)
(2.24584891082357263 -0.0934459961641410375 0.800185414117636218)
(2.34858098992819597 -0.0716568079673909203 0.759023004831396841)
(2.38396844271254826 -0.0722161828193267075 0.688604135654004357)
(2.39397380890295297 -0.0734166298628954883 0.714459097618836747)
(2.25064302917321113 -0.091728846315091539 0.799165866975893979)
(2.37004819998718341 -0.0701609068843420391 0.753310712891672285)
(2.4047907011544063 -0.0699740102935385161 0.681068589776959055)
(2.42094708182475404 -0.0760804043144046455 0.713707049359937229)
(2.25716711492794575 -0.105138562933076787 0.805257037412311361)
(2.39079924120270304 -0.0722690812895360052 0.753438928274067665)
(2.42377534118340288 -0.0729885948797295292 0.674243212009773218)
(2.44308432820376709 -0.0746456763628644965 0.714599914996752683)
(2.27276139876183336 -0.0985662083223967644 0.812012517217115537)
(2.4133132570672835 -0.0702710178594791041 0.750858270579202625)
(2.44648665943900134 -0.0754156382149344801 0.677304344144203596)
(2.46622182114521271 -0.0722271405467140165 0.712516435105665979)
(2.28296966610878549 -0.0921620167691852565 0.81587545410972151)
(2.43472376226007414 -0.0683915685642745574 0.746153150626102102)
(2.4717470116157827 -0.0762743172165295802 0.679121096492680376)
(2.48686907898978626 -0.0699837059108867898 0.706120493213552192)
(2.28682008188435137 -0.0878141131102517236 0.810613747766867898)
(2.45501334754739187 -0.0680990966324697272 0.739755185510758584)
(2.49739913447089235 -0.0741587731082109236 0.675040182005063549)
(2.50919860317931231 -0.0599395644295292185 0.697358655858452359)
(2.28008140949312343 -0.0844983036307212221 0.788826301338336311)
(2.473909539516983 -0.0665278235098790693 0.732740310052134913)
(2.51909459087715115 -0.0693883150544567229 0.667448168646526341)
(2.52174038988652871 -0.0189377281427874564 0.689197828043468963)
(2.26444581273011369 -0.0525862370398358717 0.761600532475984915)
(2.49256040725621819 -0.0507869364968372011 0.722684505988630321)
(2.53666390211253434 -0.0520506881050850911 0.661560795260302648)
(2.44864376143661078 0.111813665993829914 0.685020215949026179)
(2.26378152945233602 0.0749578142769451727 0.735888997312946103)
(2.46242844326580634 0.0134015857774192615 0.713962221609424019)
(2.50461817151153143 0.0106492123137057644 0.655876032857493629)
(2.11493007100519481 0.401014827583864863 0.684015157590412204)
(2.14329976204870221 0.394133275781592463 0.710421266766760318)
(2.32847412380235497 0.21223170419540216 0.710187869981919406)
(2.36683148085410444 0.209432237631382023 0.655133391867085191)
(1.25225431955681321 0.616130137062465222 0.689328598385582691)
(1.84509221858221872 0.87786178248333413 0.701498123563560561)
(1.93985124010325727 0.595898013480057109 0.708457712392593475)
(1.97016863384877672 0.590024752897209792 0.654066675949512955)
(0.855204077616852687 0.94399569730860422 0.71340071337153077)
(0.810640489468403835 0.646242971715989878 0.727777630064027514)
(0.825186594312317445 0.634713431606646172 0.655857877279636958)
(0.952873790725014547 -0.538770838081587322 0.796188317507907972)
(0.822250063110475105 -0.499837083717108166 0.709505158006899173)
(0.290191091879079877 -0.424942452657155967 -0.283982972156525071)
(0.990828049778313846 -0.393513591702908505 0.575379865911338051)
(1.15099239525612074 -0.571273397336333977 0.998801006116522005)
(1.09673577743183293 -0.700621740542821225 1.04084160062485243)
(0.951823437637225878 -0.653083064308589534 1.00726314435927833)
(1.21491620091064334 -0.495308241526741577 0.793138979130719846)
(1.28653963950007477 -0.499696095546578956 1.04208218837990385)
(1.15399880451193582 -0.655527880578578137 1.12075598954320599)
(1.11431978770949458 -0.59148105577882748 1.18944687830229379)
(1.3051393161666196 -0.474771748793586579 0.873646679529982206)
(1.39122870278900379 -0.410849263808726162 1.02965758759824988)
(1.24821615377677153 -0.54923542824304783 1.10914226401945482)
(1.23294570101476508 -0.475145347467706869 1.20765712808164127)
(1.40920814833008246 -0.398505462754834006 0.893648640967645513)
(1.48936017422344236 -0.340032624507463244 1.00124986378551961)
(1.36814145321195713 -0.465221826813110917 1.06047645061071205)
(1.34457311042448246 -0.39281833634681651 1.17405176299047942)
(1.50879118524882738 -0.329779865999713262 0.8915325983601321)
(1.58126223702737834 -0.283505502357134509 0.971699876208816593)
(1.49734435580711467 -0.392861154667254742 0.992934829044510692)
(1.45213257384841943 -0.334200295311167406 1.12177295497314056)
(1.59196662873652528 -0.275763975490742053 0.8816097304358399)
(1.65603281136879144 -0.239462393334502033 0.945400655655910249)
(1.6246086528722965 -0.322827563690781583 0.924699561469311537)
(1.56124259419002809 -0.280316890424267495 1.06741098272002954)
(1.66114140875260685 -0.233596967317039717 0.872477565248744424)
(1.71373305784973939 -0.208863775438604599 0.924156094134082839)
(1.73574213591984727 -0.266071614391617806 0.865610017170055701)
(1.66200749804624826 -0.232566339548960499 1.01603396982414496)
(1.71746696757214368 -0.203635099689823407 0.861906614883666378)
(1.75799063519343268 -0.189273612948737541 0.909438389496581956)
(1.81882398341407714 -0.225887369375679631 0.829557466261304999)
(1.73740430526241929 -0.195932921923958114 0.979640802972672642)
(1.76325826921722806 -0.183267737473645137 0.854358807147292398)
(1.79408147781937233 -0.176051199935889274 0.900018867924672672)
(1.87060316031470264 -0.204043606088881974 0.814611626909838016)
(1.78496562654308 -0.174167849865578844 0.963575460462567812)
(1.80119878412311385 -0.169478486122637412 0.850372576315252537)
(1.82396872103518026 -0.165667065277408959 0.894803668291519694)
(1.8976500673601584 -0.188871585744253945 0.815992633891539532)
(1.81245937129058055 -0.160046211975880898 0.954703113355586552)
(1.83303720492499811 -0.159036842639511733 0.849247639538323273)
(1.85114883255885276 -0.15835878193571909 0.891981998618567751)
(1.91055656460008572 -0.178904309395251898 0.826738983832414731)
(1.83037038912052741 -0.150058368347747273 0.94828848882004213)
(1.86065897465486296 -0.152126792823413182 0.849055978606620965)
(1.87769443262391666 -0.154484433953256894 0.889085291721394277)
(1.91695239524689143 -0.171694193407455897 0.844263383432217518)
(1.8490433354696505 -0.146812434145456749 0.939312321738833278)
(1.8871592316177519 -0.149742033964663179 0.848687786603158578)
(1.90402472293946956 -0.153882543875608124 0.884926928833507986)
(1.92413273351260283 -0.167406426254464447 0.863888571082157664)
(1.86970767243728808 -0.147197876837410341 0.928413796740394925)
(1.91394424139196606 -0.150140945276093563 0.845202335294727658)
(1.93309370021843518 -0.153357487405666959 0.878955223587790324)
(1.93687000844215595 -0.170334361395794748 0.881086486449091932)
(1.89237301039662964 -0.149392041618623989 0.920025926387141646)
(1.94356288703051505 -0.151804770336810613 0.838340935873129189)
(1.95944775436577756 -0.151996434317563489 0.871948175285024218)
(1.95473768263834335 -0.167727148912967722 0.889349342087528583)
(1.91583264727906877 -0.149948182067451807 0.912013993348356755)
(1.9737610599966926 -0.14978251835793116 0.829560066941775864)
(1.98735267365132162 -0.149905389745551787 0.866491353896123195)
(1.97327478338797158 -0.169590618002623761 0.899483125394342942)
(1.93892222214944265 -0.151644739881199614 0.906834706108236577)
(2.00167908462648603 -0.14914783026171019 0.823584332742908765)
(2.01176810773273296 -0.147655741748851876 0.861882393656910328)
(1.99226879150785763 -0.163547964190366768 0.911172679484860915)
(1.96252482360633507 -0.15033518625336087 0.902949743328320342)
(2.03023735848192288 -0.147826451951886845 0.821638869348163214)
(2.03748984228627306 -0.145111141724337533 0.856182086386003349)
(2.01031239706526144 -0.1653880964113629 0.920012272800815101)
(1.98662616677943094 -0.151017671676419524 0.899906202367877217)
(2.05969461883202154 -0.144752347344110688 0.815520710328637488)
(2.05803718141043435 -0.145739481827519002 0.852825513458160933)
(2.02661680111555098 -0.160480048109253592 0.922401058420951436)
(2.01145923424803152 -0.151290585543361528 0.895845433396574187)
(2.08730497652667646 -0.139955235047118348 0.80953777732134502)
(2.08709509154367012 -0.143711028342803276 0.853890269855763884)
(2.03678157498867618 -0.17852402628067976 0.923646447829043704)
(2.0337439545008924 -0.149538837079631642 0.906737377574227787)
(2.11060911353166336 -0.140700951392017409 0.804848957336665394)
(2.0990584049700276 -0.138220142519367067 0.852939776425003182)
(2.03932176206226723 -0.154706073174074948 0.925201280159782979)
(2.05230780482349173 -0.141104040812972481 0.903103566461530893)
(2.13195487910596881 -0.138296357213772786 0.811134153924883972)
(2.11181528325626688 -0.13523006471139648 0.847749068227333979)
(2.03461221699007533 -0.154350330980226935 0.92337377760090189)
(2.06605403772587604 -0.140595684383402669 0.896726172197813254)
(2.1483912040180182 -0.133974830665123307 0.805787126036706103)
(2.11251787006255443 -0.140049549630333225 0.845874486025471661)
(2.02381257003353898 -0.143586570015295678 0.919806136179759259)
(2.07772333581640156 -0.141937869219998375 0.888570507616649907)
(2.15894878348252339 -0.131032555358977815 0.802447738491848028)
(2.13814162625347981 -0.139678571074005886 0.856431406346775503)
(2.00537495877164762 -0.187074702366207407 0.919403527807667209)
(2.08362689846412419 -0.142631780352900139 0.914316916508416067)
(2.16542208596897812 -0.13532815657901065 0.795597873284136115)
(2.12420403981053285 -0.127424378815496342 0.871740533507848414)
(1.98766498443673867 -0.134586454992526527 0.926074305067298154)
(2.08456878411172042 -0.128926772344597845 0.910625640508445744)
(2.17184899532898523 -0.131952268611642637 0.824061656542780518)
(2.11981534027687024 -0.120143145258203105 0.87996581252040007)
(1.96426344856812429 -0.130965088924316686 0.931965143795929318)
(2.079376274567732 -0.126977769809773267 0.910949068693211794)
(2.17151379465909766 -0.122600141209598612 0.831522186633094629)
(2.10397689103204089 -0.124336969898371785 0.889963806769368704)
(1.94267742387333264 -0.12589489839192064 0.933454117027503694)
(2.08076959946669771 -0.11832539748430046 0.921675948727448513)
(2.16747184096905832 -0.116603828674299276 0.837505425800541992)
(2.11996653510639765 -0.130153162188439808 0.903562505269489891)
(1.91864802662752565 -0.169974737464376774 0.934556935210577922)
(2.07361899347710876 -0.121637142712898993 0.956548473775870489)
(2.16300981163655237 -0.122587741731609412 0.842865799972416729)
(2.11003648504520314 -0.125844232838729558 0.913288056330084475)
(1.89653095724091036 -0.136873546197868123 0.919838048590997603)
(2.07170328664391645 -0.115335822015058542 0.952004983099785318)
(2.16538670688912394 -0.126677873635349075 0.865460276431322395)
(2.1060930748280553 -0.11836429404486877 0.913972766770923317)
(1.86778301320539986 -0.1291119818116363 0.88592268587938372)
(2.06253622122054781 -0.10993579161074804 0.949209656726133111)
(2.15965856851097637 -0.127932584436548785 0.871366314433553613)
(2.07871507913406184 -0.11045849435242798 0.893319555891651462)
(1.82418709173489302 -0.110037174053106479 0.830335185332279457)
(2.04250366958915031 -0.10600970264931836 0.937017530905363993)
(2.1473762977061801 -0.12177382774744186 0.865193414017752516)
(2.04118532299218458 -0.0918046266167801134 0.853068177955869089)
(1.76712995582308285 -0.102468834155888575 0.759266092062797049)
(2.00550396751800042 -0.10092158335833501 0.90641447910407924)
(2.12211265500795587 -0.109143016985276176 0.832943684960859021)
(2.08488731508237368 -0.0142931807172571035 0.808291701745461832)
(1.64142253303338137 -0.105045898199933083 0.643323293224957404)
(1.94065189337129018 -0.0752846126160608142 0.857348447054417373)
(2.07942925051778182 -0.0788318036086189389 0.796131184766322719)
(2.06304365547880497 0.237032621372659458 0.761290048130680352)
(1.63394467122141562 0.0597560611904725605 0.697746810538724782)
(2.00048679271808405 0.0504389980782512098 0.810692165275275656)
(2.08940582982141931 0.0423303608616498045 0.758444966134425469)
(1.75282546191071864 0.71254356808129804 0.727904232739909895)
(1.60407425801237102 0.525458674331518383 0.731246015501547109)
(1.9014388562039608 0.432151247291942764 0.758116370214393043)
(1.97261960958451943 0.421715481435494088 0.710548883217430149)