/*--------------------------------*- C++ -*----------------------------------*\
| =========                 |                                                 |
| \\      /  F ield         | OpenFOAM: The Open Source CFD Toolbox           |
|  \\    /   O peration     | Version:  2206                                  |
|   \\  /    A nd           | Website:  www.openfoam.com                      |
|    \\/     M anipulation  |                                                 |
\*---------------------------------------------------------------------------*/
FoamFile
{
    version     2.0;
    format      ascii;
    arch        "LSB;label=32;scalar=64";
    class       volVectorField;
    location    "0.840000000000000524";
    object      faceForces;
}
// * * * * * * * * * * * * * * * * * * * * * * * * * * * * * * * * * * * * * //

dimensions      [1 1 -2 0 0 0 0];

internalField   uniform (0 0 0);

boundaryField
{
    inlet
    {
        type            calculated;
        value           nonuniform List<vector> 0();
    }
    outlet
    {
        type            calculated;
        value           nonuniform List<vector> 0();
    }
    top
    {
        type            calculated;
        value           uniform (0 0 0);
    }
    bottom
    {
        type            calculated;
        value           nonuniform List<vector> 0();
    }
    left
    {
        type            calculated;
        value           uniform (0 0 0);
    }
    symmetry
    {
        type            symmetryPlane;
    }
    interface
    {
        type            calculated;
        value           nonuniform List<vector> 
67
(
(-2.23019420100503935e-07 -2.00316280503631295e-06 -0.0139043410403524408)
(6.48991578099471734e-07 -2.98878769056386909e-06 -0.0163024347584471326)
(3.10678105642276266e-07 -3.22819709929417542e-06 -0.0203164386817418219)
(1.09341129196099717e-06 -1.84628899703287802e-06 0.000853517370891299478)
(1.19954182320610927e-06 -3.51312558192129934e-06 -0.0061829505709089707)
(1.04903017249899093e-06 -4.50850458415683219e-06 -0.0178412948662203148)
(7.00796364759880742e-07 -4.00562727892484678e-06 -0.0223932724929030436)
(9.64428782082274047e-07 -4.13528871196384922e-06 0.00155979647285345237)
(9.93654228111725014e-07 -4.63749041277258512e-06 -0.00767772107274347724)
(1.03848072246649772e-06 -4.70159645773671641e-06 -0.0184124023166742784)
(7.07804031302269884e-07 -2.49143772759395235e-06 -0.0210176574505213896)
(-0.0118797814187113528 3.01159141378717046e-07 -2.75658396558135393e-07)
(-0.00728710460032215741 -7.82107814345123751e-07 -1.45298362896088858e-06)
(0.000801337685318200682 -2.90229122176686124e-06 -2.08269501512304912e-06)
(-0.0146782178644751914 5.12938406002939496e-07 -5.69594714748997044e-07)
(-0.00862948294099789154 -1.67703971259615222e-06 -1.59028823952119658e-06)
(0.000179567036717302454 -3.45872095033278611e-06 -1.85343460812546684e-06)
(-0.0162993707162191574 1.56242604876618721e-07 -1.57406629840937677e-07)
(-0.0124403248739398051 -4.07582721347916002e-07 -1.17565902992153029e-06)
(-0.00331091745998948186 -2.97519784380655687e-06 -1.54016624383703005e-06)
(-0.0171467313176223157 3.7896229769071992e-07 -1.26830442652061362e-07)
(-0.0127085937739302469 -7.04561392405177281e-07 -5.43269247165349608e-07)
(-0.0039975168026579657 -3.10357540064550299e-06 -1.07619392990612923e-06)
(-0.0172182303678083647 4.99349610432239109e-07 -6.4217154356937978e-08)
(-0.0125504470997703874 -7.35311630625463231e-07 -4.45870381394904773e-07)
(-0.00390952996821389027 -3.15132857671622407e-06 -8.64394277738952526e-07)
(-0.0154339929597261793 6.40370339257655056e-07 1.94969177921303189e-07)
(-0.0103064413218299459 -1.31049398121699255e-06 1.60420039449726623e-07)
(-0.00145479271504494871 -3.45775213733334269e-06 -3.93247635895412665e-07)
(-0.0130269722432583297 -6.37532372793352175e-07 5.83168353076394809e-07)
(-0.00341494896204984615 -3.25786355132088127e-06 1.87447042923351322e-07)
(0.00625137329610690046 -4.31154646063072414e-06 -1.35156235945075821e-07)
(-0.011661337844398394 -1.70475182309854912e-06 1.57228353938049754e-07)
(0.000881995669425206675 -3.90363614631414655e-06 9.93009496609789151e-08)
(0.0109651834630218239 -4.6481105309158801e-06 3.16052601709492483e-09)
(-1.35713814312861992e-06 -0.0338785232892158672 -2.4935379369045756e-06)
(-1.39606332142219584e-06 -0.0392752961487394248 -2.01624277468439649e-06)
(-1.4922609352640559e-06 -0.0403087902975893531 -1.80257411979884327e-06)
(-1.50538842000963981e-06 -0.0406672533434207437 -1.42989768789863466e-06)
(-1.50246859842322343e-06 -0.0413214370598327455 -1.17193411270853928e-06)
(-1.55006496446946267e-06 -0.0417917001532583099 -8.55989895947858687e-07)
(-1.59777377322531798e-06 -0.0418473967043664491 -5.60219635927475689e-07)
(-1.63457220514758179e-06 -0.0412741259677055911 -1.78525078942916002e-07)
(-3.60093364311414539e-07 -0.0379218094517230001 -2.45190304631638885e-06)
(-9.26840871743755268e-07 -0.0411917305123762137 -2.37753274855419703e-06)
(-9.80233857150981769e-07 -0.0418963028592039682 -2.01624384719636149e-06)
(-1.05383048560451356e-06 -0.0428388130185583874 -1.57093100339476032e-06)
(-1.13601868092895586e-06 -0.0441144991651406942 -1.27937100257278362e-06)
(-1.21757475894702616e-06 -0.0447881420963125235 -9.74248411116635893e-07)
(-1.29785340465152446e-06 -0.0447392286526865218 -7.32507727151259808e-07)
(-1.35633041703382833e-06 -0.0440831591887686641 -2.66519918268828035e-07)
(6.26015598754000205e-07 -0.0370338536946183267 -2.20944211568313246e-06)
(8.72757319292404988e-07 -0.0403848707165955223 -2.23386552772595753e-06)
(8.45681770303314506e-07 -0.0412422577064015874 -2.07164473328251021e-06)
(7.47172344179902352e-07 -0.0426073735668427919 -1.56379140779015026e-06)
(6.70112703148316284e-07 -0.0442739360122810718 -1.32098316715636817e-06)
(6.24023166097230431e-07 -0.0447898156603053418 -1.04576080450004349e-06)
(6.29277434566327436e-07 -0.0442212803133999743 -7.50452504898144216e-07)
(8.12936272531599415e-07 -0.0434008026577027695 -2.34352576680121695e-07)
(1.14535538548742481e-06 -0.0320658470532604323 -2.21811656233223526e-06)
(9.34735421104982829e-07 -0.0379055946851464404 -2.37760150131382205e-06)
(1.06873860067834303e-06 -0.0391902848871336709 -1.83431152322851693e-06)
(1.16594543495139989e-06 -0.0397688947750992131 -1.46398053343628347e-06)
(1.2494874991935567e-06 -0.0409516368132194913 -1.27095065481141873e-06)
(1.32628517644500286e-06 -0.0407476859024152524 -1.0719714830144352e-06)
(1.42962660908699844e-06 -0.0390998509439996547 -8.11660554034983997e-07)
(1.17388238457422941e-06 -0.0373602174906569745 -2.76145303983150562e-07)
)
;
    }
    procBoundary1to0
    {
        type            processor;
        value           uniform (0 0 0);
    }
    procBoundary1to2
    {
        type            processor;
        value           uniform (0 0 0);
    }
    procBoundary1to3
    {
        type            processor;
        value           uniform (0 0 0);
    }
}


// ************************************************************************* //
