/*--------------------------------*- C++ -*----------------------------------*\
| =========                 |                                                 |
| \\      /  F ield         | OpenFOAM: The Open Source CFD Toolbox           |
|  \\    /   O peration     | Version:  2206                                  |
|   \\  /    A nd           | Website:  www.openfoam.com                      |
|    \\/     M anipulation  |                                                 |
\*---------------------------------------------------------------------------*/
FoamFile
{
    version     2.0;
    format      ascii;
    arch        "LSB;label=32;scalar=64";
    class       surfaceScalarField;
    location    "0.840000000000000524";
    object      phi;
}
// * * * * * * * * * * * * * * * * * * * * * * * * * * * * * * * * * * * * * //

dimensions      [0 3 -1 0 0 0 0];

oriented        oriented;

internalField   nonuniform List<scalar> 
20536
(
-0.00066638455561726477
-0.000383890278692809186
-5.74550677529765805e-05
-2.80227641545225336e-05
-0.00103181621349563053
-0.000329806600960525409
0.000466062321793129467
-0.000437896071610783394
0.000421996689969289008
-0.000331537157444977107
0.00039021827244321676
-0.000538735149606499753
-0.000599876747850368059
0.000494238716515485758
-0.000631661674030419311
0.000127479202697344427
0.000374497768642524632
-3.09147835856812882e-05
8.65843615081363701e-05
-9.48431726373907651e-05
0.000405101667501369983
-7.85988386172276581e-05
5.94490325074296835e-05
-6.62656588661159524e-05
0.000415279912299981117
-0.00015520053810406004
5.93721524008728732e-05
-0.000129285172333778981
0.000457163036364972516
-0.000254389406990676884
9.84224364387623822e-05
-0.000217454867564880161
-0.00034576465632552624
0.000137777093772376534
-0.000300697210761927223
0.000365969563486728204
0.000522237000039215533
-0.000109952499018517501
7.31442226832936692e-05
-4.26646458363108802e-05
0.000551586229641184392
-0.000129459530944387992
0.000108182217667075731
-8.6672007282023237e-05
0.000555795423027183474
-0.000154294703269083292
0.000129765319824678001
-0.000134881634662038362
0.000527023854309929818
-0.000197612976025119319
0.000134425964094346648
-0.000162432027247489292
-0.000260657959450424676
0.000124838874068113027
-0.000167298063293138712
0.000484375139110701037
0.000392183681300003984
-0.00016809222607776369
1.15826136865221744e-05
1.24367182851398113e-05
0.000431435010412944302
-0.000187372500697050248
2.09418901138157082e-05
-2.28133994414665754e-06
0.000474815567729695734
-0.000203796943897960998
3.40852027085716044e-05
-2.79646106057523128e-05
0.000507731698217027904
-0.000226062622785099118
4.63788996626293901e-05
-5.08464099675331414e-05
-0.000259484603865003992
5.19341787308403164e-05
-5.91873789796312541e-05
0.000513810423549061019
0.000317913265536377192
-0.000194313864762367828
-1.62302199476539269e-05
1.49252749527080965e-05
0.000346131643650087124
-0.000214912073671401517
-2.89401312585976959e-06
2.21425249563117408e-06
0.000375988315655849392
-0.000234504717257276186
1.44941869771382406e-05
-1.36441952270964299e-05
0.000404049537480355707
-0.000257854404337864854
2.84190888383897901e-05
-2.46897029792220074e-05
-0.000288056891573004953
3.56836059227083467e-05
-2.94222149180672877e-05
0.00042635907017517401
0.000287430806237625033
-0.000208312434206220181
-1.10675883611197588e-05
1.61457166061740938e-06
0.000309565260965129912
-0.000228380166913553297
-1.59279413899122309e-06
-7.07452990105931489e-06
0.000332589661650404276
-0.000251328511522643731
1.12254059568496335e-05
-1.74273701376355286e-05
0.000355365029085566756
-0.000278350717581163669
2.30656142104283712e-05
-2.53462116411764546e-05
-0.00030967523832937466
3.27725041217184407e-05
-3.2100901635339355e-05
0.000376310071549541825
0.000249880733962777883
-0.000220285958133903756
6.54022619795071711e-06
-1.18267654482777514e-05
0.000267076007822938412
-0.000241280514617265137
1.12977646219307655e-05
-1.55939347644715409e-05
0.000284105505883628815
-0.000265539786741642774
1.98516167798153656e-05
-2.26715702730077783e-05
0.000300662698598469155
-0.000293417451165041171
3.00722984267187372e-05
-3.1564638520134808e-05
-0.000325107080903627916
4.08317093700603755e-05
-4.20708271174044358e-05
0.000317331765367371709
0.000208591418201536222
-0.000230014904112756921
1.95352824762015129e-05
-2.11928666649947743e-05
0.000219894803022829024
-0.000251604381184748749
2.42485876643557652e-05
-2.52297661900423252e-05
0.000231016906981530744
-0.000275954156288021012
3.13754015064192615e-05
-3.20851588394859184e-05
0.000242084708126489841
-0.000303543613181703144
4.05882090614694894e-05
-4.15318892108764191e-05
-0.000335025766905713981
5.21179153849666343e-05
-5.39387288753090372e-05
0.000253822248617047044
0.000168800033294236302
-0.000236365349957867797
2.34967591171342173e-05
-2.42212866173475018e-05
0.000174946619890611812
-0.00025690921858505727
2.84304453847746955e-05
-2.92741096948045039e-05
0.000180039437281279954
-0.000279840149228492686
3.59322392712262191e-05
-3.71412116832876816e-05
0.000184116899553019053
-0.000305674877028982723
4.63849725818016905e-05
-4.83333237449843657e-05
-0.000335145434255102056
6.05428284032781417e-05
-6.38700415366851124e-05
0.000187561664047461131
0.000131053476592703135
-0.000239131375407194139
2.4319298031306728e-05
-2.48719187525987219e-05
0.00013271024042568798
-0.000257728811387790272
2.96055989446362771e-05
-3.04446307038725532e-05
0.000132358272814394538
-0.000278122757517818497
3.75225079831193996e-05
-3.88901200045197918e-05
0.000129666509345254492
-0.000300681827114744333
4.88142317805145715e-05
-5.11178548396618647e-05
-0.000325955535469224197
6.45794853486107544e-05
-6.84848560317951216e-05
0.000124379625981780445
9.72457310642493476e-05
-0.000239036749762539902
2.27874267809953237e-05
-2.33867435795548183e-05
9.56137722951118347e-05
-0.000255200584689261006
2.80121760540370363e-05
-2.8910154641939827e-05
9.12909589477634698e-05
-0.000272399323131622796
3.57077678999349595e-05
-3.71105863014650688e-05
8.35987025795918303e-05
-0.000290734208091923045
4.66761655511035249e-05
-4.89339711427950471e-05
-0.000310374890634314597
6.20538293967467814e-05
-6.5771060537699505e-05
7.17328839600823071e-05
6.89887548373161038e-05
-0.00021137096290325716
-1.48707595653033544e-05
6.95931241261763201e-05
-0.000224073015996866925
-1.67838671407050103e-05
6.84133002821259574e-05
-0.000237319559064076631
1.94330722575641781e-05
-1.99714441120789323e-05
6.4966414073137121e-05
-0.000250962283556687056
2.40356687266194008e-05
-2.48286507036832578e-05
5.86240843454197475e-05
-0.000264847571822587565
3.06915032188512406e-05
-3.19029786720126257e-05
4.85792596502149473e-05
-0.000278801046850295903
4.00768253223577654e-05
-4.1967421611212549e-05
-0.000292624650252881768
5.31093555472371759e-05
-5.61309808531001769e-05
3.38485211334511356e-05
4.65480397679365453e-05
-0.000212133658466432241
-1.10720821811004766e-05
4.63237941482891183e-05
-0.00022353494284055623
-1.26566315727378765e-05
4.45612436410171674e-05
-0.000235125472650183839
1.47455379874632656e-05
-1.51779671923727722e-05
4.08348770617364111e-05
-0.000246620612213078972
1.83026831492714409e-05
-1.89192525846336791e-05
3.4583125813631937e-05
-0.000257689267401426867
2.33575900530056861e-05
-2.4265826387792556e-05
2.50686118575427314e-05
-0.000267912753060327183
3.03727050363261346e-05
-3.17483404649924905e-05
-0.000276779101630605083
3.99499164814692809e-05
-4.20920294053388913e-05
1.13634769138243461e-05
2.6851817930101227e-05
-0.000212408498615600932
-6.82991718779922918e-06
2.6479633374331327e-05
-0.000222956439276488676
-7.86299788466438754e-06
2.508203204821161e-05
-0.000233452485974191106
9.18667387640782028e-06
-9.46268871741487726e-06
2.23752210247309527e-05
-0.000243530665545255403
1.14187841790231047e-05
-1.18027513870184092e-05
1.79762295575314296e-05
-0.000252738299290885767
1.45570498664463482e-05
-1.51102456931473467e-05
1.13903246089642991e-05
-0.000260499083480366365
1.8862451420501589e-05
-1.96916387643553795e-05
-0.000266061781079428566
2.46640705449103908e-05
-2.59310018399832977e-05
1.93861618215834688e-06
8.88878870362500329e-06
-2.30961048752747993e-06
8.75200685317468995e-06
-2.66904852544816083e-06
8.26152951962209705e-06
3.1246646254972666e-06
-3.21924575257517473e-06
7.31920153008147567e-06
3.88832044314254828e-06
-4.0183913165986276e-06
5.78850238360391628e-06
4.95801303637548046e-06
-5.14482923362319085e-06
3.46718668636421846e-06
6.4233217246146033e-06
-6.69130746087756103e-06
8.36652394555636872e-06
-8.76320589303900788e-06
1.01634731222944895e-07
-0.000770357824579404049
-0.000369323788018044116
-0.000101534427965154384
-0.00116507382628570563
-0.000260299594425143299
-0.000407352071843538103
0.000506155307731988432
-0.000220424056252158573
0.000195927219938729375
-0.000543189847076869931
0.000315504457108010494
6.30038087890037127e-05
0.000350827073582194002
2.91004589825561474e-05
5.56941617210779481e-05
0.000446508851573463683
-4.4449787822329435e-05
4.46931613181854271e-05
0.000508716430081166955
-0.000136521888932230332
2.5039796003933451e-05
0.000571915092492602107
-0.00022171241005073899
3.65100941858560691e-05
-0.000299744272573174435
5.69125921868604345e-05
0.000409331934261477942
0.000512098448899360827
-5.26333326378997441e-05
0.000100424901012913692
0.000551367885836420474
-9.30682869608751034e-05
0.000117529670301225596
0.000564685414254235398
-0.000141921551904143167
0.000121845918243724909
0.000546360792332663964
-0.00018893747786817954
0.000119974173959547464
-0.000243525655127406937
0.00011068487303242386
0.000504294547424024805
0.000400321257845834234
-0.000126895318477646948
5.30283944398841849e-05
0.000431653860041369226
-0.00015863637395003289
5.51758805901052691e-05
0.000462825425946261052
-0.000195572283718465961
5.65630017016819069e-05
0.000493613164479604475
-0.000231665188435655167
5.83175100014524372e-05
-0.000268439562434573181
5.84751150908029344e-05
0.000511984455428772869
0.000311485330614241676
-0.000164271609554347928
-1.7941200143900222e-05
0.000346577089491310506
-0.000190444816103050191
-6.17885660986101394e-06
0.00037888822999656679
-0.000222705312219947612
9.31446125677263592e-06
0.000407114925635613059
-0.000255456723649028004
2.39822046711895001e-05
-0.000288346418808788085
3.4673535425057025e-05
0.000428029816664717803
0.000284128726912558657
-0.000190004034781591553
-2.24697996151802397e-05
0.000316306321224191429
-0.000213395508124119399
-1.0821471087959227e-05
0.000343053908749533967
-0.000241920195280354077
3.6905913588498638e-06
0.000365196097024324967
-0.000272556186152852001
1.80206410211972472e-05
-0.000304712262885164652
3.00789079367979111e-05
0.000384253128674902366
0.000253330960985670667
-0.000214683952399543092
7.51726575516902498e-06
0.000274282606125433415
-0.000236614921907334823
1.35633351402999151e-05
0.000292415539191822834
-0.000261873526226969963
2.166944350977813e-05
0.000309063618807919448
-0.000289921053021297481
3.07864624300989193e-05
-0.000320850452319078913
4.01414700806001855e-05
0.000325889434527518022
0.00021326968291289833
-0.000228047214683708521
1.96972596361384331e-05
0.000226038821203539136
-0.000249411230193785258
2.42731746603361611e-05
0.000238574022200722593
-0.000273590792989311193
3.05546135796454991e-05
0.000251338819005201208
-0.000300712181965231149
3.8611693642666905e-05
-0.000331156156463174867
4.86212386665311666e-05
0.000265138442105287324
0.00017267194827282932
-0.000235704901160040055
2.23603254684998745e-05
0.000180908153334058853
-0.000256106642038970197
2.68868829752933214e-05
0.000188492918312212633
-0.000278890819547249788
3.36444567008669962e-05
0.0001956205197439603
-0.000304373229614675019
4.29153319456127935e-05
-0.000333129688410557822
5.5212421408190135e-05
0.00020292148776031039
0.000135380852233334272
-0.000239689594483598106
2.32246839398429892e-05
0.000139232488320454505
-0.000258310882676507717
2.79554463505697684e-05
0.000141675187060938179
-0.000278795000928019356
3.49808215827939446e-05
0.000142694326283744367
-0.000301457510097491899
4.48760953461118672e-05
-0.000326803528817598945
5.84974485005941455e-05
0.000142447092835528381
0.000101586187492829177
-0.000240449413018291362
2.14870374819770857e-05
0.000101981843927489982
-0.000256858956660968487
2.61620125264013415e-05
0.000100353141805330614
-0.000274478386475607739
3.30167901786370782e-05
9.63323659962823112e-05
-0.000293457697306430377
4.2693985406002733e-05
-0.000314040670242896254
5.60742363625243596e-05
8.95461768357006774e-05
7.22077866268416895e-05
-0.000239348739834884341
1.82215751083690159e-05
7.04550859977642099e-05
-0.000253447570707719596
2.23747874270840874e-05
6.63551084729785217e-05
-0.000268031625657598385
2.83420724429033613e-05
5.93157008031823958e-05
-0.000283019422312780742
3.66752813446004323e-05
-0.000298343234428356514
4.80852973599039371e-05
4.86398721473369817e-05
4.74817647185574816e-05
-0.000237579689042078681
1.37940873908143629e-05
4.49816397484916852e-05
-0.000249659314374311471
1.7012925078485066e-05
4.03235799694401218e-05
-0.000261581577409529303
2.15634770909595731e-05
3.28777492162411208e-05
-0.000273024962085381218
2.78218411423973996e-05
-0.000283603717465217664
3.62484933967370843e-05
2.18376020921983246e-05
2.68937738447184494e-05
-0.000236143748315427844
8.58218705287094787e-06
2.49195014433213747e-05
-0.000246876341020516499
1.06090205324851999e-05
2.14614284589502377e-05
-0.00025701211002962846
1.34440158413552919e-05
1.60552133751654822e-05
-0.000266056288049414591
1.72981356089060517e-05
-0.000273376428723499552
2.24163961049867456e-05
8.07387310169917704e-06
8.87271076637498833e-06
2.91903963770171431e-06
8.17558358321667735e-06
3.61267276823387813e-06
6.96270220662187043e-06
4.57880233548275944e-06
5.06513866800936235e-06
5.88743833901874823e-06
7.6094375333638244e-06
2.21291728900213575e-06
-0.000748915257420240676
-0.000244540701781099067
-0.000124415900400202999
-0.0011359302659683275
-0.000228575584375485677
-0.000394446412139784497
0.000666774219347928028
-0.000158069628328845138
9.855288651105135e-05
-0.000460272608344795451
0.000181179192631905416
0.000125440592399714669
0.000402817627162857213
4.75473106154746769e-05
4.31415822373745642e-06
0.000507047255933676215
-4.12505126925700387e-05
1.24830171219192615e-05
0.000588724038795291303
-0.000124388739978009276
1.38567424040494141e-05
0.000658475360157878184
-0.000219193058884831947
2.7880802568782378e-05
-0.000299666846685991961
4.99537435042974435e-05
0.000504827123550893376
0.000515188667555991795
-9.04236180029092315e-07
0.000101679217930003687
0.00054774909906576887
-5.98584505863182317e-05
0.000103575959933404558
0.000565041767494477544
-0.000132720177077827109
0.000112883649260580015
0.000545749378089285028
-0.000198215900329735175
0.000118288517774110103
-0.000256862589749755495
0.000112139570234666782
0.000501489524536956224
0.000417632058221097623
-8.33094307124436143e-05
0.000100802198446313745
0.000442799623321480436
-0.000127976081900496932
9.81248322181057597e-05
0.000462336563894277124
-0.000182119101875293394
8.64240854303707426e-05
0.000481719036192632306
-0.00023277744300817009
7.34957962746487435e-05
-0.000276568979469593958
6.38357062559401927e-05
0.000496063961544611115
0.00032734201908537282
-0.000140664491017632729
-2.49359282564395326e-06
0.000363758952397181352
-0.000172562449100475008
1.98936447425708006e-06
0.00039434638477081434
-0.00021057604234504541
7.18278826547799273e-06
0.000418863748816074744
-0.000248781576463840966
1.54678187048910952e-05
-0.000284757496794237866
2.50654543450444581e-05
0.000436659119239929448
0.000298327124636678506
-0.000181908519772024622
-1.44723097686986745e-05
0.000328727329559455204
-0.000206655179550111086
-7.13041692318753313e-06
0.000354083085407128192
-0.000236434057043065658
4.19116718156340911e-06
0.00037457753228301255
-0.000268437999842589315
1.71808896519650678e-05
-0.00030120531939192396
2.91998605350266792e-05
0.000391902708338375113
0.000259408541018961599
-0.000211096773474815636
1.45034788651751944e-05
0.000280211236096889263
-0.000233637458758302938
1.97410891495702532e-05
0.000298770646422423687
-0.000259297252419657355
2.59710676835749745e-05
0.000315880250240400604
-0.000287342464144794377
3.25791276167070723e-05
-0.000317589275533148988
3.93702225867315891e-05
0.000333033422471669025
0.000216958109485519885
-0.000225812631116550688
2.00948517574526255e-05
0.000231154593611460107
-0.000247347799145156274
2.37849138937018153e-05
0.000245175402660812608
-0.000271515937805412867
2.87500302141766307e-05
0.000259466264092597535
-0.000298293015882770724
3.52689307408691978e-05
-0.000327893608644911922
4.35108273665916557e-05
0.000274878794534110481
0.000176500829583401629
-0.000235261032948798891
2.1549052225125686e-05
0.000186439233957296944
-0.000255586065478587642
2.51845112469508355e-05
0.000196030770977585192
-0.000278228241058018104
3.0762664242639348e-05
0.000205601562552133591
-0.000303399071675260277
3.84480608901643386e-05
-0.000331539685034282227
4.85604448174242165e-05
0.000215897327755553136
0.000139280365306576745
-0.000240266985657203012
2.16533352878490604e-05
0.000145011799673647624
-0.000258914534040575876
2.55503258086673082e-05
0.000149831064393215433
-0.000279470240522751488
3.14010962644337477e-05
0.000153910211670869304
-0.000302209214947119626
3.96046426016165943e-05
-0.000327597273161888347
5.08071471189895066e-05
0.000157655849934531562
0.000105458245884243798
-0.000241816703455675902
1.95854522841017042e-05
0.000107638423811781773
-0.000258446773308132819
2.35121899579519675e-05
0.000108325790030908752
-0.000276429988357550064
2.92869979075593004e-05
0.000107369687080513152
-0.000295952088688273131
3.73907549558956634e-05
-0.000317316321110934388
4.84811573835167335e-05
0.00010467968175328465
7.5621347363360474e-05
-0.000241280041322937579
1.64274711120555832e-05
7.53564692289237842e-05
-0.000255777525279893042
1.99689267800445494e-05
7.31929280152005739e-05
-0.000270973377203182408
2.50471598317203034e-05
6.86925065996130477e-05
-0.00028686075126258811
3.20823748537622295e-05
-0.000303474133115289708
4.15874346950628773e-05
6.13461378414228243e-05
5.01149948894386021e-05
-0.000239884373720381677
1.23773017361839209e-05
4.86975429407928275e-05
-0.000252487004084267995
1.51387473730098724e-05
4.54267436096582395e-05
-0.000265171937104300977
1.90311830552240225e-05
3.97421978970400095e-05
-0.000277696007582951376
2.43396885004312874e-05
-0.000289773985844944096
3.13811822684991048e-05
3.09073245062051584e-05
2.85360781430400387e-05
-0.000238658700593506051
7.67877508277633036e-06
2.72124189684875953e-05
-0.000249983510512946162
9.42834808798753841e-06
2.45750812491841124e-05
-0.000260956506331336193
1.18644324257149869e-05
2.01811885331214999e-05
-0.000271149614039622035
1.51438335107456808e-05
-0.000280015472280043356
1.94270199412908354e-05
1.34102684345353068e-05
9.42752006054083506e-06
2.60923358379578057e-06
8.94826005480925325e-06
3.20945833934949564e-06
8.00961346142071444e-06
4.04088379621046377e-06
6.44634501327226533e-06
5.15703787385631853e-06
6.61422286414927607e-06
3.98013308402771022e-06
-0.000742954903476410536
-0.000240134140183500389
-0.00013627398933727515
-0.00114841192554146487
-0.000194747696877534327
-0.000387915895715345389
0.000769349423591385393
-0.00011334763510500549
-1.64173264311870285e-05
-0.000428961055399509905
6.77821092320873603e-05
0.000163294569150176558
0.000485527095279176288
5.03313391247235521e-05
9.09919992050886752e-06
0.000576757988680778096
-9.17913879731858343e-06
2.56100274344647685e-05
0.000644040572375399484
-9.86946884854996234e-05
4.89873453868257041e-05
0.00070483940652760126
-0.000215156542650857285
6.88897557014086332e-05
-0.000313608366476954628
7.92569533012368611e-05
0.000560182568165621861
0.000522151552668218477
-1.0941427515625117e-05
0.00012471901934091675
0.000550054205103606532
-5.91064451757834637e-05
0.000125599447224402207
0.000563114304639336844
-0.000127657591445961313
0.000128785582412550094
0.000542556784097486294
-0.000201321624170026881
0.000125010514920138183
-0.00026546386732655044
0.000105862829904279491
0.000500688534298997733
0.000427713443173018929
-4.88934639365349962e-05
0.000101797660959398027
0.000454162960214278294
-9.52543921341163089e-05
0.000107822177725430359
0.000473077554944146595
-0.000154338608651319271
9.41897624397314016e-05
0.000488627246700044991
-0.000214126715637822252
7.07506912803169909e-05
-0.000267011573016604376
5.35741144612625564e-05
0.000500436105991904317
0.000353317411557395441
-0.000105158880304769887
1.60551998646230795e-05
0.000388337597501640496
-0.000146304132540610391
1.80176727549269255e-05
0.000417193892900241973
-0.000193092781560685081
1.70795797674114411e-05
0.000438272090611149031
-0.00023884179243580011
1.91037716688123589e-05
-0.000280183032408746731
2.47372379896953714e-05
0.000451770941417980998
0.000316888168863038928
-0.000171251362644773779
2.36285686325824622e-05
0.000343158184165899582
-0.000200909401990597856
2.12032744984958738e-05
0.000365102536001788488
-0.000233777451704959415
2.29298080798022812e-05
0.000382800994181890547
-0.000267151565675634404
2.77906324234337071e-05
-0.000300000867092429027
3.3731350146286578e-05
0.000398086009675107635
0.000263168114766245157
-0.000206667015105979352
2.7361309361578751e-05
0.000284407757223337774
-0.000230508828826178218
2.80989018365049501e-05
0.000303448134540422042
-0.000256823989819020845
2.9974995016951843e-05
0.000321135525322740177
-0.000284951501406081832
3.26895756890586373e-05
-0.000314761287145353329
3.64066569576469303e-05
0.000338857840307462094
0.000219983573684573111
-0.000224025012904227339
2.19191834400102773e-05
0.000235351675028827123
-0.000245718530045193142
2.36242422171731776e-05
0.000250619100904705809
-0.000269949716155524653
2.66057891330723406e-05
0.00026621846030635822
-0.000296529508968557912
3.12452498405243979e-05
-0.00032552065688973991
3.75211713201079841e-05
0.000282965686816787239
0.000179505015293742262
-0.000235375942982775566
2.1260257636903378e-05
0.000190982503330190348
-0.000255567843361442911
2.35540049742979123e-05
0.000202281662130987067
-0.00027801276485670066
2.75240320637510643e-05
0.000213811668908713308
-0.000302844848392348591
3.32311237208290198e-05
-0.000330434373821227392
4.09009981617778801e-05
0.000226383033753463245
0.000142530373264653675
-0.000240996253728182529
1.94265173378628394e-05
0.000149815977179827941
-0.00025961107220367726
2.23058251398777139e-05
0.000156572239918150618
-0.000280185649380178443
2.6815484926253239e-05
0.000163081558852702727
-0.000302956865543771155
3.32053038648466738e-05
-0.000328361234738889726
4.19403152507177916e-05
0.000169873476260019504
0.000108684476034814396
-0.000243148149228456059
1.70660579736523465e-05
0.000112388414940096194
-0.000259942919969696057
2.01383660292802998e-05
0.000114993683204265028
-0.000278214501922902373
2.47087369402722042e-05
0.000116482973289587949
-0.000298166794225039134
3.11095733358864672e-05
-0.000320147000660014425
3.98142768115459703e-05
0.000116933783776113239
7.85307966874729594e-05
-0.000243056200838377408
1.40831300448129755e-05
7.95212684186139685e-05
-0.000257880058806590718
1.69142846361846724e-05
7.89490330777480661e-05
-0.00027358430951269049
2.09876140893614038e-05
7.64751281537712885e-05
-0.000290217464924733969
2.6605142598459225e-05
-0.000307889366984843494
3.41184806926920727e-05
7.16844150843213527e-05
5.23734789501035643e-05
-0.000241958757595271473
1.05311300115415611e-05
5.18707320488555988e-05
-0.000255006823804852139
1.27672607407991536e-05
4.97417572477542447e-05
-0.000268340981282049645
1.59152567715894806e-05
4.54572611893766949e-05
-0.000281777405349884662
2.0182144549659305e-05
-0.000295103068980606068
2.57752029751533947e-05
3.82747204246426914e-05
2.99524073425420692e-05
-0.000240909779262309229
6.51098403269389584e-06
2.91804803755648524e-05
-0.000252744920849368821
7.93753572286872759e-06
2.72207203589696254e-05
-0.000264436213551207968
9.91790564923799339e-06
2.36240855702180827e-05
-0.000275604439922813279
1.25656542149739684e-05
-0.00028575324888574185
1.59834573545313383e-05
1.77159563685465772e-05
9.9063971657951432e-06
2.20963939501654367e-06
9.61222019704538016e-06
2.70027714146334797e-06
8.90146404760397764e-06
3.37748909937462892e-06
7.61182245457925708e-06
4.27963184460181052e-06
5.43939452042824672e-06
5.4796234129143092e-06
-0.000757963823650328883
-0.000259542221314036246
-0.000163941329268621884
-0.00116797093770121957
-0.000158236091906875632
-0.000383737339521115258
0.000791643052266980426
-9.42814848349897699e-05
-0.000138937556594575064
-0.000407737449405747238
-3.64123751497021387e-05
0.000135603224366995559
0.000516662002499397263
-2.10159546900420965e-06
5.5718901262711777e-05
0.000591094684883019454
-2.12342598320447963e-05
6.25379735552190408e-05
0.000650534771115688043
-8.2411923316456177e-05
7.73103963938173776e-05
0.00072707366485552931
-0.000182222116470892451
8.02906795002693844e-05
-0.000282735596542872116
7.95889795721004613e-05
0.000601739238102494542
0.000515335843396919806
-3.37914615587535676e-05
0.000117487588737252304
0.000553907406438423249
-6.44537820376767101e-05
0.000130246303445952921
0.000577783408072385569
-0.000113709045952448056
0.000136206041532505615
0.000566709261255594725
-0.000173722532196827421
0.000127584797934304273
-0.000237493281756409109
0.000102031319540283257
0.000525298379567104633
0.000443630907851854652
-4.90582037070068871e-05
8.32299621088425178e-05
0.000471380945010529983
-8.44402981280918864e-05
0.000100057647425667704
0.000492225707357978937
-0.000136629322552093253
9.62647365697371813e-05
0.00050825525538417105
-0.0001956035155619833
7.6601940736257767e-05
-0.000253348358954652597
5.8447484426583487e-05
0.000519236937498079669
0.000383487941905734787
-0.000109228476650150344
5.34461115443559556e-05
0.000408101948221385323
-0.000147362550598071398
5.63247231645200861e-05
0.000431730273427013739
-0.00019267747632831792
4.94984895413935058e-05
0.000450466405576866423
-0.000238340227320053485
4.31037209968150912e-05
-0.000280416703675958234
4.02348301910619271e-05
0.000462036748269539679
0.000315730593021169023
-0.000174673158118668684
6.21639336945000603e-05
0.00034244277693300457
-0.000204852328162566019
5.1979267459395131e-05
0.000365563541622593302
-0.000236418213938390101
4.35482094636659934e-05
0.000384335087867802849
-0.000268163159311086811
3.88407302533229747e-05
-0.000299707651306243064
3.70235762862753404e-05
0.000400332942381297877
0.000263633222593498201
-0.000206674668751369826
3.61729737234307353e-05
0.000285528786799942426
-0.000229963454993244599
3.13123923745083874e-05
0.000305476717942819074
-0.000255793756832914626
2.9400448502121482e-05
0.00032422928434051461
-0.000283605872174745924
2.93779424716991198e-05
-0.000313045071390403377
3.10037799439468915e-05
0.000342968469858661717
0.000221094871569425431
-0.00022480416362200925
2.3052657434662793e-05
0.000237918558207519671
-0.000246159162723040364
2.29939016038209276e-05
0.000254527919431500659
-0.00026999667064145854
2.41969411569393292e-05
0.000271362821440844905
-0.000296026582442797512
2.68291542242100325e-05
-0.000324252994483912888
3.08605504514847397e-05
0.000289230237521484598
0.000181409646362476397
-0.000236076162550217421
1.96696921762979213e-05
0.000194169505839782364
-0.000255990500670655319
2.06231543279106894e-05
0.000206866783198052224
-0.000278150972613460431
2.29788257684354279e-05
0.000219966070710402798
-0.000302639028851551845
2.67425660981063958e-05
-0.000329768168963972131
3.20898677148432598e-05
0.000234291301228447998
0.000144912414953874536
-0.000241959665405759144
1.63279827447507789e-05
0.0001535151892695137
-0.000260475165080909963
1.81857171031399774e-05
0.000161839514785634496
-0.000281005203601078295
2.1343575619945015e-05
0.00017022211930699466
-0.000303748443487705062
2.59306606082721466e-05
-0.000329120538422217638
3.22489740758247881e-05
0.000179264687816024619
0.000111201664029323506
-0.00024442335932525251
1.38447383512102586e-05
0.000116135824503928455
-0.000261310208397902508
1.60377280484944122e-05
0.000120251819100958431
-0.000279783317505467042
1.9369424862814225e-05
0.00012360743814188597
-0.000300051053094344965
2.40551763752188827e-05
-0.000322489442997173905
3.04022597308186375e-05
0.000126386873681269535
8.08510422039554748e-05
-0.000244621503041732552
1.1207744092610857e-05
8.28544040738644731e-05
-0.000259694014488018082
1.32936452778081405e-05
8.35321863655647846e-05
-0.000275795555520439177
1.63207724455338971e-05
8.26056260645802908e-05
-0.000293010878834878313
2.04899083472704407e-05
-0.000311504312323794802
2.60255291262696573e-05
7.97114167932838559e-05
5.41985347169787082e-05
-0.000243738595129123489
8.30309468779966778e-06
5.44315512903718746e-05
-0.000257142268241555675
9.98167706159896006e-06
5.31975775000623845e-05
-0.00027099624505147929
1.23485163601254554e-05
4.99788258630684922e-05
-0.000285159173398747182
1.5547273122033323e-05
-0.000299465182252015407
1.97077708620631598e-05
4.40047886743949573e-05
3.11061787886600074e-05
-0.00024282213961747596
5.11434443492381683e-06
3.0778696694986318e-05
-0.00025507184392124598
6.19386621572756578e-06
2.93521439813171604e-05
-0.000267345490586017823
7.69234043991898572e-06
2.63649044133372144e-05
-0.000279298678593649786
9.69072264543869796e-06
-0.000290467519582673851
1.22547162863659967e-05
2.10941771222440787e-05
1.02971342509332088e-05
1.73320846791569311e-06
1.01521903906731761e-05
2.10543364542468767e-06
9.62104036910614772e-06
2.61902568941711349e-06
8.53757588461255769e-06
3.30155444500943563e-06
4.17663272585727186e-06
6.61813804362234162e-06
-0.000748569130734540525
-0.000305409630670426828
-0.000139956024256872064
-0.00115874084226961355
-0.00010689523981312453
-0.000390809374460277393
0.000823742335891870228
-0.00021407171878862712
-0.000169000665817173654
-0.000440704519436245794
-9.14990191531656251e-05
0.000160792091916502392
0.000568606390343550597
-0.000174068464092719212
-5.01136944327132774e-06