/*--------------------------------*- C++ -*----------------------------------*\
| =========                 |                                                 |
| \\      /  F ield         | OpenFOAM: The Open Source CFD Toolbox           |
|  \\    /   O peration     | Version:  2206                                  |
|   \\  /    A nd           | Website:  www.openfoam.com                      |
|    \\/     M anipulation  |                                                 |
\*---------------------------------------------------------------------------*/
FoamFile
{
    version     2.0;
    format      ascii;
    arch        "LSB;label=32;scalar=64";
    class       surfaceScalarField;
    location    "0.810000000000000497";
    object      phi;
}
// * * * * * * * * * * * * * * * * * * * * * * * * * * * * * * * * * * * * * //

dimensions      [0 3 -1 0 0 0 0];

oriented        oriented;

internalField   nonuniform List<scalar> 
84128
(
-2.70385927513029467e-06
2.62270450885466148e-06
-9.98805675968475126e-06
1.00692115259742804e-05
1.0347756578145373e-07
-3.27226140560414293e-06
-1.17047880993711278e-05
1.21697166039145219e-05
5.14359832069533784e-06
-5.62697874845172952e-06
-1.30230736072522332e-05
1.36099334425769937e-05
1.05056098112379629e-05
-5.95065139254731406e-06
-1.50434254859776868e-05
1.56320643987595408e-05
1.44019265727665754e-05
-4.45023082888455459e-06
-1.77594373896251871e-05
1.83133486373292847e-05
1.6453179632606075e-05
-2.59033071025788534e-06
-2.12633409486247945e-05
2.18024146099787607e-05
1.75647501977374917e-05
-1.6667564547629468e-06
-2.57044506388098033e-05
2.62596318809679974e-05
1.85702370023340485e-05
-1.72441963990800422e-06
-3.12630012869310334e-05
3.1981929638471886e-05
2.02022700956021889e-05
-2.56447027434371425e-06
-3.79130042105024108e-05
3.88454373051138447e-05
2.29609294656726139e-05
-4.20239115922880351e-06
-4.59632078535525461e-05
4.7406936802625707e-05
2.75383411099505609e-05
-6.36731404245199533e-06
-5.53944994610928442e-05
5.71844013840743881e-05
3.34569648513681126e-05
-9.26068810515370393e-06
-6.70136158729605437e-05
7.03556835959765506e-05
4.36059663675298888e-05
-1.30478195825990148e-05
-8.07903812011065192e-05
8.36892057403751399e-05
4.97855804694180616e-05
-1.72252256226330562e-05
-0.000100195647048442372
0.000111241264549299555
6.46025351314598718e-05
-2.87955485680054615e-05
-0.000118089594459923805
0.000132068192036620435
-4.2844476702506374e-06
-0.000165564354228813426
0.000234451339234797366
-9.77471690899444348e-07
3.43512110206445078e-06
-9.95059007607721644e-06
1.01156529941649528e-05
2.15577876842134365e-06
-7.04986046627673286e-06
-1.12786224057446205e-05
1.192297699179841e-05
6.22052258601607538e-06
-1.04610140132552815e-05
-1.26642541870110317e-05
1.34335437421059874e-05
9.26293794694171691e-06
-9.73898056206704674e-06
-1.46599060807172557e-05
1.54058114552307298e-05
1.14118664994660135e-05
-7.25431505480146673e-06
-1.74333200757464254e-05
1.80884631136582319e-05
1.29326275300877359e-05
-4.68320573747638092e-06
-2.10708944418318895e-05
2.1642994206798086e-05
1.40617504461421243e-05
-3.36248376096293242e-06
-2.56699000862169016e-05
2.62364900138307686e-05
1.53140267598703166e-05
-3.67012095395681298e-06
-3.13071654023836402e-05
3.20005771977830913e-05
1.73016710585745828e-05
-5.53542533373407927e-06
-3.80303765844360592e-05
3.90136778232184661e-05
2.05002127468292784e-05
-8.87303163827418562e-06
-4.59743189203411557e-05
4.74464156433138473e-05
2.54491003630180432e-05
-1.34267011180710336e-05
-5.53037419465537104e-05
5.74142503596589647e-05
3.22595738139564375e-05
-1.94619558969814277e-05
-6.65351700167196553e-05
6.99259820779009409e-05
4.18826097370055518e-05
-2.70539098159677258e-05
-7.99098979237601364e-05
8.42929704289506427e-05
4.97413017780660343e-05
-3.56805818414556282e-05
-9.8319300827196939e-05
0.000108915977595943687
6.2714426694708195e-05
-6.05139418917919662e-05
-0.000115890607109184828
0.000134635883059887584
-1.09540782987594647e-05
-0.00017001105939652746
0.000239395120682762145
4.19493376318075348e-07
2.68495644454595476e-06
-9.57010605275647454e-06
9.90078373469532321e-06
3.91891937520842723e-06
-1.12923407136498387e-05
-1.11907020744987855e-05
1.19337608874128999e-05
7.42629215043098397e-06
-1.47948880689921821e-05
-1.26885344236243384e-05
1.35150336662104175e-05
1.00481491590816986e-05
-1.31432311968463484e-05
-1.47334382008397696e-05
1.55158251303140435e-05
1.17786673590867271e-05
-9.66463512620030415e-06
-1.75527954097296118e-05
1.82325874732407093e-05
1.2894095331807607e-05
-6.38315733535229462e-06
-2.12610212176423369e-05
2.18455332721233338e-05
1.3717962781237111e-05
-4.75145974383212806e-06
-2.59447392042143403e-05
2.65098356482476712e-05
1.47368882974012265e-05
-5.37598385598428813e-06
-3.16673337350004846e-05
3.23542600766014179e-05
1.6542145142325237e-05
-8.33256440268213162e-06
-3.84637342132959899e-05
3.94556084711709647e-05
1.95926876284071815e-05
-1.343809583710963e-05
-4.6454055916922276e-05
4.79685761128429569e-05
2.43494903763111857e-05
-2.03894590260212449e-05
-5.58080866897037604e-05
5.80140492388481102e-05
3.08753286847220906e-05
-2.94659085344770753e-05
-6.7054715463024531e-05
7.05328436866529924e-05
4.00450319491132907e-05
-4.08575574592040747e-05
-8.04156748358805849e-05
8.50496328004218089e-05
4.83022133065733451e-05
-5.43484567954282741e-05
-9.87265826217922178e-05
0.000109137285321773622
5.84685354723450025e-05
-8.86057024797740539e-05
-0.000116567617102091863
0.000134493061120094244
-2.05361717918063134e-05
-0.000169551609086613628
0.000237602241212630768
2.12621608717407722e-06
1.682502028288295e-07
-9.10385459778815117e-06
9.49435072710514028e-06
5.69123209286438164e-06
-1.53585635560536004e-05
-1.0988272228205668e-05
1.14894837033893943e-05
8.71719860765273362e-06
-1.82947980719941694e-05
-1.26158127920466108e-05
1.30897552498842721e-05
1.08066152131005979e-05
-1.56882357453980999e-05
-1.47528150343865525e-05
1.52083975168156587e-05
1.20087919363231351e-05
-1.12843541655712352e-05
-1.76757409726303899e-05
1.80932740917958986e-05
1.26228236708541482e-05
-7.38214002247040709e-06
-2.15138667707812264e-05
2.18988063242292782e-05
1.30159177914585464e-05
-5.56183304797018727e-06
-2.63480102090462066e-05
2.6765277353929681e-05
1.36675323089595146e-05
-6.61868914002026679e-06
-3.22222512215671264e-05
3.28133308924861397e-05
1.51793646083619366e-05
-1.08238338893627021e-05
-3.91393437491152854e-05
4.01187727343774191e-05
1.79856577932633215e-05
-1.78390594100127232e-05
-4.72090356181601833e-05
4.88037040199276758e-05
2.24420524101583187e-05
-2.72405164292398904e-05
-5.66023457827804922e-05
5.89970147934433506e-05
2.8572903968782404e-05
-3.93100971666908935e-05
-6.78586842768223519e-05
7.15720327621307889e-05
3.70593109766235944e-05
-5.43380437621696224e-05
-8.12000570168234408e-05
8.61941468917436096e-05
4.54694513652777288e-05
-7.32674341890643291e-05
-9.93645895903713227e-05
0.000109873433710782982
5.40122393718770399e-05
-0.000114978729694603565
-0.000116733230822552893
0.000134563474629610631
-3.25477191791359e-05
-0.000169080567181209958
0.000235104356709345226
4.03218354661469725e-06
-3.90319122769945504e-06
-8.48271324559624067e-06
8.52197652561488766e-06
7.75726506269505992e-06
-1.87598082453034569e-05
-1.04885344357164274e-05
1.01647015940633444e-05
1.03318840625373248e-05
-2.04804600561236496e-05
-1.22623448338136054e-05
1.18733867160318114e-05
1.18634412194416603e-05
-1.69518973389501894e-05
-1.45826652352449301e-05
1.43147646953266295e-05
1.24999908885044527e-05
-1.17797524096607788e-05
-1.77206558164043966e-05
1.75794961911169374e-05
1.25516793673418124e-05
-7.41345430161080432e-06
-2.178707898423118e-05
2.17666942994408003e-05
1.24159814738536773e-05
-5.5751327369424736e-06
-2.68462701151254473e-05
2.6995256137688704e-05
1.25860413928683889e-05
-7.24013914662335003e-06
-3.29259608917078164e-05
3.33773401055028655e-05
1.37006844246557892e-05
-1.29295904998457262e-05
-3.99854406825662416e-05
4.09765465276977812e-05
1.61541472467651872e-05
-2.2046747369393886e-05
-4.81429422613319897e-05
4.98971658104302394e-05
2.01579238932688964e-05
-3.39335172650708593e-05
-5.75788536037028279e-05
6.02680831695607495e-05
2.56824164468729535e-05
-4.8897461738803208e-05
-6.88448409044340099e-05
7.29077218372180486e-05
3.32858054882715523e-05
-6.73783666159434591e-05
-8.21552098325466717e-05
8.75921513015226591e-05
4.12572989182908171e-05
-9.19788481016633802e-05
-0.000100130863158526525
0.000110870788674088751
4.81894069569081023e-05
-0.000139831789106851297
-0.00011704863718969697
0.000134969591965966021
-4.79001998565460317e-05
-0.000168189858636930069
0.000231731748392245197
6.24296312301700709e-06
-9.17059640715974968e-06
-7.64207077409605876e-06
6.66651790002285693e-06
1.01903360661922077e-05
-2.12437847249457155e-05
-9.64479591672523848e-06
8.18140342044266984e-06
1.22392670816766287e-05
-2.12034771750435513e-05
-1.15860938819187157e-05
1.02601799847645936e-05
1.31231516396962556e-05
-1.68494831787166593e-05
-1.41605986040011012e-05
1.31742962221413574e-05
1.3152952523244806e-05
-1.1159007007215469e-05
-1.75853151003779479e-05
1.69347618266704845e-05
1.26024440109665053e-05
-6.50794650881198921e-06
-2.19694859814745614e-05
2.16144768633930927e-05
1.18687045444638826e-05
-4.81765645153840479e-06
-2.73395934347967595e-05
2.73158455599085682e-05
1.14824478419663203e-05
-7.2943134510029506e-06
-3.36940854668022684e-05
3.41345063670448951e-05
1.20954202340638135e-05
-1.46549893524233308e-05
-4.09583172565659311e-05
4.20707368838577474e-05
1.41016711447083435e-05
-2.60644355293874467e-05
-4.92363631757983209e-05
5.12477990684817309e-05
1.7533667663132263e-05
-4.04154278279299147e-05
-5.87321166051430212e-05
6.17820347328995389e-05
2.23312488398380379e-05
-5.81611769461463484e-05
-6.99606687221315576e-05
7.44268088292214221e-05
2.8839476426977147e-05
-7.97763404132754793e-05
-8.32214310279766654e-05
8.91111818497471555e-05
3.54974926700187432e-05
-0.000109631356233688606
-0.0001010474876988201
0.000112041982358487233
4.02235215946785993e-05
-0.00016272371204698727
-0.000117917850300728607
0.000136083746238057816
-6.86528325114433473e-05
-0.000166696365257286904
0.000227672520679598366
8.71137011009389226e-06
-1.52322107002009449e-05
-6.53705889158282104e-06
3.88730774889242521e-06
1.27117942822833649e-05
-2.2999094064471884e-05
-8.79987110153771632e-06
6.55476007882051969e-06
1.40813611601542118e-05
-2.08678328502668627e-05
-1.08858335284162969e-05
9.18062286949579007e-06
1.43367025577504129e-05
-1.59478443171895056e-05
-1.36771623149298732e-05
1.25201790605937166e-05
1.38083606618572593e-05
-1.00095602981307324e-05
-1.73197500923257981e-05
1.66986390363077146e-05
1.26509317570412778e-05
-5.14643187316021742e-06
-2.20313633990531551e-05
2.18272687945743564e-05
1.1264714897125128e-05
-3.64265747571358744e-06
-2.77684306817854712e-05
2.79796386995432129e-05
1.02264142136185592e-05
-6.99478380365426534e-06
-3.44779797209837248e-05
3.52167420115968697e-05
1.0248568514466663e-05
-1.60799959904490912e-05
-4.20226842875698095e-05
4.34255310769409062e-05
1.17954370282345526e-05
-2.98977948465798868e-05
-5.04751569903736093e-05
5.27616469159909217e-05
1.47238580676643205e-05
-4.67003258065576735e-05
-6.00140715051916384e-05
6.33705514522089951e-05
1.88422557326363038e-05
-6.70707159087529948e-05
-7.10994562454328775e-05
7.58906011724015667e-05
2.38888742992288083e-05
-9.10177541049405063e-05
-8.44065295813417019e-05
9.06013266597552574e-05
2.78347240233632646e-05
-0.00012478256698552709
-0.000102416092471385899
0.000113621454109139413
2.96218488965140264e-05
-0.000183153077360252074
-0.000120221206152185708
0.000138863446746067875
-9.72103480359672598e-05
-0.000164935430637547383
0.000223114794892973335
1.13312705355768445e-05
-2.286040114450285e-05
-5.75776341258979582e-06
2.0546873240854514e-06
1.46303132757766279e-05
-2.40946319323316074e-05
-8.36649962529531643e-06
6.16299809251310415e-06
1.54402815609726719e-05
-2.02688975524888376e-05
-1.03344223729579502e-05
8.92551930552326939e-06
1.53951537680868162e-05
-1.51211718178103927e-05
-1.32206903288966504e-05
1.24391434119427308e-05
1.44747294666399457e-05
-9.09069527591498951e-06
-1.6973694909232823e-05
1.69752492371821649e-05
1.27258878337568381e-05
-3.98213010370696249e-06
-2.20125752078152899e-05
2.25971078853906208e-05
1.06756144841639038e-05
-2.67446705548025456e-06
-2.81018567694284111e-05
2.91839317245030737e-05
8.85879098301964672e-06
-6.65972894584619801e-06
-3.52073701289744431e-05
3.6689131964758132e-05
8.29141078292753948e-06
-1.74134968318280563e-05
-4.30518618822757048e-05
4.49527390910747722e-05
9.55317178653667436e-06
-3.36820339769902213e-05
-5.16820962163417423e-05
5.42045742682932899e-05
1.2188509789976364e-05
-5.28379859178685545e-05
-6.12237608320820352e-05
6.47260851251456782e-05
1.5482468187967533e-05
-7.52234242301627934e-05
-7.22315977803975089e-05
7.70903493179563108e-05
1.80338355044065268e-05
-9.98303551322801892e-05
-8.60931630265196154e-05
9.23543964378740822e-05
1.78062959225355793e-05
-0.000136057873024226643
-0.000104979943059207818
0.000116482787261494534
1.76659944255894142e-05
-0.000202510770824477094
-0.000125108632906647442
0.000144606626089418622
-0.000134665772336846617
-0.00016252506394530888
0.000217646480880751231
1.21575373182328613e-05
-3.0845543967146765e-05
-4.3593056985650481e-06
1.86914648488852833e-07
1.37209247341171332e-05
-2.36768549004020244e-05
-7.56019421653400455e-06
5.57903319556730169e-06
1.47226361021615234e-05
-2.03596444396875534e-05
-8.83945656154526486e-06
7.92849361631483803e-06
1.53874854932123574e-05
-1.51728166254215101e-05
-1.06368655777625564e-05
1.00236599385710099e-05
1.47321465072180095e-05
-8.25903611443115117e-06
-1.49519388890747421e-05
1.47756152854109489e-05
1.25158076086032579e-05
-2.77135216312054174e-06
-2.09979663911096485e-05
2.20035221880051567e-05
9.90584323065304334e-06
-2.22734530722789757e-06
-2.76838969937045287e-05
2.98467340667515763e-05
7.49853861638639247e-06
-6.79163599302667214e-06
-3.52193028885770356e-05
3.77585101846573449e-05
6.47428474492265576e-06
-1.90004659587921884e-05
-4.34782605687960655e-05
4.60894816714494762e-05
7.69519005764036481e-06
-3.76968490026144675e-05
-5.23993748451632006e-05
5.51932851704508366e-05
9.75288522446260113e-06
-5.82910621783327219e-05
-6.23323686917952324e-05
6.57277511367842306e-05
1.11735795596079224e-05
-8.12371318405414087e-05
-7.40152449569076516e-05
7.86082581486379948e-05
9.50326867830086549e-06
-0.000104562619193144314
-8.9441721684758882e-05
9.58442945873505249e-05
4.58219401173241025e-06
-0.000143542593959273288
-0.000109882021341113883
0.000122287813809944865
3.10846717409687739e-06
-0.000222597759679088052
-0.000132681017311076887
0.000154241729434000102
-0.000182140864427746412
-0.000158844796940817699
0.000209428352817557425
1.81217115373581928e-06
-1.74696536448986153e-05
2.18716450035458583e-05
-3.70597014798096697e-05
-1.98246949945773965e-06
-1.393183241352354e-05
1.54767096865226212e-05
-2.14270816074332236e-05
-2.07245329012830921e-06
-1.15732103901037414e-05
1.27080850887886432e-05
-2.14045298918399305e-05
1.20879601836471453e-06
-1.0587161741792972e-05
6.44061533769911035e-06
-1.43075183799596109e-05
5.70515385133037124e-06
-7.55527941414049775e-06
-4.57500368118011429e-06
-6.25113105242963517e-07
7.22070419934998453e-06
-2.24561227582563763e-06
-1.53514797529184757e-05
1.33101859349995337e-05
4.93672021084026763e-06
-7.6123197311167394e-07
-2.52440397851310655e-05
2.60619071049514694e-05
2.60065422893253576e-06
-7.20088186361529312e-06
-3.43467036142727479e-05
3.70920134772027691e-05
1.48876150126387452e-06
-2.10574397977287241e-05
-4.32107061240861383e-05
4.63795726079369413e-05
2.29428909611642599e-06
-4.08227112614515471e-05
-5.36624866673034504e-05
5.59828225400094118e-05
2.65509277893925753e-06
-6.14602709212599518e-05
-6.53485499330594703e-05
6.81569557508675435e-05
9.08026223888237893e-07
-8.39816714770320525e-05
-7.90453787131938746e-05
8.35369837034656841e-05
-5.16703864637270597e-06
-0.000106151894323566965
-9.6610975969859913e-05
0.00010427531282800028
-1.25238007319815533e-05
-0.000151164108310277459
-0.000118067563754129892
0.000133045835811126104
-1.34670230434268943e-05
-0.000247601505759609828
-0.00014100575860387943
0.000166952722047401683
-0.000238352001552066253
-0.000152082638632444398
0.000194826747952183934
-7.04644001889946761e-05
8.56922728681513789e-05
0.000370039664098024523
-0.000402737169013607705
-0.000110568464410628784
7.04265189908266122e-05
0.000226183660022111481
-0.000270437881815546581
-0.000136609716621183773
4.96897446351140859e-05
0.000119535236387783236
-0.00015475689749346432
-0.000136106141739958245
7.5360443974838349e-06
5.32328010054864415e-05
-7.18595653088613449e-05
-0.000114883729839348006
-1.82441701627473335e-05
1.22106434710378669e-05
-2.27441650997985763e-05
-9.14338492954227297e-05
-2.22840472234465264e-05
-1.57083640044211614e-05
1.22969150830286989e-05
-7.1284170865880056e-05
-2.2527568762454285e-05
-3.09794654682804519e-05
3.25961223062752668e-05
-5.1493317602224444e-05
-2.96959880006048785e-05
-4.1566462391122944e-05
4.42707156396204474e-05
-3.45824347952086958e-05
-4.00434052957156315e-05
-5.12946468101981349e-05
5.336973114460086e-05
-2.51202761845450588e-05
-5.19666455884225343e-05
-6.30052130710615377e-05
6.46869905315561208e-05
-2.31735279604604657e-05
-6.65656254389572271e-05
-7.56793954617697543e-05
7.88380022185982771e-05
-2.51948735813583912e-05
-8.85210897935393998e-05
-9.10314961163040203e-05
9.75922585451368345e-05
-3.07017364530146498e-05
-0.000112574792434948332
-0.000108980725338431099
0.000120910482951337836
-3.43767986287472514e-05
-0.000168129661759138958
-0.000128744653381271179
0.000149385264058942877
-2.75158269153665742e-05
-0.000286077591256035809
-0.000146564786265284693
0.000178179893786311797
-0.000295952123395117951
-0.000141965468550843714
0.000172049757138192141
-5.84189462002584125e-05
0.00017411619713172987
0.000395009031302131553
-0.000425013889512967371
-0.000126799881787331253
0.000174020315590387635
0.000246641034402711988
-0.000281853762298854939
-0.000187813487855838029
0.000130018083951232712
0.00015343635316621471
-0.000172751013852435895
-0.000221168033232647503
4.92155578367757095e-05
6.99338974551536182e-05
-7.82588494752349409e-05
-0.000236519150101940158
-1.0212202362357448e-05
2.69375630229797903e-06
4.62538868052333107e-06
-0.00023373141840220553
-4.34001043302480248e-05
-3.0000893538360284e-05
4.83292156650886294e-05
-0.000210644635200992023
-6.46708821391470644e-05
-4.52757049081265353e-05
6.43322366409357761e-05
-0.000174547873081408217
-7.88186056096869953e-05
-5.45276798050599158e-05
6.75535391030996268e-05
-0.000139147210227261083
-8.32175620479381518e-05
-6.90883353558816005e-05
7.68618328219827584e-05
-0.000105435942665688316
-9.31826827343380619e-05
-8.11113669356192351e-05
8.86161388674062148e-05
-8.4173338062213445e-05
-9.55040236209356644e-05
-9.18142448626246686e-05
9.94900391214143171e-05
-7.6156372612669527e-05
-0.000108778400661443606
-0.000105515564851159832
0.000117755909022524652
-7.1836763272107283e-05
-0.000136193362986832597
-0.000121219291542737075
0.000140518249229204642
-6.04120768368749197e-05
-0.000209261008857940288
-0.000137935618114201695
0.000167642271907695543
-3.9372108742169161e-05
-0.000343306594642672053
-0.000149336555675325599
0.000185525580014771777
-0.000344317466659914721
-0.000128988320583228982
0.000137981544654625511
-2.37685442440664738e-05
0.000239137569652386945
0.000347099823233067834
-0.000388352544882608988
-8.25827562652071588e-05
0.000253680362961416182
0.000221422739446063986
-0.000242268444858509451
-0.000140063239773871145
0.000184493310843425879
0.000165033338056641305
-0.000162028016271989684
-0.000181977153854913641
8.58787044346124824e-05
0.000119570685964701974
-0.000114319908909416522
-0.00019368338987786027
5.15454235372387367e-06
5.74579746105587498e-05
-6.1118490527716868e-05
-0.000181660936479612192
-5.95193942000034744e-05
8.60986410222663293e-08
4.0107373150950095e-06
-0.000163143618218316363
-0.000107563514018639393
-2.35534949407839169e-05
4.79288165091482771e-05
-0.000172374235545123757
-9.45490684479213681e-05
-1.94341291497819374e-05
4.43952230876146361e-05
-0.00019043491378900883
-7.62936749295539327e-05
-3.69620896991369692e-05
4.80988933845490435e-05
-0.000181589946295835107
-0.000107781992395980866
-6.62369484162049537e-05
7.19912978200520356e-05
-0.000168565981101980985
-0.000116261142998190861
-8.44996627045908481e-05
9.2232820027226631e-05
-0.000156493219275100634
-0.000128971333918410577
-9.91776263741052421e-05
0.000107297796755085817
-0.000136629610607587478
-0.000179196966979279591
-0.00011685981458886091
0.000139999801851631018
-9.25622374353165514e-05
-0.00029460238672614626
-0.000135700790796619856
0.000176974775246606673
-4.69520737155652076e-05
-0.00042261121939121541
-0.000143582798372591543
0.000177277227753731229
-0.000369592942661857177
-0.000104964091229007794
8.32874662130675316e-05
-1.01586676316572813e-05
0.000290677764791362925
0.000319182291293994399
-0.000360563720090042008
-4.56030157675926931e-05
0.000271445821005828901
0.000206389585285251815
-0.000188710576519289611
-0.000101313733214289113
0.000213192938078047493
0.0001517176862876922
-0.000124706544560953387
-0.00015229686761383766
0.00012174086295990553
0.000102465224271847935
-8.73442485559462474e-05
-0.000176118823691272345
3.47193393176643567e-05
4.82586536797203493e-05
-5.40015063024757206e-05
-0.0001643165518850121
-6.97032635921271361e-05
-4.27766722321648631e-06
2.65926470623080438e-06
-0.000121286952131850363
-0.000166625192749528142
-3.26039263458179914e-05
4.86360285757580452e-05
-6.23855554025678832e-05
-0.000184682325857763276
-2.04802785685689287e-05
5.17121763402226929e-05
-7.94312116196535284e-05
-9.13288227716430295e-05
4.22953631888043084e-05
-1.02145102950441837e-05
-0.000167345537513638096
-5.93349889341752978e-06
9.91319637169268546e-05
-0.000113066036306032323
-0.00021972656921996316
-2.84227061787772179e-05
7.88649645786583704e-05
-0.000114322280830665642
-0.000240837693861688739
-7.79674778279544167e-05
2.01512432037592858e-06
-3.19078418067377588e-05
-0.000214409414088212111
-0.000210241054727179719
-5.59677724885554849e-05
6.05835143878542234e-05
-0.000133652896687246699
-0.000398560024215439122
-0.000101219436891670486
0.000124420455266854521
-4.85034902640782151e-05
-0.000520998483273512301
-0.000125168511810185452
0.000138406269673384849
-0.000386021074812086169
-8.11432508636244484e-05
4.90678072222696689e-05
-1.19182381155776129e-05
0.000325370155709443125
0.000295873790350628305
-0.000318647851637771887
-3.07816458193111851e-05
0.0002571476388198862
0.000172349952419079881
-0.000139188272810616704
-7.33472641249548863e-05
0.000230135809721103771
0.000118109934010146979
-9.24871614796973275e-05
-0.000128600170877447048
0.000170955125441640344
6.44640454259602733e-05
-5.84254182890225839e-05
-0.000163387783473811245
5.92034502484332318e-05
3.79983090236003264e-05
-2.76948372357700072e-05
-0.000159801587149217968
-7.97762771942842801e-05
4.35269738067265436e-06
2.13410827836786492e-06
-0.00013418340225521377
-0.000200855607168612697
-2.79633991172021409e-05
3.65756448709634403e-05
-9.82809920271196719e-05
-0.00023622102693148829
-3.9977225205105568e-05
5.5613570568775682e-05
-6.17149591759946379e-05
-0.000153927145099205592
3.60614772764521305e-06
2.24263131357150726e-05
-9.82897592419743516e-05
2.94318440982281327e-05
0.000132718907423940715
-0.000131509183826343745
-0.000164213834509762665
5.99784468807519947e-05
0.000194719372122458001
-0.000217196331139907011
-0.000228967579110291383
4.6154587911467846e-05
0.00013956248197198419
-0.000198930940973661533
-0.000243802381866096735
-0.000140312300287198015
4.22491440272762113e-05
-9.73433800288888438e-05
-0.000192307729608350394
-0.000434269063147525714
-4.22638493465578866e-05
2.64779769440440108e-05
-8.52186871039358645e-05
-0.000618943044200401856
-0.000111558552108068456
0.00010241387491090998
-0.000480614079749650002
-9.00089425940963728e-05
9.93830911374044067e-05
-7.59467970939306763e-06
0.000252475354371713883
-0.000264302534791967226
0.000344792091118717946
-2.20639219690521105e-05
0.000125117222858135187
-0.000129450361127195478
0.000275950069930597187
-3.51644015021113608e-05
9.44658952891492919e-05
-0.00010571786856075849
0.000254488246707622085
-6.79377608968985316e-05
6.52159368842707707e-05
-7.12071099978261665e-05
0.000209719576429460292
-0.000122113112749245705
5.08628564761282888e-05
-3.21803315882574284e-05
9.46961896320290086e-05
-0.000138237921992260952
2.60666563125136041e-05
-1.08034001029412683e-05
-7.8914762455733773e-05
-0.00012870951258970212
-6.02403689912876718e-06
6.22807796481867834e-06
-0.0002105880535587173
-0.000111028621731984819
-3.86320653303730342e-05
3.3926169810671316e-05
-0.000249195987432598159
-9.59216961411344889e-05
-3.29119155771448045e-05
4.15141263666940822e-05
-0.000177636178040874258
-9.8656532262302889e-05
0.000121499260923589995
-7.34481803016674142e-05
-1.58841532364332257e-05
-0.000138186286850946365
0.000206931539304511085
-0.000195181743443197792
8.77584475011128893e-05
-0.000197940370135424987
0.000193868486383652356
-0.000225846376054071271
0.000137886288717896691
-0.000240363053305758925
0.000103974800530808449
-0.000146011029771739986
-5.58538517404020803e-05
-0.000228321909687321183
4.06562963827303072e-07
-3.28872433725601676e-05
-0.000413829919553084392
-0.000151616273517303404
-0.000106848637154571797
9.10388457023520115e-05
-0.000679839411073510091
-0.000133515777051990906
0.00015816527255361687
-0.000656880024250217488
-3.21945157589199392e-06
2.7803941165157189e-06
-9.54899558198795163e-06
-8.92387728795389007e-07
-2.95409059816732649e-06
-1.10777530382306345e-05
3.63013786830136916e-06
-5.20506451827990349e-06
-1.23405318552012227e-05
8.34958463700409427e-06
-5.48265745111508463e-06
-1.42802166594118711e-05
1.14602020121021607e-05
-4.02622711387112688e-06
-1.68438330901009172e-05
1.26590286644890311e-05
-2.35509083708403945e-06
-2.01070847462798373e-05
1.28461031975674572e-05
-1.68622669008965726e-06
-2.42053079059005133e-05
1.28425583552724095e-05
-1.99135352517735343e-06
-2.92681123378359346e-05
1.33401491133377266e-05
-3.07444861987033061e-06
-3.5336154084391007e-05
1.4813426669712738e-05
-4.85293167938977066e-06
-4.25835573817122729e-05
1.75789451308755199e-05
-7.1040583451527161e-06
-5.10559563250582516e-05
2.1947170966227505e-05
-1.0231996321348339e-05
-6.11498353038204091e-05
2.7479986724157909e-05
-1.34296128116845366e-05
-7.28935719327081515e-05
3.34849642386507912e-05
-1.8704612895366636e-05
-8.74960018806970858e-05
4.96760283897739133e-05
-3.05588310017198574e-05
-0.000103721820967733931
1.30860735328061645e-07
-0.000116019182061567294
-1.49573590049761293e-06
3.72637677798146295e-06
-9.40082016413952638e-06
1.13447298072620002e-06
-6.27878022052793929e-06
-1.05841260934873604e-05
4.59562935189697226e-06
-9.4216337157506111e-06
-1.19088347108407473e-05
6.98201017927788779e-06
-8.66435745329208929e-06
-1.38645887342822977e-05
8.43103103611718253e-06
-6.37545892347142673e-06
-1.65331180013244599e-05
9.18932311685359729e-06
-4.23809716555986497e-06
-1.99461942296127316e-05
9.50252902194940048e-06
-3.49740454881962015e-06
-2.41719447253212738e-05
9.88901537973539791e-06
-4.40698530122149091e-06
-2.92780363729957238e-05
1.09001335854795132e-05
-6.79405624699275288e-06
-3.53218999602492433e-05
1.29593016118240502e-05
-1.04931750259270362e-05
-4.23932479104419365e-05
1.64063815941233908e-05
-1.52517101361974658e-05
-5.06031629907384154e-05
2.12939137993594445e-05
-2.14719386789616281e-05
-6.01827436868355439e-05
2.79882567504790931e-05
-2.8768653198949309e-05
-7.1265182450918634e-05
3.38616098623064954e-05
-3.81007768873117158e-05
-8.47964754932259082e-05
4.58331906531355245e-05
-5.99404301072056211e-05
-9.84805781100696006e-05
-1.76763951946598471e-06
-0.000122279360802601188
-9.2924996954738724e-08
3.19762905332092377e-06
-8.94841953683815973e-06
2.82909748582093441e-06
-1.0009941456202502e-05
-1.03815502861555738e-05
5.71407517564198523e-06
-1.31494702857219717e-05
-1.18456695254543961e-05
7.66092509015573543e-06
-1.14454693207166886e-05
-1.38991772300380644e-05
8.66929909374325632e-06
-8.28762045087136008e-06
-1.66490148410645576e-05
9.01712645245552527e-06
-5.70497654349468137e-06
-2.01419807687342515e-05
9.03618373438951197e-06
-5.02406656662180683e-06
-2.44371487835905334e-05
9.21420932139465642e-06
-6.65559201192673556e-06
-2.95967669846904189e-05
1.00776849438750572e-05
-1.04471673193612014e-05
-3.56741097874365315e-05
1.20152175293119776e-05
-1.61204401920332299e-05
-4.27643272223923767e-05
1.5286839425724669e-05
-2.33357226924511092e-05
-5.09956903402438612e-05
1.99134791555615827e-05
-3.25354544925146946e-05
-6.06178267280415339e-05
2.6224227960508209e-05
-4.37257779802883106e-05
-7.17692855635425629e-05
3.24540706167660134e-05
-5.7686482203141406e-05
-8.53707094701159339e-05
4.21570014525407411e-05
-8.69294638218957746e-05
-9.92815061983800878e-05
-7.49218602923165256e-06
-0.000121670055021574
1.55124598670887194e-06
1.01976515315944387e-06
-8.47722408425471258e-06
4.51954659555663811e-06
-1.3676325101229231e-05
-1.0290177249015644e-05
6.9151430225876169e-06
-1.62029139161048207e-05
-1.19579601525343727e-05
8.30095967938855749e-06
-1.34791368046798205e-05
-1.4104965168984854e-05
8.74631055788407506e-06
-9.49572227313127592e-06
-1.69129968301274381e-05
8.57240419215851992e-06
-6.57695853298348637e-06
-2.04679900880679066e-05
8.16800088114451959e-06
-6.13925235453647212e-06
-2.4828435149169607e-05
8.02056498470589349e-06
-8.68154846342954306e-06
-3.00488726709779823e-05
8.64272897731290227e-06
-1.40373565349142642e-05
-3.61713290376401754e-05
1.03812282580427206e-05
-2.17698595114588571e-05
-4.3298119118241256e-05
1.33754245888341569e-05
-3.13561873038767841e-05
-5.15760725423580345e-05
1.7614810247839662e-05
-4.3390849987168523e-05
-6.1242664231458079e-05
2.34016891752683554e-05
-5.8289266304142648e-05