/*--------------------------------*- C++ -*----------------------------------*\
| =========                 |                                                 |
| \\      /  F ield         | OpenFOAM: The Open Source CFD Toolbox           |
|  \\    /   O peration     | Version:  2206                                  |
|   \\  /    A nd           | Website:  www.openfoam.com                      |
|    \\/     M anipulation  |                                                 |
\*---------------------------------------------------------------------------*/
FoamFile
{
    version     2.0;
    format      ascii;
    arch        "LSB;label=32;scalar=64";
    class       volScalarField;
    location    "0.870000000000000551";
    object      p;
}
// * * * * * * * * * * * * * * * * * * * * * * * * * * * * * * * * * * * * * //

dimensions      [1 -1 -2 0 0 0 0];

internalField   nonuniform List<scalar> 
7236
(
141.070825058062837
295.185832597477486
385.793057603123259
383.209763308770675
352.286051104073294
335.104513726211223
295.584830027228691
253.996013139290653
230.187121941210762
221.549087101321618
224.651536759259784
233.644218004291446
245.433230075660902
255.986847714887858
275.721844969557196
300.457089433325166
319.456178989439422
323.810985148043073
319.576449210020314
310.809852943715214
299.774668716867382
288.512897758147346
273.895347955470243
256.684726814111457
249.817908509471579
252.41993024937571
252.679274065355628
238.792815055727573
231.74534742921179
236.468338445795638
243.789283376213177
251.200394696880437
278.304768071668832
356.858762454634643
579.341592064840029
1056.1655684680145
1655.01587568936702
1915.79578793786459
66.1923881208956857
130.175235201128174
206.334678646098354
225.421578150708569
212.361195519812554
210.687995835604937
170.646680376691393
129.988034006016875
108.797252652370702
100.716835243160119
103.511915418634487
113.623405760422997
122.307060171525478
125.270986868153244
150.263100181727111
179.629124276078073
199.433300786083976
199.50625747436419
194.814024683325556
186.630464747678502
177.002516984170512
167.762565997818655
151.452198839272228
129.905720487925549
126.867970435951236
131.432125985261933
138.926332026130041
115.085247854763878
110.671559064485109
119.297809061086355
126.172292421875937
131.440483980419202
136.365144339667637
164.454756951868063
284.618442008198315
697.616703630278039
1412.68408636556251
1830.05041414600055
32.1919213061180471
45.7335273283488704
81.2858226308565861
122.15676252982729
143.596775069057458
151.356605080827705
117.511493747730611
81.1791170593087514
61.4693738535558083
54.0302211906187537
52.8759671896212637
53.2077358552203492
48.7854833543300543
34.5609410416876699
47.8822706895448107
75.7288965345282463
96.3396656678721683
98.8594555049036217
98.3381894997593804
93.501624715668612
86.7038637861451775
81.0965199208806666
70.5009683812904768
57.4102097442618131
57.3368482989485742
60.4797904251525509
68.8797416775880293
56.3104235159719551
56.3091750711694985
62.1875696187309828
68.3156889710294735
76.2925011610470278
79.3710990029238417
93.202135646429852
132.219673823437716
314.764637784675472
972.087677684372579
1643.70971971491053
18.1863235719433618
22.1650255336758306
53.5380157250334108
97.8461209262982265
122.198073856332798
120.357813754829195
91.1834333743834407
60.1190687588134551
43.953059515343611
38.3381280486259612
35.1296168775195952
30.3149651487419654
25.6500910108292146
23.3893463387858631
28.2318978972530559
38.4223123582416761
48.1322889465629231
56.4534220359796208
60.5107442872351555
59.2179208596902455
54.4320178165380568
50.3308505249349736
47.7983181224263589
47.2066881044551963
47.3566382465818947
48.518995905402015
49.0359864353096597
51.8726545132902714
54.3970438426062444
58.3848026318695403
63.7008050329621227
69.2432791563217052
76.1923763037258084
84.6257377132910307
102.293274926375176
169.705881678221601
561.582726229382843
1342.86577467765756
7.38121329176905761
13.9969556636679897
42.032561141185262
84.5854364200099269
102.937818641883709
92.6083754344662111
63.0658386512698712
37.2172950859411173
25.6306247976457442
23.5486790141810047
23.7578519293931691
23.9068349584495223
23.8699486431930836
27.0243779154320691
32.5803805370675548
38.4312134511261547
43.4709183971188509
48.7436089470565435
52.6328665936224382
53.2810001628741503
50.8633765635297124
48.2393873770909423
46.2548889930878033
45.5215383557145969
45.729917916508164
46.6585354087680884
47.8526747012639646
50.03519435739409
52.9957068359104326
56.9985065111165881
62.307933790960206
68.3412428090678219
75.3161131282937362
83.8854744343171888
93.3362502691647933
115.371466852578806
333.18114605982214
1050.0705278531284
5.70269516112226427
9.77684639718730431
26.5639329559646065
63.4744814804864674
79.9547889649269052
60.9332327268806253
36.1745326511933811
20.9720778256777187
14.0777843504067945
12.594764945594294
13.9999029891465767
16.4204144010482374
19.3969435387692677
24.6509178022942308
30.5235947780864407
35.3810392155291566
38.3991507114703765
43.738387214578978
45.6001980175473136
47.7497738240492637
46.7473614483963331
43.5768353617713728
41.8527961449834649
42.1129071835371462
43.3254419638433603
44.8267890961610362
46.4255039770911111
48.1184491099802329
50.9578212680489457
55.2000814717551194
60.7899669077233398
67.4523643185145687
75.0953999507845964
84.6483691840038261
91.3145264215330599
89.1019152244792565
221.392302077858176
791.195356442841103
8.17097235329801741
5.83983947890881971
17.3795303342081766
33.1216275222041574
51.8303545314557823
34.3713139652890476
19.0670433524756859
12.3756518043529731
9.78979741153767691
9.84199573279605744
11.2329881498023738
13.1571447272915165
15.9751380614392424
20.9689017509124938
27.7589343809895972
32.174936163206219
34.5819114422605836
41.5249649574800657
41.2963163306926617
38.8353631476150056
37.9441977740507355
36.7538125003624856
36.5626831854370948
38.0012289304777084
40.2989454997589149
42.4515373771671847
43.8740630848359885
44.6734703203610835
46.7591944462081557
50.911880013293775
56.9548544778765731
64.927043377836867
74.1211349947491556
85.7723880064472581
91.1199488046861887
72.937948172187248
151.79786087494557
569.541547300717525
7.98847848289218376
1.70868948424791611
13.9043237967572146
19.647148467296546
29.0310668175018947
17.7428245968006166
10.8802168099872727
8.18174421927702511
7.74379412360713104
8.70971662630895693
10.4414307148381695
12.6237220053631649
15.5966781424810232
20.360683714475325
26.6016969516533379
30.8920732281912045
32.9071134574115902
35.4529804586730179
34.3960893540311332
31.0311948524930656
30.2230946739779398
30.7486168244046958
32.0774481469369306
34.1000540920007182
36.6151651448279125
38.4698167038800563
39.5769616641177322
40.2844311391677152
41.4580975815523516
43.7898871053836487
49.2095290144133983
58.1238987205729671
69.93015966280133
84.8030381469151706
90.2558936947435626
68.3916924544963365
107.416550553966033
401.948205853288982
8.22336669128658038
0.572954189266345892
8.77789275312542827
15.8324388361426429
14.7677516382239347
9.97835896747059081
6.96335036826199349
5.92960026379016725
6.27552992421330025
7.5467798742465444
9.49486528575628874
11.7308399034737967
14.6143501891499703
19.444241746317747
25.9680273605283176
30.1306948687149223
31.030246444992251
29.4569643176309803
26.9891320467008171
24.8972286268302661
25.4569577847361792
27.2721047956478593
29.2803985636739625
31.3166831111663022
33.242677301802452
34.6948139858568751
35.7811728273686782
36.8247030330426384
37.914534141181889
39.3738658316442738
42.712687916000732
50.3172527029169103
63.3116882909287497
81.049537740001881
86.8935765894548808
72.9696476113246604
93.2560024673493047
307.173851764977826
9.70392454373798685
1.34957712677061181
2.2475601878246465
11.1601187885386111
7.98673399861984912
6.18629584652847697
4.73298683709070289
4.32451608822791034
4.82466482638790062
6.1347607888580189
8.1885866247000223
10.4363593611823617
12.9295248358232993
17.637562114431141
24.8367850018385319
28.1493500098349365
26.8751041665532888
24.0611535840785855
22.0850312687900967
21.5809242220527047
23.3644473330488864
25.809794943235854
12.3332282396331934
5.47844148404976394
1.72182727612201347
5.62438428448800209
5.49593054184654228
4.07125703903458813
3.14499978958274307
2.96272253830718757
3.42042053383974709
4.57163356999576553
6.49522177296155778
8.67839024512191415
10.8722340815269582
14.7978257250438574
21.5082840775766577
24.2063644514539504
22.5810797145482169
20.423904842384232
19.1767254730133523
20.3051333432026944
22.8189329412298108
25.2794383416794091
15.3327107682013306
10.5383035482831815
5.08136988927302014
3.17831503361725964
3.9154611021496355
2.65418240375297865
1.95606410089320359
1.85023316716815822
2.20275397542561624
3.11956338411799372
4.73022410066362475
6.68606280800414687
8.73087524968552131
11.8810702496782046
17.0598010007232368
20.2890862763511208
19.4897378605010445
18.0578169523995982
17.457791793389255
19.6042248828999419
22.5527824326738084
25.1474269244631579
16.8602118468093352
10.6019288680593604
4.81271715391245891
4.3579393730922753
2.85118031437872377
1.61429364250920138
1.09311291483713924
1.03145429789472276
1.27732805849302911
1.98833892725749384
3.26086925050871557
4.88664300454392997
6.82920994702677309
9.58128793687443903
13.4824471500353908
17.3782789937074469
16.2151113362401702
15.1912165147073033
16.476964399576481
19.7697077210937167
22.954744005759359
25.1278897919400031
1.21591541102711087
2.21449625001513972
3.47023824950284565
5.18709407165378789
7.68549691323495665
10.780521564381969
13.6780332131751372
11.5186406202196885
12.0953240664947543
16.3658760711934406
2.52662060169028502
3.82934213708178195
5.91932029269859328
8.68889528260332256
9.85037858064587724
7.0547249646801653
9.89327417882524429
15.1006851599880534
4.39617393693017089
6.64250750550030311
6.03296176631592118
3.95607598211125477
85.4653659160266272
162.141587104859269
261.01271743660817
320.561040713509556
333.88266127166105
327.68050047224034
283.269817119948243
231.814619022459397
199.282712857223828
189.539923201695331
191.682366070562608
200.259229086823552
212.915929327526896
226.121232348850896
242.411166408566316
258.691375000178027
280.197619646059024
300.418648439048127
313.632533504002311
311.887085443590422
298.79787822845492
281.261914040261672
261.9529059234643
251.015973835458084
249.39130379811246
250.711722324934811
236.040591549003409
228.903860706138801
232.739545204780342
237.629838039386385
239.102407418922297
252.411435801635832
292.353865257079178
392.457479739614598
654.002296142686077
1171.48940745307368
1742.98295798285722
1951.67812656268416
45.9945688583731709
52.7937047817157676
105.033349124536429
160.422819914797884
202.267430193381585
210.064238024673472
170.555847309398871
123.550997281962339
94.2241312901547587
84.8865436078500153
85.0435267828724477
89.5353584814994576
97.6965825878160388
109.423324216564566
124.050880261823664
132.194150336833786
155.156955550522696
179.03108014532063
194.956366625987158
191.911150942643047
178.182821945988792
160.418042812154539
136.80929006720379
128.570143816177477
129.232288702905436
137.393667279836592
112.902728004592774
108.209696486830325
115.582951846499924
120.824658414580426
123.07196990436239
127.500324884218855
144.068955849336362
184.402049385680272
334.776320217184775
806.916563889168174
1518.88417811397085
1865.54874073890392
36.8109854658099849
24.4183649000190215
56.6690547353626783
104.666633793117796
150.902709083877227
154.988981587589564
120.325175779706626
80.871490901898369
57.6246436775089279
48.7812863177514728
47.9406060770936762
49.3214509299973045
51.0764976061198723
54.9474483325378458
57.1456383774721743
51.1420298326078893
64.7221669148603951
89.9675151603757399
108.993635698126525
106.816346227942631
95.1757875750814577
80.4202154023543585
63.0802027148299942
57.4582739891170107
58.1370649603192717
65.8333446403867129
54.0558818047723975
53.599290605187818
58.7067278319988759
64.0718007464754038
71.3474205690346395
75.9216601812236291
88.8543568161169333
110.954185426851922
163.165390235170605
384.382706857645985
1092.98230525489134
1701.69046741570082
28.1261395478212535
20.1904684725038805
49.1570460652310572
89.5467099345427329
122.480293893040042
126.852436824941549
96.799755021087023
64.1782798548176032
45.8256568009051648
38.1673448611252368
36.50970143213857
36.5761023718152884
37.2024656792351323
37.023392294587822
36.9848544828770827
39.6901104248953942
48.2949993847432069
61.5376877450963349
70.6685286339478296
69.4988974525238206
63.2227326649172525
54.8709856579544635
49.5866140676385356
46.7656645444917771
46.5254765428829415
46.7544487039283396
49.5089027920245641
51.7954225720101462
55.137456620197419
59.7143982758362455
65.34951486697598
73.2075946938018944
84.2881219667632848
99.6480900402971912
125.763950116370268
216.872169906771603
676.308385341687426
1433.28384984360582
21.507988924740765
16.9136987798575795
34.0485640250273178
72.9971491005907183
101.032963522642007
94.3748145135863297
66.2905384243204594
40.976180044927105
28.67943378539848
24.785736629973826
25.0957902039562519
26.1840646714708605
28.5922786166270519
31.59573837586208
36.2875886750559999
43.4257514103852174
52.4430069654877116
61.8284689916441366
67.7391002698227851
67.434656933067501
61.725009881269429
53.2163115386211487
47.5055939523490238
44.8104783327500726
44.7114820173356691
45.6426431634639371
47.6722435940174307
50.3507508695541404
53.6245372536269116
57.9357220917089748
63.660092710472
71.3263764830764728
82.2278384859212679
97.6411943483838627
115.414840376216347
153.675855471850838
438.792492214276876
1163.39045351318691
15.1567185402614388
12.2057853642172649
18.5928854173576639
46.9789540728967623
76.7376837098489801
61.6369076038819728
37.8550132467448037
21.9744544898716683
14.6258976476803841
13.3275765296219113
14.7456117099328807
16.7582152999133278
20.2988894996482934
25.8042307036761045
33.2490154706314485
41.0693244797492696
51.7615557646303515
61.2002630360762936
67.0456684502575655
64.8443493020191681
55.7365281994848516
47.1731756087717002
43.0715653175321265
41.7066805990251197
42.3765240339353539
44.1211262483658686
46.4586734947967983
48.9690266075781082
52.0778913244269432
56.1200810325962181
61.61632754917715
69.0901496883136303
79.768951443705717
96.5210437603749085
113.18939787270358
124.396832626637192
326.438073453620007
919.326350555073532
11.5952816781607879
7.1232016657464321
8.45424652957597544
13.2521682277007642
49.0680464784242716
35.0093785422814534
19.9580238200601592
12.5659936251729558
9.9308556095439009
10.2296092150111324
11.631555543391535
13.2316839858593625
15.5816673864181325
20.1825506255351712
28.0939698038789913
35.9825240000483717
48.7948295416026099
59.030519259861741
58.7671534840919705
53.8653138913472489
46.3822902234442935
39.9797864973597541
37.399119355741135
37.2335177711977821
38.7592368085017682
41.2743542423191627
43.9545160712652958
45.9068630114811995
48.5739474561554303
52.6641280071694737
58.3057745738581019
65.705585515473885
76.4061491852435495
93.4399600908563883
111.01021643719622
109.100653700986982
261.905370383661534
708.535243836758582
9.57045992738049733
2.23038701455139332
5.3378012757150799
-0.858796035778368605
26.8498345715651823
18.2525621852818318
11.0501734976064263
8.14050798202563186
7.88312361778570825
9.02602814302837331
10.750852383787505
12.4775190024978748
14.8395363091383281
19.1565092473177359
26.4271521558231086
34.1230402409820641
43.0989129651427874
50.2748862954859348
48.2525590666972022
42.4962992716417602
36.4551164671303809
33.0710691811070348
32.5251639049989976
33.0487891404202614
34.5649796105837908
36.6671487348453695
38.7529517681526983
40.4692028924251161
42.2980670450938661
45.7779046536527119
51.5114704418951277
59.5184066405611105
71.0453653063483017
88.2820351738086231
105.573748289391759
108.194456698051056
210.216937799699508
541.256052094761117
9.36366357286665618
0.0174961905531691997
5.2888195287833355
3.3091747847854549
13.3867866224530871
9.97211582304009525
6.8086463628099736
5.83241864584792946
6.3799767881552123
7.75698761621913757
9.57481934969630899
11.350357061107772
13.782118265884737
18.4646106802037089
25.8649379842705649
32.5616938265709734
38.4435434987444395
40.4863787908471124
37.851212109012792
33.0373787867442843
29.8112372130527632
28.8154863466196502
29.4334801868411731
30.6551467684652614
32.2295756394321344
33.8189065936186424
35.1986751686665258
36.6175951993653825
38.142072988303994
40.1433628985233355
44.3490125770120756
52.1294928654675331
64.1011846916525343
82.2565211770665314
98.5815372250475122
113.559841091256118
186.020681354777935
431.993861563901532
11.092782040257184
1.03048319591810866
1.70633131047840436
5.93971610072014755
6.74541080955043526
5.88561298638417618
4.47507524106003096
4.26205643348975549
4.97712076576385076
6.33879600250487663
8.0610128426496459
9.87199258232406507
12.2911552777320612
17.0794578717140269
23.8753386367900404
29.0707015533921975
31.9204131671843889
31.0880007240655978
29.1179400689734464
26.553336183546584
26.3176401496614076
26.8369552708050776
28.2641306911197816
14.023776456574204
5.15719057879826437
-1.2034314034513045
2.74639860028841554
4.45566045401518807
3.65287478369434515
2.89286457203053526
2.95696728784288165
3.650645078878616
4.89065717925013566
6.41860446051584876
8.16907818350950521
10.4224018092903705
14.8054602524570864
20.5743285574248524
24.596018473625854
24.892463577435322
23.2535731503217136
22.5730270165929596
23.0361065092314021
24.4476443965559653
25.9548409947740382
17.6814684961116271
12.3713638252141607
2.32347692450379384
-0.134423762628230747
2.87668157566439664
2.22807838769002986
1.74842661659941068
1.89851500875121504
2.47959740519295968
3.55126510104620108
4.87461247910157258
6.41290109377576734
8.42065542790578192
12.2386559251720222
16.8338305334451093
19.5246538845942261
18.3872249564902432
17.2445214155409161
17.9575263389228681
21.5501745908279325
23.9631097522685579
26.0485368306642648
21.7064385838430809
15.9925695639347225
4.20963241789831955
0.827229979877975197
2.01112855674160018
1.28977324466064225
0.946760345526552083
1.10888328548286386
1.56272314627106179
2.48393823720852236
3.51362733442066766
4.69640100664216043
6.41621194226812186
9.77735212483363192
13.3920292767989828
14.7176774298010216
12.3301556033132904
12.0370425171505886
14.8849626911024089
21.3196496864555876
24.8199245027917712
26.3838281486898829
1.72275286995762089
2.46278036316812665
3.20064408644450449
4.53111444933552043
7.49308069464387216
10.4321470836841446
10.0927945048019634
6.42886964068810585
7.72223797751686192
11.9780210212407425
2.21929627359827597
3.09701528048262897
5.3924889024655549
7.87633257184681845
6.09902458313701956
2.31536447436681669
4.33346298508198657
8.95402484731405934
3.64563381448045476
5.60176507938034973
3.20173950964020193
0.62296848808968619
84.8038242911626838
106.601369087228676
153.88107783194755
240.532259541139695
294.888190844196856
307.091088909199584
264.561813974254505
209.115727496402599
174.232865700399515
161.802967662958508
158.026679073232913
163.185906569454033
175.148066660559635
196.69732912502414
216.818752112197103
234.696805930071491
251.685870001954527
266.297204561495164
283.89164277759204
294.478669117338541
288.957396432432347
270.226667086705106
254.919338632583134
249.570728266806441
248.183027928784043
234.788657730643905
227.615989259657113
231.523382877652608
236.230332975239548
236.700775410469163
244.965391993604896
270.385309398130119
325.604863951993593
455.261557918937058
781.822674267437833
1341.05444474214642
1849.28306648866737
1997.61673982887692
52.5155741408661498
51.5191759880248199
69.0943206088702908
118.870580752430712
170.022285637826144
198.296146651613782
165.580837017032536
118.512749988884494
88.2460203463050448
75.9583650492277798
69.8656998922480881
69.0560338916250913
74.1094718488012489
89.314763647651489
102.882394659354361
117.059035978109335
132.315481757885294
142.423735377316177
161.986718593184861
175.593870026824874
165.085905035958319
143.04521376413831
128.122446762134899
125.555676251638772
131.493007035703727
110.667087711187008
105.744983727091778
112.558459861840305
117.836207033850798
119.88063827813545
122.567060981133494
137.315317084545597
159.431069297971618
214.799797251584494
439.408181627756449
994.697243511824922
1659.4122469674312
1911.3008146571874
48.1826340563256679
42.1486871648041728
58.4181948930831041
96.8190322144204742
137.107259649068936
146.980085637255257
120.891930339724638
84.4021471873447098
59.7812643858378436
48.4719286640787459
44.0777028452707782
41.5952755700607497
42.8857099971219355
49.0570865584414975
55.6749664942054068
63.1547085587662238
69.6339815650346594
72.8917784635421668
86.9427754309988643
96.7089554518947523
85.2505380985459169
68.1841566897052189
56.9283316156781538
54.485247827763466
60.4407651525394414
51.5967306615973058
51.0083165755600731
55.644954165221364
60.9356459771553816
67.9619080094390569
73.5599058672661101
86.3442680366383399
104.402415169244023
134.915164298282434
220.02711748585503
539.506474258141452
1291.25059037984784
1784.63160541890079
43.7453899905924004
38.1318637620124434
45.9025400278965421
77.2783626863652984
116.627478022542718
124.318885035699552
101.023386995685115
69.148435566389054
47.7241500994504833
38.8007104340223776
35.4197275904677582
33.6664006641925937
34.2346256393052499
38.0716830451528025
43.705334293422041
49.6461019683866596
56.7849424052545686
65.7227378713738233
72.4897302328189141
70.1991463273032679
62.027056117053661
51.7303727165245135
45.9582258344525698
44.1617162593259636
44.2487918513413305
46.6202834939952453
48.6440274384425067
51.9078485066819226
56.4090033971622233
61.8005887002548988
70.1419572656595562
81.9404549416118329
99.1783874400081658
123.109763866838918
167.940015298859606
324.931865049800081
898.116086996650665
1560.97475057516249
37.5764729826639154
32.2631249963368916
29.6865362326912461
59.2538481949339797
95.3113404012978265
95.8102148252661721
71.858868389361902
45.4022008539521664
30.0019373424512672
24.8257482370803686
24.1291861945945882
24.6520963436337937
26.3172896367526512
30.007929100209882
37.2644667346929168
46.5974315860199653
58.8008455956156411
71.8818578319966548
78.5171958832096379
73.0200035185629019
60.0246595108828629
47.6507401727055182
42.0244050691001547
41.0072443916464024
41.9957937009371278
44.0668541907158016
46.7661227338481922
50.0899845326629531
54.362481698836767
59.7377592121457468
67.3689705658091782
78.5591384398821191
95.9432242526943213
122.158529204441706
158.678916830292337
247.580379912512853
646.123758738201218
1316.25723280271791
30.1848634874234207
23.3099720502607148
12.8984095755677224
36.3184513675558875
73.375429911354388
64.7706414276353684
41.2381585832268058
23.6517994142719417
15.8136544421329717
13.5559342696623375
13.9150891680457285
15.1154273760768412
17.5783623948238272
22.3744325688776229
31.0078678188899843
42.6324825484303389
60.1135786186932464
77.0991473175054551
82.8159884361307519
70.9647885999249155
53.9970687449892353
42.4190405173298828
38.4620598081061047
38.313867927664063
39.8676678141743679
42.00730740046167
44.7254806546931789
48.0341788718280682
51.7837909215717502
56.5519269528581816
63.2266380720219558
73.213307564005305
89.9612002187562751
119.838357413919837
159.291748614119683
219.351472613974295
533.030117050380568
1090.15586526353309
24.0132901772192113
15.483593068008803
3.73883593660188041
6.30246438043742785
47.5721834716832959
37.2080844763891605
20.6045654144983814
12.8737406626365036
10.502194603550338
10.5578361103350318
11.1641510380841673
11.4917289712780875
13.3316763041758453
17.8757210475196118
25.994122205344766
37.7380770232543199
58.1465351132562489
72.9181865976398171
72.7411280042206556
62.1303715064915991
47.5313499342732655
38.4983766287519131
35.9620059847756011
35.7442073967318024
36.9059333077078477
38.7512003130522089
41.0422482638638755
44.4156222764104385
48.1265451777330782
52.3010472143546821
57.8448637371787768
66.2201276608535494
81.1127711791312009
109.730872418428305
156.531634437404449
209.425942745115719
476.36279243816341
892.859643920655003
19.5246936038805359
8.80786569040638057
1.06118637925220938
-13.02085522708051
24.9224810651390669
19.107592389635272
11.3193998327811016
8.43118307550653512
8.20513071135696848
9.25226000149957173
10.1749989865409844
10.5254003583852445
11.9965689503212012
16.3824940718231993
24.3321984410047989
35.3706876015641782
51.5129555650468447
63.0204998980768991
60.5044975269306775
51.5680562505728943
41.0595142929407473
35.1894566713009311
33.5273891280764147
32.9202145783647495
33.3883915696341091
34.1748795771456813
35.6341533270036734
38.1748296961915585
41.5397967051753199
45.7559548930636169
50.7502735670812797
58.0993632744779518
71.112448572256227
94.891812588733174
142.010520156153802
208.676232720000655
415.285059619826143
725.261859976751225
16.7915630688305697
4.65514439850442407
4.7446560094934469
-7.35479095217010581
11.4262304652288833
10.1469401105660317
6.96700668128245226
5.99631045276029973
6.55055415382889805
7.84301016202005119
8.78040747390852161
9.19879248244190428
11.0099341227617593
15.6202948754152242
22.8316313286411585
31.7189966345539318
42.3884886431970358
47.8643812999409164
46.6676897319785553
41.8698665523860214
36.0935628048947592
31.9536689532257441
30.9285274609528145
30.7449859458948112
31.2308421452001568
32.0133490158896379
33.1332325972612622
34.6722276508381384
36.7912546463964603
39.8899929483958573
44.1305086966248439
50.6922110528051064
61.8448048538721338
81.5105572474206923
119.264705184855586
200.916750992481838
364.752102922820484
592.396726397951284
16.5916364825501965
6.00109810460825699
6.86587577056317855
1.26598326155858842
5.1392873038481639
5.72069257179921298
4.50258733915583242
4.30312695152162927
5.00205256567503476
6.12576068514120831
7.02087106939719785
7.26275382654074164
9.39527450537086217
14.1201980398799449
19.28341707650101
24.4350509018274948
30.8430070201349089
33.355569656677396
34.4700540587203648
33.4209674905127372
30.8948823335739959
28.8367133864558163
28.9620817625969309
18.3582449061500235
11.0423918509606764
1.70713975611622004
1.35585052163864361
3.48838731657234646
3.42689653216949264
2.88348468716459871
2.97298417666100923
3.62777003494936601
4.56614310922899058
5.21230709250592206
5.22562580014759703
7.41391782976564695
11.7557557284384018
14.3374799987377077
16.6157947096673411
19.5508220106054225
21.9437859950322931
24.7957476782087696
26.3132535030094772
26.6393431540351742
27.5981804021372881
20.8761274496137688
18.1527996262727171
2.71769950715150799
-1.68285317682671121
2.17320676845676797
2.06616746417395802
1.75563735257363396
1.9349914715462424
2.47538816335489598
3.28692781403259859
3.70358150230412519
3.48417348483012113
5.17921428303400866
8.97806650209999546
10.3931875110819831
10.5423518759605379
10.2107310725237497
13.1666000111759161
16.7532186529791787
20.6936006298771886
24.1341692482267405
27.9973129000739007
25.4552013024480672
21.9070341975294127
5.72665160018397046
-1.02969809420253711
1.39088178440099819
1.1762108884842255
0.973459928673494179
1.17143358897627103
1.6000281989329781
2.30457687522964605
2.49051032172560749
2.07262906144042702
3.17033142968388759
6.29283750592448321
7.68046832157045678
6.56067209079932923
3.69316485334936573
6.46605375704714902
10.2826737258617484
16.2351103508924552
22.0633452736023798
27.8217203149346766
1.60118273380891152
1.62715289346063496
1.1711617141655184
1.84776043797292999
4.30760847089032328
5.84446668056274454
3.89714232827163798
0.709162429887033596
2.37917108237235908
5.13428952003000205
0.679387196124926263
1.1282080064556661
3.03470730328012284
4.38943003343837379
2.00396455750355784
0.470254623489456236
0.738677338176009002
1.78527218395030118
2.03990426744529429
2.96902075197203708
0.753955654096269967
0.284817327737578729
101.334347810741008
92.2040048072563394
113.310958109448734
174.445164404601513
264.355429531773552
299.625148105184167
250.752835863713955
190.567876520140885
155.450952719402693
140.5794000490597
137.837814190011954
139.121741274042904
144.518057726881921
157.684546315235167
180.786518497118493
210.341119975684421
232.050894320270118
247.165678099631322
260.149597340241371
264.499238275729454
263.777635563467527
259.831795731094076
259.645488852863423
257.272684661483368
245.50564365879373
236.153744396380489
237.032976543326981
242.037113227495325
241.513734008332477
249.319535556664789
270.430214345921115
307.628690254581443
391.111015424588174
588.56447932430433
982.67094319720627
1546.89222356002256
1946.90664820443976
2044.88361621149397
71.9344541574865133
63.5332959957475651
66.2866407397920199
103.528659200747924
172.251622351962908
219.424674239559067
172.515358255992453
111.845129504038454
77.708989213570959
63.7533904410388601
60.8727469912765784
60.1476252230493529
60.4663648606095876
65.2424134854355771
79.0710040092613298
100.843515974506147
116.54158304024466
127.52936858350634
137.283384146168061
133.063898801831755
128.859393822471617
126.015559576749638
128.159144728131764
128.063159564604973
115.46073652613984
107.752505058145289
111.382731567148738
116.628652307937443
115.959636803866999
119.130998344922205
130.828929141182897
147.965932657302744
185.190251242617762
304.627727133687642
640.111046702899216
1254.79655596089538
1795.85772536232776
1965.96565564511411
72.4920221203389161
60.7433534548212037
58.9720802544221456
88.9230206248560648
137.390233161295129
163.461804643474011
131.451017648577761
83.8379388735008035
55.8064000484501008
44.5672056356777091
40.2379584066997822
37.5334901971188017
36.191580751968786
39.091995407392794
46.7787224348787589
58.3960377999409914
67.8310053258990706
73.6194075178618164
75.0194022889034784
67.9060488198630878
60.2677667244183013
55.7041833673297546
55.8963788159313992
57.8479734043648079
55.1505883643480033
53.2371607310232093
55.9836848234530038