/*--------------------------------*- C++ -*----------------------------------*\
| =========                 |                                                 |
| \\      /  F ield         | OpenFOAM: The Open Source CFD Toolbox           |
|  \\    /   O peration     | Version:  2206                                  |
|   \\  /    A nd           | Website:  www.openfoam.com                      |
|    \\/     M anipulation  |                                                 |
\*---------------------------------------------------------------------------*/
FoamFile
{
    version     2.0;
    format      ascii;
    arch        "LSB;label=32;scalar=64";
    class       volScalarField;
    location    "0.0599999999999999978";
    object      alpha.water;
}
// * * * * * * * * * * * * * * * * * * * * * * * * * * * * * * * * * * * * * //

dimensions      [0 0 0 0 0 0 0];

internalField   nonuniform List<scalar> 
29184
(
0.999999999999991451
0.999999999999989342
0.999999999999985123
0.999999999999976019
0.999999999999963363
0.999999999999934497
0.999999999999845679
0.999999999999531486
0.999999999998229527
0.999999999992351007
0.999999999962110864
0.931242350184327883
0.72560618229793783
0.147794507932755448
0.106489191659988117
0.0924014020751523502
0.99999999999997069
0.999999999999970024
0.999999999999963807
0.999999999999959699
0.999999999999947264
0.999999999999973022
0.999999999999715783
0.999999999998252731
0.99999999999235234
0.999999999962111086
0.999999999835261777
0.882055832594165867
0.61546366012485898
0.120604982099336455
0.0907256610571948729
0.0766253645468195632
0.999999999999390488
0.999999999999328093
0.999999999999197309
0.999999999999037104
0.999999999999150568
0.999999999998348654
0.999999999995237365
0.999999999977088772
0.999999999901718506
0.999999999566281383
0.999999998340393104
0.838532871148828018
0.420642903283711067
0.099477159382735561
0.0776783389312520473
0.0613783241850975672
0.999999999995005551
0.999999999994482858
0.999999999993514077
0.999999999992786881
0.999999999989880317
0.999999999981640464
0.99999999993789046
0.999999999783751425
0.999999999187295208
0.999999996867620311
0.999999988979789034
0.814137333422111809
0.303539872396099863
0.0822257943343250447
0.0634580349294821822
0.0472669911870301912
0.999999999974430009
0.999999999970074382
0.999999999960808239
0.999999999953174235
0.999999999915004878
0.999999999842415055
0.999999999585133637
0.999999998541269308
0.999999995216974025
0.999999983946267768
0.999999948018694296
0.788569718848045498
0.2220286054411717
0.0659690399836567604
0.0502470343545784182
0.0384099620336535372
0.999999999846267529
0.999999999822471342
0.999999999756647551
0.999999999711239207
0.999999999462508171
0.99999999902310277
0.999999997550209185
0.999999992843072727
0.99999997760988113
0.999999934266121882
0.999999803943758536
0.743508788423659972
0.147269800618767321
0.0523550314774332559
0.0407814344261738099
0.0319886590982617833
0.999999999136483853
0.999999999025101172
0.999999998673666179
0.999999998491411524
0.999999997207915658
0.999999995153193821
0.999999988211028423
0.999999968866315925
0.999999913983146582
0.999999770952222367
0.999999368819524559
0.682933488041883363
0.0854535372784315933
0.0406608379455958707
0.0307116802471822034
0.0265272470272307596
0.999999995801367891
0.999999995355851046
0.999999993735558812
0.999999993193730896
0.999999987474211371
0.999999979421235308
0.999999951503029338
0.999999881757827058
0.999999705544097006
0.999999299178201406
0.999998199990940417
0.642017347930463167
0.0507096362962732167
0.0298604036375129112
0.0215073326572674285
0.0233946285222330838
0.999999981832107032
0.999999980270706912
0.999999973642915929
0.999999972706089757
0.999999949928120913
0.999999922485386716
0.999999822754830126
0.999999598738846585
0.999999089481203307
0.999998048262709327
0.999995331623231065
0.590644625640246002
0.0362426220177615097
0.0209617823927204169
0.0150649101181732498
0.0163044070972331485
0.999999928590676324
0.999999923784214984
0.999999899173818152
0.999999900681615594
0.999999817768092436
0.999999735051633865
0.999999409967670672
0.999998756047097093
0.999997410622486704
0.999994971162845192
0.999988766509461113
0.551022936903799332
0.0248254366345263405
0.0152610096857112749
0.0112573119571397137
0.00969806839223670038
0.999999741215997551
0.99999972824251615
0.999999644017344647
0.99999966687717845
0.999999386459711537
0.999999164322545653
0.99999817896246701
0.999996419503538125
0.999993126554682532
0.999987844791699443
0.9999744999376039
0.579483655351965554
0.0166156841196262867
0.0119937525911131063
0.00911271176408094512
0.00686713076237443695
0.999999124660627015
0.999999094518088882
0.999998825354831089
0.999998957129622723
0.999998064586597568
0.999997537008249227
0.999994721480168991
0.999990315359441495
0.999982769243323411
0.999972131691884814
0.999944640015111963
0.548955938662186282
0.0102729402866526699
0.0078346537901835718
0.0074747778400650576
0.00594760649351845985
0.999997208137796134
0.999997152469556672
0.999996340945465079
0.999996922403127542
0.999994223854873132
0.999993151804367097
0.999985486586048689
0.999975150588244488
0.999958825063098189
0.999938844177321928
0.999883786399968999
0.387515150526385854
0.00595361335781140633
0.00545287607898556088
0.00558956967166519998
0.00840304599951342476
0.999991537031440392
0.99999148273909344
0.999989155223001025
0.999991371834908938
0.999983564678485037
0.999981900466301643
0.99996184514659725
0.999939057214430549
0.999905495846332815
0.99987058187278699
0.999762160796468513
0.367174475782881204
0.00419739660755300784
0.00529176474272189876
0.00474989263499010078
0.00809940661497437694
0.999975462691323091
0.999975618118507326
0.99996922386816256
0.999976879903229254
0.999955160128393361
0.999954292953646018
0.999903555724331872
0.999856395825811539
0.999790508703567227
0.999734371683127954
0.999522956464389045
0.407741752810790503
0.00495571646848546547
0.00444273005917772065
0.00547251964946246679
0.00786131576926332384
0.999931575418134155
0.999932836068657016
0.999915871801945411
0.999940438230825346
0.999881946720538095
0.999888974154618637
0.999763937075251796
0.999672710636677841
0.999548922938303663
0.999468577520801427
0.999059658962669239
0.348748814555302933
0.00305786997423445478
0.00300133642972019417
0.00533391812514597864
0.0068307331183893958
0.999999999999993783
0.999999999999992339
0.99999999999999023
0.999999999999985123
0.999999999999974132
0.99999999999994782
0.999999999999860334
0.999999999999582001
0.999999999998534839
0.999999999994130029
0.999999999969575892
0.925940735536613047
0.742538828887048363
0.149690951910821934
0.105763823618260949
0.0885761143722609834
0.999999999999988565
0.999999999999985123
0.99999999999997935
0.99999999999997824
0.999999999999958922
0.999999999999984013
0.999999999999735101
0.999999999998556155
0.999999999994131139
0.999999999969576114
0.999999999857169808
0.876526553457418145
0.634983457724745293
0.122074798583446248
0.0867488830782575521
0.0720319748658272002
0.999999999999630629
0.999999999999477751
0.999999999999296563
0.999999999999276579
0.999999999999242717
0.999999999998401945
0.999999999995775379
0.999999999981335819
0.999999999925880068
0.99999999964346109
0.999999998529684575
0.826251444063949125
0.42599959645800678
0.0982963753832799825
0.075238450086105621
0.0573568213515487368
0.999999999996632916
0.999999999995362709
0.999999999994114042
0.9999999999934992
0.999999999991003197
0.9999999999819702
0.999999999946110774
0.99999999982478649
0.999999999388947014
0.999999997394413143
0.999999990122318216
0.809460564965320151
0.286762371797835924
0.0808477191040452708
0.0610478258681002653
0.0425115536923788978
0.999999999982848498
0.999999999973226861
0.999999999967803088
0.999999999951860286
0.999999999925310412
0.999999999842959175
0.999999999641573822
0.999999998824409486
0.999999996418334591
0.999999986478684377
0.999999952783391932
0.783989096547174302
0.208072451461232599
0.0647994984161296417
0.0464515620248439481
0.031613931209214699
0.999999999903031345
0.999999999839074727
0.999999999805037509
0.999999999690310171
0.999999999534714856
0.999999999011884189
0.999999997910819616
0.999999994242190438
0.999999983311684826
0.99999994389327207
0.999999819632707565
0.745945465690144305
0.141869257937380561
0.0508364230928022298
0.0363852697421111343
0.0257516407017188802
0.999999999473764833
0.999999999107254123
0.999999998944501423
0.999999998344890395
0.999999997624913539
0.999999995028387656
0.999999990085931989
0.999999975033892818
0.999999936145704371
0.99999980165367286
0.999999413009153182
0.688669601273658172
0.0858349906325351492
0.0393475863009017379
0.0294228195122489475
0.0225684174864866603
0.999999997442052813
0.999999995702815059
0.999999995050855017
0.999999992350960487
0.999999989556505708
0.999999978548829827
0.999999959877252653
0.999999905414454604
0.999999782576049157
0.999999383314980284
0.999998310672901347
0.622299971045255473
0.0478926084176786795
0.0302795311564219086
0.0212210524412556438
0.0170913074476401021
0.999999988931139061
0.999999981563803431
0.999999979335477462
0.999999968521372962
0.99999995919959106
0.999999917672945937
0.999999856078355842
0.999999679589246182
0.999999331817491122
0.999998251409783157
0.999995585583048352
0.579382752038358873
0.0349997266106427882
0.0218863448546254766
0.0145138266143915833
0.0157181719127982913
0.999999956486888553
0.999999928066779509
0.999999921609540987
0.999999882217542213
0.999999855316592745
0.999999712400686747
0.999999531128499153
0.999999007210959023
0.999998113096483787
0.999995400159968351
0.999989316928619143
0.508243211050745991
0.0247244216905320516
0.016308356541316911
0.0120018765203253729
0.00956826224353346695
0.999999842275459905
0.999999740986027508
0.9999997256916483
0.999999593041009494
0.99999952679289561
0.999999069751008385
0.999998588269164213
0.999997138774933014
0.999995030391116035
0.999988610328721328
0.999975670192387645
0.449456884216590136
0.0172674887946267577
0.0135838790256110654
0.0102143182980243188
0.00828568257727146408
0.999999466418549643
0.999999128758795486
0.999999103518148358
0.999998685063181569
0.999998554281526397
0.999997177942116511
0.999996021754032571
0.999992233256694174
0.99998764908022475
0.999973149672121808
0.999947132084123003
0.59201842732656984
0.0136372334077265768
0.0111752313578383569
0.00840444035296819547
0.00678876212632975509
0.999998298159330501
0.999997234882980868
0.99999723647018901
0.999995987646811302
0.999995834003172268
0.999991891813980294
0.999989406724598795
0.999979946707742373
0.999970766345776529
0.999939214017260714
0.999889087586571135
0.862382414363067284
0.0241177554441574515
0.00723532500452148987
0.00765819595199950139
0.00926256550796888956
0.99999484131324623
0.999991654833161547
0.999991902458602366
0.999988348027135987
0.999988588516818377
0.999977764383610079
0.999973141494564399
0.999950357273138746
0.999933630649989746
0.999866953605676123
0.999773915165647065
0.518893541517205681
0.0991867404067764968
0.00532043539515833844
0.00711610865208168325
0.00911762827316620582
0.999985045869713596
0.999975899344125896
0.999977310736254399
0.999967596284964788
0.999970102805205263
0.999941454604867386
0.999934795560311063
0.999881496825864691
0.9998547785707248
0.999716519752042898
0.999548736206414934
0.314604763069103344
0.00638973962008182548
0.0043663964651029525
0.00788508231727561015
0.00892102206937068695
0.99995832736166923
0.99993302198252576
0.999938878908589013
0.999913190259364759
0.999924613191452982
0.999851098378652492
0.999847537935062758
0.999725342783425175
0.999692090839151892
0.99940892503928036
0.999111797671134783
0.245022596910188961
0.00423795982574643598
0.0019800430950532846
0.00675438921533656408
0.00850083025541629664
0.999999999999996114
0.999999999999994227
0.999999999999992339
0.99999999999999023
0.999999999999980127
0.999999999999946043
0.99999999999985445
0.999999999999582001
0.999999999998590239
0.999999999994058197
0.999999999969915399
0.926447504161310498
0.768267117654476861
0.153369035759186312
0.106339643899242553
0.0898165875882580567
0.999999999999982903
0.999999999999986233
0.999999999999988898
0.999999999999984457
0.999999999999958256
0.999999999999972244
0.999999999999737099
0.999999999998610889
0.999999999994059641
0.999999999969915621
0.999999999871487466
0.893992265753435267
0.723171960073376363
0.150260010841163444
0.0866556110028341986
0.0658542068139010284
0.999999999999468869
0.999999999999429234
0.999999999999364952
0.99999999999927125
0.999999999999118927
0.999999999998376521
0.99999999999575806
0.99999999998229927
0.999999999923185445
0.999999999648615745
0.99999999871884615
0.875723865353172481
0.431029837400988769
0.0997120063064976803
0.0702786884725780242
0.051225356870884392
0.999999999995487832
0.999999999995103472
0.999999999994477307
0.999999999993604005
0.999999999989437893
0.999999999982154497
0.999999999946435403
0.99999999983318788
0.999999999360252967
0.999999997427530429
0.999999991339030725
0.839839265637010612
0.314739932053340499
0.0782543348088187152
0.0598484562824239952
0.0436536778474744536
0.999999999977310927
0.99999999997469402
0.999999999966858066
0.999999999951619145
0.999999999911266091
0.999999999846719723
0.999999999645888815
0.999999998883573271
0.999999996203147168
0.999999986630737525
0.999999957942541262
0.803478116573313805
0.23400572292608296
0.0650890661456881292
0.0481914908496050565
0.0234398862562321536
0.999999999864133349
0.999999999851561627
0.999999999793709016
0.999999999689425545
0.999999999438934029
0.999999999054354438
0.999999997922073725
0.999999994555410332
0.999999982071317572
0.999999944454391776
0.999999836463917768
0.741203389898672294
0.152129694714796093
0.0530152727884635674
0.033730160351804761
0.0237197885720538335
0.999999999236284465
0.999999999185540833
0.999999998874272711
0.999999998345290297
0.999999997090233572
0.999999995337133463
0.999999990081032908
0.999999976425169468
0.999999930318733576
0.999999803886701066
0.999999459249435785
0.655170781998858032
0.0813837005665508928
0.0394822089296984202
0.0284022753781121851
0.0183918974421255384
0.999999996284045345
0.99999999612386048
0.999999994674744652
0.999999992380225189
0.999999986984061007
0.999999980329318028
0.999999959550264439
0.999999910922281021
0.99999975875408964
0.99999939198146448
0.999998421420318806
0.580378499705481943
0.0502060673863246321
0.0321810814049352037
0.0247654250066009149
0.0194039313099178823
0.999999983907055912
0.999999983549619165
0.999999977559232089
0.999999968773749415
0.999999948195397836
0.999999926410375162
0.999999853446471576
0.99999969937725286
0.999999245199836406
0.999998285371461959
0.999995830908058547
0.525702448871676387
0.0390256078412239762
0.0256044979968680433
0.0188546116062307256
0.0150035900699571172
0.999999936689216717
0.999999936497636854
0.999999914005639923
0.999999883754680186
0.999999812570302904
0.999999750225588402
0.999999516436482994
0.999999073269508765
0.99999782609083876
0.99999552786178203
0.999989832558481839
0.479857026348417703
0.0286616105520037766
0.0196396387466850758
0.0138653355874759597
0.0139003548370823377
0.99999977036097909
0.999999773725037677
0.999999695824356438
0.999999600636880426
0.999999373609914421
0.999999217778171356
0.999998520516594214
0.9999973479402684
0.999994148620551249
0.999989057164575534
0.999976706827990891
0.451332682772317251
0.0216618571186574065
0.0157336555693343184
0.0120500117156665497
0.0176733060925204771
0.999999222603529248
0.999999246619088122
0.999998994534969099
0.999998717792960568
0.999998041542772276
0.999997710895128233
0.999995747411672076
0.999992867841885347
0.999985105113390449
0.999974600657081547
0.999949083326350574
0.539794430026149796
0.0183541217794804326
0.0133915269769825564
0.0104333682467194315
0.0137752488547710807
0.999997518574649025
0.999997632507110823
0.999996863008668524
0.999996114801974589
0.999994215545798815
0.999993679519617928
0.999988401247572156
0.999981805824692094
0.999963798872619769
0.999943601131249471
0.99989239983919731
0.746987406448369029
0.0160953248816719935
0.0104790548362909269
0.00883435634100949649
0.00690104713254685413
0.999992472318574577
0.999992923082986485
0.999990689763638141
0.999988803567734452
0.999983739293369034
0.999983413235087992
0.999969744609932043
0.999955646637069928
0.99991537597806146
0.999879423562324066
0.999778606735929776
0.508176153402095987
0.0540017886735343344
0.00669746058026053984
0.00802345173009559598
0.00465582474147572742
0.99997815855268346
0.999979752621813489
0.999973548083894159
0.999969124528664155
0.999956223014894174
0.999958379899577809
0.999924092648220242
0.999896158462918905
0.999808732105290976
0.999750369108897696
0.999553935066603616
0.334097661998331796
0.0123320301480745933
0.00642413804718615106
0.00722591915241935657
0.00891043515957613136
0.999939052112015392
0.999944252585378557
0.999927628371507282
0.999918043677813673
0.9998864295067591
0.999899514477821993
0.999815556268526695
0.99976493634098218
0.999579632128311246
0.999497151223128544
0.999114335619126215
0.257366952354416756
0.00880115477436904312
0.00332961594360163884
0.00261070651300289881
0.00717352466781957798
0.999999999999996114
0.999999999999996114
0.999999999999994005
0.999999999999991784
0.999999999999982681
0.999999999999948486
0.999999999999838574
0.999999999999514722
0.999999999998481659
0.999999999994532818
0.999999999972967069
0.92569412976590626
0.725099868655981639
0.144612922612268657
0.0997067049394185917
0.087857591899572568
0.999999999999991229
0.999999999999989786
0.999999999999988454
0.999999999999987343
0.99999999999996092
0.999999999999978129
0.999999999999682809
0.99999999999849809
0.999999999994533817
0.999999999972967291
0.999999999882025481
0.901046814927624728
0.758638425590184795
0.13110788347575314
0.0852718864895143647
0.0668155754308005084
0.999999999999649836
0.999999999999504507
0.999999999999341194
0.99999999999939404
0.999999999999146905
0.999999999998267719
0.999999999994971356
0.999999999981282084
0.99999999993231925
0.999999999683339302
0.999999998828469461
0.8977691105015424
0.509543215163228869
0.100964666708560011
0.0699611974028329642
0.0432212082363542388
0.999999999996754374
0.999999999995540678
0.999999999994418687
0.999999999993621547
0.999999999989305666
0.999999999974804932
0.999999999941005746
0.999999999826147068
0.999999999443850318
0.999999997677335828
0.999999992085849554
0.873825242004200087
0.342277003633822186
0.0808294645167295933
0.0549235577471793579
0.0291068481842174064
0.999999999983194554
0.99999999997458322
0.99999999997046185
0.999999999951149965
0.999999999913628979
0.999999999807286377
0.99999999953813945
0.999999998873248641
0.999999996749599829
0.999999987879448327
0.999999961339574028
0.830736002724311584
0.269442218614124762
0.0650178966702732314
0.0449412516490535693
0.0341017008319431658
0.999999999907122405
0.999999999847701826
0.999999999819296104
0.99999999968391573
0.999999999455527533
0.999999998819763869
0.999999997540183982
0.999999994109154744
0.999999984970008859
0.999999949270742317
0.999999848089932586
0.740849487428416942
0.176964691866406704
0.0520175379944132071
0.0395155586469135567
0.0221346905423391999
0.99999999949916174
0.999999999154315367
0.999999999022295638
0.999999998299545112
0.999999997186439837
0.999999994047257923
0.999999988515277494
0.999999975809996222
0.999999940714366931
0.999999819245594779
0.999999491281239994
0.662837793760255534
0.0856641861263245097
0.0440888803306194732
0.0309658565022997642
0.02221228708375627
0.999999997564304355
0.999999995925685559
0.999999995415968623
0.999999992086664014
0.999999987466823059
0.999999974259778046
0.99999995355449145
0.999999910214676269
0.999999800939662009
0.999999427429491106
0.999998494496765922
0.625338170161805817
0.057455478871390249
0.0353450180843940739
0.0257498875898357314
0.017483223276608291
0.999999989454960492
0.999999982502086882
0.999999980862777638
0.999999967192977346
0.999999950367392199
0.999999901075938502
0.999999833546385886
0.999999700241531952
0.999999388168979042
0.999998365383267251
0.999995966361028499
0.620815282658027878
0.0461945592798304258
0.0297174234531484907
0.0218143042312868955
0.0152912831051566622
0.999999958525379595
0.999999931653893448
0.999999927408620981
0.999999876325419979
0.999999821507043141
0.99999965422174375
0.999999458442393796
0.999999085821419387
0.999998264636572154
0.999995656924408616
0.999989997415758669
0.61431487555163522
0.0386913581890938954
0.0248040550854611228
0.0188625890113595027
0.00959791168008355434
0.999999849585162415
0.999999753633970423
0.999999745998639167
0.999999569450081616
0.999999407679437402
0.999998881857143251
0.999998372290650694
0.999997411046998574
0.999995402286984358
0.999989137776158943
0.999976644195081366
0.561149887383611823
0.0327622416574672726
0.020145598957056414
0.0148410708067247439
0.0142541081392547377
0.999999490943834779
0.999999170378381708
0.99999916992620419
0.999998598343119327
0.999998163272377782
0.999996612213816971
0.999995423298643438
0.999993104226180485
0.99998848960970399
0.999974155020097233
0.999947985715622045
0.456660066013311106
0.0279252963986732841
0.0159976386614456845
0.0122546827291599783
0.0103664742229225317
0.999998376137610556
0.999997363689474561
0.999997440772097956
0.999995690922164671
0.99999462609203893
0.999990288717460984
0.999987846465381969
0.999982552502358013
0.99997251637627449
0.99994097043643293
0.999888475996474235
0.402735388170012254
0.0222973949682769845
0.0132007170525239356
0.0103804534195035825
0.00622681270628923974
0.999995078776959145
0.999992032223919969
0.999992497489778032
0.999987394017734177
0.999985050019892574
0.999973455262250677
0.999969286697468762
0.999957724806076031
0.999936954564895286
0.999869663634668004
0.999768406865447212
0.362293791571047796
0.0186755602002481383
0.0106099581839612309
0.0075138720327017159
0.0030958410226376281
0.999985745821700744
0.999976950670848019
0.999978957626607823
0.99996469540721411
0.999960217078167291
0.999930402322195766
0.999925743186787064
0.999901333342686383
0.999860347450827858
0.999720347782012353
0.999533131626840987
0.387945713622720734
0.0157439362359965696
0.00984045241405808596
0.00733423406362826262
0.00761945590126369542
0.999960350355543204
0.999935811244729078
0.99994321673856823
0.999904789658191073
0.999898108291172871
0.999823834523427712
0.999827226265634694
0.999776532520173289
0.999699440622863422
0.999414029198223308
0.999083025048542739
0.365684199455660497
0.0117531234775041064
0.00757616529106560667
0.00362477219634749822
0.0085697942285273155
0.999999999999996114
0.999999999999994005
0.999999999999993783
0.999999999999990674
0.999999999999982458
0.999999999999948708
0.99999999999985334
0.999999999999567013
0.999999999998516187
0.999999999993801181
0.999999999968766207
0.921295511572988168
0.696896307223666689
0.136303184636337227
0.0937248951516306272
0.0833903027725028945
0.999999999999969802
0.999999999999981681
0.999999999999992228
0.999999999999986566
0.999999999999961364
0.999999999999978906
0.999999999999723554
0.999999999998523958
0.999999999993801403
0.999999999968766429
0.999999999864310873
0.880740870000561782
0.655832443926530839
0.113276182438861811
0.0804662035540678333
0.0652486597638339688
0.999999999999280575
0.999999999999360956
0.999999999999419464
0.999999999999280353
0.999999999999128697
0.999999999998329558
0.999999999995555999
0.999999999981067145
0.999999999919908511
0.999999999637064985
0.999999998655461408
0.867002238143083748
0.440819299599366832
0.0954663691373912049
0.0669655801541503282
0.0494457928736903446
0.999999999994159783
0.999999999994816369
0.999999999994789057
0.999999999994037436
0.99999999998943534
0.999999999981361798
0.999999999943021134
0.999999999822146268
0.999999999333809342
0.999999997351624592
0.999999991060722238
0.826951603485706732
0.35980771520177468
0.0796362099351234781
0.0554255922967659478
0.0299495941114998471
0.999999999968862907
0.999999999976290299
0.999999999967010944
0.999999999953942065
0.999999999910638371
0.999999999839049081
0.999999999622886659
0.999999998802980627
0.999999996051239348
0.99999998625835218
0.999999957199711798
0.785135254949491657
0.244988530377672986
0.0652909863490481052
0.0440481277336262772
0.0181489450853506949
0.999999999810705198
0.999999999866078015
0.999999999791660321
0.999999999705209142
0.99999999943178719
0.999999999000919848
0.999999997786028105
0.999999994153358607
0.999999981332171162
0.999999942874206238
0.999999834827324907
0.752659056799631632
0.152302648997084761
0.0525960642793868866
0.0355887791302020445
0.0273505951629117693
0.999999998935304779
0.999999999277654705
0.999999998856269223
0.999999998434527582
0.999999997035709742
0.999999995044156265
0.999999989407012957
0.999999974638025702
0.999999927471991956
0.999999797569033899
0.999999454631851803
0.721905172075974377
0.107776455803688137
0.0427105923436109577
0.0323281944655273434
0.0210259535707018295
0.999999994815547688
0.999999996621916631
0.999999994553329552
0.999999992818707106
0.999999986653712147
0.999999978968511227
0.999999956694110903
0.999999903900601561
0.999999748726154936
0.9999993695461592
0.999998401407034665
0.696087553117763602
0.0828309658813195515
0.0369653433148642435
0.0264105502299584183
0.0179665364933090793
0.999999977532351814
0.999999985916071865
0.999999976875755037
0.999999970700618634
0.999999946503769443
0.999999920850749291
0.999999842741795653
0.999999674613234135
0.99999921261406377
0.999998212763656857
0.999995729038674064
0.623986254155096343
0.0599928470662447408
0.0302579220675722599
0.0211891592520579777
0.0140329099748003894
0.999999911555252474
0.999999946604689161
0.999999910664971958
0.999999891473090763
0.999999804952992122
0.999999729779706081
0.999999480039537647
0.999998993380996959
0.999997727941327574
0.999995312066694897
0.999989383780413021
0.539922766340493965
0.0420827329215698945
0.0246653274700927121
0.0168376992431707763
0.0156994797899704976
0.99999967896453712
0.999999813173839458
0.999999681268921803
0.999999629267943835
0.999999342662221791
0.999999148908478075
0.99999840632800685
0.999997108514729005
0.999993874228905066
0.999988461147860441
0.999975087860039302
0.518700666052642645
0.0355399076126496766
0.019813611268354285
0.0154721768527094454
0.0183078354533156989
0.999998912291742426
0.999999389266548633
0.999998936812761308
0.999998817310447485
0.999997926014563054
0.999997495714768037
0.999995412570919395
0.999992194440791904
0.999984392026491364
0.999973055317109782
0.999944252190188898
0.51879299303010129
0.0297251368000198239
0.0167037896078255574
0.0126442567479728846
0.0166390196249840729
0.999996524965645395
0.99999811586547338
0.999996651462806696
0.999996441697076799
0.999993813791448805
0.999993049881480633
0.999987473036730412
0.999980014569372133
0.999962076512923459
0.999939822157065894
0.999880151801746164
0.515067050117334002
0.0254215405106606625
0.0143222319570650847
0.0107900560503678914
0.0122608435593029585
0.999989449611109249
0.999994471192559242
0.99998996630949033
0.99998982608895548
0.999982424105655299
0.999981673768998824
0.999967286352540841
0.999951111651012248
0.999911493003987184
0.999870664969987111
0.999750866898410862
0.42384719297080109
0.0207744559681507304
0.0119955885261014486
0.00837161400416619808
0.00876733987425007064
0.999969369358862714
0.999984473012516806
0.99997121759017138
0.999972183140372062
0.999952144916363972
0.999953825528536067
0.999917822546748658
0.999885177540420944
0.999800532714731016
0.999731224578052413
0.999497033842400961
0.400779994302489229
0.015097924730941379
0.00897529311395226653
0.00521029854394523036
0.00391876853499915651
0.99991450225185996
0.999958048766854013
0.999920503578695663
0.999926842085444245
0.99987435420661086
0.999888141671869457
0.999799973300089073
0.999739349657796317
0.999563276105226439
0.999457157126929951
0.999007221049072025
0.35484356514161175
0.0112451122339068989
0.00418276488393936295
0.00290681226148115437
0.0037153208895545132
0.999999999999995115
0.999999999999995337
0.999999999999995781
0.999999999999992117
0.999999999999973577
0.999999999999934497
0.999999999999827471
0.999999999999479527
0.999999999998251621
0.999999999993127942
0.999999999965929254
0.924482100642081805
0.705192461412907923
0.133366518592987537
0.0911535091801118358
0.0810084051989554133
0.999999999999980238
0.999999999999967915
0.999999999999957812
0.99999999999997069
0.999999999999948819
0.999999999999980904
0.999999999999660605
0.999999999998255729
0.999999999993127942
0.999999999965929476
0.99999999984531085
0.866784931564249295
0.617836472491207656
0.111985306505025528
0.0787553423454026014
0.0675367075387924287
0.999999999999436673
0.999999999999109601
0.999999999998828937
0.999999999998913536
0.999999999999017009
0.999999999998023026
0.999999999994619193
0.999999999977803755
0.999999999912961179
0.999999999605986289
0.999999998439773718
0.836385724828855759
0.435096553695461463
0.0941963920564492657
0.0677392540765871243
0.0513262691970500298
0.9999999999952498
0.999999999992996047
0.999999999991254884
0.99999999999160083
0.999999999988206989
0.99999999997757727
0.999999999930848871
0.999999999793118044
0.99999999928146166
0.999999997134573215
0.999999989675736556
0.807861259028222034
0.337405089862968743
0.0799815196950362517
0.0546698261104936328
0.021644695146413314
0.999999999975811349
0.999999999952863927
0.999999999951218799
0.999999999938142592
0.999999999901910241
0.999999999805509687
0.999999999538465412
0.999999998616056596
0.999999995779361828
0.999999985192545182
0.999999951063450743
0.780669816740338751
0.23886609343101281
0.0657127408921633072
0.0378340069795563422
0.0279807795808738116
0.999999999854669586
0.999999999705186715
0.999999999701012388
0.99999999960686603
0.999999999386841254
0.999999998782901356
0.999999997298400167
0.999999993253163133
0.999999980241212061
0.999999938706286895
0.999999813249332403
0.744262460271636783
0.153688106796570606
0.049186544493981299