/*--------------------------------*- C++ -*----------------------------------*\
| =========                 |                                                 |
| \\      /  F ield         | OpenFOAM: The Open Source CFD Toolbox           |
|  \\    /   O peration     | Version:  2206                                  |
|   \\  /    A nd           | Website:  www.openfoam.com                      |
|    \\/     M anipulation  |                                                 |
\*---------------------------------------------------------------------------*/
FoamFile
{
    version     2.0;
    format      ascii;
    arch        "LSB;label=32;scalar=64";
    class       volVectorField;
    location    "0.510000000000000231";
    object      faceTraction;
}
// * * * * * * * * * * * * * * * * * * * * * * * * * * * * * * * * * * * * * //

dimensions      [1 -1 -2 0 0 0 0];

internalField   uniform (0 0 0);

boundaryField
{
    inlet
    {
        type            calculated;
        value           nonuniform List<vector> 0();
    }
    outlet
    {
        type            calculated;
        value           uniform (0 0 0);
    }
    top
    {
        type            calculated;
        value           nonuniform List<vector> 0();
    }
    bottom
    {
        type            calculated;
        value           uniform (0 0 0);
    }
    left
    {
        type            calculated;
        value           uniform (0 0 0);
    }
    symmetry
    {
        type            symmetryPlane;
    }
    interface
    {
        type            calculated;
        value           nonuniform List<vector> 
104
(
(-29.7723101636062566 0.0163275253780509402 0.00437656203888867577)
(3.22863935769217614 -0.00408705245543520158 0.00474913309478234343)
(-0.945759166940861817 -0.000137508027421689159 3.47130854538952192e-05)
(-1.6139754825680912 -2.43921214557034992e-05 5.50125816177612307e-06)
(-1.97583597549132417 -3.21791746819067209e-05 -1.51206423068752933e-07)
(-2.16307599239485127 -5.5608291354482241e-05 -1.69114720864462267e-05)
(-2.19680212198729308 -3.37219382206425117e-05 -3.19793879854921633e-05)
(-2.13580640587150938 -2.53731086832920608e-05 -2.42654344484129974e-05)
(-2.05466064007964722 -2.48381195866625923e-05 -2.37054141386415736e-05)
(-1.96146998543109929 -2.40816723665944368e-05 -2.39122629241537495e-05)
(-1.85597933500196111 -2.32575144397480513e-05 -2.34767850207995048e-05)
(-1.73592185995436021 -2.10256467698126566e-05 -2.35176613527450889e-05)
(-1.60946029674694135 -1.02813430540854561e-05 -2.33355655453757308e-05)
(-15.1018726175654585 -0.000589471581846672129 0.00493431293499705954)
(-1.74072172383225587 -4.56913475400535799e-05 -1.99756500917039059e-05)
(-2.05218191541313022 -4.9984537533606935e-05 -9.20775933340738551e-05)
(-2.16906314627233909 -4.25125401544731676e-05 -6.49267013311439519e-05)
(-2.23039597499410869 -3.10479972162517297e-05 -4.40712767942413617e-05)
(-2.22744024764862703 -2.50311946564382847e-05 -2.99593135960619929e-05)
(-2.15731982912130649 -2.28918515828803214e-05 -2.30423243459467314e-05)
(-2.07827814655187204 -2.27063246227079048e-05 -2.2217085825391696e-05)
(-1.99130745644915264 -2.24595426489563718e-05 -2.07744654847721616e-05)
(-1.89891038965547465 -2.23150664941901274e-05 -2.02664873260666012e-05)
(-1.80067993519752667 -2.35230560356035643e-05 -2.05844174503613487e-05)
(-1.69738992700608793 -2.48725578899658104e-05 -2.1907120341019507e-05)
(-1.59562368719568637 -2.30093134828185198e-05 -2.4963768674926595e-05)
(-4.30563863111874667 -0.000216578016563252437 0.00053239261248682712)
(-2.65294722621423551 9.58095804153221959e-06 0.000103401683330898845)
(-2.36553480855726006 2.23000454867719968e-06 -3.52037192845688654e-05)
(-2.34319101023868814 -1.72239919243444719e-05 -2.95570625410371465e-05)
(-2.28699404905917447 -1.94437100867165215e-05 -2.61897628225221928e-05)
(-2.21649728416910108 -1.86715353128794676e-05 -2.45948108027437368e-05)
(-2.13598499749991788 -1.89393593794718257e-05 -2.24210234398910949e-05)
(-2.05204112834273156 -1.96504918354350567e-05 -2.09692054770759214e-05)
(-1.96889337318213831 -2.07021514560710524e-05 -2.02295531297320185e-05)
(-1.8884348985552899 -2.19923588373698512e-05 -2.00139711796001524e-05)
(-1.8107378428431089 -2.46978734134298416e-05 -2.05042388891097696e-05)
(-1.73861015393818885 -2.86136945364888598e-05 -2.22313373496421559e-05)
(-1.68457721206745781 -3.49495379527125209e-05 -2.50113929520043586e-05)
(-3.3081350774724827 -9.54481654307230329e-05 0.000596389103700439307)
(-2.75348789411543038 1.57390728102900301e-05 1.45904931979463968e-05)
(-2.56404451536854161 3.80676996253651851e-06 -2.36167302430045461e-05)
(-2.42461886167457852 -4.90496768530365033e-06 -2.66686084946360629e-05)
(-2.31497246381336375 -1.12458232883870523e-05 -2.3285958808009264e-05)
(-2.21511174204898431 -1.33620269297219735e-05 -2.02730634495510506e-05)
(-2.12171717070577248 -1.50386840340997254e-05 -1.82482902668792637e-05)
(-2.0339002798941852 -1.68297469733326866e-05 -1.65582798761086267e-05)
(-1.95416055739941941 -1.85180380834498979e-05 -1.5269124744793287e-05)
(-1.88339717129809281 -2.10606373254331017e-05 -1.42037721758503362e-05)
(-1.8205417926630576 -2.53424860635035492e-05 -1.36220858464585643e-05)
(-1.77189386937087079 -3.00029263509074793e-05 -1.31340817507910579e-05)
(-1.75713595403759548 -3.7757915522043645e-05 -1.14844565551425404e-05)
(-3.66489663316057745 -0.00016060890231558666 0.000934758892744340093)
(-2.65363862590583865 2.25206412654897799e-05 3.27712584426138556e-05)
(-2.5006510054282689 -1.33166966099407569e-06 -9.21094722105630595e-06)
(-2.38503944914645638 -6.95766528287934847e-06 -1.99566287170783145e-05)
(-2.28521678876393741 -9.41448465524402443e-06 -2.07195998680326808e-05)
(-2.18971190105495372 -1.08043979535872318e-05 -1.91434122205715569e-05)
(-2.09692462209560793 -1.18817516439012663e-05 -1.7088243200005029e-05)
(-2.00748769280257866 -1.34298487100455488e-05 -1.50549452083312637e-05)
(-1.92372531639962907 -1.50560425897872144e-05 -1.30639115338622649e-05)
(-1.84674475148711581 -1.70971097378708653e-05 -1.08760056980156157e-05)
(-1.77533822399005903 -1.96069146559380913e-05 -8.12449813537692331e-06)
(-1.71054114553846759 -2.37755606002005029e-05 -4.29689112763257098e-06)
(-1.67845145497081871 -2.66359632716380376e-05 2.28448673638361154e-06)
(-3.39685333006059142 -6.08911152435636242e-05 0.000438043254308295227)
(-2.61585174267865117 3.67302984086985987e-05 9.46909180826166198e-05)
(-2.4127877534446025 1.14910779467184011e-05 -5.90834289519661593e-06)
(-2.32940719472034408 2.13336913763027673e-06 -2.35481725753996651e-05)
(-2.25658244320980872 -2.40707324318625389e-06 -2.33069473483999899e-05)
(-2.17381429683568994 -4.74911891733137696e-06 -2.00039848581419366e-05)
(-2.08295738632554572 -6.44016180699098739e-06 -1.63307005142656415e-05)
(-1.98767339153998579 -8.02974345793019036e-06 -1.3272527054768699e-05)
(-1.88955574556799477 -9.65055012841239399e-06 -1.06065239868140262e-05)
(-1.78945581950007049 -1.07447148977343292e-05 -8.00063958049458011e-06)
(-1.68588319319117974 -1.08390487490650949e-05 -5.29983254096162332e-06)
(-1.57514992454512281 -8.86135200049655605e-06 -1.48487229164491895e-06)
(-1.45693049497703808 -9.77769802595749995e-06 7.86502161019447402e-06)
(-3.43346246933524046 -6.2611689250971243e-06 0.00015104846393802635)
(-2.80059193425158481 5.98454907145106252e-05 9.10191754895551424e-05)
(-2.460035931617083 4.17507443859110164e-05 -4.13040719484901747e-06)
(-2.3454480863099394 2.21451079481997384e-05 -2.53640449119850601e-05)
(-2.2842914712995479 1.50524145672147831e-05 -2.57004701959087802e-05)
(-2.20253281460414652 8.06370531622983963e-06 -2.11549510314173287e-05)
(-2.10277477722715878 2.4314925347688651e-06 -1.59894480895977537e-05)
(-1.9931467537070704 -1.37304593914967529e-06 -1.16908020659362824e-05)
(-1.87659782838176503 -3.60351160604710123e-06 -8.7567509118515223e-06)
(-1.75226200085789485 -3.87026763178863768e-06 -6.20822627444722443e-06)
(-1.61630941701215858 -9.94381367853544536e-07 -3.1261926286900974e-06)
(-1.45531466411000077 2.72770976342078109e-06 1.62478609253604887e-08)
(-1.25123138796211131 1.2649381281736439e-05 8.67960061033846946e-06)
(-3.74292078953008689 2.31887758778962281e-05 4.22417005421125576e-05)
(-3.22444002877245017 6.6609922120168023e-05 3.00866770041508425e-05)
(-2.77896272926749033 6.70206231150838284e-05 2.32320793684268135e-06)
(-2.53513080439260907 5.49643443476853258e-05 -8.54301931626182589e-06)
(-2.38953034627833061 4.07989459851104813e-05 -1.08355279554762703e-05)
(-2.272195344737721 2.70534318724492676e-05 -9.52903292226111013e-06)
(-2.15061421306665368 1.36588787541570149e-05 -6.93900746188334677e-06)
(-2.02195356537938409 4.5407014574973897e-06 -4.76564113459768178e-06)
(-1.89032627388013763 1.51431754499267964e-07 -3.34577525259115723e-06)
(-1.75429871676929205 7.30961219322200219e-07 -2.09076123883718635e-06)
(-1.60765880332448718 1.69938779418548176e-06 -8.74686289005684429e-07)
(-1.43206863417910557 9.60900204559543911e-06 1.21729289122626719e-06)
(-1.19677476875670696 2.11047881114963178e-05 5.00364793005573377e-06)
)
;
    }
    procBoundary3to0
    {
        type            processor;
        value           uniform (0 0 0);
    }
    procBoundary3to1
    {
        type            processor;
        value           uniform (0 0 0);
    }
    procBoundary3to2
    {
        type            processor;
        value           uniform (0 0 0);
    }
}


// ************************************************************************* //
