/*--------------------------------*- C++ -*----------------------------------*\
| =========                 |                                                 |
| \\      /  F ield         | OpenFOAM: The Open Source CFD Toolbox           |
|  \\    /   O peration     | Version:  2206                                  |
|   \\  /    A nd           | Website:  www.openfoam.com                      |
|    \\/     M anipulation  |                                                 |
\*---------------------------------------------------------------------------*/
FoamFile
{
    version     2.0;
    format      ascii;
    arch        "LSB;label=32;scalar=64";
    class       volScalarField;
    location    "0.510000000000000231";
    object      p_rgh;
}
// * * * * * * * * * * * * * * * * * * * * * * * * * * * * * * * * * * * * * //

dimensions      [1 -1 -2 0 0 0 0];

internalField   nonuniform List<scalar> 
7236
(
70.003463595757708
148.723970657494107
214.710005990223067
230.081943615012278
234.149645465646302
243.258110989387774
254.122570697508962
263.51145008829053
272.863345242620312
281.785564415461465
287.940512500912348
293.462891599619468
297.155162520265037
300.122377731658219
299.609926147248871
295.097860162701409
289.883686740646283
282.861646805206703
277.593215727579775
273.157695261410083
271.669068097123954
266.175357236973809
250.773000362732859
240.39455786664837
236.766696752261026
233.244265979652369
225.287219620295474
218.051004280493657
204.933905914144276
185.88598176050499
187.442618786198125
189.862238592581889
168.098664115661336
153.220752822282009
182.502148407406537
366.785375062065157
997.146461987508246
1978.44900901132496
37.1574136537355884
83.1421440647592647
131.874938037137554
139.395630999410884
157.52358504892851
171.661631714779901
186.109439058160291
203.480794277558971
226.446265687628141
246.154953922093938
258.712820480298944
270.879413191592164
278.868502084019042
283.927512248854896
281.208739034711641
276.375177596526783
271.86036961468551
262.842454349371621
261.05115887328418
256.615679754871451
257.371009482993145
257.140905076618992
227.836705190092573
211.03882126234393
213.286608022967044
221.709114946353282
198.719207329359648
193.828456920396007
173.986681898217597
127.938056028908846
151.216416008913995
168.747081591577427
103.279247690007125
66.8779161444294914
70.3775411281100105
125.361619295178087
586.530531147804254
1719.884210387135
17.6772364276289906
14.5501852309605511
31.7741300744509694
35.0386949269479615
34.7202187650203129
41.2233192191343036
60.6136129341280565
80.2354779037051316
101.365047775607763
108.172894265837058
111.118487893473045
132.508689883525392
130.840341813766031
140.61662467301278
143.400443594083185
124.925720229727247
127.893565684448433
93.5646516340697616
68.9022952309312018
77.9196682543036587
93.7328037687821336
55.9458524591611095
8.99229016681134929
7.64090120302470943
10.9508993714044891
5.94915777915493482
1.18936845293174365
-0.397288473668896469
-0.597273837566145938
-0.170642954633944494
0.000449707117097393721
0.0225190254315800337
0.626595692449763098
1.06101583354466844
1.47269411972177444
14.7726603011294912
193.389159416179609
1136.09339089468472
2.40223230907830265
8.18462163576016799
15.772047420155177
17.9614378968029946
16.9242174050615191
15.3484756697011537
14.019572861151353
13.439473849983429
13.1711638690674899
13.3335775367510774
13.03217964810894
12.0397087331844155
10.8291043974863861
9.1908710048756781
7.55105716902076374
6.52081551399178849
5.41773242912677055
4.88280597957775964
4.57930759375986796
4.20775002452045044
4.01018773786149207
4.03149979507466139
3.78957577801098999
2.73785941530225507
2.03674043804383098
1.57606407531355486
0.994253926488587236
0.818469717165464017
0.74833310583423307
0.796797199693633718
0.834173696503040851
0.852522818670895854
0.868991624560379705
1.00263760331142349
1.31327713834318804
3.69122738182894317
41.1252914588253304
648.892545107921592
2.69462644170175913
5.51953532067484343
8.68005010188753978
8.97039435605102575
8.10529042660222387
7.3057507604757479
6.97246897031033797
7.09728534512558262
7.28007126483596689
7.28779168018225665
6.94882191209403377
6.28815461652171237
5.52441052021453682
4.65399227088363343
3.75046456627915026
3.06588820232806247
2.68656619515366701
2.61633167773038178
2.68019259473382698
2.7893551333144031
2.75926269740861185
2.65497512781099632
2.71425048415001724
2.10267953983558531
1.60200459171877041
1.32887692827072623
1.18716610952396584
1.09584632599410958
1.04271868298059722
1.0409898838373679
1.05295250629527426
1.02418284730787001
0.959999427712691866
0.910415389466277425
1.0965486739001491
2.03362243593143077
13.4398646906287329
471.745557996039452
3.82089509394003723
4.53283123670950072
5.28140472469773314
5.0669830988812441
4.58935212900519751
4.22145819866219973
4.13255239313604772
4.30781772300790511
4.51853427805926078
4.5249234690726059
4.11694482022694608
3.59451654314418656
3.04522018673954076
2.55821314734402394
2.18442806599006722
1.88723566634447715
1.71663061320585664
1.74560071903601277
1.88818365586983306
2.00896061048910424
2.00406431685541442
2.0685156355260319
1.77967937869971737
1.42693199256672743
1.25379422584270528
1.1279650274145776
1.07766913139011589
1.06426065305422979
1.03502294204697809
1.05631819062043886
1.03502260772244314
1.05845661738137764
0.960500296656882191
0.835820894085814392
0.914803669506873973
1.43896433447228711
4.20584342746442363
425.022306073509867
3.93955496559571516
4.25240691098860335
4.38386002907857808
4.23316815112331657
3.9036458942310488
3.55803728633105187
3.32003856181685197
3.23488204540660318
3.1779014754539876
3.09184265839093353
2.76227273985907384
2.40148796561302058
2.06278846955229911
1.82972219644098333
1.70182601249705856
1.59996219323404398
1.51136504243071568
1.49455098544059162
1.53106784214556679
1.59990878913711376
1.57805157965055676
1.52686513881508357
1.41612384189482809
1.18406293625783676
1.08456123992462694
1.05097100008096822
1.03531164750953097
1.04344362033556193
1.04521738335930015
1.00437026332666735
0.950609487926403096
0.904556805641613559
0.842561032361966666
0.808429012681732284
0.777830180530324822
1.19199417372249772
4.09787005482795763
364.856545169951232
4.07007271917126179
4.17922088113968826
4.41050188095653173
4.30548125218158528
3.95029241333956671
3.5749229766723003
3.25318142814658806
2.99704215128364115
2.7803830642825984
2.56116028136279628
2.33602605603339963
2.14337720142263022
1.96479924981656051
1.81816878817350314
1.68250745891620923
1.57456297827335634
1.48268136617761748
1.41198707094744602
1.3882392862823123
1.45280953146934899
1.45730119107551892
1.32588760862677701
1.24811330372629925
1.13839720308663095
1.08162437986887361
1.02513807039015337
0.988698070687611175
0.975873515199793595
0.969617103223000543
0.971868613426596473
0.96060155645949119
0.919654366155097547
0.850625011566888967
0.807955783424502028
0.708429488351099423
1.12767094847588112
10.0470020217216174
196.24603157975767
4.17053180163033499
4.25234879799044752
4.58719990395345434
4.37575555137530792
3.95090758190841473
3.54569999268852998
3.21245178105768847
2.9077396346378408
2.65666353994599325
2.43724705670378627
2.2338410062342855
2.06099742525062846
1.91113600009411422
1.77808150578331947
1.66025496411096185
1.55529668570671697
1.46258322250886352
1.38433486899302971
1.35876423257078072
1.33748112354885307
1.26918176126275939
1.18578003781595731
1.09561280294708596
1.03448221352703817
1.00245158061944672
0.986474786708901874
0.979815240519624098
0.980253135390197872
0.984686489074713567
0.98834841389072714
0.982841977954454493
0.949405988384389943
0.879437227589988657
0.819555584807066806
0.695213839198880246
1.37024484463178298
27.1542157508346875
304.422362722170647
4.17996002625069973
4.2445894734337104
4.64802972519765767
4.50385106422342485
3.93761897765191993
3.47012992841095436
3.12772929161847468
2.8286129495586354
2.57125511394427653
2.36011311063828488
2.17564279078788214
2.01671263569378834
1.87709547716634484
1.75231488609564723
1.64032639581589623
1.53867987671758089
1.44698369558442441
1.36617109134486214
1.29308640369698513
1.21953211017230845
1.15240516394811521
1.09763529611314081
4.09890577649902976
4.19916439410338782
4.889816341551394
4.68536872434667107
3.8786223922060068
3.3427849171400057
3.0049179453096948
2.73516609699612756
2.49723213683728007
2.29815566010152672
2.12733548642889403
1.97758632141233903
1.84486412132208266
1.7258996914266107
1.61868529473654554
1.52119155075629253
1.43280999245603113
1.35270105823329034
1.27954869820047179
1.21275945125770113
1.15476183687078948
1.10726909150638986
3.96160930963636249
4.04860030029885198
5.17235437486307159
6.636230532408808
3.88680370627640404
3.17037470052682258
2.86782394213001712
2.62740908807162876
2.41844826812612856
2.23692777451533775
2.0778089841764964
1.93724777594453634
1.81173287215511558
1.69869434556117871
1.5963180851177825
1.50326670732775347
1.41881626433408004
1.34261297658358281
1.27391345433290248
1.21286453214860734
1.15970573299944402
1.11523830786168876
3.81445307124255972
4.04651003161375211
9.23617826628007776
8.34420843791264133
3.78406108821363096
2.96549500667364763
2.72403814620891094
2.51739103343189408
2.33390518088938848
2.17157896879157875
2.02632322420871658
1.89559703356351994
1.77745113940367427
1.67025881717113034
1.57285838239333375
1.48443941802337909
1.40452186062625883
1.33255603989881721
1.26795243597169183
1.21063515861852466
1.16078943349413333
1.11890585548322408
2.10513915416702124
1.97328254659885083
1.85244824599287927
1.74172438157272591
1.64044946254533341
1.54817378006100137
1.46440016385465421
1.38878342054541837
1.32069603001981073
1.25969965698322306
1.80802969379019207
1.70475807390908729
1.60953579247318435
1.52241634433100415
1.44324333864586674
1.37171623590368852
1.30732795025557613
1.2497676791032486
1.5778146527555037
1.49582433510154611
1.42114176833742811
1.35356746293296326
34.4012705668672893
75.3488842820514009
116.97098965540151
139.86902380040064
142.733571232260971
146.60851219078927
157.871885161703631
173.573908948407137
186.406629138938598
204.561926549405086
218.038965369326775
226.943314987041958
232.545337246110762
236.940798563438449
241.76173703611849
243.441514806032387
240.208203418039233
236.411785893421182
236.343917009954509
233.708996116385066
232.938606307997418
227.597589443986664
219.603256888078249
217.602172481607937
215.884151251054448
202.350490623192826
203.255002355281505
206.548308137431604
191.005224362127422
180.991566779006547
170.484618136522471
163.303666388401183
159.282804269130196
152.741350847587171
160.976738488777471
306.553186010096283
885.483861736102654
1824.055094334263
3.6860207687109785
4.594927357992872
23.8843327828651297
28.2433070685865353
28.8464823427492263
37.8133057016464775
64.0585506690739237
99.5397263869217142
111.761660110607423
153.18494905799497
173.981596415102871
188.922177173646276
198.66801251243686
206.216772941856988
220.819542340685786
230.187615570921025
220.135453672910103
210.676976512705977
219.754045995660647
213.619085790902517
216.994603742879633
201.187308930586227
183.599642081685829
188.443560088870328
198.622148778170441
147.455083109095568
168.837065596735613
195.073999590570253
142.170609953621721
137.944481577828128
113.825310313998173
100.393572078933573
109.019254045649419
88.9018123486901288
50.2844332155046203
75.6798799962161439
500.054235718696191
1554.6102666798779
3.87415952779256578
3.5158243757212615
11.6999674873560071
15.2093120232826031
15.1186941514252524
14.5661215869802074
13.6457523944532859
13.0150775898821855
13.0983762844066369
12.9067814218157473
13.1227793548464877
12.7290187067888088
11.1962586710228944
10.3132450393115604
9.28394933337403749
7.50070656800694913
5.73175817207059346
3.75874407569690794
2.82446486845435762
3.01183113510121991
3.51060814389140141
3.14231116666441013
2.37969642531303904
2.17049426730026296
1.46488764914184522
1.5829224229524006
1.04449658687318703
0.670183365394036668
0.957360827917363211
0.889157895681713328
0.880227888268968695
0.934225360079785405
0.930395884098084713
1.0897612934891121
1.50172946361215809
11.0044903502845486
148.589376852606961
1005.96251720876774
3.92583394674749453
3.81587389580085778
6.76831205344033293
7.92253826006261086
7.3598132747169327
6.79634150547066085
6.55699521219138681
6.59320604062973636
6.92018920609223009
7.09506792794152918
7.12172830582463856
6.79930839023267541
6.04978941465890152
5.19765229886735902
4.51891004064743029
3.78375539076405598
3.10448588177326146
2.55060623658123875
2.24261781596257004
2.33278975047800419
2.51917519801938417
2.59810421987564499
2.28785682804737744
1.86412941809180666
1.54789922346947617
1.28873771925498293
1.18023948445521643
1.07315798776519067
1.08470139339856275
1.07690187043036434
1.06461263709187937
0.959342217324555158
1.00764096352447452
1.0161572238043961
1.33438551020786078
3.3311735065958592
27.4665706523220372
562.510667660023159
4.03587350422020474
4.10399522844315001
4.77731509759636985
4.82182807610460262
4.426229739052431
4.08964586030750787
3.98227749116129726
4.13437488246947549
4.32437103286941582
4.44055460777460542
4.31035146896428767
3.98384722186207929
3.5240937355373525
3.03429814363863448
2.58689947225690409
2.24009196789882692
1.98367841781512122
1.81872338869484151
1.81548560393749958
1.92470279842701841
2.03315317753726399
2.08280894182325538
2.02524210799793769
1.76735486831131161
1.50630468827241204
1.37771363676278713
1.26544644777013549
1.19827466272381677
1.22214731871296789
1.21757874438463221
1.14805997253517567
1.10580552589227743
1.01544794220748535
0.911304704184804026
1.08870178324627664
1.94872123483789639
7.68068611940243162
438.29057070355816
4.10815447164217229
3.96603759253212074
4.17791781919426963
4.12526106050601005
3.89036182543033471
3.59336117097930696
3.3521911281762331
3.2608869077517646
3.18801289809962629
3.1370019117069643
2.9486373367918759
2.66986037920310304
2.37389712664487895
2.08857944239904514
1.84730687353122991
1.68417747824995123
1.58190056351545727
1.52719130166712502
1.54428730702973782
1.60511012989204316
1.66875763855605297
1.72352043711421632
1.67507846330899834
1.62148633261212294
1.44855767863906282
1.28815169085801462
1.19537461768170883
1.16301232015529399
1.14668290978485543
1.24452201874681112
1.20158379306960472
1.05284547177407295
0.869722780557828701
0.82910965944384718
0.900362664195674123
1.41469737498541082
5.70932951999307647
407.108254292119057
4.17242768167920719
4.1388996618878906
4.23306950019508932
4.16033869218502961
3.91054598689936617
3.59622456162632753
3.29014851742158321
3.04720121238668007
2.83989048167508518
2.64948894774382326
2.43101383049784259
2.21897954346218818
2.04092111652104791
1.88463359923320128
1.74795393575829694
1.64552994626444593
1.55129324214768372
1.46994565970909652
1.4282310717008686
1.4231289947908683
1.45134561024503306
1.57422255548716783
1.52588466205740558
1.46590920013086246
1.3677064024922585
1.26842960786007208
1.20804717508037918
1.1261482482785703
1.07451723566497703
1.03915867179913368
1.00570497017376126
0.950186527663551161
0.854517741863551894
0.796174222842144008
0.763482349478614819
1.30045676496678508
8.06089156485374403
381.863041093362369
4.16653040188192225
4.17207479883304089
4.24125891797324339
4.22006389441086238
3.91583975762687375
3.56696928979269279
3.25244554574269795
2.97336919165050029
2.73485003368229007
2.51571058843103268
2.30961168898944669
2.12429432115186545
1.96489409626917544
1.82854133839536925
1.70910620528790602
1.60160819395430098
1.50678692891402122
1.42842593960441278
1.37024745562819916
1.39341008128937105
1.41110383056571598
1.42467684526701532
1.35446312446859296
1.26800574387802101
1.13613850389086535
1.06711874273078133
1.03106084803537157
1.0248326636928875
1.02838512614836564
1.03670770051568484
1.02829578824497592
0.977184684385369762
0.876540819219497669
0.802011020604086133
0.69288273596387584
1.20464013749195509
11.2713205633980849
357.482052853749963
4.11631303221576328
4.13994268410780641
4.29986220969925892
4.32666437062179021
3.93615581263750558
3.52572009172361778
3.19926676105670582
2.90868394753975812
2.66296717080653522
2.44370343544004376
2.24991525113563284
2.07999085205481204
1.93232030712390768
1.80396260372493811
1.68957384477300288
1.58621440495131893
1.49393737010540795
1.41453310320420389
1.34716035444573623
1.29113820820077008
1.2438672162716311
1.17736610485492021
1.11877674300839436
1.07484824648701816
1.04821727151051425
1.03408553487515142
1.02939519548894043
1.03259718980425874
1.04182603074231395
1.05866161708708906
1.08771318854309196
1.06201897121336364
0.939254360132266042
0.825831111831347719
0.680377593165590544
1.1274034302170195
16.6755494576014733
212.615782331566123
4.04287848789308768
4.10694863807435606
4.4626403758510973
4.52579616935890172
3.99105320532218188
3.46659332659130204
3.1147766805415813
2.84045887688136389
2.598327528546168
2.38827997418893911
2.20590822041788703
2.04632472931423592
1.90578157023189787
1.78169331809474785
1.67078326982837777
1.57063504753588368
1.48082905541874887
1.40183153482835121
1.33195249400382165
1.26817385591798182
1.20844679375101594
1.15544089577248688
1.11241670536928727
3.96315290677965359
4.11259262850794638
4.89319721562927157
4.75579447761822571
4.02255304212475018
3.36988421442990393
3.01132315932581784
2.75197745297773499
2.52862296498924088
2.33235005376393456
2.16134209220353757
2.01031437025603887
1.8765096139629176
1.75741469652990623
1.65068193071509417
1.55428250629343601
1.46746492013072394
1.38980032150073907
1.32071449189553825
1.25866572692541934
1.20305068374263335
1.15570045981896308
3.86661100605949404
3.99264188807614584
5.34114360529698651
6.78218535537434697
4.6188320528108493
3.21550026599359162
2.89195820278481008
2.65531591082870078
2.4503442346201223
2.2715329206992414
2.11319630084907573
1.97168620785437798
1.84510570077226466
1.73155049124130245
1.62924519811670465
1.53675175608575421
1.4533894442340487
1.37872922310328616
1.31233275728401089
1.25308449340724648
1.20124958442830043
1.15719686800638533
3.71206517891956045
3.8107414265616435
9.82484291573628887
9.34434652858243631
4.38040324883594678
3.00223837868776933
2.75232306062965026
2.55030843834990684
2.36862401178529325
2.2072183441069031
2.06221000896305506
1.93079566883350573
1.81171120851923662
1.70389918082848446
1.60626829181334285
1.51786814974190842
1.43819739218335041
1.36689326563490909
1.30344537772043334
1.24717266080135025
1.19819427223979202
1.1566275191843256
2.14089705092871663
2.00914062174741792
1.8877251938593167
1.77631266351804551
1.67448856349413577
1.58178698130024453
1.49768083018351628
1.42180060477015036
1.35381058930429465
1.29329652026760122
1.84304448094545892
1.73930231613353814
1.64361837924960486
1.55600797946895297
1.47629092157911335
1.4042385706507996
1.33958498696102768
1.28206613839296013
1.61164567572410045
1.52914863143473956
1.45382116509513093
1.3855774459239163
6.41751020160936303
12.0293755325315388
28.5302775797347294
46.461223667405001
73.5388446658910055
94.7955621676478017
110.039080274943714
117.689769728334085
124.058097940130111
130.840669028043408
139.178843457969748
148.913424139555929
164.24682286429379
178.775670083175896
190.894192701295083
195.659097734462478
197.316546337821393
203.550736251195787
205.880440484428959
203.173866420756127
199.500300218947871
199.644902274161609
198.853820756904781
200.547456139253086
187.69268660549244
183.923831983822879
187.555414607206359
179.229218974085995
176.71236566529609
163.242263741913263
151.198547255344494
147.428866324936735
148.489324997236423
138.806735901950645
142.535412892245319
254.626892583771848
777.081887133660871
1661.7462873897332
4.0917149178222143
5.99532125422649287
10.447055075864661
11.8393792535991889
11.9300422480143489
12.3131069030509153
12.8728850158109864
13.8538384253196476
15.7171218888761466
24.2698444417343104
41.985334234190006
49.231687687418713
78.2861527649999971
111.521136366468639
137.828200247663119
140.519364635884983
137.669831143439694
160.577752359127459
167.799197706779893
158.789756828951596
147.765394035844281
153.608115631379889
157.229502584044923
172.611940286887375
125.220706913191805
131.250759027364495
153.191161382893313
121.418810271303741
135.023352125353426
101.547899628902897
78.270962344270643
81.6815587236464893
95.692023305175411
68.7528907010926957
42.1092565590900776
51.8905896884879994
413.73666492284076
1391.52586332132341
3.8471770062955577
4.2663381560918161
5.92635121708771084
7.00467463507317234
7.0727126220568568
6.94440547451706269
6.89081426104521011
6.78037975210471977
6.8725469447044274
7.2121199004685046
7.48641391664993083
7.61428870939244717
7.07339558303851046
6.47146772727667585
5.87055871753788594
5.11715677501584487
4.34550391923005641
3.55199029705860747
3.09424250270259638
2.9212611098843535
2.87884898905616149
2.85377382993947215
2.89153160798656472
2.55221205689041852
2.56690309518126814
2.00681362414542486
1.59851470249174876
1.71232621083804437
1.38110283204654283
1.3225487724537186
1.2251305026378605
1.17422584317315915
1.08337059043285766
1.24924956495880113
1.53425873234498922
8.40682802905289783
109.626634560346588
887.026370412744086
3.97141326258327787
4.06712162473817074
4.47853829800856662
4.676034996358017
4.42843356167358415
4.15602113874705292
3.98970996868322114
4.03720215254718529
4.19933992457607008
4.38963891188183997
4.49213759041399996
4.41133538959970384
4.0889907830075245
3.62221987455794681
3.09567798379982806
2.67935573253741843
2.3174664907543745
2.02775434147653177
1.90081436963969574
1.87442565110743775
1.93540472103507
1.97669721776381402
1.96826598621428372
1.85548457518813925
1.70641821751894929
1.54902322968365103
1.40331426226697031
1.36197415523452459
1.30114374849555881
1.24676136853129749
1.14385700423257108
1.19313691097840935
1.09745846613333842
1.05527458841453159
1.42222887721267899
3.02477007980972257
21.9562058997801053
539.199757610884035
4.05449160420424537
4.09597643328909822
4.11884513186543533
4.06170410635552415
3.86776707532197328
3.6054389619396261
3.40613399669808281
3.3154635526439451
3.2844992793087493
3.23965452436202206
3.14203078425960758
2.9534408190355621
2.68484878260488724
2.39212014164113684
2.11879160719764048
1.88234603194209771
1.68722493881151347
1.56451232189500677
1.51462686560681981
1.5478405255174339
1.60838202110687778
1.66245867435790773
1.64967078508120579
1.60498791452887768
1.57034526375579353
1.49927181480599869
1.43821941862005209
1.38063482861498832
1.32026454857419528
1.27394097563027664
1.23118890593378127
1.2529071870710391
1.16323621897472429
0.897752629913250333
1.15171522963136641
2.09102688606161147
5.00237287666616393
345.49653046147148
4.09476133068811787
4.12749082056929684
4.13322983642577491
4.07529452875267495
3.87656485562905884
3.60520479567235519
3.32558257341164509
3.10778307752077776
2.93154447511093341
2.7781274490102188
2.59066604725975491
2.36144631856174581
2.1435309926268995
1.95612003251612099
1.80787933359943875
1.68803620619093864
1.58197897518080288
1.4934105035968086
1.43918569395444829
1.43065997202019024
1.44684291230586637
1.47921278343055973
1.54985678144897787
1.54655327827848299
1.50076894060345256
1.4469587254210976
1.37784360543882345
1.3610450130103422
1.38589193090924168
1.30032571588837098
1.1640999754980792
1.00133516477689732
0.863156731625464801
0.80219870630686807
0.919730643625279454
1.48889441466861094
5.24499757865467497
268.634619859991346
4.08835867656783325
4.11631440243814684
4.15173549114955254
4.10438213983413114
3.88418825642695875
3.58813909759118665
3.2951630204199418
3.03501464819217937
2.80497510117520621
2.59608177355850556
2.39636873872027412
2.20730938902426477
2.03637802489467834
1.88371530285682209
1.75322814132792915
1.64461518649820704
1.55049102442823528
1.46900699671583412
1.40493608721555385
1.36796086509050796
1.36608612257395046
1.40188518001456552
1.505521591888769
1.51709891504131433
1.45998886963055252
1.35636711587151115
1.21685757328768207
1.13625339840352213
1.0950531245557602
1.09566551019935421
1.07388664388031807
0.998574860993257429
0.844142380156599259
0.748607663975945692
0.768830110783816023
1.29945219190971328
11.1652847920326685
361.180869944875383
4.05924768598320096
4.0951858867645452
4.18159331688738511
4.16809997016049394
3.90411294945089837
3.56461112917446421
3.25526069383083572
2.97979450609082486
2.73622371466303527
2.51838618832462036
2.32159749695873785
2.14495119584533311
1.98795143618324022
1.85007994768800832
1.73047142153017908
1.62603653720153773
1.53416663756894933
1.45406881898418949
1.38763913789167259
1.33467064876287145
1.29816296700389811
1.28166796562408214
1.25978612664928669
1.19583541783580505
1.13956987147450928
1.10084860462396028
1.08363082161034652
1.08328858193915156
1.09348130199645244
1.10398066706470699
1.10478026345807634
1.10916469640694149
0.897289403951589515
0.782339297378408793
0.694409907860153108
1.24874011096780579
20.1174868718705149
376.478102588544004
4.00949553141852633
4.0647945249079358
4.25465797642998655
4.30525320010340984
3.95072397711086554
3.53503546072812869
3.20014486205354221
2.9246687658536259
2.68233791705103064
2.46691441586028004
2.27645167228889544
2.10891141841258856
1.96068075719727974
1.83001733938562916
1.7148097810250118
1.61291228832054734
1.52230524437280335
1.443123834306554
1.37556945914115625
1.31773500437708391
1.26636229873365935
1.2179989667968778
1.17264671681204113
1.13513781282741189
1.10861760172730217
1.09269046086662613
1.08668586416421165
1.08963336089517449
1.10189132531749734
1.13056960583490973
1.23100532734744417
1.42493220493303796
1.15270435695425033
0.867236548970793497
0.730602041474841535
1.36130154259879754
20.9550091920544617
381.340137282208843
3.94012012560195179
4.0562933567561501
4.44262096354326097
4.54792369213370584
4.04576750799803708
3.48771163867639533
3.12581763721040407
2.8562285292511449
2.62338879995391361
2.41683689698393422
2.23550461012438451
2.07588884103838067
1.93426705302002455
1.80877175086337494
1.69737940087325256
1.5982993281702329
1.5099199409039441
1.43208146399350822
1.36420642939757153
1.30483814662813513
1.25206353989686292
1.20520500847639944
1.16438442968710443
3.85850105964079493
4.03661056070689739
4.88290946634839962
4.83436986130780166
4.12569834196267848
3.4126784297336048
3.03401673358589541
2.77450838954053447
2.55458611587973561
2.3613495944201226
2.1910913783891055
2.039989475634719
1.90538651073344978
1.7853420573867016
1.67814511921667697
1.58229782195777258
1.49666602206158772
1.42083670530008144
1.35388064237621508
1.29521475831001953
1.24397650953680983
1.1994383086892817
3.75725371445978862
3.95134315775471556
5.34980634888146067
6.23493897082350301
4.60788788868573729
3.27191633622944389
2.92051470458854734
2.68294954293621046
2.47868056453385677
2.30077313863713551
2.14323179129206665
2.00166187859728195
1.87435899047433918
1.76002291451641812
1.65727245236651788
1.5649600515259301
1.48231877037313109
1.40895504290967533
1.34417966525749888
1.28735065468421883
1.23803871929309772
1.19567695086906145
3.55267629426512066
3.72269211324957139
8.85827634913053963
10.2888247984471253
5.14459492006744057
3.04714396392118303
2.77715400395065437
2.57896998257410681
2.39750885079065945
2.23672118389031693
2.09231348134147233
1.96079440036662422
1.84112461364056235
1.73271842717462388
1.6346685978986244
1.54624903661134905
1.46691298456674479
1.39627065583253773
1.33394623923288269
1.27930786767379634
1.23197772279533591
1.19162742485342665
2.16982993296570514
2.03888744013045597
1.91753818490829842
1.80577507750251831
1.70352785848119126
1.61046079212453686
1.52621763645420772
1.45041211255232483
1.38274457471516388
1.32290506537199515
1.87252933224142071
1.76865194787745028
1.67269502908959367
1.58479117481411858
1.50486124728009241
1.4327259957372569
1.36819732449858167
1.31104929326753328
1.64056399873450176
1.55783797203815499
1.48226948162870409
1.41385725628339953
6.33665031537978152
5.18425685819986093
7.94963145458252818
10.8344671518422171
21.0554631477906682
37.6426729373753588
53.674724618060587
76.6400417271990477
89.5467308295168323
102.453505403101815
109.635921423599001
109.114354472294906
111.054911201461962
123.979693457470958
131.445416653680468
135.513613000002351
144.817373144468604
153.754646567046308
155.353816455455245
156.425790562928796
163.198583081481956
166.83768758301639
165.416095260958372
159.373981192398674
158.431968502783434
158.592929839932253
151.796228333701634
149.298012192544917
147.591018051656704
139.288510937196975
134.357862531792875
129.795400753822463
124.552696372992415
121.116897443814395
124.158168042316007
213.234689995111751
689.662258572990709
1510.92736172453283
4.85437619745351423
4.26104787213749781
5.31556285546093932
6.41210408375013508
6.58873667999719625
6.65573402562948324
6.69169308102157778
6.42653064381963368
6.60950546503233127
6.77622783603386214
7.19876613175530711
7.90316464838366972
9.36629111951739191
15.3261138399002839
25.8956357378209603
36.192780346340875
59.3756285646692774
68.9808785773524136
66.979342100130026
68.3318491848570204
86.284425514280727
98.1710255062840957
95.3575474984445464
78.6945685345426966
85.4977484492392392
91.3189345818326217
71.1451425995371238
75.2908077386027941
76.6459030673447756
61.253094619897027
59.8228433504561536
55.6992240835654471
48.4942778921546065
45.5923328819531193
31.1230713316192507
32.0695050413931
346.085073765192249
1254.91988636842279
4.03951475158064177
4.12877010229626862
4.22602083168573994
4.5989520781648352
4.54519142387982367
4.40028749276298115
4.23904197775536584
4.07081120997844259
4.08143895137605917
4.25237446071843639
4.38318544175541813
4.48126953163213049
4.62181459338962952
4.67293614776256305
4.23624359632766101
3.85539773566072785
3.32399308314991071
2.95080705081536809
2.70996111396263872
2.5675372891312862
2.40461662417365263
2.34355353176945869
2.34392458911081825
2.39038953762888129