/*--------------------------------*- C++ -*----------------------------------*\
| =========                 |                                                 |
| \\      /  F ield         | OpenFOAM: The Open Source CFD Toolbox           |
|  \\    /   O peration     | Version:  2206                                  |
|   \\  /    A nd           | Website:  www.openfoam.com                      |
|    \\/     M anipulation  |                                                 |
\*---------------------------------------------------------------------------*/
FoamFile
{
    version     2.0;
    format      ascii;
    arch        "LSB;label=32;scalar=64";
    class       surfaceVectorField;
    location    "0.510000000000000231";
    object      Uf;
}
// * * * * * * * * * * * * * * * * * * * * * * * * * * * * * * * * * * * * * //

dimensions      [0 1 -1 0 0 0 0];

internalField   nonuniform List<vector> 
20390
(
(0.556768305963773136 -0.168856878101027563 0.465027387465753006)
(0.53255272655802488 -0.295624784941185714 0.426653447282135834)
(0.21882092664943098 -0.174954819303798415 0.324529146568779459)
(0.710428829615638691 -0.10378848685065159 0.290047808949445651)
(0.925255325325453071 -0.150709265872707804 0.620515039012484171)
(0.933192002676144994 -0.277572794793863709 0.654994018381320653)
(0.602797884438394882 -0.212648935782580151 0.646336651169348353)
(1.00169390235258504 -0.11606699800354707 0.459678102835887337)
(1.17825626814718087 -0.102872094046841889 0.67661395599509877)
(1.16892944923503239 -0.207879698182060979 0.727534466542074099)
(0.933921928388546818 -0.170006622368254728 0.736658700214226525)
(1.23004722934777089 -0.0874146591843277948 0.573900250102489462)
(1.35390411697549973 -0.0644535869676844952 0.717951545234460586)
(1.33942223378597736 -0.148112714890022229 0.763324575255396653)
(1.16335012890222855 -0.1195769924042418 0.764674937217459383)
(1.40639892951872225 -0.0571212042737714171 0.644097329948125408)
(1.49094841947368995 -0.0405930832716256199 0.753806001105837842)
(1.46921369795732937 -0.114623592851125722 0.788954359642714875)
(1.32891587083110752 -0.0804942693387055985 0.786394628213808677)
(1.5410746873053689 -0.0377753693171829011 0.694191745732288812)
(1.60325372852934711 -0.0267911817523795136 0.78537291139028742)
(1.57417396932460085 -0.0924458280752409878 0.810835521187691199)
(1.45920311104102018 -0.0535521832827245969 0.808009981243536513)
(1.64715184949612725 -0.027215975007804618 0.735423647231903344)
(1.699267858085038 -0.0188204898875573672 0.812083125959913721)
(1.6667215869329437 -0.0773973917645353199 0.828622824261917357)
(1.56854173243976991 -0.0356092120098884315 0.828279516159210805)
(1.73635252279740127 -0.021721647236668546 0.769498842047502851)
(1.78312682223089181 -0.0146481875347824995 0.834154408604827924)
(1.75111201833062702 -0.0665263425256764629 0.841922617593070965)
(1.66478348084224703 -0.0242015298021658123 0.846113633214158556)
(1.81426294548047307 -0.0189793441696462575 0.79691993131826222)
(1.85815361180980965 -0.0130528496994903494 0.852101370152569038)
(1.82948889662146974 -0.06003484485645353 0.852488561224684416)
(1.75070701420302721 -0.0175564584124805745 0.863675896785401798)
(1.88343081236200272 -0.0183647352779825745 0.818632989603834682)
(1.9270709903263592 -0.0127635419632601103 0.866163058072717762)
(1.90336303242335037 -0.0553621738710059139 0.860455481596970939)
(1.82876193426462996 -0.0146415334106236774 0.877695621422798111)
(1.94641168474683579 -0.0190646418177224143 0.835888626495814302)
(1.99012047016071381 -0.0135617347614324698 0.876637467922414371)
(1.97162803517435292 -0.0514779719652240231 0.866823538508353253)
(1.90114487360651485 -0.0133295931406732654 0.888962298536643769)
(2.00502860424350526 -0.0204056593696612561 0.849055817708016414)
(2.04922532059176321 -0.0153600583741044395 0.883277855542467405)
(2.03512399629600127 -0.0499956832909604146 0.870630932274647384)
(1.96807571427088823 -0.0133455074109039475 0.898061663908876318)
(2.06026411273395382 -0.0223496851225913826 0.857175137895387129)
(2.10513583104647006 -0.0176863427387364755 0.885897034631736635)
(2.09429936379809067 -0.0497106268426541487 0.871045402932935198)
(2.03052259434126059 -0.0140625716421715376 0.903928139486549709)
(2.11296940745692607 -0.02440613183160582 0.860417414587088647)
(2.15917587958731749 -0.0199099666865157031 0.884455276089241793)
(2.14982418917362006 -0.0503686351237581723 0.867852854352692216)
(2.08961750053441753 -0.0153101801510695194 0.905891482625384881)
(2.16389494057831522 -0.0264142958886237726 0.859194301300888696)
(2.2107898084220694 -0.0213285867934328438 0.879612436325729941)
(2.20247158771161811 -0.0502849874692166549 0.860666145444903163)
(2.14604844775782411 -0.0167686617342676231 0.90327069180385644)
(2.21305999915930673 -0.0275019995734874234 0.854314665227390635)
(2.25828637426819556 -0.0223540822329982916 0.872794643274739435)
(2.25169755158288343 -0.0487245660936804145 0.851198151535279557)
(2.19943174153702614 -0.0178796030645304513 0.897490008333383327)
(2.25932963357023908 -0.0278833978391586357 0.847537433405778029)
(2.30314116172425809 -0.0232155083637284043 0.864927387503739764)
(2.29775205776586322 -0.0481086689763801229 0.841188929316590284)
(2.24899860347870373 -0.0187022233676448525 0.890854472452612733)
(2.30245153292288052 -0.028447644117189988 0.839491916753597467)
(2.34451177775150521 -0.0238573404019814805 0.855827797621191766)
(2.33970247863535263 -0.0463914726211747119 0.831446700638160174)
(2.29457047149653404 -0.0190410296799522726 0.882456418193701464)
(2.34317330881172881 -0.0289736525361088057 0.831044098601812498)
(2.38428132680454574 -0.0246301790042909273 0.844885160105434574)
(2.37711920364506035 -0.0457238446299368384 0.821656426161909037)
(2.33721472829158117 -0.0199683829135270385 0.872366051317061131)
(2.38270658428611792 -0.0296150547120706958 0.820687922927596514)
(2.42192021223616782 -0.0256633219449560537 0.831907911947032841)
(2.41150821156146078 -0.0460447980696342754 0.809892523747809845)
(2.37762082157357035 -0.0209416815774214927 0.86152771382475235)
(2.42100911402575658 -0.0296187218781702281 0.807077005713195295)
(2.45968773353605652 -0.0266499999452117567 0.817628595109008649)
(2.44406388862512669 -0.0479054073943403283 0.796714347490163677)
(2.41647212049694904 -0.0223833201963892052 0.849385362929196419)
(2.4578228570814864 -0.0297839663215246388 0.791342064890372621)
(2.49754426989791156 -0.0263010422341697497 0.802756978362727525)
(2.47615558979865513 -0.0488750065805914763 0.783495483666305281)
(2.45480615686853243 -0.0231783796156375572 0.835906882843439503)
(2.49433634482296096 -0.0300661027222804411 0.776013400698555067)
(2.53072560810709968 -0.0248844706705435917 0.787306475194200717)
(2.50627912460499314 -0.0456863159879079134 0.770496184458589251)
(2.49095071174482863 -0.0224837012131096428 0.81987369631029039)
(2.52930806151866383 -0.028985729519878569 0.761682397821682677)
(2.56145871565049799 -0.02411559303027834 0.771196622062549242)
(2.53106277905206678 -0.0435500451173877826 0.757787905583596766)
(2.52372211796607449 -0.0218144541426482028 0.803284933302105042)
(2.56154912147058944 -0.0281900051627800401 0.746917947040140917)
(2.59179902616436131 -0.024944593840497218 0.754587796575607483)
(2.55216707762174311 -0.0434404910053344528 0.746184599966078554)
(2.55521427744025686 -0.0225751763529127396 0.787026051934230586)
(2.59278214986405153 -0.0282658049852573361 0.730485379900424392)
(2.62282230233579128 -0.0265205789755741071 0.73670277780011284)
(2.57292508343426896 -0.046310605607796998 0.73594499429399296)
(2.58588815325835375 -0.0230615265018361583 0.77337377009798236)
(2.62431248181569909 -0.0293307407781216445 0.711775837407383039)
(2.65345411409336185 -0.0275925222087854555 0.716594467190399209)
(2.5940853293581867 -0.046974569447574159 0.7243515858311248)
(2.6153229189027356 -0.0241850149546776125 0.75530808964173668)
(2.65598213740278899 -0.0304988724040844601 0.691990764480753473)
(2.68389155982790273 -0.0284584986414591519 0.696127424032820907)
(2.61404229655053744 -0.0473514888191743089 0.710543593168442511)
(2.64580106979316598 -0.0265988904034987067 0.734503786592597185)
(2.68716713806168617 -0.0304078378756614219 0.670238254470990169)
(2.71339871853993353 -0.0280761092178987426 0.676246112932215926)
(2.63350133808304854 -0.0485709497689174388 0.699224936432742195)
(2.6762942553346929 -0.0272046583197874496 0.717445688980072993)
(2.71770531801436066 -0.0303196487389401532 0.649810946451863769)
(2.73415740882415559 -0.0273410818868022286 0.658279422873922826)
(2.64988254098064768 -0.0440909867524267307 0.686826655958282739)
(2.70265434381809033 -0.0267998443386697621 0.698066707326428948)
(2.74305231576055553 -0.0271721894489721817 0.63064342190999978)
(2.75646005608774258 -0.0286815544033652108 0.643436804533378703)
(2.66172619287215584 -0.0454602147427300846 0.678959951749874113)
(2.7251344089970444 -0.0268853425633223328 0.683961870891506285)
(2.76362513640167151 -0.0274089455620511249 0.615344086384024491)
(2.78468469946143271 -0.0294545590156343635 0.628912931573033518)
(2.67604060222716988 -0.0500895059473705287 0.674438416236738947)
(2.74804722950284308 -0.0280091051079061175 0.671858976811417374)
(2.78747123395441543 -0.0296312101929087079 0.599904606028272447)
(2.80419430455640617 -0.0276249065096348598 0.613121784125412184)
(2.69366163929303681 -0.0433949511244833552 0.669213431140400217)
(2.77111313198095521 -0.0279240480534174683 0.653675508850765752)
(2.81246702777089652 -0.0297142135096402499 0.58639520975454662)
(2.80342867079945446 -0.0207232152311027235 0.600058200453186363)
(2.70287439205760727 -0.0327865698309252468 0.660989021199206661)
(2.78582026480722256 -0.0265844977242908793 0.636627339697100059)
(2.82461875767979675 -0.0261297955650093977 0.570288565092399446)
(2.72705941344200831 0.00838065349939984966 0.594281532698182735)
(2.68969662392695907 0.00382167846036601463 0.65556917144135729)
(2.76270063812017197 -0.0166950333913029984 0.628780316613357093)
(2.79138179063692915 -0.0129078270173604188 0.560054415971651731)
(2.34644643050413704 0.109149136988230269 0.582727294886783986)
(2.54944894806173838 0.15628307457499982 0.653223351158207399)
(2.60334573415933779 0.0273627990738289674 0.626793306160666641)
(2.61777793758725608 0.0386456468607669773 0.558746473300971935)
(1.28883993206192793 0.23152407432620159 0.488466695318916677)
(2.14788418189405261 0.492936812031715743 0.659911750797469887)
(2.08345229159488454 0.178613927670463996 0.607220165903139875)
(2.07810267517514413 0.197342536049708389 0.535487295060366852)
(1.14753103230525455 0.611047923512987423 0.584297058309109052)
(0.953534411135912974 0.275691184752678231 0.439296909198654051)
(0.936882415920747502 0.278687350237643405 0.372552827753789118)
(0.852224981118114067 -0.404390418308827826 0.616620078197702925)
(0.698908441185442708 -0.495978177500351392 0.517074899854225056)
(0.185664897274549268 -0.413745528170739951 -0.0130662520475631622)
(0.858611077294620717 -0.289406522688845591 0.438452026499341452)
(1.16843133736652893 -0.370123197997084041 0.762013445910910581)
(1.08223755559471235 -0.499016906190367704 0.722576378123517493)
(0.932543043636521074 -0.475216833634365343 0.732315772777040297)
(1.18246299346429939 -0.3323926088832454 0.605633889900641265)
(1.34366965675714733 -0.28775708059533095 0.814245085802371871)
(1.22765229796994846 -0.409633975628960256 0.805613801558999754)
(1.17618081094094684 -0.359040654660206848 0.913548306093220575)
(1.35446769429177349 -0.284525516587697203 0.68527808856171446)
(1.45763337038257101 -0.22538397564896348 0.834327389663650942)
(1.35050285973444861 -0.316528735173155495 0.841482871559791401)
(1.32682211632071922 -0.259869851072197733 0.942939323914009142)
(1.48494266271538433 -0.224370000423650851 0.720070965385587014)
(1.55213605365072893 -0.186580064424530734 0.845983879724568233)
(1.45891745516622984 -0.265656500027457387 0.865352740912076701)
(1.43685849455220516 -0.20106619044100274 0.9527629542484366)
(1.58723737979457868 -0.184132257111913139 0.745199833408128454)
(1.63689198790511603 -0.158649723987163066 0.854085434059321025)
(1.55373276842480412 -0.227813612972791679 0.882147893949456918)
(1.5268611017542244 -0.165763714076017449 0.953838124213821081)
(1.674540449422393 -0.155672976699570559 0.767858468531082416)
(1.71838731584920223 -0.137061162346246268 0.85846231589507449)
(1.63889467948691281 -0.198679009518126032 0.888520848208921299)
(1.61091018534169628 -0.14454345584615555 0.94686998723404503)
(1.75669777236285318 -0.134865429793032315 0.785802087796502402)
(1.79710203953833547 -0.120632217782814327 0.860256770212927235)
(1.71392469626392963 -0.174969982878235397 0.885246794066656406)
(1.69250978162898202 -0.131175750026427757 0.936582525408605648)
(1.83477386083026639 -0.118288006564517309 0.798409938548452103)
(1.87455264249702913 -0.108408653186826798 0.860842672669086206)
(1.78289633785908652 -0.159713901363145255 0.877793527658189965)
(1.76928392317605354 -0.119075840646552369 0.929214968396758323)
(1.90852598214293367 -0.105966414781422449 0.807307393202707169)
(1.94834350646396359 -0.0983885335894730817 0.86111596203260643)
(1.84731515242352251 -0.145724171796420249 0.871225083584860727)
(1.84148522489237099 -0.111196912924263952 0.921444514125040137)
(1.97808669325526054 -0.0970603633062179783 0.814511342002122274)
(2.01633989769645572 -0.0909023238566451924 0.860817002860586378)
(1.90227221756178078 -0.13304095546707001 0.867678284156023105)
(1.91066996821358925 -0.103586542108774188 0.914810748076048341)
(2.04229850612922936 -0.0907732184868225572 0.819681165655791966)
(2.08029701293669822 -0.0861926484312785374 0.858398479665115177)
(1.95211858707685848 -0.126439532074282046 0.865188419957914734)
(1.9764673201342704 -0.0974734286930873661 0.909455216613685558)
(2.10205801168128215 -0.0873465687024301274 0.820524687910772044)
(2.1386226480932744 -0.0835686584769898683 0.853001222653890667)
(1.99650078904921591 -0.121655571003822849 0.860758734728903629)
(2.03898685844093119 -0.0923968596264575781 0.902786937361093611)
(2.15743110266940663 -0.0856045993267012389 0.817222763667089569)
(2.19298750376812723 -0.0819483560325275917 0.844063723708353586)
(2.03410506203717301 -0.119885644220401447 0.855110017318204019)
(2.09777953322915334 -0.088725208551985138 0.894266092586097794)
(2.20918833178266372 -0.0853024790365507768 0.809596962378115736)
(2.24429635589252063 -0.0792678602483633948 0.83225186065445278)
(2.07026494331335131 -0.118296617834077716 0.846113800616840939)
(2.15285637113314099 -0.0858577103648314743 0.882747508779973433)
(2.25793536425223795 -0.0834446966396934914 0.798033088054633244)
(2.29049010500719197 -0.0761604376040768416 0.819592437577130517)
(2.10605674841617896 -0.112998023212578708 0.836792041141952492)
(2.20412489443286219 -0.0824658503349034178 0.868864984140448438)
(2.30296850396511221 -0.0800708387341366179 0.786511818445340571)
(2.33506489345465607 -0.0731278230257007139 0.807708242451010583)
(2.14381075784277986 -0.110970438703768784 0.827573063546497401)
(2.25449283257351674 -0.0790687250527945668 0.85601560502677676)
(2.34417120283783564 -0.077724868560867813 0.774866881218871373)
(2.37228990830133801 -0.0703128967932590276 0.797275329178877445)
(2.18003919470539653 -0.103147138665358698 0.821345431060817033)
(2.30103622681849584 -0.0747143853651108941 0.841751979513876702)
(2.38185028428105205 -0.0760332337941560937 0.765465690388256736)
(2.40440177504882113 -0.0692266411180338798 0.78666378980428453)
(2.20435699082618308 -0.0977854722468214227 0.819523568537469105)
(2.34017849766987185 -0.0719183644549872964 0.82867599348091503)
(2.41502799993443951 -0.0764488204488663198 0.756664610666640036)
(2.43238807673073687 -0.0701325753509596528 0.774698959290940792)
(2.22127515751337468 -0.0971253835220691197 0.813492923079903729)
(2.37409853989492925 -0.0704477696064982201 0.817141590219943592)
(2.44579170514273647 -0.0758046448250584426 0.742966708403817178)
(2.46043381118459381 -0.0718869042583523549 0.76258123604746042)
(2.23490548030196479 -0.100349155179992919 0.807465940999611664)
(2.40413537328859173 -0.0710266515585020047 0.805985805917735054)
(2.4718338894976184 -0.0765647004690058336 0.729144028388281851)
(2.4870066164700888 -0.0714982637007722938 0.751234689762167118)
(2.24929966492094424 -0.100326511109029584 0.806460167600488997)
(2.43180624155286385 -0.0712361394164023609 0.793512248570037437)
(2.49759756934917032 -0.0778631586451783292 0.717182030449574515)
(2.50635347870902248 -0.0689593109527909809 0.740977614847985411)
(2.2573650688964908 -0.0900119380948781883 0.815305578835832545)
(2.45632427191012992 -0.0695284156492209787 0.778525644893707458)
(2.52154040718067041 -0.076287640371484694 0.709221253159223797)
(2.52096287727164414 -0.066839065958291477 0.732775883487125967)
(2.25875012178149648 -0.0833404094581538663 0.828424008886774255)
(2.47443855824022885 -0.0673591178787736888 0.766247893511854627)
(2.53971004920005017 -0.0741032596381314135 0.70127656258863369)
(2.53266254207469199 -0.0668506422098407715 0.727541797684464031)
(2.26151366974231349 -0.0804411272907152447 0.848405154539547679)
(2.48802823243748339 -0.067205593126974203 0.757991141328403839)
(2.55356724142073999 -0.0730739290580577489 0.695689540938800088)
(2.54458755427661698 -0.0683085128361451965 0.723593802325004809)
(2.2679584990206334 -0.0852805321805303745 0.869856857716990395)
(2.49954109540562097 -0.0662705932971089789 0.756592115437368151)
(2.56686355949582401 -0.0738833833606234724 0.690577281998912551)
(2.55476192774848299 -0.0690618906128076249 0.718300711809167769)
(2.27897300584496332 -0.084951974815100556 0.888420050067752043)
(2.50897787967286767 -0.0664181352949027998 0.751740842212719196)
(2.58062827095575997 -0.075488685400488767 0.685960406215165075)
(2.56306298148898515 -0.0694179979545728743 0.713641105568363909)
(2.29624675209144158 -0.0850021939261108583 0.8967889090814678)
(2.5165811611084874 -0.0691572687898028698 0.745377406755850735)
(2.59232241080217918 -0.0743949634750486616 0.678377045810065527)
(2.57321332296169691 -0.0674220926166436418 0.709805479458809008)
(2.31003560746695946 -0.0885120107804702599 0.906812204777558861)
(2.52525677176796615 -0.0682488479680885829 0.745320200198151595)
(2.60301950934494331 -0.0735386542326566806 0.675588412158850016)
(2.57486742357906984 -0.0648300083262598192 0.707507184834234026)
(2.32165204999110397 -0.0776641932411923364 0.908204118531789173)
(2.53129094732372195 -0.0658605986859482906 0.739698293533105233)
(2.6123968440720482 -0.0663714315549828321 0.674205972447176949)
(2.577865893469097 -0.0668641475549590775 0.709961563453234468)
(2.32449673928146616 -0.0790729487794338409 0.904128242675993898)
(2.53384299583115169 -0.0643755082350124519 0.741099926705693912)
(2.61640037083117427 -0.0662987592224517225 0.676872919924428218)
(2.59022443194084806 -0.0672961171219626786 0.714738915804105535)
(2.31718401032886945 -0.0902370076568310142 0.900596254079561787)
(2.53635907746760392 -0.0655990551901621671 0.747226920412518036)
(2.62173923701299616 -0.0701169921914632094 0.679290448526143176)
(2.59638830270418364 -0.0603534331390310069 0.717080668214194805)
(2.30201269866305402 -0.0748158358060354162 0.891325737856672906)
(2.54323736779642617 -0.0636242823705734789 0.744717876271414059)
(2.63220412250901781 -0.0693732405285089199 0.688039973035184493)
(2.60886569940227231 -0.0394065158011743175 0.716499992187377699)
(2.29160590151605748 -0.0670427850212049758 0.870771712370503326)
(2.54854369194012698 -0.0574921407274416249 0.743451874983512839)
(2.64168759211397486 -0.0574165426338983237 0.68741684033172612)
(2.60927884250618902 0.0456559203314944179 0.714510989901381843)
(2.21167397784423603 -0.0278089497166494753 0.865550576540305316)
(2.55435668101780466 -0.0252762829956121801 0.747427482981806279)
(2.64178859189067561 -0.0228275434843463951 0.684579375411460189)
(2.37139247262825625 0.337849094620316703 0.730407807068892856)
(2.16796785358099697 0.245025698000854247 0.786770721875323598)
(2.45185521078853519 0.113489146032060118 0.744478042312231247)
(2.52576929679061735 0.115250541253541561 0.684076931073420047)
(1.53674151560887329 0.726004589079057516 0.755742113787661873)
(1.93330587861155645 0.879653586942615195 0.793382051109450037)
(2.1857652788049533 0.556742445819221277 0.776129877172813676)
(2.23890380142998957 0.560788939965280564 0.714912477032372595)
(1.30356943069246523 1.33059342363397426 0.801830592860010793)
(1.34282370229005488 0.889645249454544151 0.815163538835488199)
(1.33456585156344709 0.892318985136621445 0.717513022712326975)
(0.903630534154309717 -0.552565938301123882 0.623031199780037737)
(0.665269812751847045 -0.525405607459884294 0.509953476725376054)
(0.310710633519147517 -0.57315466174322105 -0.35557779938805667)
(0.969088444611214794 -0.444225738550014349 0.489197699117150719)
(1.12283925693979669 -0.541176564300932861 0.766176733771606444)
(0.981102178088443466 -0.629759770199637137 0.691695242627019757)
(0.866239733378140753 -0.623795099761140892 0.666916487326628227)
(1.21907676205836268 -0.529023881743103552 0.624639642869835976)
(1.24843421828934864 -0.446147581680724992 0.832851587316419173)
(1.08705586815246402 -0.54716090605249379 0.786360090484806373)
(1.03056032027686295 -0.508772090872683713 0.843243994209967984)
(1.3132456348764141 -0.460259170397952111 0.693785008306411211)
(1.35631471332677367 -0.362182306644280305 0.872508222808217049)
(1.20723665824971049 -0.449099465268279097 0.840832352202374622)
(1.16183229330660476 -0.394376184883550918 0.901221262116492561)
(1.41420629263397402 -0.366535942765684963 0.743960386786127303)
(1.46011682290045108 -0.310301406652618073 0.901516755136965275)
(1.32351892048477948 -0.382390695483039111 0.874331424537055368)
(1.28490679364917781 -0.327328880620846197 0.923485238744227943)
(1.5155271620545554 -0.311728041723549509 0.793819088002517215)
(1.55498987743041361 -0.27389861096169138 0.916583308099057081)
(1.41533008779265201 -0.332301805748337675 0.892310111044044674)
(1.39428092281109439 -0.282652864500305856 0.942521795217615033)
(1.60822210011423916 -0.27529925739185207 0.828418465811038729)
(1.63399108949111649 -0.246015295756718211 0.915305326380503215)
(1.47829515643777265 -0.297493961607725899 0.886521697144951437)
(1.48628153199645996 -0.253703559794291544 0.961333071105297532)
(1.68930195501332903 -0.249232790499145707 0.842704383072331975)
(1.6987509408825221 -0.224643197265888189 0.902783551511919136)
(1.51817823516701456 -0.268796066023011482 0.868592999138619981)
(1.55611102246145583 -0.234158912419920956 0.963478438184196428)
(1.7570876512930067 -0.226770026331004348 0.840586127149334228)
(1.75594810417291103 -0.207312134074430748 0.888175938573964596)
(1.54832356878391186 -0.248431889976656023 0.853688993687680808)
(1.61005552234656513 -0.217183161134296449 0.951698830504053017)
(1.81549240021291913 -0.209148573183217751 0.831459989296678303)
(1.80174023480791856 -0.190974618598893253 0.877787405708277513)
(1.57569772406933928 -0.226234610077417769 0.850012546119872425)
(1.65326148355372915 -0.203771982723541384 0.938859154702022858)
(1.86726282938110821 -0.193882938247304432 0.823630403834152536)
(1.83747318011933247 -0.179182499280561625 0.872049701253351461)
(1.59680894769155501 -0.206738764612396347 0.859121388865393354)
(1.68613385575425223 -0.189886914916320954 0.930830829528540904)
(1.90990292482571822 -0.181996517416437159 0.819168171558590896)
(1.86862258356255229 -0.172194801170565848 0.867548675021703075)
(1.61359654188553314 -0.200906232929837447 0.873882276512049527)
(1.71442408214183795 -0.179214189033657656 0.932681450716952964)
(1.94699633111736214 -0.175501840199961373 0.814897461034594706)
(1.89156045299283204 -0.168144752510689055 0.862867529393216981)
(1.62557677510586474 -0.195205775579930046 0.886731197682380956)
(1.74325941009934948 -0.169661206294611955 0.932787812255657656)
(1.97818796889889659 -0.171165156784341438 0.80862527798983741)
(1.91073901161639359 -0.166406549060146181 0.857160094226691482)
(1.63495734844422724 -0.195790121941105039 0.89506686853958195)
(1.76808664607422239 -0.162389289107836593 0.934951440196169714)
(2.00306528227392899 -0.169347996454366212 0.802321061036891048)
(1.93390212868563416 -0.162745615045715469 0.85065398110434054)
(1.64874263792024989 -0.200177818651660649 0.899920031027178546)
(1.79240745080918429 -0.15925016594949265 0.934098029010584696)
(2.02905628934798177 -0.165745043778886242 0.793498768125292964)
(1.95770964570396711 -0.158596391599216457 0.844772667111319486)
(1.66938107901771415 -0.19468906547128853 0.901026131157591004)
(1.81587089355862408 -0.155802670108372288 0.928113738188487858)
(2.0555012849972516 -0.158966051443583223 0.788539193253982473)
(1.99025125560592109 -0.152211312183634956 0.841210252156303739)
(1.69509634438376677 -0.197141451036795201 0.899143366354508089)
(1.8429719086768559 -0.153720585366778767 0.923787235171113608)
(2.0834230032367822 -0.154782549070625913 0.783986841930956024)
(2.01269290073934615 -0.142222022355388944 0.843593670419408692)
(1.71984919853282392 -0.179409757109040252 0.901610151804435045)
(1.87535203651746962 -0.144661728670034989 0.915501419271862571)
(2.1083294533148611 -0.147496033834652179 0.785417845706695483)
(2.0207869096893698 -0.135841373443367885 0.846352701813088304)
(1.72744493787340758 -0.160154410998314234 0.908987668718421737)
(1.89851207538487565 -0.136571229562377799 0.910231676823598512)
(2.11903857968527332 -0.14439897503152288 0.793587812229417211)
(2.02049446804596222 -0.136204415456513322 0.846259904788574491)
(1.72087838009619398 -0.156646088633964259 0.916584022897194095)
(1.91040808719642663 -0.130961644136510513 0.909566222294291737)
(2.12145651489536924 -0.139966329930701572 0.790232357572530186)
(2.02554987007944964 -0.138147963697342974 0.851344872552640353)
(1.71218977750623802 -0.162935172702620923 0.930070414132495249)
(1.91270225378515857 -0.131523931010898765 0.91307804399453274)
(2.11696601837625487 -0.141304944433605861 0.792961391783368552)
(2.024601803574964 -0.129558369123467937 0.870531056674154091)
(1.71350149430747756 -0.154076495685757014 0.964677988041907519)
(1.91399474194967634 -0.130189509565166783 0.913187642713400138)
(2.11290889216089983 -0.140383292590584713 0.804739591716337022)
(2.00730512719722887 -0.114794085790770731 0.902751972874621167)
(1.72824378297479364 -0.122726776609818233 1.02350160550608527)
(1.9082019976481539 -0.118036200381943165 0.91989451848027437)
(2.10142195197526593 -0.130513467706864589 0.837168153220417932)
(1.99704907060161885 -0.106090308767409922 0.944053279939195855)
(1.75412251189273416 -0.119982071787788275 1.0904522842562907)
(1.89996099906909355 -0.107737322667117955 0.950368906106974665)
(2.08803101513595291 -0.120653048514437117 0.866829521171136763)
(1.99729285056159434 -0.106172915814705171 0.990720214572074376)
(1.79053819377924972 -0.123804882368170013 1.13980847320299783)
(1.89659368106448034 -0.106520339998995073 0.998294165454381766)
(2.07850326074370439 -0.117507816103693485 0.911810450252036109)
(2.00249395516755868 -0.10989609649540738 1.03468310545973741)
(1.83276482298127874 -0.128691278770493717 1.16379095513968811)
(1.9027185414541592 -0.102417547760536326 1.0424874331894789)
(2.08157629123374432 -0.120692690070036523 0.960867066612899778)
(2.02155890706210428 -0.111310989751437869 1.06690824734005218)
(1.87325993636164778 -0.136263743260820996 1.18105701256208384)
(1.91738557910032181 -0.102328422016868259 1.08487553322742403)
(2.09833203546100044 -0.125801916416173887 1.00131695648476704)
(2.04217577490532154 -0.113323946988829805 1.08996000829066286)
(1.91058915513435701 -0.145079127331520452 1.19103661855386633)
(1.93905843199177741 -0.11178080828248764 1.11778036748004128)
(2.12276998470211309 -0.119306488170083519 1.01824335528481091)
(2.05954125556793377 -0.107008363682142865 1.10521084385053947)
(1.92957057593713199 -0.143176587977251357 1.18380447158044211)
(1.96236738444718628 -0.108869548170555525 1.13692361480815252)
(2.13505938494488889 -0.119116762008507668 1.04495991304542835)
(2.07032802181635578 -0.0970939561586614819 1.10482517637354882)
(1.93099121612606162 -0.121751011686051652 1.14996232627286621)
(1.98234706293731855 -0.101269930635468755 1.13877264412751966)
(2.14634288513846094 -0.0993978317885749474 1.06138573926776947)
(2.06228222781064119 -0.101522032155424671 1.094762933302321)
(1.91339822439208729 -0.109629895901475913 1.09403379340306706)
(1.9906560783792091 -0.0961910210424854611 1.12699261036648579)
(2.14391886430392242 -0.0974614838725465227 1.05783288571173184)
(2.03129290767854265 -0.102063233626370722 1.07718307613212883)
(1.8768153897486366 -0.108869950377827138 1.02975867303746571)
(1.98159097315413946 -0.0987761713422789372 1.11419569989080114)
(2.12141694939857439 -0.105754753249397981 1.04594045105003741)
(1.99957937011278575 -0.0889372559637349042 1.04501678201298165)
(1.81413554616705786 -0.0983353635177090096 0.95902180872694498)
(1.94873236109114534 -0.0941732796089805035 1.09889562751058567)
(2.07572212650141319 -0.105487352962680497 1.02014298215564536)
(1.95345087186838651 -0.0591461673697235638 1.0198222967234305)
(1.77916369090280191 -0.0828146380401983268 0.892362438481143605)
(1.92500592688023109 -0.0884157936686040258 1.05954675049584068)
(2.04390964744462122 -0.0864017679652551024 0.981874496456735524)
(1.9453787885227567 0.123326868933701886 0.937810308514247626)
(1.51601165187183273 -0.0589250267226029481 0.848492982717632072)
(1.75021416180586376 -0.0436914120007051501 1.04386949010963437)
(1.89689224216170227 -0.0310189598300756979 0.973565226483794177)
(1.78647596659789354 0.65831661205652281 0.849744965915880002)
(1.4919364671634967 0.294020794896402815 0.849073017230309035)
(1.78968665794559945 0.279732897468165431 0.89016880033172141)
(1.904531370487065 0.290590502287743135 0.829256177828398222)