/*--------------------------------*- C++ -*----------------------------------*\
| =========                 |                                                 |
| \\      /  F ield         | OpenFOAM: The Open Source CFD Toolbox           |
|  \\    /   O peration     | Version:  2206                                  |
|   \\  /    A nd           | Website:  www.openfoam.com                      |
|    \\/     M anipulation  |                                                 |
\*---------------------------------------------------------------------------*/
FoamFile
{
    version     2.0;
    format      ascii;
    arch        "LSB;label=32;scalar=64";
    class       volVectorField;
    location    "0.239999999999999991";
    object      faceForces;
}
// * * * * * * * * * * * * * * * * * * * * * * * * * * * * * * * * * * * * * //

dimensions      [1 1 -2 0 0 0 0];

internalField   uniform (0 0 0);

boundaryField
{
    inlet
    {
        type            calculated;
        value           uniform (0 0 0);
    }
    outlet
    {
        type            calculated;
        value           uniform (0 0 0);
    }
    top
    {
        type            calculated;
        value           uniform (0 0 0);
    }
    bottom
    {
        type            calculated;
        value           uniform (0 0 0);
    }
    left
    {
        type            calculated;
        value           uniform (0 0 0);
    }
    symmetry
    {
        type            symmetryPlane;
    }
    interface
    {
        type            calculated;
        value           nonuniform List<vector> 
352
(
(0.79171244676615582 -1.06441851643508983e-05 -2.22169422438971729e-05)
(0.763550722223371947 8.2839406402875025e-07 -2.37054701175175678e-05)
(0.732075128193304003 3.01862365895488676e-06 -2.37564303386664021e-05)
(0.700838725237299176 4.14151988854902749e-06 -2.36395856760084254e-05)
(0.670530947359005425 5.23623886431796547e-06 -2.26678423338155845e-05)
(0.640498086609652906 6.67689528781522424e-06 -2.19019248800520501e-05)
(0.608940412472420589 8.37044037900452102e-06 -2.12137856377191788e-05)
(0.573111705607737498 1.03374137433687159e-05 -2.07682219146326745e-05)
(0.529987707953271325 1.25859701652256254e-05 -2.02035136675057637e-05)
(0.476255929135783407 1.62643914537085819e-05 -2.10402435640927076e-05)
(0.409993352613798767 2.13090070193005719e-05 -2.24767279382587938e-05)
(0.327502165954623725 2.35161442426494848e-05 -2.08536485682187451e-05)
(0.241427122715939774 2.22344310219391121e-05 -1.68227684237843767e-05)
(0.1708107442761721 2.66721347763565466e-05 -1.77939701453797044e-05)
(0.113799506711594833 2.85716253027461613e-05 -1.71924460867275552e-05)
(0.0690514642350385233 2.97001730346845424e-05 -1.668285168147874e-05)
(0.934868459528911511 -4.27694478476889703e-06 -1.34289038221107351e-05)
(0.904124914004418301 1.68454387251153912e-06 -1.57775979126617457e-05)
(0.870518928725581564 3.3065366738605596e-06 -1.55750054544000906e-05)
(0.835752405213862404 4.97271459576628228e-06 -1.58878083315702399e-05)
(0.799211638938486679 6.81949102479256803e-06 -1.60406215155618171e-05)
(0.761011525073182038 8.01318251689089432e-06 -1.44737267621689275e-05)
(0.720567972675176138 9.88574226762174947e-06 -1.41094741729085048e-05)
(0.676576689191924041 1.20374393460816425e-05 -1.39610667420493065e-05)
(0.626880983855849561 1.42826576024672901e-05 -1.37713627045644325e-05)
(0.567691048675293297 1.6818142199413415e-05 -1.35060633985239379e-05)
(0.496664779914954113 2.22041983605320501e-05 -1.48651842975822993e-05)
(0.413017532474880045 2.60884110393245168e-05 -1.48214664261491137e-05)
(0.315157321560594117 2.82491867706024053e-05 -1.40230813975806832e-05)
(0.223381328635497561 2.26308062084899805e-05 -1.0039749443909558e-05)
(0.148887383870068363 2.96721028596350582e-05 -1.21137610646282979e-05)
(0.0909686978819249509 3.51506930988396677e-05 -1.35644715215289168e-05)
(1.0034128172786061 -4.24653627655334524e-06 -1.06551341046044968e-05)
(0.972681596653010128 1.86780934250209587e-06 -1.18427900701943019e-05)
(0.939442244688469374 3.76225012053034964e-06 -1.19774681713605632e-05)
(0.90482946997017244 5.70193213398577184e-06 -1.25267101973414063e-05)
(0.868004174197556377 8.9546075025685049e-06 -1.42819428511680311e-05)
(0.827182708375096998 9.76393955349499211e-06 -1.23306014646603413e-05)
(0.784117641515292507 1.13376777228017914e-05 -1.16464743448157506e-05)
(0.738258719475156533 1.3411870452361253e-05 -1.14699939487404804e-05)
(0.686105163874377588 1.53901208154716034e-05 -1.12576944073212808e-05)
(0.626791225153249254 1.82061699515444942e-05 -1.12123665085135549e-05)
(0.557655357348791014 2.45054202016043571e-05 -1.28569727273952363e-05)
(0.473285917672648604 2.79136368422622459e-05 -1.26603256404879439e-05)
(0.373329729213411232 3.02525679330646594e-05 -1.2193507901246883e-05)
(0.271095648658141786 2.89924015584225334e-05 -1.05912690574844177e-05)
(0.182409398999162808 2.57132155056614416e-05 -8.66643731301843385e-06)
(0.112519638677162415 3.97864362133969145e-05 -1.26871325784604093e-05)
(1.03246106630380097 -3.22717910578777463e-06 -6.13689081121978417e-06)
(1.00144961975544944 2.18979614768490352e-06 -7.85127146376738733e-06)
(0.967686237513076364 4.12203057043567417e-06 -7.96419324504041435e-06)
(0.931843312136610535 5.86944629103041819e-06 -7.93473030634579872e-06)
(0.895082246189341513 8.67773611051482478e-06 -8.56872820390068966e-06)
(0.855392730298905835 1.17301317786020545e-05 -9.25021706884566715e-06)
(0.811208797834286566 1.20908040537460028e-05 -7.91695385016646977e-06)
(0.764187906635368508 1.40496419476004379e-05 -7.7432290475133899e-06)
(0.711277185461333561 1.60209910951322862e-05 -7.58258221813906049e-06)
(0.65292521129119363 1.96232053749487521e-05 -7.84628916622369339e-06)
(0.585644544431747072 2.58141052240067138e-05 -8.93454483068587303e-06)
(0.502347810540498152 2.85374912752763341e-05 -8.71568427786830774e-06)
(0.402840034454583329 3.09110223163492582e-05 -8.54113563643579712e-06)
(0.296831645287685963 3.03557241310253146e-05 -7.7297377122194352e-06)
(0.203394185389112969 2.68239781978714154e-05 -6.31851522932906618e-06)
(0.128747469404507126 4.09591497328673051e-05 -9.12928509915713757e-06)
(1.05009923539518368 -2.90258006003736098e-06 -4.99310213570416254e-06)
(1.01919632665445525 2.28983322520276509e-06 -5.64059755221459522e-06)
(0.985735315690053127 4.30829210619767108e-06 -5.73833108711022649e-06)
(0.950011290058918711 6.15140370971716913e-06 -5.78076821004544869e-06)
(0.913438230375243188 8.33769030096901309e-06 -5.85370991267943046e-06)
(0.874906088695142081 1.27166909147504403e-05 -6.90918992285496491e-06)
(0.831260031017368672 1.39186799973544278e-05 -6.29598292767453633e-06)
(0.783570547765370051 1.49429397514928084e-05 -5.64339817676961603e-06)
(0.730748927274496474 1.69269423804975612e-05 -5.49919856958817206e-06)
(0.672972676693510463 1.94345610517296728e-05 -5.39466147507419109e-06)
(0.607784023904336279 2.64942859211927286e-05 -6.49265639103385209e-06)
(0.528969442386151512 2.97303069572792544e-05 -6.58125010025189641e-06)
(0.434280925616020941 3.19511335521692282e-05 -6.54876677757603403e-06)
(0.330041993746433782 3.317750735259052e-05 -6.3273035792121622e-06)
(0.22742165095615488 3.1072151186964664e-05 -5.53961088713581969e-06)
(0.141989069195771977 3.74386725950690799e-05 -6.2196116569010572e-06)
(1.0597252202078502 -2.4347947191662628e-06 -2.83119223111180536e-06)
(1.02894743029565894 2.35636586536497014e-06 -3.74096527266409805e-06)
(0.995557540754378079 4.3876900637288621e-06 -3.82057088569341214e-06)
(0.959538526013372528 6.33863930439711957e-06 -3.79486060618600834e-06)
(0.922604961443444505 8.64562839455096798e-06 -3.76484710311454238e-06)
(0.883345604795444217 1.27674765862017503e-05 -4.22723155950231825e-06)
(0.8397633810596834 1.56869312678745917e-05 -4.12071088255936666e-06)
(0.791731544645949636 1.6764306453180934e-05 -3.59158903097385608e-06)
(0.739753907134863664 1.71077069975907686e-05 -3.09893640230711869e-06)
(0.681738546558904979 1.90218991093709869e-05 -3.013410092215608e-06)
(0.616370431445633082 2.47109783981499011e-05 -3.52092044261089315e-06)
(0.540505844742746544 3.06176874745146683e-05 -4.04409832915143947e-06)
(0.449853920908523275 3.29277079744903577e-05 -4.10489497495920473e-06)
(0.346180303180875226 3.44679782703585739e-05 -4.08733392785238425e-06)
(0.240268385369309057 3.53028393911224205e-05 -3.95025636470709697e-06)
(0.152037584468048992 2.90593637373241291e-05 -3.12604796491022557e-06)
(1.06593914447241978 -2.37425724827579414e-06 -1.63426223045332374e-06)
(1.0348401787478998 2.41581657491295625e-06 -2.14918808639225321e-06)
(1.00148583080572684 4.39639187018620273e-06 -2.16724278995500538e-06)
(0.965757534956151797 6.46493424863013943e-06 -2.14433008131391773e-06)
(0.927817799429123569 9.82232609275519865e-06 -2.34161588266799768e-06)
(0.886837996785238336 1.35136347288067043e-05 -2.37367548864677133e-06)
(0.841370908409090124 1.60536003964737287e-05 -2.12868468291770193e-06)
(0.792096858514910962 1.54732518009590262e-05 -1.58246020117914793e-06)
(0.741087822476950486 1.72540044434248773e-05 -1.41253829129080347e-06)
(0.684770105348803226 1.91949409306771264e-05 -1.35797164528663099e-06)
(0.621969993601845017 2.25068018596589208e-05 -1.49068516931150702e-06)
(0.549612040332351115 3.09237247159538218e-05 -2.05514681363635543e-06)
(0.462030261360565797 3.36672750453188786e-05 -2.2884900313928536e-06)
(0.360090769881084072 3.50246718775267476e-05 -2.45187319446185079e-06)
(0.253515694715004569 3.60114769385919031e-05 -2.5440790106229667e-06)
(0.159767502271304956 2.98739828528759733e-05 -2.10626678365222421e-06)
(1.06843941479239368 -2.08569289166939102e-06 -5.2456931330350301e-07)
(1.03724183713167251 2.45888660345288996e-06 -6.88784407951986632e-07)
(1.00404264989671832 4.41233779692997142e-06 -6.92800146848397792e-07)
(0.968552486131237678 6.52659181642399618e-06 -6.82713882343993212e-07)
(0.929899077293703913 1.02068906034338828e-05 -7.60949855290805891e-07)
(0.887806444554463003 1.3881140945973681e-05 -7.53204807851306032e-07)
(0.840216998401360882 1.49007248663904099e-05 -6.01962648635696158e-07)
(0.788888808505418426 1.53055381579113478e-05 -4.59434592834161554e-07)
(0.736963167323292812 1.76370577781284263e-05 -3.93699887803351616e-07)
(0.682376232572047936 2.00052699419894148e-05 -3.59288932845881539e-07)
(0.621133994675375112 2.24735868704282678e-05 -3.7283802653619566e-07)
(0.551493122003150926 2.62104908329326932e-05 -4.87048999649213093e-07)
(0.469539015303339635 3.36857215182220408e-05 -7.14853373749686712e-07)
(0.373278520229901101 3.48814995875365826e-05 -8.50568202988525157e-07)
(0.270033771773979692 3.60443604511565891e-05 -9.59940036658055532e-07)
(0.171580176869672696 3.62959981377358181e-05 -1.01105227160898082e-06)
(4.06197316726182906e-05 1.65606319826548484e-05 -0.179110272854084984)
(4.35664939672703697e-05 3.56126429002086894e-07 -0.205331615724305583)
(4.2418956488362783e-05 -9.44031979188698449e-07 -0.20315361294238321)
(4.16369654476336147e-05 -7.98199818924425728e-07 -0.189031725941843032)
(3.98111458056315883e-05 -5.97779392419230713e-07 -0.164833358909740824)
(3.74227656559313109e-05 -8.9112595682524192e-07 -0.125949915562809461)
(3.09783308798104761e-05 -9.43696753092887155e-07 -0.068398332573190862)
(1.83037456727650209e-05 7.40617376062486131e-07 -0.00367775135647254022)
(1.63062525888946781e-05 4.70792870054097431e-06 -0.00177950740251825662)
(1.37252391256923442e-05 6.0996034488257807e-06 -0.00209831816591005485)
(1.37924759691147747e-05 9.51356088854882765e-06 -0.0009455494439476941)
(1.17364548357612217e-05 1.07860022846108852e-05 -0.000673377498915772588)
(9.84424200999730077e-06 1.18474864137471172e-05 -0.000976969938131369304)
(4.63152923506840797e-06 6.4652533456642045e-06 -0.00179069582683566561)
(1.67141850010748952e-06 3.53996958365804156e-06 -0.00177823840939491588)
(6.03747847963541762e-07 1.50560058827877363e-06 -0.00187992618309338125)
(3.43697871172182759e-05 1.41579940381894995e-05 -0.0599299995883836312)
(3.45123545281995333e-05 -3.26040588938854272e-06 -0.0723413343940121217)
(2.78862528139150564e-05 -7.292927072469352e-06 -0.0689399281745826098)
(2.28294530378273398e-05 -6.83695454950854685e-06 -0.0651188898633446728)
(1.62786358281946628e-05 -4.9584649296895477e-06 -0.050653115130758361)
(6.6944256074084927e-06 -2.36087377043180983e-06 -0.023175629648493748)
(1.96420090849396387e-06 -1.96363983840446079e-06 0.000237001293947186311)
(-6.92236242245565052e-08 -5.46097844863460437e-08 -0.00183140001983948635)
(-5.28391674028437523e-08 -3.05717869342288502e-08 -0.00166283824979369488)
(-3.83180581260489826e-08 -2.09731554990673177e-08 -0.00134259534825841042)
(-5.29527648438096844e-08 -3.63924818827269326e-08 -0.0010907420749223819)
(-5.59586604891840421e-08 -2.12269362698554275e-08 -0.00106826310057852821)
(-5.11375019580774719e-08 -2.00578804339915463e-08 -0.00109103398671131155)
(-5.68843516136194043e-08 -1.8433412890073331e-08 -0.00113080137954662012)
(-5.04024699567111582e-08 -1.40561499180113136e-08 -0.0011666611583178181)
(-5.15458162553298744e-08 -3.86433404722903809e-09 -0.00127721720979116922)
(3.01309531876480011e-05 8.33788263557066986e-06 0.0931869582716661898)
(2.34762994170598343e-05 -5.6441413544059962e-06 0.0559657318937617013)
(6.9443846084864341e-06 -5.32208079942333156e-06 0.0228488873880916404)
(1.04119044796169035e-06 -1.41418251053887434e-06 0.00579158356591558815)
(-2.77650959436602801e-08 -4.8037197469917929e-07 0.000385008486063572581)
(-1.50593268205118633e-08 -1.43479409533569875e-08 -0.00105378594066893165)
(-1.2183285378914472e-08 -1.63084576454680071e-08 -0.00167158830496873527)
(-4.14635963598047433e-08 -1.08451350113930354e-08 -0.00197701610899595707)
(-3.9916366296795662e-08 -8.92865365960061191e-09 -0.00183632268958465418)
(-1.56162986437488132e-08 -5.43777945908678049e-09 -0.00160876207358243779)
(-4.32135674633870324e-08 -2.5093771445668158e-08 -0.00130642549171575703)
(-4.4736049793132373e-08 -1.39762523909186785e-08 -0.00123116689680508604)
(-4.04691901402029028e-08 -1.03305680171286833e-08 -0.00121448982192016129)
(-3.71219339541770911e-08 -6.97929409156962197e-09 -0.00122069951040285844)
(-3.34084234789855408e-08 -4.53316039744861745e-09 -0.00120537855743157898)
(-3.60968491193133492e-08 -1.20075930729184095e-08 -0.00115885151875485875)
(2.6244636780327708e-05 4.28982623122445691e-06 0.0717234161577463974)
(1.76361770569074438e-05 -7.12087933002008322e-06 0.028502422335688244)
(9.15529553068755583e-07 -9.3688920012395012e-07 0.00420666002684149439)
(9.89882678532054105e-09 -4.47224450189897719e-08 0.000320116695284859264)
(-1.7256509318937421e-08 -2.81035863763806263e-09 -0.00118493144537800115)
(-1.80754871145262473e-08 -3.34343046066231182e-09 -0.0013228864541734173)
(-3.82941505500383079e-08 -6.02208838285659634e-10 -0.00139480247196356925)
(-4.42451923020086231e-08 -7.42127011141213775e-09 -0.00146634259556413559)
(-6.5822059654598266e-08 -3.85739505233164059e-09 -0.00141759668417347474)
(-1.29620592175720239e-08 1.09197981390006011e-08 -0.00139101868085736739)
(-3.46187454397451173e-08 5.7259309896979653e-10 -0.00129439977668139683)
(-3.47805765408448398e-08 -3.45077611221495082e-09 -0.00124873329581076621)
(-3.42394713460252419e-08 -7.24055350217536844e-09 -0.00121179520857329784)
(-3.27064866248607692e-08 -2.90502653206138444e-09 -0.00118179743715608136)
(-3.08973248587729225e-08 -3.50909421807244967e-10 -0.00115694858600451085)
(-2.79285598343267316e-08 -1.27143734334402346e-09 -0.00112341983285774312)
(-0.000346361547918225222 6.92408231612901532e-07 -1.09876900742515944e-07)
(0.000430275139272035998 -7.11002827352569032e-08 -2.00204432015019637e-08)
(0.000446852095354329274 -7.87137299567895531e-09 -2.77277594125402777e-08)
(0.000409644608376142836 -4.69187965702687989e-09 -1.5574350809746021e-08)
(0.000433310701409155919 6.6505072392676533e-10 -2.57391512734857776e-08)
(0.000470845398321482903 3.57546708397408346e-09 -1.98170694789461709e-08)
(0.000514318092937289528 4.06301272038392444e-09 -2.14797596086232989e-08)
(0.000546613252299629911 3.65704907912200396e-09 -2.14558066786101482e-08)
(0.000586004049348951028 3.80278899703661465e-09 -2.05178365927632083e-08)
(0.000621108273798673285 3.83976037968179522e-09 -1.89354948474591859e-08)
(0.000659127960708172649 3.89051720989718693e-09 -1.85261027817125814e-08)
(0.000692015395907308274 4.02816304213537727e-09 -1.78929486510535844e-08)
(0.000723949968631397303 4.401608559130267e-09 -1.68494343356698035e-08)
(0.000757961149125949574 5.69142343496597049e-09 -1.57472747646664047e-08)
(0.00079765335250712153 7.03200958476726251e-09 -1.45265823218902157e-08)
(0.000841536903347537874 9.19779918218146707e-09 -1.27165321739710717e-08)
(0.000222802698453106711 -3.70081646133291739e-10 7.41709029940998486e-10)
(0.000279425899460471032 -1.83867216381680979e-09 -1.35140516222374366e-08)
(0.000324828422530419548 3.36469537946604154e-10 -1.43431576848515706e-08)
(0.000355121207260781851 1.10199657649333838e-09 -1.19690358780749668e-08)
(0.000388872762400127418 1.21879228758800208e-09 -9.57036195993386119e-09)
(0.000423280495023475335 1.81227458680717999e-09 -9.62113566989734655e-09)
(0.000462616776905892921 2.66617424282336758e-09 -1.01159261113034485e-08)
(0.000498779475133056898 3.06498776354468743e-09 -1.03870151160588849e-08)
(0.000534886866060237673 3.45932231292778981e-09 -1.04919479569174647e-08)
(0.000570884975898783677 3.95464334829461759e-09 -1.03497672931244056e-08)
(0.000606969292292966695 4.51106224795138612e-09 -1.01173486690477659e-08)
(0.000643221736927867497 5.32926377883461764e-09 -9.75681335251124111e-09)
(0.000681004980634657923 6.24143742884780796e-09 -9.19239768290161251e-09)
(0.000720833642454931744 7.87013365115601543e-09 -8.52888339470300571e-09)
(0.000767989863856831725 9.36157684545371245e-09 -7.80232415893180948e-09)
(0.000822521798662649573 1.17070767526400998e-08 -6.882340298934077e-09)
(0.000202413561922411029 9.09332280000752657e-10 -8.15704326039000515e-09)
(0.000244766981609801954 2.01723522126572133e-09 -9.02451501599704835e-09)
(0.000286803748809402585 2.09487616059163883e-09 -9.07487761804220467e-09)
(0.000325683365039224223 1.89937242931707606e-09 -9.06693506889576753e-09)
(0.000361249360248793534 2.06666517294033058e-09 -9.19635696283384838e-09)
(0.000397300175887308198 2.56217914970327922e-09 -8.97633662110269284e-09)
(0.000434133417690383107 3.04640488897368084e-09 -8.93200238895659548e-09)
(0.000470822477689537312 3.48345644483454658e-09 -8.77050523669425709e-09)
(0.000507561126559398176 3.96794660918841311e-09 -8.49151103837510114e-09)
(0.000544403317643440683 4.56719899762481311e-09 -8.15482198141058355e-09)
(0.000581763735712482154 5.28439015576193153e-09 -7.77929059054595396e-09)
(0.000619964241934768743 6.2985561910670026e-09 -7.36787222216066657e-09)
(0.000660236370096090844 7.27191261287238531e-09 -6.90165150972570686e-09)
(0.000702617583931463836 9.24399320000271091e-09 -6.39774392483624666e-09)
(0.000752827615356922285 1.06604546263063586e-08 -5.80150056947590967e-09)
(0.000811229304440743457 1.30867711526711654e-08 -5.21858704841377298e-09)
(0.000188204788387410317 -1.40992577569177426e-09 -4.85046737618294944e-09)
(0.000227566205990811251 1.16994264210579749e-09 -5.89982613886234795e-09)
(0.000267627124977440009 1.92843880843747266e-09 -5.8982736528704752e-09)
(0.000306878265748262709 2.15853019032316107e-09 -5.74363345639295616e-09)
(0.000345205522417617696 2.39430161014327206e-09 -5.55720586607672422e-09)
(0.000383035426215443358 2.75066432228150258e-09 -5.43249433733961346e-09)
(0.000420801835796243357 3.194484502918929e-09 -5.3540352314686843e-09)
(0.000458455690736286501 3.70297896824906309e-09 -5.26543037683748309e-09)
(0.000496126065672516199 4.28996940833246828e-09 -5.14984980987506485e-09)
(0.000533989298804425443 4.9985003764872796e-09 -4.99392157633918571e-09)
(0.00057243971681185011 5.81111013019427057e-09 -4.79678443154976438e-09)
(0.000611730180492465916 6.93614645726667041e-09 -4.56332601710090675e-09)
(0.000653179256356192935 7.97174134611456685e-09 -4.29286522908520063e-09)
(0.000696906054657743458 1.00566533258291272e-08 -3.99356669604669631e-09)
(0.000748699228105972284 1.14926581372091855e-08 -3.65716864543348003e-09)
(0.000809070836618341828 1.387150690484662e-08 -3.32503592099138377e-09)
(0.000178290798606171999 -1.00341564989092455e-09 -3.55570996755126124e-09)
(0.000217139105169148139 7.9477479903069013e-10 -4.00924448441164145e-09)
(0.000256301519998874321 1.54344139225235282e-09 -4.05089968841860252e-09)
(0.00029523779424058547 1.97997547103186925e-09 -4.10524059248675817e-09)
(0.000333837359104583982 2.3826560425121573e-09 -4.12783679807030085e-09)
(0.000372217266816777539 2.84000463697393603e-09 -4.09473308702724843e-09)
(0.000410504975310635868 3.35363045016194818e-09 -4.02461872719067299e-09)
(0.000448776579076121324 3.9282730499983852e-09 -3.92356099445391607e-09)
(0.000487154551037478185 4.57817664616829485e-09 -3.7980849537190058e-09)
(0.000525792202326890888 5.34672935319652905e-09 -3.65074315072434254e-09)
(0.000565029097623328028 6.2108823784817557e-09 -3.48536097458772279e-09)
(0.000605117547093045847 7.39525396343844664e-09 -3.3027495790446314e-09)
(0.000647408746031929733 8.47678939227789619e-09 -3.10083443090030092e-09)
(0.000692126023246807955 1.06242993925508192e-08 -2.88264101630706072e-09)
(0.000745188156984901459 1.20934064102822421e-08 -2.6394988617458529e-09)
(0.000807238912780447091 1.44543845040632022e-08 -2.39381224871319805e-09)
(0.00017248322002534161 -8.84090712717943805e-10 -2.44379388233567827e-09)
(0.000210928320982913193 7.07998285735835416e-10 -2.71639477381823171e-09)
(0.00024972524927111819 1.43227550400267979e-09 -2.66136498467271542e-09)
(0.000288556409506506809 1.93745903718166156e-09 -2.64298148519216419e-09)
(0.000327290089319778779 2.40680874158484296e-09 -2.62963216084070321e-09)
(0.000365948228325090551 2.91312512339411481e-09 -2.60123483163940449e-09)
(0.000404570926371472896 3.46716777201780487e-09 -2.55702465575694272e-09)
(0.000443222701286418211 4.0809224717801589e-09 -2.49782535289736513e-09)
(0.000482019918757847071 4.76964765335339852e-09 -2.42445179923211913e-09)
(0.000521114319779743306 5.57739277203136124e-09 -2.33716662970168081e-09)
(0.000560840417949214792 6.47755225268045119e-09 -2.23592024869838824e-09)
(0.000601467024700592869 7.69765255786820131e-09 -2.12106864288349675e-09)
(0.000644355975609273808 8.81374035051372498e-09 -1.99335145120689952e-09)
(0.000689821396238015781 1.09969523990725606e-08 -1.85432450962271413e-09)
(0.000743893054699784444 1.24948008673538015e-08 -1.69717888197580806e-09)
(0.000807315915389537572 1.48299686165894159e-08 -1.53485726496630224e-09)
(0.000168856007806549106 -8.07655000140603477e-10 -1.41860532501368124e-09)
(0.000207217705434505235 6.84865350546944436e-10 -1.5742476868544241e-09)
(0.000245845258532456038 1.38317944452658849e-09 -1.52940913737839197e-09)
(0.000284555750121490343 1.90921928927264446e-09 -1.51674594363671804e-09)
(0.00032325814060021619 2.41076778317170699e-09 -1.5122466017627078e-09)
(0.00036197914662260399 2.95068138775539844e-09 -1.49930264247727644e-09)
(0.000400739283314401073 3.53498311163005755e-09 -1.47549883213131303e-09)
(0.000439585894613622155 4.17669907098968485e-09 -1.44214559566854614e-09)
(0.000478621683409214294 4.89172169025992333e-09 -1.40003925364179027e-09)
(0.000517990599738689232 5.72383808840486855e-09 -1.34925622759799665e-09)
(0.000558021885961694757 6.64703671462859816e-09 -1.29075749501296348e-09)
(0.000599003672392084581 7.88925837107773743e-09 -1.2248663129340045e-09)
(0.000642311332100816909 9.03071586479235957e-09 -1.15154098984556042e-09)
(0.000688337683295954668 1.12411947515485065e-08 -1.07049201608941473e-09)
(0.000743227161833002353 1.27618433408938094e-08 -9.77110348153403301e-10)
(0.000807846914726141705 1.5101479907128103e-08 -8.77029944036555426e-10)
(0.000167111183524931803 -7.74718272662629805e-10 -4.66954752787550574e-10)
(0.000205456284433094176 6.74911338653212622e-10 -5.16112423366692421e-10)
(0.000244032509330997663 1.36433244040100547e-09 -5.00167803659326119e-10)
(0.000282703591837065718 1.90110142568731887e-09 -4.94956707657258077e-10)
(0.000321395979064097355 2.41569327377633825e-09 -4.92458581320635471e-10)
(0.000360141110826054354 2.96823370962709496e-09 -4.87710655601169729e-10)
(0.000398958254775612755 3.56613678425187955e-09 -4.80031230291197607e-10)
(0.000437888515866351636 4.22145254704645456e-09 -4.69242703415195854e-10)
(0.000477027928889737791 4.9490642137010565e-09 -4.55509226545964968e-10)
(0.000516519469702280982 5.79256800383743455e-09 -4.3906672775615893e-10)
(0.000556693101877652396 6.72758341754673862e-09 -4.20202447026930291e-10)
(0.000597853448249382135 7.9807421525905826e-09 -3.98794167204266573e-10)
(0.000641380339489885844 9.13565784533064899e-09 -3.74966341696547519e-10)
(0.000687729976082565239 1.1362039043700316e-08 -3.48652753702824566e-10)
(0.000743109979068718395 1.28923259648249388e-08 -3.17727119968095685e-10)
(0.000808488738337802574 1.52563307004629653e-08 -2.84234973315798796e-10)
(1.27925361686847353e-06 -0.00788665677472356885 -2.55351809613070543e-06)
(2.21879242661331971e-06 -0.0132345136820424848 -3.3185993513021563e-06)
(2.21681383607518508e-06 -0.012747589665385646 -2.31541713435735134e-06)
(1.01849657829998725e-06 -0.0139263116336911554 -2.20008991866054294e-06)
(2.52085525841091557e-06 -0.014041646268302909 -1.27438766909539844e-06)
(1.78878313535806332e-06 -0.0162375606936440951 -1.59833937498227246e-06)
(-8.77647330677156152e-08 -0.0153689840943459777 -2.18267911390476604e-07)
(2.2548258700635275e-06 -0.0120457901260126246 -1.84497718815902791e-07)
(-7.3700951733010547e-08 0.00231597888204247791 -2.19489005199861733e-09)
(-7.15495805189342593e-08 0.0021993268190078864 -2.12155627674046278e-10)
(-7.11951520067323688e-08 0.0022427481406744991 2.63798279859579317e-09)
(-7.3604667121790817e-08 0.00234072245096574125 3.51419728730606904e-09)
(-7.65997487291311988e-08 0.00242322882664426295 2.57121787159429795e-09)
(-7.26347830806625987e-08 0.00240456601337335181 2.11420186020404355e-09)
(-7.37557048308190033e-08 0.00246834511710666317 3.36017523364207202e-09)
(-8.08410596349970471e-08 0.00261469610400510283 2.26891039247556552e-09)
(-3.45621621727995064e-08 0.00212547447986519795 6.64455300804402116e-09)
(-3.22149785425285009e-08 0.0021483355828668684 -1.28533891722545401e-09)
(-3.20465014966225825e-08 0.00219265074023302069 -1.11858715223812914e-09)
(-3.30178511470562557e-08 0.00226068048214773595 -2.50006703595760358e-10)
(-3.32879266782708601e-08 0.00230902589755887502 -3.00966850198933034e-10)
(-3.40052356208544158e-08 0.00233431689888936389 2.83975729889123872e-10)
(-3.48713876211264901e-08 0.00237956141470291359 7.07902034108624457e-10)
(-3.54555214210325887e-08 0.0024314533512561666 4.13387533743013277e-10)
(-4.02434680794756344e-08 0.00206236166269289055 -3.40027242346783096e-09)
(-4.00845924456981558e-08 0.00211385750985331475 -2.94776946646915594e-09)
(-3.9681910418701219e-08 0.00214652753635448694 -2.81817069740201534e-09)
(-4.06408247738576815e-08 0.00218372262045134647 -1.66576578549675346e-09)
(-4.11901142270126287e-08 0.0022121401449610471 -1.05287848672670578e-09)
(-4.14129860093674867e-08 0.00223943931610821271 -3.95190710625291381e-10)
(-4.19789528950213271e-08 0.00226598816219080509 -5.48511356925748807e-11)
(-4.27422007650332402e-08 0.00228377716820863655 5.23805236868802914e-12)
)
;
    }
}


// ************************************************************************* //
