/*--------------------------------*- C++ -*----------------------------------*\
| =========                 |                                                 |
| \\      /  F ield         | OpenFOAM: The Open Source CFD Toolbox           |
|  \\    /   O peration     | Version:  2206                                  |
|   \\  /    A nd           | Website:  www.openfoam.com                      |
|    \\/     M anipulation  |                                                 |
\*---------------------------------------------------------------------------*/
FoamFile
{
    version     2.0;
    format      ascii;
    arch        "LSB;label=32;scalar=64";
    class       volScalarField;
    location    "0.239999999999999991";
    object      p;
}
// * * * * * * * * * * * * * * * * * * * * * * * * * * * * * * * * * * * * * //

dimensions      [1 -1 -2 0 0 0 0];

internalField   nonuniform List<scalar> 
29184
(
2833.60838472010437
2832.95140606907171
2827.81065009652775
2819.78918881579284
2810.13850184678449
2798.16155854866156
2784.18819687376026
2768.82494334751846
2752.9643903876804
2737.29417018165259
2724.81855963782664
2714.9356842840848
2712.50707526884798
2705.66634974972112
2713.8784180649759
2533.36941143226431
2710.16087087454798
2709.11711618404752
2704.01806791422632
2695.99274658177774
2686.06626986162746
2673.93386833404611
2659.75393681463629
2644.0702787252967
2627.68991794790873
2611.55365196343973
2598.01280925499213
2587.99288935941922
2584.97357043937882
2581.35358688625956
2587.16873854839514
2443.24143497510386
2585.71410231966638
2584.10314918587028
2578.9571124365425
2570.87725942911311
2560.63698729159614
2548.15998730294132
2533.51394372438745
2517.16712484597883
2499.88765842065641
2482.71741538981678
2467.7954064478854
2456.99451026326051
2453.85328456954358
2454.07913566713296
2466.53363682124746
2342.51442327080849
2460.18813517231774
2458.08243074006441
2452.79487712348691
2444.56358416922831
2433.90924684527363
2420.87573905399677
2405.50629690390861
2388.18046242251376
2369.59189058496531
2350.83880818740363
2333.9314427328145
2321.545301346001
2317.99869515107639
2321.77005476352087
2344.38353608565285
2242.54859378907668
2333.62649813181088
2331.1269564155582
2325.58296574209817
2317.06859058497321
2305.88485130735035
2292.10901825783048
2275.76496965517208
2257.12988459044118
2236.79506709669886
2215.85638514040875
2196.21000336967336
2181.34019563749916
2176.53381884729743
2183.30891967966363
2217.84579038850006
2145.55235904661322
2206.09043049906177
2203.25968944846318
2197.37527503814363
2188.45371008738402
2176.61577295062534
2161.91759078050927
2144.3475672604186
2124.06410033493648
2101.52146647225618
2077.73946420373431
2054.46417962947226
2035.95005186393837
2028.45167180637145
2037.27657901654175
2085.23845170451932
2049.43725386757023
2077.64891292316315
2074.52761765898504
2068.23331877012151
2058.78632248568374
2046.16217734915244
2030.36592701099426
2011.32417840931066
1989.04652616042245
1963.80891382890104
1936.46079092636
1908.50339905717283
1884.85518975632135
1872.40902638625221
1881.31597843788722
1944.64069555523997
1948.43957603823355
1948.38147993124107
1944.99572901915121
1938.22448260886927
1928.14459230512489
1914.60208585285591
1897.53852028353595
1876.78844503237701
1852.16888005172677
1823.73085505103791
1792.04219267841336
1758.18633379240487
1727.49614046387137
1706.59879063336189
1712.16915105308271
1791.32165665835169
1833.75827602220033
1818.37781029396569
1814.75246978882592
1807.43132539486487
1796.62241704887765
1782.03219553950544
1763.54555673075561
1740.86677122468973
1713.56205288439605
1681.41486178768923
1644.5872107252078
1603.48382114596734
1563.34132296495227
1528.60299924655305
1524.44724959461291
1615.57709112460452
1695.75740000117707
1687.725942562206
1683.89199409544881
1675.94249872056253
1664.32438044127321
1648.56290010040743
1628.52290016080588
1603.71803952638061
1573.39423165576227
1537.05072259708095
1494.29694267093782
1444.53992640725937
1391.86468828334137
1334.81612814187702
1312.95834530814363
1406.21718570563894
1523.80993259003617
1556.51514852251421
1552.49684317506239
1543.83198970455715
1531.34915878609127
1514.30373721977276
1492.61500357062664
1465.51226340117205
1431.86761331798039
1390.93225200170332
1341.54307172062772
1281.78257965109174
1212.65105354571301
1121.83101415788701
1072.9423061652767
1157.38946939768994
1311.73880026433426
1424.91303215963421
1420.72487952335541
1411.21298654222142
1397.83398091230629
1379.41213543977142
1356.02618691533735
1326.49389280372202
1289.33153620372514
1243.61452289031922
1187.1085321325902
1116.4749472748465
1026.4618527565226
891.226274925112421
806.401270043314071
870.581679664248895
1047.71924573125852
1293.2721155249435
1288.97002329383531
1278.37104144610953
1264.07453926318522
1244.2231708663453
1219.19697332921123
1187.19258048194251
1146.48381574659879
1095.98578340302333
1032.3770628832865
951.534080854669583
836.81321629904869
648.734986955641489
538.289274537812162
586.158932737453824
772.195815020766531
1161.89153851940478
1157.61601282233164
1145.62656077461861
1130.43398044160381
1109.17023375552003
1082.75790116659937
1048.33861068142846
1004.15388273826579
948.871826168468715
879.054781579821793
790.623851839259032
648.675431581769772
418.116165268220811
315.360960415207842
372.888411777358158
546.13030523043517
1030.20029934761646
1026.17691212464388
1012.85300676117572
996.924820740341147
974.313966395185844
946.84030460788631
909.976976310823147
862.478463608472566
802.660783274988262
728.75648406137293
634.637503521103781
464.046905861288451
234.404173479217548
175.781224898154619
228.821344705088961
363.924623404959448
896.943907004832226
893.578559524182765
879.888805854823659
863.406918690122893
839.472738239530372
810.88080833357958
771.372996770713826
721.246132578771267
658.311356996687437
583.317505917646258
482.411853126400729
290.067399325982251
119.172743168402917
101.07723401256716
137.251839072498171
220.856581621182386
2835.75726994726074
2835.30370268139905
2830.69651792761351
2823.58186607125435
2815.30064073488211
2805.40419043537804
2794.53142682223188
2783.77432969014262
2774.67140389641918
2769.19468954736158
2771.34406303510104
2784.11306437509393
2814.31846291077181
2864.6949893024148
2933.51106207341172
2991.4768809464872
2712.30863696018696
2711.47625894766816
2706.90430750699034
2699.77681696163063
2691.22049961164657
2681.15771721345345
2670.0628078743166
2658.95761982103477
2649.33181201538673
2643.28120340057558
2644.50639333826484
2657.02219455144041
2687.08111800029019
2739.46685575258743
2810.82510289717402
2893.0913618867985
2587.86296537358203
2586.47326398138102
2581.84854238511571
2574.65539887968862
2565.77722260786413
2555.35313023628396
2543.7687026079866
2531.97071862866005
2521.42167653826937
2514.29292539808921
2514.19568555377373
2525.95127882967427
2556.01138128701223
2611.71156834553312
2689.4510048295806
2785.54969752897523
2462.3437397793391
2460.46529163039168
2455.69230227690059
2448.33350551264721
2439.02606736843336
2428.02287554899294
2415.68241629952718
2402.86332936716235
2390.96624972624613
2382.21627724046448
2380.15646388135656
2390.38098247714061
2420.08827784670666
2479.13772886302422
2565.92861420837926
2674.29084175580738
2335.79551103478479
2333.52318592636539
2328.48607360453389
2320.82789763417804
2310.96979570682879
2299.19458510764707
2285.83584202579004
2271.65234433268824
2257.9548430675768
2246.97758586505688
2242.17816963951054
2249.97981265964927
2278.49209303873067
2340.22656445870007
2437.37110542795517
2557.3537809369891
2208.28010525192349
2205.66948036767462
2200.2833874396656
2192.19898055659087
2181.65950084334781
2168.92416601228479
2154.28251358394664
2138.380301735393
2122.40324509620314
2108.52906902716359
2100.06856292669363
2104.28220161951867
2130.17668370109277
2193.70633867159722
2301.49095791195577
2435.11386752970384
2079.86777286847655
2076.94936129424377
2071.14622571034033
2062.51354133419136
2051.1550621001561
2037.27459601065266
2021.08804494599872
2003.10385439484094
1984.34103184853984
1966.82974521872893
1953.60714271461848
1952.70390385159885
1973.76206043518482
2037.29809475676348
2156.27524285132949
2305.69076488403516
1950.64015212857339
1947.42440974362989
1941.14408408172199
1931.848961902474
1919.53432673596626
1904.32795325346524
1886.33985274797169
1865.90631777311091
1843.83681888919045
1821.88695156836911
1802.60364701277922
1794.56919950785914
1807.43617034145609
1867.66106614641649
1998.27623445337485
2164.91179140496433
1820.69006678984988
1817.17746959325154
1810.36442295244251
1800.29727693807104
1786.89425345757672
1770.18991180592661
1750.15466215386164
1726.91006817327957
1701.01808508663294
1673.78352483125241
1646.95610041498503
1629.22023191955532
1628.67538897081408
1679.34347282689259
1818.42882343399629
2005.87552172531537
1690.10974452567007
1686.2955629346925
1678.90504068026985
1667.96007989648842
1653.348050322978
1634.99018308398217
1612.67951093454212
1586.27855557931184
1556.07233326401138
1522.67758144116056
1486.73216322005715
1455.97257886968237
1434.07576451148566
1466.26764174170421
1605.44437710838633
1816.45434205800711
1558.99335526977416
1554.853326822398
1546.85129257839026
1534.93033242167712
1519.01098454267321
1498.86714200785786
1474.07556707133449
1444.21504405825181
1409.27986729952386
1368.87516612886407
1322.205176726741
1274.14128445037181
1220.34229851977875
1223.48152476458631
1353.96637298600785
1589.14888305326554
1427.51629953402266
1422.99681888651594
1414.32488124107726
1401.33051114417685
1384.04218201970912
1362.00918680979271
1334.57327062752893
1301.06843492915186
1261.18209647636218
1213.12003306751194
1154.39320436820321
1084.15050535772662
986.588507083805098
950.94816663186657
1062.89898576270593
1321.46455036208545
1296.04651898958832
1291.107036462216
1281.62753552424692
1267.42998117731827
1248.77352049298065
1224.8033351866161
1194.65386495114899
1157.52648804253135
1112.68691828586452
1056.85398281945527
986.168777590072295
889.459599851652456
737.099563974574266
662.439190307485205
749.013471314331582
1008.302768440911
1164.89883451249921
1159.58687660197279
1149.12227482481194
1133.56724024949267
1113.65875262939835
1087.79570380018208
1055.00419161957325
1014.42956881506643
964.660689735070946
901.786512024246576
821.459759641113124
695.153144023708137
489.03204452164141
400.605752168771573
476.547078074826004
714.633282727533015
1033.46934015779857
1028.03824871040456
1016.66186579334999
999.766253265925343
978.817888655232537
951.122904427380945
915.870368083875974
871.996994421535646
817.495563807651934
749.04173735338145
661.225295006745228
503.835362764437605
280.311396018203027
226.570518713034232
290.389361050251523
476.276729327573548
900.386164698046514
895.489592725878083
883.820855992850966
865.994113558281924
844.02025055632771
814.462928551405412
776.99332866248028
730.025945613318754
672.088120097927231
600.149470003291071
504.251315761733622
323.003982101922247
150.497882597572698
133.873819418388905
178.703956693267969
290.993922504778766
2837.81986576750205
2837.56682568096767
2833.46212922450468
2827.19161598879555
2820.17763739027714
2812.19708829720912
2804.15756291040998
2797.5604999867619
2794.43889184571708
2797.67340283612339
2811.83554259368248
2841.75686934100668
2894.85513251463408
2977.14687454453451
3086.19832080348533
3210.84808118280216
2714.36910166104053
2713.74686981688956
2709.67213837248983
2703.38071568888154
2696.09180206920564
2687.93453922845993
2679.66075801798524
2672.69535374934685
2669.052797866942
2671.65974187258234
2685.02480160458617
2714.68851096857952
2767.8609744401374
2851.94653718915879
2964.70408869274934
3112.50060349719752
2589.92318764498123
2588.75561209539137
2584.62540209656163
2578.25832758743854
2570.63858054100092
2562.10390713846391
2553.32254863458093
2545.64384897733771
2541.06777970032226
2542.57291429437873
2554.68007420426193
2583.63599438404481
2636.89165166611929
2724.06253239507532
2842.35251863343638
3006.13427349589711
2464.40737368540158
2462.76120345743357
2458.48155283350661
2451.93546306488497
2443.86950225088822
2434.73399614503978
2425.17227916478487
2416.44496765859549
2410.49942699684334
2410.35898042652479
2420.54813474840967
2448.0685168246373
2501.06457730136481
2591.48257629837553
2716.99042914974962
2895.36969952773097
2337.86504876468643
2335.83347606899451
2331.29049742132293
2324.42849243530236
2315.78731546061636
2305.85152176756083
2295.24108865584276
2285.11576661977915
2277.33521185154405
2274.93719696734752
2282.41948575350079
2307.63486014514274
2359.58202504263909
2452.75125273986305
2586.35200933094438
2777.52042663090606
2210.35543926034779
2207.99552039715854
2203.10570511851347
2195.79611772031694
2186.44067805222176
2175.50969536209413
2163.58100948478568
2151.6964275993796
2141.58438699402632
2136.24377167344937
2140.07963490725342
2161.83540531710514
2211.43329278591045
2306.52246356235401
2448.245941017733
2646.89705467440808
2081.94568454869068
2079.29355874486873
2073.98917826336628
2066.10341665504302
2055.88670023844224
2043.769292418031
2030.25736984501691
2016.2413919733267
2003.26791435047539
1994.21848266053416
1993.28007109373584
2010.04314619538764
2055.16615421044162
2150.52245249058888
2301.54337118339026
2509.08927330188135
1952.71405835004043
1949.79154164056217
1944.00982504916738
1935.42584884223766
1924.19977697804461
1910.71089222353385
1895.35865807461914
1878.83081465994246
1862.4428313414237
1848.84457986267853
1841.80083063902521
1851.54494098926898
1888.95669039843915
1980.93219350048548
2141.75406736660898
2362.33841483326842
1822.74921665472493
1819.57609836235542
1813.25286855397349
1803.85404442728191
1791.47311571763385
1776.43988347066397
1759.00339107548257
1739.58163849281846
1719.22282497802212
1700.18308606003984
1685.51562459435149
1685.61969291244395
1710.22914572063019
1792.82758043375361
1959.57186762382389
2195.44190193253144
1692.13721559554642
1688.73993451380738
1681.81301777387876
1671.49157427518048
1657.81710128191753
1641.08633417542819
1621.33924447885306
1598.64943670350567
1573.7820262899711
1548.37841807022119
1524.43447887584057
1511.40669747730067
1515.68459411516892
1580.56243122532464
1746.69602808616514
2005.63188351514918
1560.96839572227827
1557.36485655555725
1549.77019575655117
1538.43747324769924
1523.34572115850824
1504.79185163792158
1482.5311012040454
1456.23056566956666
1426.38489418312702
1393.70756897160754
1358.68761735829185
1327.93780651707061
1301.59709169206371
1338.8228694176446
1496.57905446559198
1784.38742035254882
1429.42381216764056
1425.59753285620559
1417.22953849094324
1404.82042687106377
1388.21436263238206
1367.756570432633
1342.82448521924266
1312.66844704534492
1277.5643838359631
1236.86193038236615
1189.05594083191022
1135.20198086823143
1065.8689236638495
1066.18468847409895
1205.79707160996099
1514.40278617776335
1297.86921672143467
1293.80621198062386
1284.47349261115573
1270.92413743437669
1252.73820025266195
1230.37731065543517
1202.70737569338939
1168.63640913943186
1128.28281880017244
1079.30169782999405
1018.15902544040978
936.133733128629956
810.958478261788059
769.676098669153589
886.89880157364064
1194.54249167296507
1166.60581323827364
1162.3981996552709
1151.89234807301364
1137.11777391371515
1117.33393463964626
1093.19147101439057
1062.81234188695521
1024.9421902420795
979.477932964616684
922.816217400003779
849.936910396058465
735.726477491618425
551.056652773132555
482.667966846556737
574.822585639157978
867.402049767354129
1035.10738935191921
1031.02466664364897
1019.40034687393381
1003.38549439453914
982.110943533178897
956.388675677329047
923.274815815708735
881.782071705758881
831.253254777736856
768.263843176308683
685.54802300385677
537.171312688265516
323.518261792542035
274.182250430792351
347.698272649398689
583.623457551767615
902.209376849127466
898.655380385307808
886.545438902190426
869.487542447543319
847.016998635975142
819.781979033747575
783.796486185509139
739.018088689299702
684.040955923669571
616.570395115078327
523.409568990824255
348.113828931181388
177.6904948519512
159.736258812370522
215.269930991268694
359.983813832129272
2839.72709958084533
2839.65264340152771
2835.99704518361523
2830.47631692842606
2824.57702017090605
2818.26657658376462
2812.67396666061177
2809.60182136745016
2811.4648123004763
2821.64162194195524
2845.11689685952615
2887.25318678182384
2954.88981184130944
3053.93463992028592
3177.22027136125462
3303.81086333072926
2716.27719199562989
2715.84145160886146
2712.21064257242369
2706.66146621029475
2700.48759965600493
2693.99114432119404
2688.15104408498701
2684.69813598639075
2686.03453233797836
2695.58487112404782
2718.31528977150174
2760.22746350151465
2828.13688310415773
2928.80621105398814
3056.36475601144002
3204.56856808985503
2591.83619033417426
2590.86548772313381
2587.17577996589716
2581.54233184827899
2575.02980096522697
2568.14028344873532
2561.77300454894794
2557.58890069309109
2557.98143177937936
2566.43083724197504
2587.94330318550692
2629.18762750883616
2697.30635857634798
2800.77556547067206
2932.90854101322202
3096.52581379039293
2466.33281244333875
2464.89093735812503
2461.04865072825123
2455.22524233988088
2448.25202079843666
2440.73969678074627
2433.56373286101461
2428.30390922049855
2427.30878422762362
2434.11080628450736
2453.74468830946853
2493.64184083080772
2561.62657761272385
2668.10551132367209
2806.86130132472954
2981.82717488134313
2339.81165554155496
2337.98732042921984
2333.87843691894659
2327.72663111277507
2320.15796443497584
2311.81536269044091
2303.55187056167506
2296.85684787411128
2294.00129954680961
2298.54035000336717
2315.50934951796989
2353.21483754703831
2420.31901248989925
2529.53183907440098
2674.96564964610116
2864.18708916952664
2212.33303353785413
2210.17848240744843
2205.71795313728171
2199.10416346660259
2190.79559789561063
2181.4183829992312
2171.78476738026166
2163.28200966962095
2158.06416863296727
2159.64730290108037
2173.0046106959021
2207.38508479964321
2272.3836457240609
2383.64377289068716
2535.76498618519599
2737.17697188625152
2083.96603373585913
2081.51055595396247
2076.62830606896478
2069.42175499676932
2060.22172691885316
2049.60754990838268
2038.32175664801298
2027.62899644188724
2019.51628953026011
2017.35719019447788
2025.96009579142947
2055.5073074157649
2116.43507990093258
2228.18120574594377
2387.46897603024308
2595.79435356727345
1954.79113027121866
1952.04586826142872
1946.67749039689693
1938.75342239885026
1928.51126158205966
1916.4611905736615
1903.24423202910975
1889.9760104874581
1878.41290743271566
1871.63065469495905
1874.123297572296
1896.82278112273389
1950.72899382336595
2059.72732823896968
2227.14199085708879
2445.32712790566438
1824.89646584123761
1821.86719310151125
1815.94970258343801
1807.18814360063061
1795.76018310017571
1782.08161276568626
1766.66373205403011
1750.44437594227861
1734.86631843185273
1722.49721597544954
1717.31354862463922
1730.4991927700346
1772.84165864010788
1873.73725487985803
2046.845172879953
2276.01067393641779
1694.3651533379491
1691.0627185939004
1684.5393603975599
1674.82721999903447
1662.08294476469541
1646.59171911631802
1628.72170712985621
1609.20311381841566
1589.04983126889192
1570.05698084228857
1555.43975976161391
1555.57657263918418
1579.37134039159855
1664.92397875745814
1837.71519229741466
2089.28079851341545
1563.3010234835258
1559.70762619779089
1552.53013553768369
1541.76553631926686
1527.59484993177352
1510.1218776485789
1489.58205711557366
1466.46708981873303
1441.21135397494709
1414.50964551535844
1388.49572386283216
1371.0603386356272
1366.83720032452356
1427.94178813678218
1593.09750297575738
1873.97626465771418
1431.90184864801972
1427.94219397070242
1420.03808949836184
1408.124490408572
1392.45564167117755
1372.87110499424148
1349.50360747116952
1322.59389672229872
1291.83134523449212
1256.41288761085116
1217.05918601884423
1176.69202977693158
1132.44056482070982
1159.99378341610691
1309.41719880193887
1607.42877156059717
1300.50718455271021
1296.10424929180203
1287.35244107613607
1274.18283087437044
1257.00778941404906
1235.24461021941192
1208.9943601941161
1178.28595338787864
1141.81495861891699
1097.08178186872397
1043.48306230728463
974.661965370713688
876.551395082078898
863.177476505909453
992.246392624815826
1289.00737282653245
1169.38572168291785
1164.54915522071269
1154.84220498312243
1140.31893968998088
1121.69255385368388
1097.71080936536941
1068.68991978445001
1034.44120530940017
992.105171692192698
938.211701894013913
871.627025157919434
769.346559523718952
609.105384158982361
559.934874149594407
666.885802782398741
949.789864492586958
1038.04792055462735
1033.00241154949003
1022.37166983397879
1006.51894248475173
986.525368604946379
960.241425440904322
928.778247155334611
891.308886488990083
842.757316900784645
780.549077081588393
702.983670061329576
565.054706820744514
365.036310571378181
313.103133288786694
403.890553200781369
650.804398610060389
905.369043293342656
900.746291907692239
889.421943943272709
872.500548064573422
851.207658014744084
822.694833387406334
789.206266395268585
748.450315975870126
693.793052153461304
624.871036407176916
536.522925850855245
370.105098240557254
202.62023016438286
180.196521886985806
245.250638433546612
411.934392728857347
2841.41042493121813
2841.46986848211418
2838.19189023157287
2833.29700290589699
2828.32178377291257
2823.38253739489483
2819.77698382443259
2819.51948392555687
2825.27204730628955
2840.68807439103648
2870.86435318324538
2921.43354505533125
2998.07640647332482
3106.63854391984205
3233.25846629203534
3360.26319993926563
2717.96047548327715
2717.66487178775697
2714.41087552538238
2709.48552651589944
2704.23599829705608
2699.10283286583945
2695.24115135059492
2694.59810357512015
2699.83188396780906
2714.63508019110122
2744.15934480377382
2794.47225078785914
2871.48419040098179
2980.87673130475105
3113.64416889136965
3261.36679741275202
2593.51969400505504
2592.69936612175434
2589.38981914546821
2584.37717994317609
2578.78229859916746
2573.24253557537304
2568.83969224513703
2567.45526192881425
2571.73873412751254
2585.44413431218527
2613.79302865340924
2663.42039393931782
2740.71695921403352
2852.68575032270473
2990.06329241762796
3154.29185601586687
2468.01727633919336
2466.73670676396523
2463.28292833786873
2458.07673033867513
2452.00864321500421
2445.82703210471846
2440.59587029269142
2438.11810850569373
2440.99540523661017
2453.04664200540128
2479.54718098572175
2527.8729354141251
2605.1069667947163
2719.94641420861944
2863.51216634662569
3039.97462840080789
2341.49450505960203
2339.84539980719137
2336.14038634930512
2330.60241091674197
2323.91997363247765
2316.88214607698319
2310.53864199459895
2306.59968175787117
2307.58487257269098
2317.34892384749674
2341.21702912941146
2387.44004874890834
2463.87777933601865
2581.387089312233
2731.490981279896
2922.93912340829456
2214.0068282919251
2212.05125175342073
2208.01686973886444
2202.01306738921267
2194.56393145516176
2186.45797607022723
2178.71524012894952
2172.93300440798566
2171.50429286865847
2178.26400638864197
2198.57027567356363
2241.60094620842847
2316.02439228203457
2435.58075707043599
2591.76182305661951
2799.62972669244709
2085.61672140518658
2083.40524773418292
2078.97593416491554
2072.37392221185019
2063.99617583966347
2054.61209605071781
2045.18557806353783
2037.16556110749275
2032.75864924471034
2035.69875276446373
2051.32705134829939
2089.71067579308692
2160.42502622765642
2280.72548009874617
2442.1985093394137
2659.96579295957599
1956.39442342921166
1953.97820149524773
1949.08804760167573
1941.76058188133175
1932.28928954821799
1921.42187080046824
1910.0328243868048
1899.3701923404019
1891.38157456310591
1889.59017861586176
1899.22438688937495
1930.98175308512236
1995.30551328338197
2114.11466505639692
2281.75155659207212
2507.36346970793147
1826.42055573248763
1823.86654612352663
1818.43845434501827
1810.26412856822412
1799.53628251318423
1786.99065775571944
1773.3713746249025
1759.65755428840271
1747.45668644177249
1739.94292153202241
1742.07558347043459
1764.5656746952302
1818.44835976601757
1931.0665348516693
2105.38582101954989
2338.33380984311771
1695.79887316906184
1693.19009492732835
1687.11831559739176
1677.98621500511308
1665.84662181092494
1651.44505482392674
1635.34397440125827
1618.17908126759289
1601.1249326217428
1586.84970866369508
1579.79380432548601
1589.48916328090172
1626.73570535544559
1726.49498948147675
1903.23555046567549
2153.44967141909819
1564.68660146055572
1562.03637020202245
1555.19942566091686
1545.02071684315592
1531.32598201057499
1514.92068337876958
1496.10982766476855
1475.12540974062108
1452.61055967100015
1430.53331309829377
1412.39031075665935
1404.63252915798785
1416.25058268291764
1494.30251517402735
1667.09130622783277
1944.83889149798574
1433.29453847269951
1430.51044329172987
1422.78513472477425
1411.4982232853406
1396.1272394372254
1377.62087311992923
1355.91872777288768
1330.83212993926554
1302.38675359639615
1271.58657998228978
1240.35972762909569
1209.35343108772599
1183.98244668141933
1231.60561886417986
1392.28822880126927
1692.6336944607342
1301.89745269800051
1298.91068245876295
1290.16000028249255
1277.72365455107433
1260.59688128187395
1239.94731135243296
1215.27735859536006
1185.9937712841629
1151.3610898508723
1111.34725326535545
1065.81881140907694
1005.25484842658216
929.618690423053067
940.774642913648449
1082.76421020567636
1389.634320383773
1170.67645334189274
1167.56074323411212
1157.67564127976152
1144.08802030757852
1125.13122123592098
1102.3796153230935
1074.81368191965453
1041.4816125420723
1000.49679032400945
951.585339290759975
892.51668496130651
796.033771636635947
657.000195542308347
629.809019604032528
758.271110628994393
1056.07656046113379
1039.25552590269399
1036.1508087767661
1025.18242828861116
1010.52384303695408
989.730465433880909
964.977124928078865
934.60813091605678
897.430523551780652
849.877596393124804
793.297389762889679
721.838017312546071
585.07671046793439
398.368393652053555
346.390945202320154
459.243208457121682
727.701330356250537
907.079103844886504
904.029635526671427
892.26216530649549
876.59226239171403
854.212627331383146
827.635485254408195
794.448522285886156
753.417502351703888
699.693244081277271
637.449353247294084
552.015752781099309
382.154907714383171
216.219894734249692
194.387337212893698
269.964209490993881
454.321981080173146
2842.81382588997485
2842.95638816137944
2839.96483477943048
2835.54479861641857
2831.2684469023111
2827.36554855488112
2825.25003545148593
2827.07964392996519
2835.67884579369547
2854.82319144846042
2889.70163699304021
2945.6837483265349
3028.16064507117562
3140.56128233817117
3269.07308143666614
3391.06945733178736
2719.37073723303365
2719.16469786635116
2716.19090532188784
2711.73695815727569
2707.18753258667812
2703.08490390607403
2700.70639374507164
2702.1457138724154
2710.22785733407909
2728.77908719352536
2763.01181788697295
2818.77335650087116
2901.39411486162044
3014.82356281054126
3149.06777492984429
3292.57483314313959
2594.94684593304646
2594.22404095154525
2591.18658522378246
2586.63801052511872
2581.73737272629387
2577.21596595032679
2574.28135713992651
2574.96646432011539
2582.09238500092806
2599.55291777199182
2632.61998160106941
2687.70008871819437
2770.55767926353974
2886.51859743562773
3025.44221062325005
3185.72737009930597
2469.47428303601009
2468.29658657230175
2465.1029185554421
2460.35013080293584
2454.96545073592006
2449.78430882219027
2445.99791141301057
2445.56801713414188
2451.27522161431489
2467.0844363874794
2498.3164321137624
2552.12490428250021
2634.95845027886526
2753.34861396176711
2897.94693201506698
3070.46609061419713
2342.99686534073226
2341.45058268185312
2337.98886019401425
2332.8915346205431
2326.87713943655353
2320.81478955147986
2315.8825187150328
2313.96021313325264
2317.75777689081906
2331.28068103704345
2359.90156468787291
2411.65845674009825
2493.66576439160144
2614.47857300881424
2764.65500849373075
2952.27793276632565
2215.57364263702084
2213.71033402939429
2209.89745714411447
2204.3201820024974
2197.5194357563073
2190.35561737643911
2183.97842174088055
2180.17115685013232
2181.53410319811292
2192.05377790331704
2217.13943596638546
2265.78701061411221
2345.76463579374104
2468.74109933728823
2623.80909233477951
2826.64211652812401
2087.27269070960665
2085.12203283509916
2080.89084160864422
2074.70089204300984
2066.94772687276236
2058.4619948330369
2050.3400439590032
2044.24303533351349
2042.60839247902481
2049.30839594617601
2069.74404845828576
2113.87030311808712
2190.31221959773848
2314.41731527480715
2473.42367106939309
2687.17898439004966
1958.17299997328178
1955.74833561047171
1951.03963567685878
1944.10912950903321
1935.23420735408627
1925.2074478973941
1915.04362217929611
1906.24572358312025
1901.01709717316089
1902.97777539644107
1917.43445056414566
1955.09930045822352
2025.63544001844548
2148.8512373526255
2313.40319793294839
2533.4820270268674
1828.36660362383395
1825.67147100201942
1820.43245444244894
1812.63587303380109
1802.47053617675192
1790.68995119263377
1778.19782311730751
1766.29343120582053
1756.85364280957083
1753.05515792694769
1759.96987317564685
1788.60293196292037
1849.60524890812758
1967.89771982859975
2139.76103307594212
2367.1587877927077
1697.95492167418911
1694.98162861086007
1689.16730544358734
1680.38230769718552
1668.76399469959256
1655.03093931509716
1639.94570720232105
1624.55144799517984
1610.27226749010811
1599.60097002612542
1597.1714156904161
1613.35107052289368
1659.07339197337387
1766.52133476959443
1942.25052981544241
2181.51013372183161
1567.03952526569651
1563.77276710476849
1557.32803543297223
1547.43613415781783
1534.22096877020158
1518.3630332443131
1500.45648863102451
1481.23406846177386
1461.5016981978697
1442.77333074799253
1428.95526140998027
1428.14732556180093
1449.58518786064269
1537.31337306433556
1711.68239434721636
1972.32772786190594
1435.79575973260171
1432.20122826047987
1425.02723334146935
1413.90559937807279
1398.99662574834679
1380.88870017684803