<?xml version="1.0"?>
<VTKFile type="UnstructuredGrid"  version="0.1"  >
<UnstructuredGrid>
<Piece  NumberOfPoints="405" NumberOfCells="1536">
<Points>
<DataArray  type="Float64"  NumberOfComponents="3"  format="ascii">0.45 0 -0.2  0.475 0 -0.2  0.5 0 -0.2  0.525 0 -0.2  0.55 0 -0.2  0.451237614226924 0.02552274861493882 -0.2001525714292533  0.4758355228197009 0.02512153568750344 -0.2000971786973179  0.5006260354030997 0.02500022020498889 -0.2001146786635304  0.5255409600713279 0.02488911593579685 -0.2001689964348676  0.5505709588780692 0.02457998583358518 -0.2002354623603065  0.451750374370507 0.05067920824853234 -0.2002249727324831  0.4764595060668145 0.05032269533470429 -0.2001663795585036  0.5012523329764353 0.05009006274715348 -0.2001677496809188  0.5261575689526887 0.04986921388249906 -0.2001872239550944  0.5511524389674978 0.04949596430365741 -0.2002105052656992  0.4520646235990834 0.07573416725531064 -0.2001971446680402  0.4768795113635417 0.07545075449254754 -0.2001719370959588  0.501734766710364 0.07517370257014194 -0.2001722659876489  0.5266586238392432 0.07489117990080103 -0.2001759519812575  0.5516311888066872 0.07453896550869599 -0.2001798248417737  0.4522692891093332 0.1007304499848699 -0.2001247812413402  0.4771526887580792 0.1005031684216603 -0.2001337767200836  0.5020653884020858 0.1002246302874231 -0.2001521730100405  0.5270126812663447 0.09992813548293913 -0.2001657051074382  0.5519801860666962 0.09962508393484334 -0.2001786312918068  0.4523939843723811 0.1257091443162275 -0.200031245788895  0.4773331564127175 0.1255167970200032 -0.2000796395646432  0.5022859427575027 0.1252496159504935 -0.200125649706925  0.5272524533374341 0.1249636240975735 -0.2001641795022147  0.5522247553912176 0.1247059990150383 -0.2002029193913259  0.4525020873813058 0.1506899685528829 -0.1999477127009564  0.4774724299435447 0.1505071847418747 -0.2000283352288366  0.5024508844675096 0.1502577225287532 -0.2001022524825493  0.5274313120638885 0.1499901226840603 -0.2001693075012095  0.5524122737663357 0.1497586093757979 -0.2002380656844451  0.4526422965689574 0.1756855920032479 -0.1998942335519401  0.4776233652643435 0.1754971611509597 -0.19999092511841  0.5026125173261078 0.1752597047382404 -0.2000851269818792  0.5276023215798272 0.1750062478088803 -0.2001755287628658  0.5525926090335413 0.1747797369035688 -0.2002677359002895  0.4528174640573218 0.2006921701519517 -0.1998610048541519  0.4778115912808467 0.2004939632713517 -0.1999629961340145  0.5028150244608329 0.2002600730926583 -0.2000720719062043  0.527808689777892 0.2000127493236493 -0.2001797579482879  0.5527993810130715 0.1997819147547301 -0.2002826767192597  0.45 0 -0.175  0.475 0 -0.175  0.5 0 -0.175  0.525 0 -0.175  0.55 0 -0.175  0.4511337925645617 0.02557479736550132 -0.1750582003627484  0.4758354537957968 0.02516961670441947 -0.1750651197039597  0.500647765821532 0.02503902537094735 -0.1750808836582564  0.5255786686386841 0.02492859924965785 -0.1751153688863372  0.5506378831755158 0.02461879791163246 -0.1751588249028348  0.4516765831277877 0.05070839280102378 -0.1751011740215268  0.4764580606045522 0.05034696284720134 -0.1751132526363927  0.5012780150449035 0.05011028456170472 -0.1751308369564212  0.5261922670739294 0.04988097322179131 -0.1751585792521408  0.5511938120255073 0.04949697078111958 -0.1751960435356235  0.4520330245292655 0.07572829229898129 -0.1750860986772971  0.4768940094453964 0.07544461773306625 -0.1751162020250554  0.5017642217244147 0.07517236982130943 -0.1751404543503623  0.5266905225853319 0.07488888320882564 -0.1751661107993181  0.5516604361843822 0.07453036331364347 -0.1752030140128452  0.4522793482116264 0.1007056830456172 -0.1750352509721541  0.4771902823889067 0.1004791050319099 -0.1750872281211847  0.502107645687991 0.1002122102340922 -0.1751279190823651  0.5270529935701532 0.09992410580088325 -0.1751652118517152  0.5520163803523286 0.09961962944477125 -0.175212085957733  0.4524436824961592 0.12567551175063 -0.1749708030895313  0.477394248129639 0.1254868759859039 -0.1750454602278149  0.5023463933750371 0.1252347963607643 -0.1751085025458112  0.5273099413695553 0.1249621270941678 -0.1751662657206188  0.5522802057122795 0.1247058717708157 -0.1752306089299203  0.4525831116430651 0.1506602328564975 -0.1749131761088711  0.477555109574214 0.150480784057329 -0.1750067996120352  0.5025305244023064 0.1502447082743179 -0.1750912597779853  0.5275085432479669 0.1499905937996975 -0.1751706907756685  0.5524904344236937 0.1497617351556123 -0.1752539833553243  0.4527388105817024 0.1756612102382824 -0.1748748433254734  0.4777202883281607 0.1754762808397713 -0.1749798239474815  0.5027072934442114 0.1752493752997687 -0.1750794642094554  0.5276956473477843 0.175007033957809 -0.1751756143969633  0.5526883463007212 0.1747838534685412 -0.1752736266604206  0.4529145892085866 0.2006672913962702 -0.1748562196084572  0.477912369257651 0.2004748222427234 -0.1749652896435443  0.5029143793393782 0.2002514381545819 -0.1750728081143023  0.5279080194552604 0.2000141836839636 -0.175177501909503  0.5529020680097829 0.1997871744784964 -0.1752820181053066  0.45 0 -0.15  0.475 0 -0.15  0.5 0 -0.15  0.525 0 -0.15  0.55 0 -0.15  0.4512192615177926 0.02559070104260495 -0.1499978726059412  0.4758797024516982 0.02517358922748068 -0.1500402286884024  0.5006746385599438 0.02504455177317718 -0.1500574052569568  0.5256034699183805 0.02493605415504752 -0.1500827855062664  0.5506754252798735 0.02462017204058423 -0.1501161787677258  0.4517717846254404 0.05073153610764992 -0.1499995256745958  0.4765263656154236 0.05035951223216574 -0.1500606920905865  0.5013307777234013 0.05011943670216271 -0.1500936048611567  0.5262434180010402 0.04989017597222613 -0.1501301308726752  0.5512493950153357 0.04950070262044043 -0.1501782852461031  0.4521344134460525 0.07575245787835419 -0.1499807878706894  0.4769765243104448 0.07545779539385625 -0.1500580827971207  0.5018351460553142 0.07518010908997161 -0.1501043523771998  0.5267579478697365 0.07489290796715581 -0.1501503371505192  0.5517249412357746 0.07452751414656283 -0.1502108577528597  0.452389340135716 0.1007235895565678 -0.1499453535682266  0.4772840789552173 0.1004878575939681 -0.15003606441465  0.5021914359814267 0.1002160045879079 -0.150098901885272  0.5271322259410852 0.09992330712831847 -0.150158838484054  0.5520902570947989 0.099610209611749 -0.1502322635688967  0.4525579303891254 0.1256874993961525 -0.1499037553027797  0.4774961246692447 0.1254918132396615 -0.1500067761022541  0.5024401298250206 0.1252357235014821 -0.1500876817552169  0.5273995336088163 0.1249590110132286 -0.1501647078446009  0.55236541105688 0.1246936906794638 -0.1502518624693101  0.45270056117997 0.1506663012261118 -0.149868200390654  0.4776629975488679 0.1504825033700984 -0.1499807541118187  0.5026322994106818 0.1502441604994519 -0.1500777752284838  0.5276073686709716 0.1499871470194881 -0.1501710652726626  0.5525872098889216 0.1497504137540767 -0.1502709977018697  0.4528592803626887 0.1756635152623379 -0.1498453190996683  0.4778326471070556 0.1754763584876172 -0.149964328166559  0.5028148278729624 0.1752485307758947 -0.1500722396832909  0.5278014849532139 0.1750045184305324 -0.1501770901169399  0.5527944389416739 0.1747758742063748 -0.1502867057161102  0.4530362208672482 0.2006676152556734 -0.1498413487620323  0.4780259563331786 0.2004737587473084 -0.1499616951708342  0.5030236502238312 0.2002506992237149 -0.1500722338768844  0.5280170997284603 0.2000132452527883 -0.1501797460257737  0.5530137908295936 0.1997834858518101 -0.1502922522111396  0.45 0 -0.125  0.475 0 -0.125  0.5 0 -0.125  0.525 0 -0.125  0.55 0 -0.125  0.4512940204558754 0.02561537244506372 -0.1249552366632135  0.4759347032774212 0.02517753447112312 -0.1250044017220433  0.500712767226807 0.02504596443259815 -0.1250330296709856  0.5256355352250577 0.02493630858153991 -0.1250627198617946  0.5507122889473863 0.02460719546241338 -0.1250988257790688  0.4518807066964069 0.0507617669138726 -0.1249244436623483  0.4766159621009328 0.05037322772633748 -0.1250013449314134  0.5014030549606072 0.050126067912005 -0.1250540750331132  0.52630813112816 0.0498918196404118 -0.1251036091815613  0.5513142287414848 0.04948805361616031 -0.1251613167204867  0.4522581418209088 0.07578397014344122 -0.1248940478134653  0.4770865327180444 0.0754774212121912 -0.1249918150446171  0.5019310886300365 0.07518981839463371 -0.1250624879448712  0.5268464252647387 0.0748942075931424 -0.1251285596190924  0.5518094371972456 0.074516049950355 -0.1252060881724114  0.4525208733017618 0.1007522847760767 -0.1248641323704081  0.4774051418343024 0.1005077359729718 -0.1249758556917  0.5023017382677477 0.1002258256363333 -0.1250628885147198  0.527235800431933 0.0999232804358428 -0.1251448826335979  0.5521884737268137 0.0995989123507225 -0.1252385897820372  0.4526918683578141 0.1257113659487936 -0.1248371547176861  0.4776222290980716 0.1255098326327372 -0.1249590343927232  0.502558265856956 0.1252444643030199 -0.1250606423361957  0.5275123403904888 0.1249581250794126 -0.1251575724993137  0.5524736325325024 0.1246830189679832 -0.1252643352369887  0.4528346561303079 0.1506856209173265 -0.1248180689226198  0.4777909840979436 0.1504974417894089 -0.124946559771742  0.5027546856073372 0.1502516211519084 -0.1250597398484039  0.5277260617581003 0.1499862610098086 -0.1251690073933976  0.5527031476876564 0.1497412721693234 -0.1252859331830328  0.4529947648050739 0.1756805311341751 -0.1248092809899192  0.4779623594258979 0.1754894418324111 -0.1249420379358522  0.5029400732113437 0.175255461116163 -0.1250621004431742  0.5279244813705651 0.1750043586308333 -0.1251790306826363  0.5529167566683489 0.1747686483775186 -0.1253031497051311  0.453175201739079 0.20068418367531 -0.1248168512305979  0.4781586730767194 0.2004857795503203 -0.1249497097984167  0.5031525447034841 0.2002575041568972 -0.1250689949618095  0.5281448013161691 0.2000141415280248 -0.1251851061725622  0.5531425127892977 0.1997779961539434 -0.1253102819995753  0.45 0 -0.1  0.475 0 -0.1  0.5 0 -0.1  
[...]
<PointData  Tensors="Piola Kirchhoff sec Stress"> 
<DataArray  type="Float64"  Name="Piola Kirchhoff sec Stress"  NumberOfComponents="9" format="ascii">1.5891456071233149e+03 4.0251812055249443e+03 1.3791206492592156e+02 4.0251812055249443e+03 6.5383148616270264e+03 7.5523250156217074e+01 1.3791206492592158e+02 7.5523250156217102e+01 3.2635220137347924e+03  1.4662662881223305e+01 2.3159748788104789e+03 -6.7222895210906186e+00 2.3159748788104785e+03 4.7706417163650121e+02 -1.0072508040188094e+02 -6.7222895210906319e+00 -1.0072508040188093e+02 3.0279512465910949e+02  -2.7638242661292134e+02 1.6963402018572640e+03 -3.6913035247883094e+01 1.6963402018572631e+03 -5.2111171207892903e+02 -3.4269946179208097e+02 -3.6913035247883109e+01 -3.4269946179208097e+02 -9.9298498568826147e+01  -7.9805853559704110e+02 1.3883703867542338e+03 -8.2929045944562262e+01 1.3883703867542342e+03 -1.3621234815692567e+03 -6.8176205231398171e+02 -8.2929045944562318e+01 -6.8176205231398171e+02 -4.3413718257708445e+02  -5.3462576470210224e+03 2.0188606290759233e+03 3.9691709975879331e+02 2.0188606290759230e+03 -8.0237953363482902e+03 -1.3938287375976606e+03 3.9691709975879331e+02 -1.3938287375976606e+03 -4.1480790988425388e+03  -2.8935313580838260e+03 9.4779082902886202e+01 3.1738821087581254e+01 9.4779082902885989e+01 1.0127124564859104e+03 -7.3240743386108221e+01 3.1738821087581268e+01 -7.3240743386108235e+01 2.4782238488389183e+02  -1.7175667421307091e+03 1.6139868629484911e+03 -4.9554887524750384e+01 1.6139868629484913e+03 1.2079448210760488e+03 -9.9010120189626747e+01 -4.9554887524750384e+01 -9.9010120189626761e+01 2.6205386408387972e+02  -6.7837830388207772e+02 1.6457189042072810e+03 -5.2526743950882334e+01 1.6457189042072807e+03 4.3622925639136247e+02 -1.9588142361382996e+01 -5.2526743950882356e+01 -1.9588142361383028e+01 2.4263647653410834e+02  -2.3907168784052960e+01 1.4068193254730420e+03 -5.9706013354842838e+01 1.4068193254730418e+03 -3.5951863417660797e+02 9.1182188694147513e+01 -5.9706013354842831e+01 9.1182188694147499e+01 2.7650887092409840e+02  3.1024872311945302e+02 2.9450331881544128e+02 -8.3988936428039381e+01 2.9450331881544145e+02 -9.9116483358526432e+02 2.3201245086084103e+02 -8.3988936428039366e+01 2.3201245086084091e+02 2.9274192763288124e+02  -2.2268501513453334e+03 1.0188435698947210e+02 -1.6546268148507689e+01 1.0188435698947200e+02 8.6193077534423765e+01 1.7968901824101479e+01 -1.6546268148507689e+01 1.7968901824101479e+01 2.2933487479593694e+02  -1.6175613897200956e+03 7.1302572645158409e+02 -1.9697143015572959e+01 7.1302572645158398e+02 8.0297235181480187e+02 -1.1992627787639117e+01 -1.9697143015572959e+01 -1.1992627787639131e+01 1.7270085463602456e+02  -7.4460975375593159e+02 1.0366525727875123e+03 -4.2217896688694720e+00 1.0366525727875116e+03 5.5107693123853210e+02 1.1761946772757623e+01 -4.2217896688694694e+00 1.1761946772757627e+01 2.2097412389745651e+02  -2.7761684076500607e+01 8.7661462121901877e+02 1.9525142762511247e+00 8.7661462121901877e+02 8.5601133343291480e+01 4.6552337707250992e+01 1.9525142762511292e+00 4.6552337707250977e+01 2.2903867442197821e+02  4.2171881320874212e+02 5.9839548617003175e+01 -4.0952652146997757e+00 5.9839548617002976e+01 3.7158361106047920e+02 7.1290113300521625e+01 -4.0952652146997792e+00 7.1290113300521625e+01 3.6936320940748021e+02  -1.5035765252382382e+03 -1.0244480358201845e+02 -1.3899768638676589e+01 -1.0244480358201845e+02 -4.0609985007932090e+02 6.7730136002647555e+01 -1.3899768638676598e+01 6.7730136002647555e+01 1.4169102016150279e+02  -1.1819562836594766e+03 1.4526074697654707e+02 -1.1056056625452554e+01 1.4526074697654695e+02 2.8190863313174862e+02 1.9719376245738825e+01 -1.1056056625452573e+01 1.9719376245738825e+01 1.0553046135614862e+02  -5.8346366374873207e+02 3.8156621651439593e+02 1.0280981858739338e+01 3.8156621651439599e+02 3.6927521622582253e+02 1.9782540876798425e+01 1.0280981858739363e+01 1.9782540876798421e+01 1.5417151531969060e+02  -4.8997314057953311e+01 3.1749213602647285e+02 1.7159945208747118e+01 3.1749213602647296e+02 3.1585049493004237e+02 2.2885818326722980e+01 1.7159945208747121e+01 2.2885818326722976e+01 1.6739999311109966e+02  2.8862936678907420e+02 -1.8660462889958143e+00 -7.5374306485953753e+00 -1.8660462889957314e+00 8.5870921263470575e+02 8.9517035798522926e+00 -7.5374306485953770e+00 8.9517035798522908e+00 2.2559721447836446e+02  -1.1637755741060444e+03 -7.0744848163455973e+00 -6.4763477156799389e+00 -7.0744848163456506e+00 -5.2809059698980070e+02 4.2468983050191184e+01 -6.4763477156799416e+00 4.2468983050191241e+01 6.6724791378593920e+01  -7.8218761429548249e+02 -1.1629156958585197e+02 -9.3905938743571902e+00 -1.1629156958585203e+02 -2.7546002943482318e+01 1.6105730799498385e+01 -9.3905938743572044e+00 1.6105730799498378e+01 6.7061346043891362e+01  -3.9414824982226952e+02 -5.8027360032042097e+01 1.1069717449111435e+01 -5.8027360032042111e+01 1.8858959820360275e+02 1.5441534746974005e+01 1.1069717449111439e+01 1.5441534746974009e+01 1.0212064162428224e+02  -6.0135880802967350e+01 -6.1514301588671714e+01 1.4612460606391920e+01 -6.1514301588671721e+01 3.5243840615143944e+02 1.2538728483685377e+01 1.4612460606391915e+01 1.2538728483685382e+01 1.1237711435677927e+02  1.7702868277436659e+02 -4.3062490249500293e+01 -6.7505953528158980e+00 -4.3062490249500307e+01 8.6776322259636027e+02 -2.7087558237741494e+01 -6.7505953528158926e+00 -2.7087558237741490e+01 1.3473044676061861e+02  -6.3920228469322637e+02 -1.0450417359166531e+02 -7.0456541862128876e+00 -1.0450417359166522e+02 -4.2092129024121090e+02 5.6247333824031571e+01 -7.0456541862128850e+00 5.6247333824031564e+01 6.1825928747795643e+01  -4.5352735611524201e+02 -2.8703009442539172e+02 -6.3366933276682103e+00 -2.8703009442539184e+02 -1.3986068879721435e+02 1.7057573075534361e+01 -6.3366933276682227e+00 1.7057573075534346e+01 5.0279619126159268e+01  -2.3095706337838016e+02 -2.8638791506651035e+02 6.9696202991405789e+00 -2.8638791506651046e+02 8.1697852765783182e+01 1.1776901861404912e+01 6.9696202991405771e+00 1.1776901861404912e+01 7.4351209015088912e+01  -5.0713348559770715e+01 -2.4838650591758943e+02 8.7252589291369151e+00 -2.4838650591758937e+02 3.0172582830067790e+02 7.8253244862234412e+00 8.7252589291369151e+00 7.8253244862234368e+00 8.1980811088560955e+01  1.1506041876980710e+02 -5.9791542121748527e+01 -4.9034085092287985e+00 -5.9791542121748563e+01 6.5177214325187413e+02 -4.1139082019802800e+01 -4.9034085092288029e+00 -4.1139082019802807e+01 9.1472562622501471e+01  -3.5511293386540774e+02 -2.7065345552191332e+01 -6.2298086198624532e+00 -2.7065345552191342e+01 -1.9698712060483766e+02 2.1813837007558359e+01 -6.2298086198624558e+00 2.1813837007558359e+01 6.7680527668583082e+01  -2.0670789974920248e+02 -2.5286598953000305e+02 -8.5615492666194548e+00 -2.5286598953000305e+02 -1.3380552366771403e+02 8.6810730511299621e+00 -8.5615492666194548e+00 8.6810730511299621e+00 5.3965535599082727e+01  -1.0228670463412089e+02 -3.1404206523315264e+02 2.3878479366014136e+00 -3.1404206523315270e+02 4.4169731659085059e+01 6.6872883846387063e+00 2.3878479366014211e+00 6.6872883846387055e+00 6.7861081581137668e+01  -2.3618819857723725e+01 -2.7119560532421178e+02 3.6117809471560358e+00 -2.7119560532421173e+02 2.2858824254461135e+02 4.3715753202875307e+00 3.6117809471560327e+00 4.3715753202875272e+00 7.4696105396479638e+01  9.0342911969256335e+01 -5.5349400333726969e+01 -3.6608045517335785e+00 -5.5349400333726940e+01 3.7546010807475699e+02 -3.6757918572467169e+01 -3.6608045517335772e+00 -3.6757918572467162e+01 7.8887532567897580e+01  -1.8187315947682464e+02 -3.0949897394560221e+01 4.7312013499678613e+00 -3.0949897394560210e+01 -2.5705729556627666e+01 3.6074881357884774e+00 4.7312013499678631e+00 3.6074881357884805e+00 7.6015587443448709e+01  -6.2683505575086748e+01 -1.6283992485080938e+02 -1.7442314793676357e+00 -1.6283992485080941e+02 -1.5946469454176032e+01 1.6464781118632079e+00 -1.7442314793676361e+00 1.6464781118632064e+00 7.0357472087137410e+01  6.5755101189308034e+00 -2.2692368465250422e+02 1.5849819241823710e+00 -2.2692368465250425e+02 6.8991015809610388e+01 4.6025535655985932e+00 1.5849819241823704e+00 4.6025535655985923e+00 8.1862783165947846e+01  2.7788897754616738e+01 -1.8190511278382795e+02 1.6539715580421555e+00 -1.8190511278382795e+02 1.5672899041345593e+02 5.3861486787347319e+00 1.6539715580421539e+00 5.3861486787347301e+00 8.0472211406165300e+01  8.6047645202310434e+01 -2.7145350527928311e+01 -6.0333580545136059e+00 -2.7145350527928297e+01 1.5755995578671832e+02 -1.3912892279686131e+01 -6.0333580545136059e+00 -1.3912892279686115e+01 7.5469905571127782e+01  -8.0941430257317649e+01 1.8069745709743938e+01 7.9037021131505203e-01 1.8069745709743941e+01 6.8771564491602277e+01 -1.4522706180422910e+01 7.9037021131504848e-01 -1.4522706180422897e+01 4.3445801721114968e+01  1.2237929580924471e+02 -2.0260894952304305e+01 -1.3724196046056395e+01 -2.0260894952304319e+01 8.8602734783958894e+01 5.9562885554409706e-01 -1.3724196046056395e+01 5.9562885554409684e-01 8.2389456428683701e+01  1.1795773678078196e+02 -4.0254188537247821e+01 -2.0299229354927700e+01 -4.0254188537247806e+01 1.2275610572888915e+02 1.1360973920394434e+01 -2.0299229354927700e+01 1.1360973920394434e+01 1.0394522233469048e+02  3.1082965614511181e+01 -2.6934112581864586e+01 -1.1072986888117120e+01 -2.6934112581864550e+01 1.1578697156786872e+02 1.2492826000674471e+01 -1.1072986888117123e+01 1.2492826000674473e+01 9.2344181399798671e+01  7.6005337183110655e+01 2.2433393137361676e+01 -9.6149824807890631e+00 2.2433393137361698e+01 8.6149439759223455e+01 7.1712351265919798e+00 -9.6149824807890631e+00 7.1712351265919816e+00 9.1941751730001769e+01  2.5139530883265065e+03 4.1133741520916310e+03 3.7842845928381372e+01 4.1133741520916310e+03 7.8133855721407826e+03 -7.6201960810647250e+01 3.7842845928381372e+01 -7.6201960810647222e+01 4.1190528742663691e+03  3.0510138471118552e+02 2.3407030383601373e+03 1.3429319425310993e+01 2.3407030383601373e+03 1.2148233249901552e+03 -1.0897239301904413e+02 1.3429319425310991e+01 -1.0897239301904418e+02 6.1238122892977628e+02  -2.1960857379504620e+01 1.7610164790791528e+03 -2.3747594661795173e+01 1.7610164790791528e+03 -5.7986013556142737e+01 -2.2867590041852509e+02 -2.3747594661795183e+01 -2.2867590041852509e+02 5.4341388106427324e+00  -4.9201355227728942e+02 1.5057570154940393e+03 -5.8678813619573134e+01 1.5057570154940397e+03 -7.7831709336714300e+02 -3.7528050944191699e+02 -5.8678813619573134e+01 -3.7528050944191693e+02 -4.0727842796538431e+02  -5.0466632837999523e+03 2.2453886086539646e+03 9.9941116011168475e+01 2.2453886086539646e+03 -7.0579970195096803e+03 -6.7420272394068286e+02 9.9941116011168461e+01 -6.7420272394068286e+02 -4.5222248600751309e+03  -2.1367123593609167e+03 -2.0235861356313467e+02 1.9962213504518297e+02 -2.0235861356313472e+02 8.3702564135626380e+02 -1.6195500745500451e+02 1.9962213504518303e+02 -1.6195500745500453e+02 -7.3619744075598319e+01  -1.5978542156694537e+03 1.6469520184854046e+03 2.0069021628595575e+01 1.6469520184854055e+03 1.3253196760553053e+03 -1.8540048525273420e+02 2.0069021628595578e+01 -1.8540048525273423e+02 -2.8125459242965114e+01  -7.7324449585801381e+02 1.6955253603915492e+03 -4.1724895118191746e+01 1.6955253603915492e+03 3.4496352846108078e+02 -1.7697071559265098e+02 -4.1724895118191768e+01 -1.7697071559265095e+02 2.5989948696598166e+01  -2.2758307047027918e+02 1.4610044967269769e+03 -6.3594163042347702e+01 1.4610044967269769e+03 -7.0068999314158134e+02 -1.6706292472313896e+02 -6.3594163042347716e+01 -1.6706292472313902e+02 -1.8340853665977004e+01  5.4313021782963972e+02 3.4922254875679300e+02 -7.0368160142114661e+01 3.4922254875679306e+02 -2.0269153169456504e+03 -1.9950675642485533e+02 -7.0368160142114661e+01 -1.9950675642485555e+02 8.7564155290178093e+01  -1.6332112324189450e+03 5.4713513608608345e+01 1.6452550672687642e+02 5.4713513608608380e+01 1.1571971415703936e+02 3.9989054614857736e+01 1.6452550672687642e+02 3.9989054614857743e+01 2.7344151493014579e+02  -1.4875027889369246e+03 6.9929547944708020e+02 7.0857321273184340e+01 6.9929547944708008e+02 5.4901078676421594e+02 -7.0431462259417302e+01 7.0857321273184354e+01 -7.0431462259417316e+01 -1.1500870577326477e+01  -7.6925370297460154e+02 1.0460583376458487e+03 4.9052521185985611e+01 1.0460583376458490e+03 3.8452104789952261e+02 -4.5895342483004029e+01 4.9052521185985597e+01 -4.5895342483004036e+01 1.4546455358036857e+02  -7.4771937012731286e+01 8.4946713674556963e+02 2.4792055681619892e+01 8.4946713674556963e+02 -7.2876088656870280e+01 -6.2312448146205819e+00 2.4792055681619878e+01 -6.2312448146205943e+00 1.9692940101838425e+02  4.6560787453487131e+02 2.9270451574024253e+01 7.9738448502654302e+00 2.9270451574024275e+01 1.8394356617308944e+02 1.6179744095197250e+01 7.9738448502654276e+00 1.6179744095197233e+01 4.3794615864716729e+02  -1.0984020458249468e+03 -5.4709467851638792e+01 1.1332530562634417e+02 -5.4709467851638770e+01 -3.9484206761561273e+02 1.7271766240173818e+02 1.1332530562634417e+02 1.7271766240173815e+02 2.6555812895686239e+02  -1.0950539805944497e+03 2.1153736218889117e+02 7.8974151268580826e+01 2.1153736218889108e+02 1.0671542381527914e+02 6.6420192944801357e+01 7.8974151268580826e+01 6.6420192944801315e+01 2.3763749250688391e+00  -6.3419562272666928e+02 4.1106203128080909e+02 9.2725190380290371e+01 4.1106203128080909e+02 2.1866378894531434e+02 2.8452142002279711e+01 9.2725190380290357e+01 2.8452142002279707e+01 1.0753674451351563e+02  -5.2778635050679263e+01 3.2755757683162733e+02 7.6563383470122503e+01 3.2755757683162733e+02 2.8587971555077513e+02 1.6711174208489471e+01 7.6563383470122517e+01 1.6711174208489474e+01 1.9896385038689320e+02  3.3932902541782084e+02 -3.3068255251519680e+01 2.6049469394328753e+01 -3.3068255251519737e+01 8.9516337636036189e+02 -3.2710303746876725e+00 2.6049469394328760e+01 -3.2710303746876761e+00 3.5920290445379072e+02  -8.9576096367835953e+02 2.6645354111658207e+01 9.6825571511563453e+01 2.6645354111658186e+01 -4.7525302040850721e+02 2.0195527709392809e+02 9.6825571511563439e+01 2.0195527709392800e+02 1.5612216038105797e+02  -7.3433853148039645e+02 -2.6190573610679461e+01 6.9524250724911113e+01 -2.6190573610679451e+01 -1.1551442302947572e+02 1.0708639132751925e+02 6.9524250724911113e+01 1.0708639132751928e+02 2.4468700311844667e+00  -4.3461033854464142e+02 1.3951189144514474e+01 9.0138184449857107e+01 1.3951189144514515e+01 1.2231768780200200e+02 5.1006619082399901e+01 9.0138184449857150e+01 5.1006619082399908e+01 8.2522033472856478e+01  -5.4190729991678410e+01 -1.9620007761276959e+00 7.6858479490175981e+01 -1.9620007761277218e+00 3.7277580958308249e+02 2.9355783223929426e+00 7.6858479490175981e+01 2.9355783223929395e+00 1.4795835603723469e+02  2.2096354591249417e+02 -3.6726423181074878e+01 2.0866374212478302e+01 -3.6726423181074885e+01 9.5951429901252277e+02 -5.4599689602854106e+01 2.0866374212478320e+01 -5.4599689602854106e+01 2.3226013070237167e+02  -4.6848300553006527e+02 -4.7076703377579875e+01 4.8414477720042811e+01 -4.7076703377579911e+01 -3.2099097568299197e+02 1.9391709500480428e+02 4.8414477720042804e+01 1.9391709500480428e+02 1.8684433653924091e+02  -4.3393958864151045e+02 -1.8456753948440732e+02 4.2837875673679875e+01 -1.8456753948440738e+02 -1.4177181220628682e+02 1.0781796647703278e+02 4.2837875673679875e+01 1.0781796647703281e+02 2.4128011109548332e+01  -2.6068103565214813e+02 -1.9440883379443054e+02 6.2919588255289973e+01 -1.9440883379443051e+02 6.4568472765960010e+01 4.8827733174550637e+01 6.2919588255290002e+01 4.8827733174550637e+01 6.6290474418017581e+01  -4.2995885240239062e+01 -1.6352585796177254e+02 5.4331488281833884e+01 -1.6352585796177254e+02 3.2308515524143047e+02 -1.2187030986372569e+01 5.4331488281833877e+01 -1.2187030986372569e+01 1.0374727732955792e+02  1.4229350380715519e+02 -2.9438511841298133e+01 1.0505104434050590e+01 -2.9438511841298148e+01 7.2268171880686555e+02 -8.7974142345043532e+01 1.0505104434050587e+01 -8.7974142345043560e+01 1.3042345902974003e+02  -2.4964497926604218e+02 4.4593914857926675e+00 2.6904429075701653e+01 4.4593914857926888e+00 -6.2561140775157533e+01 1.3181228544859067e+02 2.6904429075701660e+01 1.3181228544859061e+02 1.9068188391778884e+02  -1.8646915373829799e+02 -1.7433354725715742e+02 1.5511707191320944e+01 -1.7433354725715742e+02 -9.0236818299752784e+01 7.8483003542111234e+01 1.5511707191320941e+01 7.8483003542111206e+01 5.2465828425939840e+01  -1.1964708766170433e+02 -2.3030485562608345e+02 3.0979752134624217e+01 -2.3030485562608337e+02 5.2368737313218823e+01 3.3606539340429343e+01 3.0979752134624196e+01 3.3606539340429343e+01 6.5956058122735868e+01  -1.8111646207845467e+01 -1.9063539032077267e+02 2.7629637420401053e+01 -1.9063539032077264e+02 2.3119062585652759e+02 -1.8699079802311722e+01 2.7629637420401057e+01 -1.8699079802311736e+01 7.8028507779161856e+01  1.0463068827096147e+02 -1.6956445904083395e+01 8.5935038129943175e-01 -1.6956445904083392e+01 4.0251023916728690e+02 -8.8354501678321753e+01 8.5935038129944141e-01 -8.8354501678321753e+01 6.4065884682031026e+01  -1.1864384068841977e+02 -6.1136573523528206e+00 1.2146836096794596e+01 -6.1136573523528233e+00 5.4560577479176636e+01 6.6345943488907153e+01 1.2146836096794596e+01 6.6345943488907182e+01 1.7196839011085441e+02  -4.9345230253340191e+01 -1.1012372055371164e+02 -4.0696069966108545e-01 -1.1012372055371168e+02 1.6155530945314066e+01 4.1720210063775113e+01 -4.0696069966108928e-01 4.1720210063775106e+01 7.6235288520122495e+01  -1.1313076892577770e+01 -1.6333153980415051e+02 6.2345913641619912e+00 -1.6333153980415054e+02 7.3788241076173534e+01 1.9374298389331965e+01 6.2345913641619930e+00 1.9374298389331958e+01 7.5422870193570873e+01  2.1764566361594927e+01 -1.2580512679286713e+02 6.4882605914155818e+00 -1.2580512679286718e+02 1.4707739513389771e+02 -1.1366261421161377e+01 6.4882605914155755e+00 -1.1366261421161379e+01 6.7083434396227062e+01  9.6634467155446316e+01 3.8561472825736782e+00 -6.3556533603974428e+00 3.8561472825737648e+00 1.5374357072517716e+02 -5.5432067038873441e+01 -6.3556533603974401e+00 -5.5432067038873434e+01 2.9665365879615827e+01  -1.8471577827740020e+01 2.6340624553333534e+01 6.1398751464331536e+00 2.6340624553333527e+01 9.5907315339294755e+01 9.6796978312136037e+00 6.1398751464331536e+00 9.6796978312136233e+00 1.0953110665546183e+02  1.2546022308388089e+02 -5.4784554018874116e+00 -1.7233016377472051e+01 -5.4784554018874347e+00 8.3434352827816554e+01 1.0206968200542127e+01 -1.7233016377472055e+01 1.0206968200542127e+01 7.5683756987839971e+01  1.0342698455660967e+02 -1.6650307178794524e+01 -1.6289260418109780e+01 -1.6650307178794534e+01 1.1272093871310695e+02 1.1416961192396094e+01 -1.6289260418109777e+01 1.1416961192396089e+01 8.3972146583363369e+01  3.0257198494447952e+01 -8.0344813876798904e-01 -7.9496297807726251e+00 -8.0344813876799070e-01 1.0748203520120215e+02 7.1782180759775933e+00 -7.9496297807726251e+00 7.1782180759775924e+00 6.0156245460573729e+01  9.6273244216887278e+01 4.0188289140367580e+01 -1.1557867864520539e+01 4.0188289140367559e+01 8.3334850524261398e+01 -6.2116731898505062e+00 -1.1557867864520544e+01 -6.2116731898505053e+00 5.0102966447556298e+01  2.5855510779976526e+03 4.5374962906696910e+03 -7.2123366679686773e+00 4.5374962906696919e+03 8.1372208850847519e+03 1.0623911587032882e+01 -7.2123366679686844e+00 1.0623911587032902e+01 4.2822221821957528e+03  3.0015361209642100e+02 2.5033626719215013e+03 2.3557498534636952e+01 2.5033626719215013e+03 1.2542517346230802e+03 -9.1112426253153529e+01 2.3557498534636942e+01 -9.1112426253153473e+01 6.4936531673002924e+02  -1.6511641665495972e+01 1.8429312267562716e+03 -1.1042166683670500e+01 1.8429312267562718e+03 -3.6662354551675044e+01 -1.7679950995265165e+02 -1.1042166683670505e+01 -1.7679950995265162e+02 -9.3609177327080815e+00  -4.9560859642982052e+02 1.5728481869102150e+03 -4.4454538822805567e+01 1.5728481869102147e+03 -7.4958354781101934e+02 -2.5674840123853545e+02 -4.4454538