<?xml version="1.0"?>
<VTKFile type="UnstructuredGrid"  version="0.1"  >
<UnstructuredGrid>
<Piece  NumberOfPoints="405" NumberOfCells="1536">
<Points>
<DataArray  type="Float64"  NumberOfComponents="3"  format="ascii">0.45 0 -0.2  0.475 0 -0.2  0.5 0 -0.2  0.525 0 -0.2  0.55 0 -0.2  0.4529544254205513 0.02821213382295328 -0.1979865488763598  0.4767299173430581 0.02645246729982827 -0.1989142952560772  0.5011767050252411 0.02520295746394231 -0.1999376520710448  0.5261406740419554 0.02388269353054133 -0.2010700230620827  0.5516277404075105 0.02180501149329208 -0.2021766405967636  0.4560687101094019 0.05530267950773634 -0.1977250777192853  0.479949120987963 0.05248511531956176 -0.198807362460519  0.5043628648145032 0.05020348248372013 -0.199985205305651  0.5292712596927756 0.04784266126665166 -0.2012107376303037  0.5545173443979274 0.04466487410645988 -0.2024241378946055  0.4602169675862792 0.08169908289330814 -0.1979268617267235  0.4842237155721529 0.07807051781251705 -0.1989484865100749  0.5086595656551837 0.07496975477968228 -0.2000350583415025  0.5334749996993693 0.0717754688981363 -0.2011352312399798  0.5584941875882024 0.06783627596294964 -0.2022086360374872  0.4649890250183258 0.1075055834004583 -0.1982685754237757  0.4891265015372803 0.1033176289290872 -0.1991485581670868  0.5135736267537135 0.09960009345211875 -0.2000785581517108  0.5382932987462395 0.09579589715994584 -0.2010103844325305  0.5631386600641574 0.0913718540702286 -0.2019140658058386  0.4700182759312446 0.1328717054547615 -0.1985978960779158  0.4943005087306498 0.1283463009591289 -0.1993439894592154  0.5187610728298923 0.1241927454890411 -0.200124350189167  0.5434040127859294 0.1199753524538365 -0.2009037920440088  0.5681271794848237 0.1152863479536708 -0.2016610246331116  0.4750877927571576 0.1579062523804376 -0.1988653621686099  0.4994933000012725 0.1532182079382194 -0.1995119626681801  0.5239832927040207 0.1487902760862668 -0.2001767096941358  0.5485770858558366 0.1443206444748621 -0.200838967495442  0.5732173238846615 0.1395272266354739 -0.2014892260436071  0.4800634083036842 0.182705352820544 -0.1990639000781731  0.5045646655606172 0.1779692009100674 -0.1996549850226537  0.5290897422512048 0.1733963309685274 -0.2002362622585914  0.5536556617565845 0.1687997473453467 -0.200813948649202  0.5782386570661073 0.1640017268470682 -0.2014031505115533  0.4849059056368737 0.207360694012871 -0.1992203864911445  0.5094090934679125 0.2026261964828011 -0.1997918766501114  0.5339426224910171 0.1980009750810925 -0.2002989130237826  0.5585327346099247 0.1933583808749471 -0.2007993130123442  0.5831203099110381 0.1885779367987862 -0.2013671133150224  0.45 0 -0.175  0.475 0 -0.175  0.5 0 -0.175  0.525 0 -0.175  0.55 0 -0.175  0.4535990538232728 0.0279011237082649 -0.1737828107446177  0.4773544236007279 0.02621673082229534 -0.1743231307336008  0.5018270386888434 0.02516296940236052 -0.174958517387871  0.5268701659325535 0.02408398232694615 -0.1756521175281496  0.552621857633084 0.02207394734921594 -0.1763213496788565  0.4569630444822314 0.05517211002903552 -0.1734001395118793  0.4808128017278467 0.05235938952011047 -0.1741556657659471  0.5052447546511343 0.050116266823421 -0.1750075507267625  0.5301942807151009 0.04778523998482283 -0.1758871044455182  0.5555525787543906 0.04456558084362672 -0.1766991750074751  0.4611130828433773 0.0816995512204939 -0.1734191416643387  0.4851215086269025 0.07803311759311399 -0.1742010882245001  0.5095586980417151 0.07486625133594735 -0.1750482736809853  0.5343755506903902 0.07159923905736085 -0.1759042819234623  0.5594159886849659 0.06761368812436469 -0.1767130778546135  0.4657985505345192 0.1075647739330785 -0.1735825029987349  0.4899565694800228 0.1033217493527081 -0.1743180910809262  0.5144019321203669 0.09950447938947493 -0.1750874477309973  0.5391058969189889 0.09560468357307447 -0.1758589517339026  0.563937176081005 0.09114646311606442 -0.1766043054254384  0.4707282344444086 0.1329323491213069 -0.1737707007016422  0.4950370853262359 0.1283580213328354 -0.1744464888845652  0.5194992750468835 0.1241104024743614 -0.1751318223108828  0.5441259189928811 0.119805496400534 -0.1758167580060407  0.5688247007458448 0.1150897601556515 -0.1764928471106715  0.4757243860205651 0.1579459971973927 -0.1739372204244482  0.5001530665633021 0.1532197540833277 -0.1745651883461823  0.5246447121816038 0.1487165080972381 -0.175183400314202  0.5492272472447884 0.1441757008508401 -0.1757995850950689  0.5738450205640167 0.1393574303098277 -0.176422972318161  0.480664809914259 0.1827226232276291 -0.1740733332613748  0.5051762136555997 0.1779594673602859 -0.1746732469144718  0.5296974372311385 0.1733259592962753 -0.1752411018181614  0.5542593147796412 0.1686680993326238 -0.1758054931564574  0.5788323344723447 0.1638420339417803 -0.1763990991473177  0.4854936296780535 0.2073750577174003 -0.1741999414405551  0.5100198211353921 0.2026198346236969 -0.1747804341123025  0.5345458443658974 0.1979288432240691 -0.1752994091316786  0.5591282202319144 0.1932192203886295 -0.1758140414167913  0.5837141710129548 0.188410111534578 -0.1763873534797792  0.45 0 -0.15  0.475 0 -0.15  0.5 0 -0.15  0.525 0 -0.15  0.55 0 -0.15  0.4540127441642596 0.02793596122159562 -0.1492918837622251  0.4776304064822586 0.0261724382712073 -0.149610892108618  0.5020611582485703 0.02515157767164816 -0.1499789965016836  0.5271378473660974 0.02409944144575155 -0.1503803806191972  0.5530262919271735 0.02196016210915857 -0.1507595579360639  0.4575542549290884 0.05514431361989033 -0.1489540184435972  0.4813030996615863 0.05230007371610095 -0.1494434550250806  0.505704741715129 0.05008655703808738 -0.1500087402523223  0.5307011038714821 0.0477735512712803 -0.1505932600182923  0.556163792129904 0.04447696254058776 -0.1511169985424285  0.4617815698441226 0.08165398084119714 -0.1488675874748865  0.4857266623182643 0.07797806896315039 -0.1494326410072804  0.5101440001175837 0.07481354421054277 -0.1500496321771243  0.5349851421211423 0.07153821628267566 -0.1506765453293844  0.5600766248939938 0.06752805801511527 -0.1512593752330126  0.4664822093206383 0.1075169794420792 -0.1488971319502526  0.4906032840368756 0.1032726921607418 -0.1494833323430676  0.5150326229152514 0.09943595985520398 -0.1500921815490688  0.5397400045108808 0.09551125175273431 -0.1507056727054637  0.5645838127236409 0.09104814689483366 -0.1512970510809206  0.4713986140961101 0.1328877322984644 -0.1489660477446243  0.4956860857031045 0.1283114026969567 -0.14955318580003  0.5201350255495052 0.124033641144234 -0.1501384672055844  0.544753565637679 0.1196963767580702 -0.1507252489411826  0.5694435735726342 0.1149778018754821 -0.1513091296141501  0.4763788928146548 0.1579068494944826 -0.1490416359240626  0.5007944004825791 0.1531723768109166 -0.1496268170747111  0.5252747820096133 0.1486343263063132 -0.1501901793405437  0.5498446018737286 0.1440572485606757 -0.1507526305663778  0.5744441595169919 0.1392284280215509 -0.1513300736384582  0.4813193126008621 0.1826950587079145 -0.149117623335106  0.5058204723797833 0.1779110964638469 -0.1497050321238615  0.5303311855864297 0.1732382506351582 -0.1502467611963203  0.5548788926735132 0.1685395600406246 -0.1507857771082088  0.5794310254233597 0.163689777436588 -0.1513628271641488  0.4861780354158513 0.207362595050239 -0.1492220032860668  0.5106944348372708 0.2025724819757114 -0.1498001367241379  0.5352128067635304 0.1978351486090086 -0.1503051815290062  0.5597765984991319 0.1930772137365953 -0.1508074475074964  0.5843359631317939 0.1882313083452522 -0.1513740168628291  0.45 0 -0.125  0.475 0 -0.125  0.5 0 -0.125  0.525 0 -0.125  0.55 0 -0.125  0.4542378303893211 0.02800380623165453 -0.1245907331045728  0.4777785230523362 0.02618032449956188 -0.1247727685866295  0.5021839786375508 0.02515037885683191 -0.1249861377721241  0.5272748691432699 0.02408882989333247 -0.1252220496411399  0.5532263119659786 0.02184922209439686 -0.1254521158780602  0.4579264086152596 0.0551903099853688 -0.1243530099784388  0.4816056551114412 0.05229448017937156 -0.1246562288594817  0.5059844884300629 0.05007451719736185 -0.1250092584072894  0.5310016854360972 0.04774491399569256 -0.1253752434693859  0.556512314543359 0.0443575263323095 -0.1257035731985214  0.4622540333003254 0.0816690812878211 -0.1242351976352137  0.4861511908214698 0.07795618930610897 -0.1246233978161014  0.5105505114135206 0.07477968613846062 -0.1250469193826216  0.5354027226469489 0.07148415041709419 -0.125477767601374  0.5605174963358041 0.06741774947791343 -0.1258821317005425  0.4670187697260015 0.1075109170609325 -0.1241849543762047  0.4911088934765184 0.1032376862335679 -0.1246307216431894  0.5155221542623541 0.09938088488621007 -0.1250912731182284  0.5402280333905504 0.0954318880312372 -0.1255556327460242  0.5650748187640526 0.09093355618938233 -0.1260084883700671  0.4719747968560247 0.132869609149053 -0.1241684682224373  0.4962423600998365 0.1282671413791153 -0.1246565881691723  0.5206757717612015 0.1239620572430231 -0.1251403162923216  0.5452841895303149 0.1195958504548126 -0.1256251840876149  0.5699639736302476 0.1148494419011768 -0.1261124618562579  0.4769846568955545 0.1578842546311615 -0.1241726247630258  0.5013860548060555 0.1531215074185572 -0.1246941199209291  0.525851328530852 0.1485501501496085 -0.1251936131456292  0.5504065552317154 0.1439389657570277 -0.125692015058427  0.5749888329525852 0.1390808889250484 -0.1262076661894241  0.481958235625267 0.1826746633778346 -0.1242005857735938  0.5064472155260111 0.1778555551297688 -0.1247486426417737  0.5309424809469752 0.1731435035803374 -0.1252508795656172  0.5554733399572437 0.1684048092916342 -0.1257504137340704  0.5800047229081049 0.1635188884461184 -0.1262894993067996  0.4868641958908608 0.2073456686775312 -0.1242916482348562  0.511366335528138 0.2025120920670572 -0.1248380230006012  0.5358683389644576 0.1977298234706671 -0.1253114656703946  0.560413022947196 0.1929254460102111 -0.1257820554817108  0.5849488498403139 0.1880337477982707 -0.126319249000814  0.45 0 -0.1  0.475 0 -0.1  
[...]
<PointData  Vectors="traction"> 
<DataArray  type="Float64"  Name="traction"  NumberOfComponents="3" format="ascii">2.7528922436148646e+03 -3.4321416374787306e-02 -9.6933121578241813e-02  3.0574822796573105e-13 -3.4932506579495561e-18 1.9834767543140129e-16  1.0692634512613801e-14 -6.8111455051542659e-20 5.9957607285724640e-15  -1.6370287145751947e-14 3.8668946939083293e-18 1.5630880371684779e-13  9.1589590450711245e-02 -4.4998453802193548e-03 4.5451407790602138e+02  1.7160558669008817e+03 1.1241856875397699e-03 -6.8301693756632892e-02  8.4006584294003748e-14 1.6604420599457888e-18 1.5728462199656970e-16  -6.6055159041369673e-15 9.3451954462523265e-20 1.9082101411437614e-15  -1.0127606614639718e-15 -1.8670629356070121e-18 4.0462417644048555e-15  4.0192754762954204e-02 -2.6401906517795629e-02 1.6474552564523617e+02  1.3699266751805465e+03 4.9457745919075004e-03 -6.4011788041639608e-02  1.2377861277130929e-13 5.6074517596302917e-19 4.2439179608935979e-17  1.1494587111860552e-14 1.8001177939207666e-20 2.2851005308029582e-16  -3.7940259391508028e-16 -6.1271367399750987e-19 2.6464034895233528e-15  3.6957249175891362e-03 -2.1632906296149552e-03 8.9715588694896518e+00  1.1580816213852290e+03 7.0756732921882859e-03 -6.0443694749365486e-02  4.2230376842156556e-13 1.2931455429989908e-18 -1.5148686183056690e-17  1.3197058581481841e-14 5.2664498091372377e-20 5.6039246488856822e-17  3.5613499623775723e-17 -7.5711677628938159e-21 2.1133269158927220e-16  -1.0589651902689985e-05 -3.7495681322770912e-05 3.8829858171930076e-01  1.0559108281914337e+03 8.5196324808641099e-03 -5.8716477584840665e-02  1.4726979248366418e-13 1.0132847042347963e-18 -2.9870239991224452e-18  1.1505835405212193e-14 5.1577916362704873e-20 -8.3858809340283745e-19  1.2813801548752384e-15 -1.2607106586375804e-20 -4.7050578386901083e-17  -8.7973946572115306e-06 -2.2804263724627837e-05 -8.0749503810275597e-02  7.4400921924212105e+02 1.7034024801443667e-02 -5.3469889290642593e-02  5.4261278267033403e-14 1.5376425987710883e-18 -8.7527347930046575e-18  4.4154382552836934e-15 1.5619729770975861e-19 -1.0198216146833609e-17  7.9774802079269295e-16 1.7984334252520295e-21 -1.5998632171070664e-16  -6.7380696878721337e-05 -1.4943031049506176e-05 -5.7296247428152958e-01  5.1299710891612756e+02 2.7957039327285545e-02 -5.1084194734910569e-02  1.2570440317011547e-13 7.1839652381775066e-18 -1.0972096242774630e-17  1.0362697459164856e-14 2.4926793600976856e-19 -1.7584496348726064e-17  2.8491436916777234e-16 4.2305927286758504e-21 -1.4694225145208076e-16  -6.6205914150934225e-05 -2.4637948916535485e-05 -6.4317261126065228e-01  3.8906108888906476e+02 3.4895568586342178e-02 -5.0069721437899978e-02  7.0356204006634438e-14 8.4620633586639539e-18 -1.7181247929189880e-17  4.6148739851936157e-15 5.8041278791104478e-19 -2.0773440488399949e-17  1.1137318056404163e-15 -1.0936396088599430e-20 -3.1079165090721708e-16  -6.6554847590091985e-05 -2.9997517764309374e-05 -7.3069381521167553e-01  4.9129534648585070e+02 1.2890915867338848e-01 -1.4690344113869647e-01  6.4376707349933881e-14 1.5268114193765376e-17 -1.8546795047098803e-17  6.2261137814106322e-15 5.8075199477120753e-19 -9.2675869296603593e-18  5.2846621113630372e-16 5.0836827705607130e-20 -8.3587428234272680e-17  -1.2409877373530692e-04 -1.5345356846164251e-04 -2.7355307285102741e+00  1.8352614957432422e+03 -2.2880944249858204e-02 -6.4622081052161218e-02  1.9381434744240343e-15 2.1242917315296059e-18 1.8567700922624163e-16  -3.9755616329765757e-15 1.0106032973062097e-19 3.0421066648861507e-15  -2.9571634163523627e-15 -1.1856391368295833e-20 1.3077832078761566e-14  -2.3490273924804690e+01 1.3330982422536003e-02 1.8255620430224779e-03  8.5802793345044154e+02 5.6209284376988560e-04 -3.4150846878316439e-02  -5.0422012388254212e-13 4.4488070432256528e-18 4.7270535752374293e-17  9.3987634059200996e-15 2.7197010142686117e-20 4.8080983482631043e-16  3.3980967111019901e-15 -1.6618680712239770e-19 1.0405531846138534e-14  -8.6309892814402256e-01 -1.4194359844233631e-03 7.4955519492794027e-04  6.8496333759027380e+02 2.4728872959537511e-03 -3.2005894020819797e-02  8.8111972320813739e-14 -6.7680878837331048e-19 -1.4275062434516545e-17  3.1292289870139757e-15 7.9346135760502919e-20 2.4903430926305846e-16  1.9983971434455271e-15 -1.5046812960895862e-19 1.7342116756795535e-15  -2.4296562647239361e-01 -3.7738319329047326e-05 -8.8535125712040460e-06  5.7904081069261463e+02 3.5378366460941490e-03 -3.0221847374682764e-02  1.2046557208815800e-13 4.2777278064044307e-19 3.7758255201570781e-18  1.3864768900495867e-14 9.3150771457892902e-20 4.1420315387782841e-17  2.1983214394485341e-15 -6.2461192893817607e-20 4.0529689271392815e-16  -2.1670121663157152e-01 -6.5323286974048457e-06 -2.1444438376246565e-05  5.2795541409571661e+02 4.2598162404320515e-03 -2.9358238792420301e-02  3.3690442944837452e-13 1.9640314943461528e-18 -2.8129131038571586e-17  3.0306362403047733e-14 1.2877643088362995e-19 7.3965423672815844e-18  4.7434743424834901e-15 5.5354469667546919e-21 4.7487665133216516e-17  -1.7263540880022293e-01 -6.3273651437081518e-06 -2.0314652621993917e-05  3.7200460962106092e+02 8.5170124007218316e-03 -2.6734944645321342e-02  -8.4416659578877741e-15 7.6145853335000544e-19 -5.4316801490097659e-18  2.8585520481416605e-14 1.4539347575590312e-19 -4.3618042726770933e-18  2.7099916094363614e-15 2.0587491191221421e-20 -1.2715807217495171e-17  -9.2208758080838914e-03 -6.0338441629403908e-06 -2.1365162381366663e-05  2.5649855445806372e+02 1.3978519663642774e-02 -2.5542097367455305e-02  1.9990804034279498e-13 1.7376627201449983e-18 -1.3434771781167193e-17  1.5612685574088151e-15 4.4276759449972846e-19 -5.1654341334603452e-18  1.4027017364822402e-15 3.8126821287847345e-20 -2.5701231885700797e-17  9.0306852467959595e-02 -6.6976746350699470e-06 -2.0073773787230965e-05  1.9453054444453215e+02 1.7447784293171110e-02 -2.5034860718949992e-02  1.0370096831659962e-13 3.7581147804783692e-18 -1.4110204221001769e-17  1.3647377649032080e-14 2.3661198002101287e-19 -8.5542945511511043e-18  2.1675470023456069e-15 8.2100730438231224e-20 -3.5493984845848853e-17  1.3601456224991745e-01 -6.8713867929409532e-06 -1.9121114057973101e-05  1.6376511549528354e+02 4.2969719557796146e-02 -4.8967813712898788e-02  1.8715215384054185e-13 1.9835410723001721e-17 -2.9125092852348187e-17  1.3235233749845590e-14 1.2826114191339774e-18 -5.6598577698632553e-18  1.6541124177681720e-15 1.1743788550255883e-19 -3.6845465529339140e-17  4.1675231158600351e-01 -1.0777697126399735e-05 -3.1317837570752445e-05  2.0763772015623781e+03 -1.4574323405972795e-02 -4.1727134375791668e-02  2.0863282478652311e-13 -1.3697714325120924e-18 7.5162956764092561e-17  1.3043579869936130e-14 -1.7891455818395911e-19 4.0472689473461308e-16  -2.3246457774646547e-15 -5.3566678824211039e-19 4.5720776882265339e-16  -5.6113863291109896e+00 -2.1781230348696576e-03 2.3225825724998189e-03  9.7589496122227172e+02 1.2878886235929425e-03 -2.3076295791260484e-02  -7.0389272245436610e-14 -4.0452877238409862e-18 1.4555804215722802e-17  -4.3920047662553800e-14 2.0989022185616236e-20 3.1922296122381051e-16  -1.7600327552339229e-15 9.8061473084230581e-20 1.8200015074283936e-15  -4.7078432458747316e-01 -1.1528598850517329e-05 -3.1013027712587931e-05  7.8868336505507420e+02 3.8490124669462908e-03 -2.1705698716633848e-02  -1.5782258703139510e-13 9.7289150817373600e-19 -1.3257567969102853e-18  -1.0110557412064875e-14 1.6114849535843412e-19 5.4017824091820010e-17  -6.9787365797100708e-15 3.7387298242821228e-20 5.0778980489140033e-16  -3.5064368059904899e-01 -2.6010169590464512e-06 -2.5345610293040055e-05  6.6977435730358411e+02 5.4628052676074460e-03 -2.0768440214485664e-02  3.1885030340928227e-13 1.9360303671661258e-18 -4.6879880613176317e-18  1.0855732714391950e-14 2.1055057650764753e-19 1.7620108996166920e-17  3.1852474447029181e-16 -5.8809652833412653e-21 1.2218923283581955e-16  -2.3404957678864544e-01 -6.0702580458959562e-06 -1.6181164372036388e-05  6.1142339024240096e+02 6.3409000918038631e-03 -2.0288513554182184e-02  4.2211577780694407e-13 3.4644214390752802e-18 -7.7740055121625111e-18  4.7357076010452031e-14 2.7635177836406483e-19 1.9380184261945090e-18  3.2527075650166529e-15 1.6473235053110723e-20 2.3021923909428405e-17  -1.8100373721664589e-01 -5.4654350549450005e-06 -1.5733968695518070e-05  4.3438593126488962e+02 1.0459306814413297e-02 -1.8422204223161830e-02  1.7179808154393378e-13 -4.8691970942619155e-19 -1.0763741051234393e-17  2.0318465207324135e-15 1.1056676108795429e-19 -7.4694571014533975e-19  5.8106809860191126e-15 4.5970940201921859e-20 1.5271143362366671e-18  -2.3094230194186889e-02 -4.9496723533629886e-06 -1.4262542875489782e-05  3.1047447865172137e+02 1.5840584727272122e-02 -1.8268067578132884e-02  9.3275106139131176e-14 -5.7445637207790015e-19 1.3220366460650993e-18  1.2669193530168008e-14 3.9562457085712684e-19 -2.2119010097921181e-18  2.5316371311872232e-17 5.3732297752019695e-20 -3.3931315234599939e-18  7.5686166220893594e-02 -4.9062324075639300e-06 -1.3409403851013354e-05  2.4440368046575381e+02 1.8919759113602431e-02 -1.7940314400415550e-02  3.7308738397828551e-14 6.0036779909888563e-18 -1.6641299919457315e-17  1.4189633839341383e-14 7.0289456575088952e-19 -2.4726826688022368e-18  3.3453689515088242e-15 6.4383787168234800e-20 -4.8884785052574124e-18  1.2170556453782574e-01 -4.6717818435480161e-06 -1.2906343345356027e-05  2.3371073615347464e+02 4.7725117943341167e-02 -3.5599806260640930e-02  1.0879989353630607e-13 1.8119348813888741e-17 -3.6599775276643434e-17  3.0251699506967368e-15 1.7390153938048337e-18 -4.4713551303578428e-18  1.1877180435812767e-15 8.8464979307293558e-20 -7.1422321109875711e-18  3.9855347979816419e-01 -6.4826815705057647e-06 -2.2295795178152015e-05  2.1887204990061623e+03 -1.4512551417964609e-02 -3.3284057446908648e-02  5.3875658643383009e-13 -3.7221712957976402e-18 6.3164118958990238e-18  2.0476986786425336e-14 -6.5094587918680001e-20 2.2990950929677775e-17  -1.4268414021927205e-16 -3.5334093294324832e-20 5.7055348991992644e-17  -1.2482748785013549e+00 -1.3809464088095615e-05 8.9894254576933973e-05  1.0319597906083502e+03 1.4380714717764074e-03 -1.8462806679412809e-02  2.3610228943921123e-13 -3.0892769780007856e-19 3.4564298267557170e-18  -9.5054225579669265e-15 4.9252110523891731e-20 5.4217726054915338e-17  -6.7902323733472506e-17 -8.9971990562875180e-21 1.2970401277800852e-16  -4.5138924126471514e-01 1.1442219751715936e-05 -1.7303025800582899e-05  8.3950045193089034e+02 4.9886047081704118e-03 -1.7510118676592402e-02  2.9267256211292367e-13 -1.4353767365630788e-18 7.3442565195959943e-18  6.6293732325579163e-14 7.5438211732759654e-20 1.9864214605883055e-17  -2.4639603905922080e-15 -2.4914868732319078e-20 1.1116842101579970e-16  -3.4259262085348630e-01 -6.0304016457669272e-06 -1.5085352346157256e-05  7.1513460635827414e+02 6.6700454214189426e-03 -1.6915195397214762e-02  5.0590632615873322e-14 2.4045259900165922e-18 -3.8283603403197011e-19  -2.3431698378285664e-14 3.5514143418334852e-20 3.8534753324284516e-18  2.4249556924865454e-15 5.8507455686678815e-21 2.5777071007063342e-17  -2.4121317647291474e-01 -4.2783501751047693e-06 -1.4974565043149564e-05  6.5346186947086142e+02 7.6690946408961890e-03 -1.6621946030710492e-02  4.6743373855695325e-13 1.2227096258290837e-18 -6.8201230667454595e-18  3.3693717611625026e-14 2.8857292301456952e-19 5.8794209688905028e-19  2.4173281075092168e-15 4.4476639082227374e-20 5.9268792237353162e-18  -1.8844972979941021e-01 -4.1046778713347556e-06 -1.4422555983584270e-05  4.6820919975779105e+02 1.1967244047711557e-02 -1.5463684977969969e-02  2.0145416872169716e-13 1.4270164882590843e-18 -9.4226786709978582e-18  3.3344523591718348e-14 1.1365861995838121e-19 -1.0765425181185101e-18  6.7330070733309035e-15 6.8456429137610456e-20 9.5133506847574483e-19  -3.1210773422107690e-02 -3.8484775311160914e-06 -1.2778880444416135e-05  3.4170146069378092e+02 1.7076518115921577e-02 -1.5581424892002746e-02  1.8475299626592419e-13 8.7960228572074598e-18 -9.5554955845395620e-18  2.6482891649030723e-14 6.1248048555075932e-19 -1.0336451641661733e-18  1.9114708058399279e-15 3.8588657097081055e-21 -2.6726788009486446e-19  6.7723366506149754e-02 -3.9286906717404803e-06 -1.1691225067321241e-05  2.7443448627212160e+02 1.9835631305509176e-02 -1.5350051860721093e-02  5.1468271642488474e-14 6.2778462725012758e-18 -1.4092079855912959e-17  1.5908448073800200e-14 5.7949619590991169e-19 -1.2058237600790985e-18  4.5393650584956860e-15 9.8153991688837687e-20 -6.1168449078317678e-19  1.1351251263924506e-01 -3.5250837198331914e-06 -1.1134849386450074e-05  2.7844532931790906e+02 5.0195499373902545e-02 -3.0867975092474697e-02  4.1289661954970681e-14 3.5805552616556761e-19 -1.6441019125231375e-17  1.5329426342674237e-14 1.7357986680364320e-18 -2.9646339218658071e-18  7.8591113709323845e-16 2.5460049419430529e-19 -1.1354769860119599e-18  3.8494580547961371e-01 -5.2135532592029215e-06 -2.0065425619563121e-05  2.2332227007298152e+03 -1.0552399082343988e-02 -1.9979826449321107e-02  2.2534245091889724e-13 -1.4544416440602614e-18 -2.8926996176807660e-18  2.5256681635362286e-14 -5.3769858529936454e-20 1.7393318190319867e-18  1.1790127755424392e-15 -1.0647293180893909e-20 7.1216911020129926e-18  -1.3534324017713304e+00 -3.7706191098502698e-05 2.4665305458317402e-04  1.0539748276111807e+03 1.7393925716237585e-03 -1.2079319654781337e-02  5.7770742925168351e-13 -4.0540171459542298e-19 -8.4318498983214241e-18  3.9306128743198021e-14 -1.4837947179412884e-19 3.8927758048115669e-18  6.8698472620726657e-15 -3.4941850087853309e-20 1.1807017534447957e-17  -4.7974576089934307e-01 1.2941016846174502e-05 -4.6211930422848071e-06  8.6018824285893083e+02 5.5085260330015144e-03 -1.1499330093159722e-02  3.7967918372847079e-13 1.6897546679810179e-18 -3.2829519263631202e-18  2.7104211962534425e-14 8.2084543992689346e-20 3.5798276978477299e-18  6.1019945909381871e-15 2.3331247445756703e-21 1.4231784184686784e-17  -3.5395801454645737e-01 -2.5392893520677443e-06 -1.4426445878965435e-05  7.3389105956383253e+02 7.5306723447809282e-03 -1.1231523557830764e-02  1.3999321687513807e-13 1.7504653904040663e-18 -5.2737560583339655e-18  1.4872530149784311e-14 -5.6505379998152204e-20 1.3240863254140029e-18  4.6470382799266487e-15 4.9301067276078187e-21 5.1840924937278808e-18  -2.4942226253651184e-01 -2.7683495771070298e-06 -1.1584866534436824e-05  6.7105618336718555e+02 8.6340194283310752e-03 -1.1087817217118538e-02  1.5205064025646916e-13 -8.0699431181203992e-19 -2.5159466869861828e-18  3.3575894245053116e-14 3.2016669102429241e-19 -3.9455234394261851e-21  1.6397783701151065e-15 3.0338196320358068e-20 1.4454884121810552e-18  -1.9568739058062265e-01 -2.7312302282897210e-06 -1.0763304070495154e-05  4.8289165915437030e+02 1.2929098254971670e-02 -1.0526723573605717e-02  -2.2311984342462810e-13 -1.1833000114309892e-18 1.0584250932793616e-18  9.6428816226730843e-15 1.0955517266699331e-19 -3.1361091549195900e-19  8.3732001794156020e-15 5.1084250937532269e-20 1.5223975066935960e-19  -3.5938021834810152e-02 -2.8171626099890356e-06 -9.0027441234049650e-06  3.5568722324426250e+02 1.7182422757833399e-02 -1.0322490276499844e-02  6.4755746271041515e-14 7.1142787651290717e-18 1.9761885458691870e-19  1.2190945953304090e-14 7.0968636031760034e-19 -8.4382967045180982e-19  2.7108587723625606e-15 5.2791961114452453e-20 -1.6817483946682610e-19  6.3613847576464336e-02 -3.0563613108696417e-06 -8.1424956839624963e-06  2.8929239305178288e+02 2.0411280384663777e-02 -1.0639853468830583e-02  1.2815255282054520e-13 1.5644728923137237e-17 -1.1639335428654205e-17  1.5319813475895188e-14 9.7072093031991501e-19 -1.2393339966017099e-18  4.0362567993219398e-15 1.8575715394942589e-19 -2.2098582108272192e-19  1.0938251502354202e-01 -2.7349229897034877e-06 -7.7934596395627439e-06  3.0528049861804396e+02 5.0691986343059742e-02 -2.1573337615276005e-02  1.1366286139210407e-13 1.5107165446343253e-17 -8.4132242827496669e-18  2.4069875539421177e-14 2.6758237200978233e-18 -2.2764828693882803e-18  2.9562186936296512e-15 2.0926005724418279e-19 -5.0955167199350347e-19  3.7350643979576253e-01 -3.9870289581687513e-06 -1.4030948757208465e-05  2.2568692278350813e+03 -8.6630842236789952e-03 -1.6083085151702283e-02  2.8395238948241895e-13 -1.2837254798523427e-18 -1.6840718688424149e-18  3.4284620152318755e-14 -1.0868086418885850e-19 4.2367116548199075e-20  2.1049352007070563e-15 1.9005118122774850e-22 5.0192424291658818e-19  -1.7176309738413049e+00 -4.1819040123910129e-05 2.3159714986525240e-04  1.0659572115929625e+03 1.9024787184008915e-03 -9.0475468881616190e-03  6.3612793679716170e-13 -3.5203292668805519e-19 -6.2774751501517637e-18  3.2656551987040649e-14 -4.5327290678174405e-20 -3.1143495086778000e-19  3.1251679805765013e-15 -1.0711825312730715e-20 1.0629993541135809e-18  -5.5771836962098686e-01 2.4407914058084429e-05 1.8270713220079810e-05  8.7273758428576400e+02 5.9970299299694479e-03 -9.1017578471074469e-03  2.9440814176031402e-13 1.7722707253204271e-18 -3.7803384854238245e-18  6.9753682512282598e-14 1.4659998757834888e-19 -2.0957223096509715e-19  8.4425107782941173e-15 1.6902951086905654e-20 1.7295019538152224e-18  -3.6888191304788881e-01 -3.3664004723473839e-07 -1.2425388621176277e-05  7.4574404332014262e+02 8.1792986712393833e-03 -8.9359390110721124e-03  3.7005106090708908e-13 1.0173651636374930e-18 1.1327427277117436e-18  4.6507628600119989e-14 1.6046162687527586e-19 -9.2031805728216098e-20  7.5529037931363921e-15 2.7764604871872492e-20 9.4993913455882770e-19  -2.5980925737702526e-01 -1.0079900457787474e-06 -1.0604989960950843e-05  6.8258256124719151e+02 9.3448449018749165e-03 -8.8257333708217887e-03  3.9360826800130379e-13 1.1644387151025823e-18 8.0119191636041063e-19  1.1892939790396148e-14 1.2628413901335257e-19 -3.1536754939644169e-19  3.6570615925231361e-15 4.8291386008853938e-20 2.1623887533101403e-19  -2.0413981542455695e-01 -1.2452164480746186e-06 -9.7487396334645845e-06  4.9374881936702798e+02 1.3676816873485834e-02 -8.4286343720487000e-03  -1.5938144777182779e-13 4.9366977247319871e-18 1.8533037813239876e-18  2.0781189683624969e-14 -7.7998470878972905e-20 -2.4961098060669996e-19  3.5350535346467314e-15 -6.8299513189922717e-21 2.9017427314434647e-20  -4.0416802937429344e-02 -1.7630691205421510e-06 -7.8136579110011127e-06  3.6640428146060771e+02 1.7604913120987182e-02 -8.2208063863384220e-03  1.4971209975727934e-13 -2.5543836607036698e-19 -4.6746909981599995e-20  7.5946498384756159e-15 9.0065768282976539e-19 -3.1668423373943776e-19  -1.9473459430558897e-15 6.0863747701281653e-20 -2.6651814048438581e-20  6.1217705718425310e-02 -2.1410804482548603e-06 -6.8240159228277326e-06  3.0053507703690462e+02 2.0444214976463287e-02 -8.3288067269961259e-03  2.7204478844970387e-14 1.5663270675400830e-17 -1.3335431894381092e-18  4.9801622674174891e-15 1.2158599285687229e-18 -5.9530839340836464e-19  1.8732107806283673e-15 1.6879236330293428e-19 -7.8643155607966980e-20  1.0808995944603374e-01 -2.0238632966917024e-06 -6.3809143683134545e-06  3.2601411142537103e+02 5.1085971732705925e-02 -1.7126951310217426e-02  7.0966531864538161e-14 1.4500770222314665e-17 -1.2584959747384847e-17  1.6315191208566510e-14 1.6939655464840064e-18 -1.5467113131991713e-18  3.4126196445545763e-15 4.3413792390726094e-19 -3.4609656360804082e-19  3.7595443912050203e-01 -4.7678776495557699e-06 -9.8752069433622550e-06  2.2737130663740286e+03 -6.5665416151240458e-03 -4.9433981802383259e-03  7.5579736492699089e-13 -1.5327010023607830e-18 -2.6554561645981172e-18  3.6433206880606646e-14 -6.9398045721333448e-20 -1.6667145138254531e-19  2.7752917124635707e-15 -7.9564050400110264e-22 3.4122100448126537e-20  -1.5768556815938568e+00 6.5367694637115999e-07 8.6606079786653186e-06  1.0743221198610961e+03 2.2505054578740987e-03 -3.3306434043128951e-03  1.1417331935182697e-12 -1.2895762878132772e-18 -6.4168669265848078e-18  5.9548014956715638e-14 4.3725605801446436e-20 -3.6957265779907385e-19  2.1584261783733619e-15 8.1611956255999724e-21 5.6579424496897166e-20 