<?xml version="1.0"?>
<VTKFile type="UnstructuredGrid"  version="0.1"  >
<UnstructuredGrid>
<Piece  NumberOfPoints="405" NumberOfCells="1536">
<Points>
<DataArray  type="Float64"  NumberOfComponents="3"  format="ascii">0.45 0 -0.2  0.475 0 -0.2  0.5 0 -0.2  0.525 0 -0.2  0.55 0 -0.2  0.452974460927723 0.02813022081136385 -0.1980967811826471  0.4767041358167627 0.02648375001092972 -0.1989455242119576  0.5010277249489239 0.02526405687935994 -0.1999405768065769  0.5258665558029715 0.02390948144073911 -0.2010869214374487  0.5512499211571878 0.02181788947913467 -0.2022259118581342  0.4562417921484207 0.05534386974073187 -0.197827817631549  0.4799172166740647 0.05260244595091999 -0.1988361426815581  0.5041058739793041 0.05028429328726165 -0.1999879853816376  0.528782031817782 0.0478514030450814 -0.2012401677343649  0.553795343647017 0.04459204195374397 -0.2025330169342566  0.460646004208466 0.08169143427859631 -0.1980068822172976  0.4842706104957312 0.07804718043187885 -0.1989756007683268  0.5083927412159063 0.07483596022659907 -0.200040329599051  0.5328934840000061 0.07150391611380896 -0.2011565891570839  0.5575428708811935 0.06735981858414966 -0.2022857099435536  0.4658183399035034 0.1071930602633906 -0.1983693136034288  0.4894069355962395 0.1028574852302413 -0.1991962572710525  0.5134551415488182 0.09895554558117324 -0.2000847346408312  0.5377812357697632 0.09493642439856957 -0.2009925919570486  0.5621233719465124 0.09019056015075276 -0.2018919571930175  0.4713739661157423 0.1319993876967603 -0.1987765694241693  0.4949864682638913 0.1271961437231159 -0.199433833274012  0.5189636163605594 0.1227908743942383 -0.2001267391303657  0.5431330031086378 0.1182901205336963 -0.2008227078362795  0.5672469584529611 0.1131994129595598 -0.2015011515804814  0.477029901719297 0.1562967723502276 -0.1991518230837586  0.5007069899891546 0.1512341430392423 -0.1996530115877501  0.524637731618797 0.1464982157284768 -0.2001715083290076  0.5486846652566967 0.1416966057967704 -0.2006865567629261  0.5726533014103222 0.1364696389033895 -0.2011872151239715  0.482563523267974 0.1802884529389557 -0.1994471170108797  0.506330341906264 0.1751278351775174 -0.1998401251236826  0.5302431745280075 0.1702087861563497 -0.2002209508008073  0.5542073650589119 0.1652560789666692 -0.2005981605250449  0.578096689994183 0.1600348165006828 -0.2009876537076761  0.4878727321339139 0.2041516018514812 -0.1996612488194527  0.5116404727791967 0.1990122743061405 -0.2000060284349342  0.5355322556703774 0.1940417748098445 -0.2002661519565188  0.5595075644084148 0.1890241818335581 -0.2005272290310086  0.5834083937805777 0.1838225221322272 -0.2008845268149686  0.45 0 -0.175  0.475 0 -0.175  0.5 0 -0.175  0.525 0 -0.175  0.55 0 -0.175  0.4534870260334174 0.02781113833396644 -0.173887223068686  0.4772685904079148 0.02624189726411073 -0.1743793036237531  0.5016578322294983 0.02517917039429186 -0.1749892405833623  0.5266157174464219 0.02407433884739517 -0.1756703139720958  0.5523384051758728 0.02208005524822108 -0.1763544797621879  0.4569711574708458 0.05507120867230729 -0.1735489747037654  0.4806916453505075 0.05235484597476648 -0.1742340176843196  0.504946676393628 0.05006572402641034 -0.1750447819836939  0.5297099391209719 0.04765733649039802 -0.1759078572196469  0.5549067498906444 0.04435420450712561 -0.1767372809053104  0.4614131513810003 0.08146153890348712 -0.173590026697213  0.4850837522606899 0.0778094644762151 -0.1742910676346506  0.5092296731478757 0.0745338287417085 -0.1750827186777055  0.5337528034242091 0.07111193539939852 -0.1759049872565542  0.5584673832754132 0.06690999724130926 -0.1767084391170083  0.466530646221766 0.1070078749458257 -0.1737915706059573  0.4901558912492332 0.1026453849620311 -0.1744274965557834  0.5141927638991221 0.09863937339623473 -0.1751129579956729  0.5384951161657167 0.09450103780304731 -0.1758136460511169  0.5628421121037167 0.08971522396020704 -0.1765065406002312  0.4719840920276155 0.1318580896018465 -0.1740461955791528  0.4956233321362615 0.1270212476697681 -0.1745876754970693  0.5195725207046969 0.1225061483018275 -0.1751453451881642  0.5436985361897602 0.1178919544015731 -0.1757087713785254  0.5677884119864446 0.1127769222792182 -0.1762730900861713  0.4775312554291989 0.1561932478797814 -0.1742922898152691  0.5012275382564693 0.1510950954918548 -0.1747429457475266  0.5251260993752027 0.1462609372623209 -0.1751845127163081  0.5491286994183838 0.1413633234671993 -0.1756269142956324  0.5730627507557352 0.1361176463927198 -0.1760813827343919  0.482989216025002 0.180207758213782 -0.1744938289636009  0.5067609945077201 0.1750164774822764 -0.1748791733389507  0.5306387761888522 0.1700137764625523 -0.1752301211627889  0.5545687759588791 0.1649767470316772 -0.1755800677179104  0.5784309932711208 0.1597300581466085 -0.1759625184774948  0.488276683883868 0.2040887741684081 -0.1746490557490557  0.5120601752554125 0.1989174051795775 -0.1749957425098068  0.5359091201467719 0.1938554890377742 -0.1752741191458611  0.5598423865396812 0.1887502054711174 -0.1755551150681651  0.5837280797376014 0.1835194026143487 -0.1759030595968254  0.45 0 -0.15  0.475 0 -0.15  0.5 0 -0.15  0.525 0 -0.15  0.55 0 -0.15  0.4538323827372087 0.02778677185501782 -0.1494031928883828  0.4775066578824884 0.02617322322914425 -0.1496723593377003  0.5018763192621438 0.02514606151445443 -0.1500045411982172  0.5268860531881301 0.02406834039582846 -0.1503728429669602  0.5527517547010879 0.02191773233488148 -0.1507420108596199  0.4574470259003922 0.05494473962980849 -0.1491329676413174  0.4811041691681771 0.05222711861682688 -0.1495415809937641  0.5053628993564234 0.04997470026968419 -0.1500412429960598  0.5302021186927911 0.04758354081247917 -0.1505691380424086  0.5555244137690791 0.04418756759226892 -0.1510618795036822  0.4619342333505514 0.08128187691631901 -0.1491031957543982  0.48557898184204 0.07764483503433627 -0.1495587973943538  0.5097358086842652 0.07438249495818576 -0.1500820078092329  0.5343102402551547 0.07095584964372889 -0.1506250313469676  0.5591071779157913 0.06673638217142056 -0.1511458610172138  0.4670398309966278 0.1068044867416436 -0.1491928187082563  0.4906633626952872 0.1024631268187264 -0.1496383653330328  0.5147041453999296 0.09845005146161509 -0.1501185037105865  0.5390271293568364 0.09429589955991433 -0.1506108594532983  0.56341730945632 0.08953113200152196 -0.151096028684433  0.4724513623276265 0.1316571718745969 -0.1493305885278598  0.496100504406141 0.1268392397403125 -0.1497403303761717  0.5200457808003891 0.1223050331974097 -0.1501551511983139  0.5441701106521437 0.1176710389924284 -0.1505763543266126  0.5682742133366755 0.1125885612373193 -0.1510033819495956  0.4779539984638186 0.1560134007173516 -0.1494742109970295  0.5016620219763257 0.1509239944268971 -0.1498441599327115  0.5255513577282225 0.14606281781757 -0.1501958229465397  0.5495391839198056 0.141141794276909 -0.1505496171616913  0.5734665027420568 0.1359214279808771 -0.1509217762376549  0.4833907247373726 0.1800600267586597 -0.149598827893543  0.5071686470765211 0.1748575433869445 -0.1499402387600219  0.5310330378882014 0.1698187414835583 -0.1502406108981691  0.5549403645922497 0.1647512344997661 -0.1505406306516963  0.5787804818079232 0.1595100895774244 -0.150875055389341  0.4886989487872887 0.2039701061949397 -0.1497075625115121  0.5124863449104857 0.1987612835861067 -0.1500287572641064  0.5363209104826059 0.1936489979235356 -0.1502859312966597  0.5602176553080861 0.1885039072875839 -0.1505457826550994  0.5840609073253239 0.1832610486678899 -0.1508596342074191  0.45 0 -0.125  0.475 0 -0.125  0.5 0 -0.125  0.525 0 -0.125  0.55 0 -0.125  0.4539997140148307 0.02780680625771129 -0.1247175605375571  0.4776188029019063 0.02616179406154051 -0.1248450738506545  0.5019756105654253 0.02513401800142691 -0.1250060754814272  0.5270079356251353 0.02405292171671137 -0.1251888480955856  0.5529322387803994 0.02180502045593462 -0.1253804331107881  0.4577135090876051 0.05490864702559462 -0.1245683532772735  0.48132411115885 0.05217629115574592 -0.1247748313099652  0.5055800831722054 0.04993368734048068 -0.1250335722653423  0.5304555773866215 0.04753659870677348 -0.1253076125506251  0.5558266954504388 0.04406070257027069 -0.1255604613325631  0.4622519322888074 0.08118898478668866 -0.1245311047899314  0.48587150804788 0.07755277901569609 -0.1247803572844382  0.51003232766011 0.07430069432359017 -0.1250702018463823  0.5346362919472789 0.07087112577018526 -0.1253710163531321  0.5594671011193971 0.06661941796275757 -0.12565899381867  0.4673747803597476 0.1066737399383705 -0.1245600016751228  0.4909894195000603 0.1023399892224506 -0.124824540001317  0.5150335533550867 0.09833281029205576 -0.1251102665568294  0.5393720265269302 0.09417849427792183 -0.1254034872314938  0.5637808363695429 0.08941343287332036 -0.1256941361646415  0.4727834542494669 0.1315084282359786 -0.1246207548721005  0.4964327572720282 0.1266981926719423 -0.1248858630098293  0.520377194186644 0.1221637516669438 -0.1251529556454667  0.5445039137543666 0.1175290302104858 -0.1254243668148215  0.5686126246279392 0.112459025740719 -0.1257020838237022  0.4782789842020083 0.1558635865297683 -0.124691837180766  0.5019895289966063 0.150775294003286 -0.1249523776517793  0.5258734602097409 0.1459064548727378 -0.1251983099484554  0.5498535833863289 0.1409802693636158 -0.1254456237053257  0.5737731479977423 0.1357710737953783 -0.1257077242545129  0.4837193229229259 0.1799197476293811 -0.1247612318416353  0.5074976205037487 0.1747055674663875 -0.1250190948039422  0.5313520756527987 0.169650135798735 -0.1252450811324896  0.5552436328307688 0.1645701147561806 -0.12547033983259  0.5790646558304127 0.1593305715204507 -0.1257212467029695  0.4890501412015268 0.2038404045067687 -0.1248381561465428  0.5128349625354629 0.1986041403008908 -0.1250881507379693  0.5366558284467949 0.1934649309490152 -0.1252907570531588  0.5605277292834353 0.1882987822583085 -0.1254946435910054  0.5843388418058763 0.1830462501760433 -0.1257375989171055  0.45 0 -0.1  0.475 0 -0.1  0.
[...]
<PointData  Vectors="traction"> 
<DataArray  type="Float64"  Name="traction"  NumberOfComponents="3" format="ascii">2.3927063542253773e+03 -2.5579044448384509e-02 -8.2155818688543034e-02  2.3281159201985734e-13 -3.5846758944808969e-18 3.9270792057084470e-16  1.2152255376123372e-14 7.9342815156044834e-19 1.2105407731407809e-14  -3.7309229170254852e-14 1.4184662837263581e-17 1.7317353836996139e-13  9.1670316654301531e-02 -1.1338159189528704e-02 8.0923448265852551e+02  1.4700313067058653e+03 7.5006953558862891e-04 -5.7259480225367872e-02  2.4512170337417952e-13 -2.2938921795243536e-18 3.3734331329586640e-16  1.2260953532087286e-14 -4.5601157243286463e-20 5.0204535855338852e-15  2.3388157358360983e-15 -5.0039389789262699e-18 5.7051350086359358e-14  5.6917501716542494e-02 -2.2502864592526855e-02 4.0257929980749759e+02  1.1107240908842011e+03 4.7604995648746690e-04 -5.4193304046669034e-02  2.1303511495313762e-13 1.0846605942682399e-19 1.5663403257918796e-16  1.0925007080312919e-14 -1.3313424098075976e-19 2.4655048215630832e-15  1.7159426398416209e-15 -8.7374885910071419e-19 2.8486416309966310e-14  1.2585867862098761e-02 -5.6747611427696489e-03 1.2823910716077040e+02  8.9389168028374149e+02 -4.0767253233434267e-05 -5.0699943041874869e-02  1.1649775927098694e-13 8.4230679208434170e-20 8.9912900142993314e-17  1.4922468610641350e-14 -3.2316635769107700e-20 9.3851117638401043e-16  -1.8910315583840701e-15 -3.6116172013588812e-19 9.4176046090929991e-15  2.2106818270492641e-03 -2.3659533570461952e-03 7.3049186401151900e+01  7.9059464331631443e+02 -4.2139632356426158e-04 -4.9091142582297895e-02  1.3724225514886987e-13 -4.6652679885949398e-20 3.2259772868960270e-17  -1.6211631052238702e-15 -2.0667761671466158e-20 7.7189671968036932e-16  8.6760539023687487e-16 -3.2427900120035522e-19 1.2541792106523687e-14  1.1626328677291312e-03 -1.6846272030919874e-03 5.9319307545234317e+01  4.9613760936108241e+02 -1.1653300331912930e-04 -4.5035472255718481e-02  1.1915538519317743e-13 -7.0075182154139928e-20 1.1818084774103598e-17  1.4069808887079260e-15 -3.3335058619374534e-20 2.5405693686264303e-16  -4.1800355126698966e-15 -1.5179474246584711e-19 2.8088552829654107e-15  1.7578032213808341e-04 -3.7582559261536974e-04 2.3521289843474264e+01  3.1811861224278726e+02 6.4684525893932891e-04 -4.2700921328669456e-02  6.7963930386798312e-14 1.6884736504802662e-20 -2.9750320990332622e-17  6.5897968115381696e-15 -9.3303201758700236e-20 -5.5783404059097120e-17  -5.3372445854975376e-15 -4.4986930705427195e-19 2.9797825318960803e-16  2.0978574467490072e-05 -8.5408532556517755e-04 1.1510328712657678e+01  2.3741172762439629e+02 1.5792277039765399e-03 -4.1780675066021650e-02  5.3091164393794797e-14 -4.0532843800996610e-20 -3.2793607475247372e-17  2.2407449620669908e-15 -2.2283920711964596e-19 -6.4380584496057407e-16  -2.4073913673078781e-15 -2.6166975123967213e-18 -5.6464382506197479e-15  4.1299100322575634e-04 -2.9850644072440037e-03 2.0402703959409157e-02  3.5070697258427259e+02 -1.3797257576928058e-02 -1.2615361264259334e-01  6.0493727903643519e-14 1.1196288136394380e-19 -2.8499568711194852e-17  3.5574461745025453e-15 -9.0698260758554204e-20 -7.4762354473215144e-17  1.2130504934355407e-15 -2.1077053535092421e-18 -7.5024811516982749e-15  9.2855022826316136e-03 -3.4436644743058985e-02 -1.1186116296638842e+02  1.5951375694835838e+03 -1.7052696298922997e-02 -5.4770545792361999e-02  4.5809735128307287e-13 -2.0099011641067587e-18 3.3664301302493372e-16  1.9318184236314848e-14 -2.4444518640512969e-19 3.1802008316084019e-15  -1.7653782489702632e-14 -2.5001335947112251e-18 1.5756466916393264e-14  -4.4920681446695447e+01 2.5965221768478774e-02 6.6478344096387223e-03  7.3501565335293310e+02 3.7503476779430996e-04 -2.8629740112683953e-02  3.0112181564687411e-13 3.7598036083753055e-18 1.3097221332717993e-16  6.5366023748942833e-14 -3.1315199941266742e-19 1.4373066269143486e-15  2.6904251547435515e-15 -8.8185268714307201e-19 1.0615134607822629e-14  -5.7151119602988487e-01 -1.1874602211395828e-03 1.6775995867649180e-03  5.5536204544210113e+02 2.3802497824373242e-04 -2.7096652023334510e-02  -6.8443382542822692e-14 -8.5364870716208405e-19 7.4932088867029263e-17  2.6179355777974809e-14 1.0456042486403746e-19 8.3615750764195031e-16  3.8827890119645819e-15 -4.2723519950272011e-19 5.7541195523222462e-15  1.8681234664128621e+00 -1.9387927228972722e-04 1.4569064811181934e-04  4.4694584014187029e+02 -2.0383626616716595e-05 -2.5349971520937407e-02  4.8464420539874426e-13 -3.0603312835315731e-20 2.8345443454805323e-17  1.1411794858712823e-14 -7.2294932631328891e-20 3.6692197622676242e-16  4.6652052681732405e-16 -1.6956815037600897e-19 3.6448110565797783e-15  -1.3953989240102567e+00 -9.3832664472821118e-05 7.2115489748917375e-05  3.9529732165815699e+02 -2.1069816178213163e-04 -2.4545571291148961e-02  5.9888623475997067e-14 -8.3990432063882447e-20 1.5323158730391747e-17  2.4799557572371210e-14 -1.6055656809099315e-20 3.4508063740109165e-16  -5.6565864931628849e-16 -7.4260465508962626e-20 2.1675106776667599e-15  -3.1100007459142329e+00 -5.8491589994081015e-05 4.2138433260145360e-05  2.4806880468054155e+02 -5.8266501659565594e-05 -2.2517736127859244e-02  -2.8858732801761953e-14 -5.8492580440603727e-20 9.3674599207233524e-18  2.2762989269834635e-14 -1.1629541909610187e-20 1.1749868903234954e-16  3.3106325176911658e-16 -3.7155346841779012e-20 1.1198131801921535e-15  -4.0695520082600218e+00 -1.6003325531670487e-05 6.4468005149053162e-06  1.5905930612139346e+02 3.2342262946966424e-04 -2.1350460664334738e-02  5.0916969343890017e-14 2.9385676497527872e-20 -1.7274274754193708e-17  7.1672074071648880e-15 -1.4439643001891827e-20 3.5856130799755536e-17  1.0922155593082237e-16 -6.3330369955005646e-20 3.9651832096660782e-16  -3.7363421209328651e+00 1.4521085718451623e-05 -2.5396646858141966e-06  1.1870586381219812e+02 7.8961385198827051e-04 -2.0890337533010828e-02  8.3875558326876364e-14 3.4752754898560996e-19 -3.6215555292023592e-17  5.8457102470620454e-15 -5.3505441220630772e-20 -1.1848163233652103e-16  7.3036785936085648e-16 -4.4534131773565934e-19 -1.6980062203008128e-16  -3.6649570925938058e+00 4.1231518676040416e-05 -3.4485105868307521e-05  1.1690232419475755e+02 -4.5990858589760189e-03 -4.2051204214197793e-02  2.4323590129538396e-14 -9.6471151080264557e-19 -2.9734056730427910e-17  1.0113327724728798e-14 -3.3019856173112832e-20 -1.5335565505726202e-16  9.9798304182047753e-16 -4.2203085073192477e-19 -1.0993369465309427e-15  1.4320697959982851e+00 -2.3140505495509870e-03 -1.2283988963262219e-03  1.7455903292981800e+03 -1.0057180865883079e-02 -3.6278986758253418e-02  2.7842208804237081e-13 -2.4804933788528452e-18 8.6008951241763067e-17  1.2838940638291643e-14 -4.4242547060907175e-20 5.0539931362563353e-16  -1.5347806250063094e-14 -4.2469047739573162e-19 1.3419285469403006e-15  -3.6738533670076755e+01 -6.1102549249570466e-03 5.8826624505639979e-03  8.0914990111708903e+02 7.0236559398066461e-04 -1.9594583856138173e-02  3.7797131970451892e-15 -5.0865128413808505e-20 4.5004569313823474e-17  1.8069126937420303e-14 -1.4895304533070390e-19 3.7598653920245359e-16  4.1896480609967124e-15 -6.0116847646179557e-21 2.3912657120825718e-15  -4.8921618868364618e+00 -9.6617230785093157e-05 -9.4353411643850350e-05  6.2096210410241736e+02 1.2648999061650942e-03 -1.8692153280218667e-02  3.8700681151968133e-13 6.8611771967506847e-19 1.4856943458678337e-17  2.4605441681979153e-14 4.5224130939072072e-20 1.9536987702997922e-16  3.7518439475348096e-15 -2.2914963963532168e-20 1.0973632937157971e-15  -4.9915775437326735e+00 -1.2937139509832579e-05 1.1913456441967297e-06  5.0350368891959573e+02 1.5940053125328044e-03 -1.8008921305959616e-02  1.7992387609081906e-13 -4.3820253453934915e-20 1.2569429939967557e-17  3.3992307968208044e-14 2.6186862801054529e-20 1.1472252732506655e-16  -4.5059199753923270e-15 -2.8064223892871237e-20 7.8420231045903015e-16  -4.4724959710644798e+00 -1.4591370854447618e-05 1.3212909695862359e-06  4.4707602393864295e+02 1.6421920649930439e-03 -1.7613282714166973e-02  2.0688241320220728e-13 2.5741567032271356e-20 -2.6958222099737599e-18  1.2178607192825144e-14 -1.0060759658632333e-20 6.4479551508649282e-17  5.0544791427496948e-15 -4.1761675161600722e-21 2.6674622751057540e-16  -4.3390547501014582e+00 -2.0576125815711041e-05 -1.2834232032052713e-05  2.8740515687698161e+02 1.7419872497539345e-03 -1.6381439448401227e-02  2.1919608071569552e-13 5.3154707035902307e-19 -6.1153063254815769e-18  2.7036898072670391e-14 1.9499598289485358e-20 3.9642266813654423e-17  -1.1332081845847869e-15 -4.5078093094172241e-22 2.3372390233365119e-16  -4.2567281328981537e+00 1.9533766592183051e-05 -2.6312330318151082e-05  1.9198673646544000e+02 1.7866211290763882e-03 -1.5596240001358135e-02  1.8975484208343778e-13 2.4086170225756490e-19 -9.7536990806391533e-18  1.4808721024936413e-14 2.0751717894328793e-20 1.2844544794445290e-17  -1.3042350179040883e-15 -1.0206929233175059e-20 9.5436079203754760e-17  -4.0000712432283043e+00 1.8491509716263432e-05 -2.4654438389838623e-05  1.4935639166848213e+02 1.9663486221265683e-03 -1.5683472320066005e-02  5.8224323554217550e-14 8.4205227960371506e-19 -2.1101035587720793e-17  1.3504411315012900e-14 4.1856133245269708e-20 -8.6030452331815882e-18  -8.2743671394339871e-16 -1.1104152871893458e-19 1.9373074129263177e-17  -3.9265379085433563e+00 2.9580666283415235e-05 -2.6829400041998940e-05  1.6236306278829875e+02 -3.7592332870062364e-04 -3.0526920401699804e-02  4.8905995751563857e-14 1.6637568180393755e-18 -2.1613264459090643e-17  6.9013854438634107e-15 9.2943420060832181e-20 -3.3758932316611003e-17  1.3410486173609976e-15 -1.9757746646960028e-19 -1.2255595565753630e-16  -2.9787799117811891e+00 -1.3182183360963657e-03 -5.2033769339779432e-04  1.8153655411672330e+03 -9.8161691679359009e-03 -2.9298109373764789e-02  2.6174810921690499e-13 -1.8630524253559522e-18 9.1458937244746747e-18  2.4404386682990232e-14 -1.1171441657862957e-19 4.8899750366279722e-17  -7.6020875809986159e-15 -6.0960682946760118e-19 6.1756024928094840e-17  -1.6771273223372209e+01 -1.0333135053322915e-03 1.4723757928755432e-03  8.4394752242369850e+02 9.1140793514784245e-04 -1.5945198637920720e-02  2.5749307559120695e-13 -5.9176613157389895e-19 1.9574015498242045e-18  1.7251154636389976e-14 -2.0625419159959518e-19 7.2776179685837087e-17  6.7260546416298291e-16 -5.0046150108744394e-20 2.6382760262032518e-16  -5.7486393369110163e+00 4.9408196933207430e-06 1.1517952796053757e-04  6.5308437203189658e+02 2.2282017965585660e-03 -1.5452060968442672e-02  -3.9367927364281395e-14 -3.4021763644966685e-19 3.4353960889676083e-18  6.1374401604331841e-14 2.6038393973753994e-19 3.7646359801043192e-17  -1.4090268903036120e-15 -1.3377505149341046e-20 1.9318317587115999e-16  -5.0587170219222175e+00 -8.3764528895683217e-06 -2.1536104304516184e-05  5.3192518033436204e+02 2.5286007391373366e-03 -1.4919110131513402e-02  3.3035866615706909e-13 -2.3049844485363091e-19 2.4898881287877691e-18  1.9813903351366407e-14 -2.7381441915105027e-20 2.4974292729433445e-17  3.7503122060591661e-15 7.9622844549784016e-21 1.0286407663132121e-16  -4.8173809382815653e+00 8.1483911102208705e-06 -2.9594472471725089e-05  4.7344584188780038e+02 2.5973360984862933e-03 -1.4638092725673945e-02  2.7221393535291581e-13 4.1536550194231538e-19 -5.3974760910793721e-19  2.3151994319145451e-14 4.3097395124163146e-20 1.0777158143083924e-17  6.2375630034437543e-16 1.4423400648085339e-20 5.1465696287542512e-17  -4.6973210929039064e+00 1.5566570682692146e-05 -3.0585465778126070e-05  3.0815874388974760e+02 2.7009746796975227e-03 -1.3863733818071966e-02  9.5032203064931824e-14 8.2116366122407932e-19 7.3748420762174355e-18  2.3657942336753798e-14 3.8602006175362306e-20 7.3997132184679455e-18  1.5638959669240832e-15 1.5564442914512222e-20 2.6532893766175075e-17  -4.3592565648306634e+00 2.0650216620398462e-05 -2.2000729504195969e-05  2.0977932820608854e+02 2.6693821830674740e-03 -1.3370618262556722e-02  1.4897434023259479e-13 2.3426452975013830e-19 3.9137028636906406e-18  2.2252567398497635e-14 1.0958508649804251e-19 2.8870728978888259e-18  4.1223019672146138e-15 5.9453561099671690e-21 1.5696328264962315e-17  -4.1419328009341596e+00 1.6581700177834883e-05 -2.0740704836739786e-05  1.6587340244998640e+02 2.6068776999818343e-03 -1.3255858954152881e-02  3.9059357299144760e-14 9.9969076243474382e-19 -4.8452986814069544e-18  8.3317624204122783e-15 3.4858284066219526e-20 -6.8568586234731530e-19  7.3743012926935753e-16 -6.7228063583022211e-20 5.3611804055469628e-18  -4.0879941087205474e+00 2.2840107170198912e-05 -2.2791779910559470e-05  1.8719933321454343e+02 1.1509057373875055e-03 -2.6483822233140095e-02  1.3351987147283684e-13 1.1726069565827480e-19 -1.5501705667472148e-17  1.1625671918441725e-14 1.9623132218384574e-19 -5.4886493422069195e-18  1.3644889749044242e-15 -1.1687843211829197e-19 -8.0886775918828884e-18  -5.0260830870802637e+00 -7.8509288057348613e-04 -2.7167990032284166e-04  1.8427329668771290e+03 -6.5091005611972955e-03 -1.7996260022255170e-02  3.8060301291339688e-13 -2.1716011674529888e-18 -1.9993719763148751e-18  1.9308872678398249e-14 -1.7896311563531718e-19 2.7554555982882453e-18  -1.4370533701933395e-14 -3.9190710150398911e-19 1.1127906049619339e-17  -1.5372421039348302e+01 -9.9890218898512581e-04 2.1513908523660146e-03  8.5732563492136887e+02 1.0861941012369979e-03 -1.0546603458740013e-02  4.0301926464385223e-13 -3.5012889602909214e-18 -7.6869824341555067e-18  3.6379082172374268e-14 -2.7093900881154590e-19 7.6467649856421385e-18  -9.8474805036593525e-16 -2.1286922272009410e-20 1.6551208152436493e-17  -5.9285540942854933e+00 3.2862843354754743e-05 2.5661344531857844e-04  6.6675538188111216e+02 2.6587168922749512e-03 -1.0156648500787077e-02  2.4212262898363315e-13 8.2640089591613840e-19 -1.7500254266459401e-18  5.1023306846839627e-15 -1.0163942984023518e-19 6.4040636732618029e-18  1.3476209326355936e-15 1.0349348943474641e-20 2.4050510241086698e-17  -5.1287550805199453e+00 3.8904360377364700e-06 -1.7950971379923827e-05  5.4454587621673784e+02 3.1255628112405866e-03 -1.0012929442334896e-02  1.5537128053838517e-13 -1.5079777484524621e-19 7.5795837246507987e-20  1.4991683329563829e-14 -1.1607873429109642e-20 3.3184589147174702e-18  3.9200923356005080e-16 8.2748632048307202e-21 1.2638242289103599e-17  -4.9274905940910729e+00 1.2257629563177916e-05 -1.9355742579086888e-05  4.8548464780856546e+02 3.2417631405372710e-03 -9.8887874105356779e-03  1.4993563932257764e-13 -2.3135423191105907e-19 -9.3522930131811438e-19  1.3348220961977461e-14 9.2501131917472738e-20 1.6060860791627070e-18  2.7361431987177608e-15 1.4986131286963946e-20 7.3662937693235256e-18  -4.8117176043413519e+00 1.5786871122172709e-05 -1.8746353457678893e-05  3.1868613981005342e+02 3.3634442121204884e-03 -9.6021987450918972e-03  3.2038342548091961e-15 1.2214429896642744e-18 -2.4821512485578221e-18  2.6139115595138554e-14 9.0426327875884092e-21 8.4805295972114791e-19  2.9543929489892776e-15 2.3726557271770895e-20 3.5139031319492703e-18  -4.4926154816102288e+00 1.9533636196450350e-05 -1.9843806137631451e-05  2.1910713115117051e+02 3.2194670170014239e-03 -9.4758814654782777e-03  1.1962637107844728e-13 -2.0281706251093087e-19 -3.4478900626858248e-18  1.9470404367702802e-14 8.3127100733131035e-20 2.9476533416789704e-19  2.1000854517060530e-16 7.7710563300996475e-21 2.2129848485727995e-18  -4.2990386801932754e+00 1.5255174115948598e-05 -2.0473686088430438e-05  1.7445292128088894e+02 3.0176628263799193e-03 -9.4392127882269358e-03  1.6274567265099512e-13 2.1497429943111817e-19 -2.3842454432533017e-18  1.4813941579398266e-14 1.0557473536840104e-19 -6.7056659580979785e-20  1.2812111872703105e-15 -3.9443344715673886e-20 7.9697097364535930e-19  -4.2411837961771512e+00 2.1950466982038384e-05 -2.1320096632382122e-05  1.9996175422860028e+02 2.5738053874485513e-03 -1.8930598393506446e-02  1.4964772560571810e-13 2.4541222514821797e-18 -6.5312253320422644e-18  1.8770380331598217e-14 2.5498680228724742e-19 -6.6078195569915160e-19  1.1789558774108727e-16 -1.3439607674680462e-19 1.2664922647986925e-19  -5.5176698424178037e+00 -7.6902985047884670e-04 -1.8137561330879305e-04  1.8574776109388204e+03 -5.1728969565289669e-03 -1.4674310251676974e-02  4.6538559019186692e-13 -1.0985173486430077e-18 -4.3735482929298681e-18  3.5046052654048676e-14 -1.1432806945525637e-19 2.4156414675223526e-19  -8.1008432763875861e-15 -1.6046407988730117e-19 2.1242272483785723e-18  -1.6140837718999929e+01 -1.1576413698170820e-03 2.8383108816603300e-03  8.6491877190772573e+02 1.1631181308998312e-03 -8.1552721098377117e-03  7.6962543941223358e-13 -1.6078572471605998e-18 -5.0361649115628635e-18  3.8461538939622128e-14 -1.1224324374466673e-19 9.7594043077605345e-20  7.9157255157670930e-16 8.4908792067391119e-21 1.7456387542065643e-18  -6.0384353480455406e+00 5.6192230725661050e-05 4.2266470418444204e-04  6.7463130142872251e+02 2.9602226538798155e-03 -8.1824627989479058e-03  3.4732840477318855e-13 9.7640916625675535e-19 -5.0115967955508994e-18  5.0939971871332508e-14 -4.4037718012402416e-20 2.3469287513115304e-19  1.2958020322125155e-15 -3.0869108072166418e-20 2.3565436750516585e-18  -5.2275737271709533e+00 1.1326101615072083e-05 -1.7443670802362847e-05  5.5220790599437237e+02 3.5162381952243554e-03 -8.1309791435449572e-03  5.1182462337096662e-13 8.9489139474058426e-19 -5.8353790694259126e-18  3.9833904999330613e-14 3.4141037703141133e-20 -6.5186600207040487e-20  -1.2127011061703412e-15 2.3353945443105803e-20 1.8096208292260536e-18  -5.0219977029813263e+00 1.3948343449351117e-05 -1.9869767640326117e-05  4.9295459100007747e+02 3.6961298541163101e-03 -8.0665583494395447e-03  4.1035517832223550e-13 1.2987866213555221e-18 -6.9594015015550314e-18  4.7364415872222847e-14 1.0036603654961745e-19 -1.0198152239119021e-19  3.8197244197537247e-17 1.7923917948326092e-20 1.0021704052250222e-18  -4.9091886487793364e+00 1.6319008280785665e-05 -1.9664125962810735e-05  3.2559355799179832e+02 3.7946883702524399e-03 -7.9245866859584801e-03  1.5471748475869445e-13 1.6007787952521293e-18 -1.9203130424654583e-18  1.2551652510788435e-14 8.5897322134912336e-20 -2.9437450796683048e-19  -5.0099136931946284e-16 5.7871510935700544e-22 4.9064081261474943e-19  -4.6047135778925190e+00 2.0146356434701690e-05 -1.8407120994130251e-05  2.2536551346631344e+02 3.5379661939505618e-03 -7.8056415534894733e-03  2.1175857587216851e-13 1.8222757504614157e-18 -2.2910996797194284e-18  9.9397141035904097e-15 2.3098015797705136e-19 -1.4572315717975229e-19  -2.7823998730345515e-15 -3.1448927963082230e-21 2.5316387010281202e-19  -4.4302477049162832e+00 1.5098118964694436e-05 -1.8020844341142000e-05  1.8038436603209931e+02 3.2563432422159418e-03 -7.7894257329135770e-03  1.5738622155735327e-13 2.5614991318430514e-18 -6.0551999821239042e-18  1.4485527306216073e-14 1.3001859154390287e-19 -4.5943563084082444e-19  -1.8651484915675524e-15 -1.5805755288896460e-19 3.0102793217263661e-20  -4.3863820958747040e+00 2.3577926463687578e-05 -1.5389836407627760e-05  2.0959182432989863e+02 3.5395837374266751e-03 -1.5893015344712446e-02  1.2248401157900726e-13 2.7525917176408237e-18 -9.6636730378667299e-18  1.0964133304209040e-14 1.1971026398861236e-19 -8.6328384538849039e-19  3.5288528380511405e-15 -1.6919440597941091e-19 -3.5998954759518192e-20  -5.6402939415545434e+00 -7.3535167644098534e-04 -2.3869486348657796e-04  1.8683736667739295e+03 -3.4734788184064267e-03 -4.7373244678391557e-03  3.6231270735638375e-13 -6.8614721264750431e-19 -1.2430893790888609e-18  2.0897970158761205e-14 -3.4184159333215294e-20 8.3559659437647848e-21  -7.6855051845303696e-15 1.9928754974077506e-20 5.6243529743673191e-19  -1.7088682657309878e+01 -2.9323799050169787e-04 1.8158498536425768e-03  8.7036996163418212e+02 1.3797730531638305e-03 -3.0595755120789328e-03  6.1571741150589859e-13 -2.2416826597117179e-19 1.5846366561394363e-18  5.8323011054524367e-14 -5.2045576674939833e-20 -2.2494198449397754e-19  1.5868398313147475e-15 6.8480262166798245e-20 2.4394684302025408e-1