/*--------------------------------*- C++ -*----------------------------------*\
| =========                 |                                                 |
| \\      /  F ield         | OpenFOAM: The Open Source CFD Toolbox           |
|  \\    /   O peration     | Version:  2206                                  |
|   \\  /    A nd           | Website:  www.openfoam.com                      |
|    \\/     M anipulation  |                                                 |
\*---------------------------------------------------------------------------*/
FoamFile
{
    version     2.0;
    format      ascii;
    arch        "LSB;label=32;scalar=64";
    class       surfaceScalarField;
    location    "0.300000000000000044";
    object      alphaPhi0.water;
}
// * * * * * * * * * * * * * * * * * * * * * * * * * * * * * * * * * * * * * //

dimensions      [0 3 -1 0 0 0 0];

oriented        oriented;

internalField   nonuniform List<scalar> 
20856
(
-9.95035829076245656e-11
4.12960972889309612e-12
-1.7541356004009754e-11
-9.229168058783616e-11
2.0481528592890803e-12
3.26478534697218696e-12
-1.13194078464962731e-11
-8.70907014149931956e-11
-3.58588329864194306e-12
1.82595087523207627e-12
-7.05826966001598165e-12
-8.16031871649652427e-11
-8.04986979243227623e-12
5.78606274394444586e-13
-3.73009876789724497e-12
-7.54340649318701274e-11
-7.63151489718763364e-12
-1.28041313568578005e-12
-8.84031224026721359e-13
-6.97058822415103969e-11
-6.13883658655949582e-12
-3.776953293009879e-12
3.7640837850535867e-12
-6.77280198380704278e-11
-4.69699575701764184e-12
-6.48347007368019989e-12
8.89366265001513543e-12
-6.53281961126949715e-11
7.16658495287033689e-13
-9.95359352999279373e-12
1.48557709285768759e-11
-6.81394504225857557e-11
1.56986903584248053e-11
-1.59030978987474349e-11
2.31871693792766769e-11
-7.65217422538284313e-11
4.70379125962871773e-11
-3.07308050326118278e-11
4.0402892119202542e-11
-7.742164484886264e-11
8.77332664196165904e-11
-6.28702075290260184e-11
7.3861369662320918e-11
1.55094883252256598e-11
2.681720936102449e-10
-1.48183039631860473e-10
1.36786034389826569e-10
5.05722619535867381e-10
9.38453105996039276e-10
-4.23408254405170152e-10
2.49502591274514175e-10
3.88433435138150919e-09
1.48665189078076525e-08
1.34453464396617894e-09
-1.7249377256601399e-09
-4.7917078973628311e-08
4.2404969726639504e-07
1.12895709621344576e-07
-1.07860318345983832e-07
1.74263484200376763e-06
9.32630149423062429e-07
-1.08897629537857223e-06
-3.78284141256388693e-11
-1.20469157998075607e-12
1.43922070342173075e-12
-4.93900461675631246e-12
-3.64883848504705733e-11
-1.32474566272503746e-12
9.3455895626217649e-13
-3.26203816247371465e-12
-3.53634807475957954e-11
-2.62831994078024593e-12
5.10114917167861423e-13
-2.0103575265059939e-12
-3.42632053859252007e-11
-2.89505573104682997e-12
1.24055062881043729e-13
-9.98918946423318437e-13
-3.25915885590067513e-11
-2.42983765547653335e-12
-6.80603081653099198e-13
-3.9050496112576832e-14
-3.17980484158460668e-11
-1.97448397510207618e-12
-1.712975627193484e-12
2.1852893561498955e-12
-3.07483616236348327e-11
-8.77206380695618329e-14
-2.90348231531112584e-12
4.48261670247238817e-12
-3.05755332529997424e-11
6.44861059120294738e-12
-4.53000716232180718e-12
7.14743262104294674e-12
-3.68479584668853767e-11
2.10688637578166949e-11
-8.41051411547397504e-12
1.19219119971554466e-11
-4.73837906139473762e-11
4.00695431768420948e-11
-1.78277858335783237e-11
2.30937014365385052e-11
-4.39181920428790964e-11
1.10214659182429289e-10
-4.45268334062088576e-11
4.72872995904928489e-11
1.04987191718312688e-11
3.5193175560196927e-10
-1.47080722644239708e-10
1.10345507138720305e-10
2.95168778124019272e-10
1.24261130645516935e-09
-5.54847448863619084e-10
2.84956003353238398e-10
3.0779776573715675e-09
1.96578147754568864e-08
1.93969085856335194e-09
-1.93891242901103418e-09
-6.1777267324303121e-08
4.36481295444887314e-07
1.07763199094361499e-07
-1.0445710275644728e-07
1.33020015598117779e-06
7.1867786155008908e-07
-8.93869676733761387e-07
-1.45668812644350115e-11
-9.26152383395881001e-13
4.27675075864108326e-13
-1.46799615542914704e-12
-1.43515177801264928e-11
-8.61194253310168722e-13
2.87483954692058191e-13
-1.00441075248644957e-12
-1.43687497884148573e-11
-7.7663232869553826e-13
1.59365469343878134e-13
-6.42547880734573695e-13
-1.43592041499672977e-11
-6.77111284697176513e-13
3.85950766623926599e-14
-3.44854922973080803e-13
-1.38878241630123064e-11
-6.74124951000630036e-13
-2.72518087217807052e-13
3.03959705374598283e-14
-1.36398401547468622e-11
-5.46106578663979988e-13
-6.89571258331648658e-13
9.66888437971785006e-13
-1.35682348775877548e-11
1.85073803134905864e-12
-1.20902982082740357e-12
2.00033495455019236e-12
-1.57229018150262785e-11
7.71645371714721339e-12
-2.10745809984181958e-12
3.32646838056907419e-12
-2.12039973372424683e-11
1.67335812223093933e-11
-4.58786865393322558e-12
6.33457881118188565e-12
-2.83112583940196229e-11
4.28781680580564344e-11
-1.12836867596721996e-11
1.35923951430222288e-11
-3.59087281597049995e-11
1.45811503357478387e-10
-3.74919656362083467e-11
3.41509289379482252e-11
-8.65082273415432476e-11
4.8525327406794505e-10
-1.65817163261946541e-10
1.09759734283504942e-10
-1.94768289940275464e-10
1.96732271429250992e-09
-6.79206611823829822e-10
3.72736676463583258e-10
9.2460282708330686e-10
2.47217583765634027e-08
2.65267722628630135e-09
-2.51915635252411547e-09
-6.95151826032634652e-08
4.33428170024000959e-07
1.01790475969300131e-07
-1.01509674729166006e-07
9.53888387759145655e-07
5.42090731145845955e-07
-6.96887476986007805e-07
-5.74238504157964518e-12
3.78303850926429679e-15
1.31897265714017372e-13
-4.47767403842242972e-13
-5.83337715957511834e-12
8.34963331117762591e-14
8.95570558505649796e-14
-3.15932901848807644e-13
-5.94079944319454072e-12
1.00421140144387306e-13
5.45622354071674053e-14
-2.44445271333761175e-13
-5.92788424959463547e-12
9.27659374336699447e-15
1.70879542714819197e-14
-1.37252667514254589e-13
-5.88830793231158756e-12
1.19766221094890269e-14
-9.44203479082043999e-14
-3.42531368978548324e-15
-5.82707973268420667e-12
1.66428302799335861e-13
-2.62474205174174667e-13
3.83046347104459195e-13
-6.21602178069217454e-12
2.19827562220914562e-12
-4.90662656746537953e-13
8.1733899783999843e-13
-8.23695209440201841e-12
6.5348848352050626e-12
-1.06176036348776585e-12
1.54181338915397753e-12
-1.23905516049688405e-11
1.51776623650329372e-11
-2.59775782121830632e-12
3.46811184554057249e-12
-2.19618981421382522e-11
5.48234636543338888e-11
-8.45256320158256808e-12
8.49928501727181772e-12
-6.62495330911956278e-11
2.01372035327276145e-10
-3.75313303711426969e-11
2.84872889256043666e-11
-2.53818750566816646e-10
7.07039856612974428e-10
-1.9000234855971776e-10
1.24170242630410339e-10
-1.3021477128615718e-09
2.94441589094356466e-09
-8.02130122355630801e-10
4.68233878952244296e-10
-3.26961120818316939e-09
2.90395396914387877e-08
3.34967906790657808e-09
-3.20883767045511479e-09
-7.25137012179963936e-08
4.07551903966123809e-07
9.30109515044323589e-08
-9.61364003368587065e-08
6.53643435925371095e-07
3.64436890536834283e-07
-5.24144304148916733e-07
-2.82903660274534206e-12
2.26369327484300945e-13
8.80808732095378924e-14
-2.06397131221354473e-13
-2.67547254288421833e-12
2.43580009281923969e-13
8.01994289822570891e-14
-2.55135542777446549e-13
-2.48120394894218567e-12
2.399269485317609e-13
6.39644509636422967e-14
-2.1266148948626424e-13
-2.38413796329382239e-12
2.90049742370575672e-13
4.6620445662470996e-14
-1.5642511291919324e-13
-2.44160890295413571e-12
3.21410002046887043e-13
3.35378600012865456e-14
-1.26464300734912267e-13
-2.48258721222951056e-12
2.62947982329559507e-13
2.39319818496972006e-14
-1.02591168414793047e-13
-2.49128202704918671e-12
2.3208742871403459e-13
9.31537759729938277e-15
-5.96820761167010117e-14
-2.48091596044348722e-12
2.54701081272798694e-13
-2.82392811964033005e-14
-8.93598060797260104e-15
-2.46432711044150794e-12
3.81169451529816891e-13
-9.60160508404642811e-14
1.35811436134824859e-13
-3.10636323375978447e-12
1.86373854943137378e-12
-2.10067941603748389e-13
3.25333846162695395e-13
-4.99472360265645015e-12
4.63929796840575561e-12
-5.42859641289789938e-13
7.57725267897290423e-13
-8.87038077436331655e-12
1.61438837009069726e-11
-1.68661325896395524e-12
1.92907563600466586e-12
-2.38397928202104055e-11
6.50762189413680082e-11
-7.27761353958906135e-12
6.31547043542069028e-12
-1.10414443413615376e-10
2.61578039373207454e-10
-3.93368512102888423e-11
2.82452935831243167e-11
-5.15231304495316647e-10
9.62338787038056059e-10
-2.0667753252220455e-10
1.41190809812276835e-10
-2.63797979168264513e-09
4.0685063430854092e-09
-7.34380037733127221e-10
5.57279420299103613e-10
-2.28380925587034468e-08
3.15271473626230953e-08
4.09134937567270479e-09
-4.00668288944102351e-09
-6.20704712856378407e-08
3.49152462742105798e-07
7.87900772366115144e-08
-8.74779139666274875e-08
5.36670569966176443e-07
2.6886006121725733e-07
-3.5941532533975551e-07
-1.1912543231297645e-12
2.31983499445785847e-13
4.70637930897035024e-14
-9.10054331320112817e-14
-1.12681283416934994e-12
2.30621992585832166e-13
4.10942541862024591e-14
-1.08496123819097731e-13
-1.06141937537467483e-12
2.41544071642151613e-13
3.21117985440357457e-14
-8.99259973048697578e-14
-1.04195297744825178e-12
2.62722898543892342e-13
2.42062177810808478e-14
-7.60300539825929908e-14
-1.05053882856630824e-12
2.69411094549789934e-13
1.83911690209884731e-14
-6.52532916063834122e-14
-1.06255173339346583e-12
2.35233723823794686e-13
1.33867948383945417e-14
-5.1221405454164169e-14
-1.08548662021035054e-12
2.3306738584070229e-13
6.22707701056472575e-15
-3.23267289735332891e-14
-1.08897220771201368e-12
2.59901908423943512e-13
-6.14997898956216956e-15
-9.523093894641413e-15
-1.09143959289642858e-12
4.08887102889443187e-13
-3.31110486182646205e-14
3.90089856621671575e-14
-1.52329567565336354e-12
1.40448122356904498e-12
-9.20458270415402635e-14
1.20400764912890828e-13
-2.75592981474899932e-12
4.25322872384473091e-12
-2.84998300962101248e-13
3.58423450559062087e-13
-7.13550328564809843e-12
1.7204030896875422e-11
-1.22683850281067894e-12
1.19626505579535367e-12
-3.03018551399899913e-11
7.46554678512004167e-11
-6.47875788521154076e-12
5.35551675134433644e-12
-1.47782239275530126e-10
3.09788953804501317e-10
-3.70631147939798707e-11
2.96145801154246817e-11
-7.1556278846422016e-10
1.16756871296895985e-09
-1.81441564857509391e-10
1.5346969057222618e-10
-3.44597347346485258e-09
4.94573299954780121e-09
-4.97260111775931206e-10
4.97387335006884101e-10
-2.60649570165829678e-08
3.16640238101583098e-08
4.46932441102327787e-09
-4.52217181592946214e-09
-4.12994020222524891e-08
2.61485117608441834e-07
6.29050186646409247e-08
-7.47961583069852353e-08
4.57886982872951775e-07
1.74133890828595172e-07
-2.63515154466316695e-07
-4.72009367150699362e-13
1.23257713657838497e-14
6.31954860066307641e-14
2.23171190191771781e-13
-4.49509576189691231e-13
2.47365029195276543e-14
4.4145481283028165e-15
1.95696879694066736e-13
-4.35493291627344565e-13
2.80187077389481258e-14
-4.55738512271656016e-14
1.81887342259748225e-13
-4.11781030032916848e-13
2.45646053079321564e-14
-5.40515736464701564e-14
1.83660372926935551e-13
-3.94597552962536008e-13
1.92709691063799806e-14
-4.78375094065824967e-14
1.9055920012485322e-13
-3.85687780500357601e-13
1.49756682317226972e-14
-4.10901019639397028e-14
1.97526745796605693e-13
-3.75237383369739457e-13
1.13904721873890845e-14
-3.33602407902944961e-14
1.96330811268560356e-13
-3.72264806442330518e-13
7.93045975232225656e-15
-2.40874323254981552e-14
1.86837946415441308e-13
-3.75899101636732624e-13
4.17999494971906159e-15
-1.51952262670625885e-14
1.86149570308759183e-13
-3.75485749182125037e-13
4.25339838191377374e-17
-5.98123349680750489e-15
1.94418358504418462e-13
-4.01002346840472933e-13
-8.91612614787608499e-15
6.5058404480996072e-15
2.84525085467854264e-13
-7.93393421481598546e-13
-3.61279630004273612e-14
3.75150968335541417e-14
9.00235345671800013e-13
-2.20500703240459289e-12
-1.70001632341233729e-13
1.633738495708925e-13
3.66395357963775087e-12
-6.83190153214889196e-12
-8.97823773151471115e-13
8.15114154609838598e-13
1.70574634372882291e-11
-3.21994579573094734e-11
-5.12407130572397063e-12
4.61591703253420364e-12
7.90286626886202867e-11
-1.63629466539730823e-10
-2.87382154858850124e-11
2.72631445505510823e-11
3.34202434727820598e-10
-8.08986682000475629e-10
-1.2873353319036318e-10
1.31719890980415679e-10
1.28935606643859936e-09
-3.75496372531090573e-09
-2.28083420715357722e-10
3.09122630138940022e-10
5.51942787999157258e-09
-2.45608279702891667e-08
4.25816471814621302e-09
-4.60673688740712643e-09
2.88812536354152619e-08
-4.7188212884863252e-08
4.76829254991837103e-08
-5.91531662395820717e-08
1.76088273153325926e-07
1.24424454008197329e-07
-1.52249714746228481e-07
3.28948458408733693e-07
-3.96828343012859784e-11
5.84965112103467958e-13
6.35732082798432375e-13
-3.73714455805360364e-11
-1.54190940729805207e-12
2.27958472525735371e-13
-3.53027447864543664e-11
-2.4147036904180956e-12
-4.02861681129611721e-13
-3.35174800567341051e-11
-2.35446788334978744e-12
-1.39821964334666632e-12
-3.35076535006441557e-11
-1.76674132863161143e-12
-2.50548617928040589e-12
-3.38550736773014882e-11
6.65240117756905019e-13
-3.90517689106645782e-12
-3.44805910656967445e-11
8.67783888497968192e-12
-5.87822850577604634e-12
-4.22768369157446217e-11
2.36453831505121728e-11
-1.0839073904235567e-11
-5.57666231846801699e-11
4.4281245819986328e-11
-2.32858772879145934e-11
-5.96160789743638779e-11
1.24683276248244948e-10
-6.1101729872220814e-11
-2.66209050098287214e-11
3.94949854961139976e-10
-2.20372534992354351e-10
2.18658274296137144e-10
1.45087579388159168e-09
-9.05746030379565468e-10
2.8789394226248946e-09
1.97674233210768649e-08
1.07178813451976183e-09
-6.78262513219226788e-08
4.14440607244285813e-07
1.17212279016804522e-07
1.14416701122181047e-06
7.12665279456806896e-07
-1.48894690043350502e-11
-1.22018892290617005e-14
3.08210180286984618e-13
-1.45804384599240759e-11
-2.72692656429707655e-13
1.8254551330741153e-13
-1.42686598102270977e-11
-6.59294183995759705e-13
5.67765453479694129e-14
-1.39102172657862619e-11
-7.13768673000865351e-13
-1.9220295756026143e-13
-1.39101241157046016e-11
-4.42922881813836822e-13
-5.8523065212136233e-13
-1.41984764550230586e-11
1.02098801235977323e-13
-1.03073549185095278e-12
-1.45435746679900404e-11
2.69167845740332506e-12
-1.61594781964843785e-12
-1.71668565701171038e-11
8.81101034852136764e-12
-2.7361820831396052e-12
-2.38577357385936144e-11
1.78321112162682341e-11
-5.89738075317574397e-12
-3.29299704398528045e-11
4.86001346300061115e-11
-1.51145986576797066e-11
-4.75047067226585679e-11
1.66936852935352223e-10
-5.30125471303253135e-11
-1.22270676014272417e-10
5.53299577284119169e-10
-2.42007753483874823e-10
-4.05656209491658734e-10
2.19710312216616934e-09
-1.08362942727581099e-09
5.06085136841697572e-10
2.41260827775317698e-08
1.85062477718929752e-09
-7.09246752495010791e-08
4.04004525960029016e-07
1.08361650379690859e-07
7.61643897213152808e-07
5.05563658843089973e-07
-5.44354427220113432e-12
-5.7437981108243994e-14
9.9568107020414905e-14
-5.48458324520565339e-12
-7.49873456800954482e-14
6.16218645707105213e-14
-5.48843251337974748e-12
-1.32537010775410061e-13
1.99205302887375506e-14
-5.5317222256272976e-12
-5.64530519639933162e-14
-7.00952484885972045e-14
-5.65581914096590488e-12
4.02831758981413608e-14
-2.17933287287296509e-13
-5.90064030552234255e-12
7.34455636760693584e-13
-3.92886659675253936e-13
-6.53488040851219534e-12
2.84480621785451712e-12
-6.60239376392632136e-13
-8.94562113835200396e-12
6.85447741500211655e-12
-1.38929553249658702e-12
-1.39960440692714367e-11
1.63201684011506165e-11
-3.36643129979186287e-12
-2.81685350067027275e-11
5.91984586336290231e-11
-1.16858794600182009e-11
-8.3378955321941381e-11
2.19600601828983583e-10
-5.34973711011161967e-11
-3.12497473086035355e-10
7.68381913018617819e-10
-2.74067133885516681e-10
-1.49550008721274735e-09
3.13796402289152926e-09
-1.17827389889133304e-09
-2.95862942577477207e-09
2.69393089078332231e-08
2.56508579143462064e-09
-7.47532075390530821e-08
3.75580915682005746e-07
9.65329409684471551e-08
5.93294988516474134e-07
3.64422167798513315e-07
-2.04989725414518381e-12
1.56165250719452318e-13
3.41389633463498955e-14
-2.1003974961627063e-12
1.61711112031915748e-13
2.2544840685763475e-14
-2.1553341462562547e-12
1.92774773819921313e-13
8.48357537787234958e-15
-2.21316855421044173e-12
2.17849349853355937e-13
-2.10406688332250927e-14
-2.30405219445834238e-12
2.28797224439954305e-13
-7.61879674396764927e-14
-2.45151874342534284e-12
7.71128253742579051e-13
-1.47133975334629265e-13
-3.27870065544266357e-12
2.31854215720481378e-12
-2.92787227537106343e-13
-5.4279050949542395e-12
5.11639841098615505e-12
-7.20838643577994911e-13
-1.04115883964188318e-11
1.71063457912068796e-11
-2.32967233528984958e-12
-2.78525623759981578e-11
6.87188598857065264e-11
-1.01102181989216694e-11
-1.22864665522358535e-10
2.75893035723911292e-10
-5.40373027647557037e-11
-5.55050263326100462e-10
1.01003607776784306e-09
-2.84406368458031386e-10
-2.74808381578880773e-09
4.15479876283944719e-09
-1.0444015944524904e-09
-1.51085041941154212e-08
2.91305836472493416e-08
3.37545867787480236e-09
-6.84667012554013985e-08
3.21837997769526801e-07
8.0838505135884365e-08
4.86666610378476278e-07
2.54090573248958264e-07
-9.32097796256060165e-13
2.15516477058764126e-13
2.77918797894164306e-14
-8.94222662765247623e-13
2.28124887029290697e-13
2.26950320766883733e-14
-8.40912465320951457e-13
2.31163016415867283e-13
1.85349617850954741e-14
-8.2159692502730988e-13
2.36055228927651585e-13
1.38098239802503151e-14
-8.54356332982666622e-13
2.43330884563692741e-13
9.54155367508330364e-15
-8.90907358419314454e-13
2.59865136068992638e-13
4.40464362158614276e-15
-9.21226088205010385e-13
2.7143624935591424e-13
-4.71166353404037347e-15
-9.58277188667080581e-13
2.85397001447246954e-13
-2.58105623533731636e-14
-1.13011351175098909e-12
6.18869200134419081e-13
-5.62644789104741824e-14
-1.74917636737095638e-12
1.60427593247251194e-12
-1.38097602695242076e-13
-3.32140566269769617e-12
4.4713055408736526e-12
-4.1460604662854524e-13
-8.38008201183666852e-12
1.80369332199266875e-11
-1.73460917104206067e-12
-3.37050418110310478e-11
7.81551111709320332e-11
-8.92414680341518587e-12
-1.60848022920026261e-10
3.23970192641419397e-10
-4.96017790471079243e-11
-7.68370539790922171e-10
1.21786123068417915e-09
-2.42779399981281294e-10
-3.61793982429139859e-09
5.01360024111566768e-09
-7.42295352206036697e-10
-2.61349895487251538e-08
2.95650399610137964e-08
3.92533643573179547e-09
-5.73617162407266543e-08
2.4343979220059752e-07
6.2128572093969037e-08
3.99242262463212057e-07
1.9468872429287957e-07
-4.16487959652521225e-13
1.78458947461307276e-13
1.85531618913148047e-14
-4.00498036098075918e-13
1.88166808097384174e-13
1.52372580151783668e-14
-3.80461489650359427e-13
1.95054590035228313e-13
1.22663046319793424e-14
-3.72018081786550994e-13
2.02449734722324838e-13
9.03979039457258179e-15
-3.84252606222133135e-13
2.07424658205674436e-13
6.19120910026391819e-15
-4.01256835526815317e-13
2.14279669229689158e-13
3.31022432205377766e-15
-4.15177881021729748e-13
2.23998699422939298e-13
-9.78819244565976013e-17
-4.30448103202789374e-13
2.41202287390272735e-13
-8.52686991463040808e-15
-5.56462480565828386e-13
4.20398762920780122e-13
-2.27172342415834105e-14
-1.03693629138810259e-12
1.10997062116032163e-12
-6.6938260178968685e-14
-2.36341003778929505e-12
4.11531404476813481e-12
-2.7182602171704454e-13
-7.34860476516394438e-12
1.81402708974170764e-11
-1.31546351775283089e-12
-3.39305330416738473e-11
8.16142652032185951e-11
-7.15433942900099271e-12
-1.68053146932279697e-10
3.43822167446435295e-10
-3.92066132261328418e-11
-8.24150592272388635e-10
1.32502690902602462e-09
-1.7897584463767156e-10
-3.72752153228733757e-09
5.46148918306406723e-09
-4.10248620568766762e-10
-2.49904255841338561e-08
2.70750072018374145e-08
3.90833490158586095e-09
-4.51066175156500491e-08
1.70521000928779642e-07
4.64527297216021731e-08
2.98172239209185637e-07
1.205020428687834e-07
-1.7715367811157746e-13
1.33119840144837512e-14
1.02733713314890064e-13
-1.86081399179594505e-13
1.42830780248664558e-14
1.2018351852830874e-13
-1.82336398623424569e-13
1.25991256605674474e-14
1.30246636118750602e-13
-1.74262469096807354e-13
1.02906340797384585e-14
1.35974445385576153e-13
-1.67320237810432921e-13
8.11601120197603474e-15
1.39952597815297823e-13
-1.63657136537358535e-13
6.07138271307292874e-15
1.45112506947044016e-13
-1.64877935544018877e-13
4.23774517796620611e-15
1.49513642575785257e-13
-1.68560704231124421e-13
2.47448614397307074e-15
1.53585140981012575e-13
-1.73387889444614705e-13
5.76884444275600476e-16
1.60788100656530867e-13
-1.77572119181499626e-13
-2.34665455657064568e-15
1.77838195138568409e-13
-2.28406144840289406e-13
-8.27972415889357486e-15
2.60538739011333545e-13
-5.63651930582204864e-13
-3.23807546544974457e-14
7.7716110340947301e-13
-1.65607074872702908e-12
-1.73050949365530355e-13
3.55832598092349241e-12
-6.37851031686566361e-12
-9.48383298602293704e-13
1.71611981113930774e-11
-3.19432010892674589e-11
-5.26912513243140981e-12
8.00616598105416037e-11
-1.59490031805991459e-10
-2.72497500025639633e-11
3.39023260253035665e-10
-7.42132997219170077e-10
-1.08348667027233583e-10
1.29336723746991647e-09
-2.99805764058183152e-09
-1.05849699008398277e-10
5.12986191462186912e-09
-2.174436288965664e-08
3.41553346826378475e-09
2.23986708381624592e-08
-4.44862973586499601e-08
3.26827740675440381e-08
1.0827179793185886e-07
8.40066683240576325e-08
2.05287151521111023e-07
-1.42599953263919567e-11
4.00427442723910804e-13
2.66448759790319319e-15
-1.37253934333018236e-11
1.08993735418346331e-13
-2.1916944842130808e-13
-1.37000587567045882e-11
-7.40727179249310212e-14
-4.79856808020657055e-13
-1.40918719917848603e-11
8.19263403462757201e-14
-7.90128568229363484e-13
-1.49145562179022144e-11
1.13824336334424578e-12
-1.19726947024311887e-12
-1.54611888335706037e-11
3.81131384712210945e-12
-1.8560371242249158e-12
-1.86957022739991265e-11
9.89317797425452215e-12
-3.34057428507978729e-12
-2.73812048123625382e-11
2.05985707035922717e-11
-7.50868963472294645e-12
-4.39986998779303227e-11
6.05103988600694332e-11
-2.1993014255231313e-11
-8.110076044041343e-11
2.10324573222198678e-10
-8.4514954081083647e-11
-2.14940825991296957e-10
6.97817509443629994e-10
-3.93156833728190089e-10
-8.68243999451009663e-10
2.79567215363273611e-09
-1.77733339552774292e-09
-1.53165201129680397e-09
2.55056462923000817e-08
5.91953993997716853e-10
-8.21037672232127498e-08
3.79158976320058393e-07
1.07405076556200663e-07
8.6791440139471166e-07
4.49373593139341489e-07
-5.17986947000792049e-12
3.9426933465090837e-13
3.7530827707804401e-14
-5.16961776326307438e-12
3.52022529879024669e-13
1.54464727455209016e-15
-5.20945174023250994e-12
2.91591067136914586e-13
-7.91429992929071596e-14
-5.3695961018333047e-12
2.74127433020247589e-13
-1.78283323191604936e-13
-5.69019875128330954e-12
5.58779865856066918e-13
-3.01924199597004099e-13
-6.0823487605537433e-12
1.34078829667575318e-12
-4.74897252072294183e-13
-6.88025516678795045e-12
3.33452540672032599e-12
-8.02457250545626309e-13
-9.68780647640750646e-12
7.32288604892137653e-12
-1.70329400492802543e-12
-1.68799551493710446e-11
1.89480962497159518e-11
-4.65529283823855482e-12
-3.75382636480717238e-11
6.97715713056361576e-11
-1.7499808999662527e-11
-1.13519823201764881e-10
2.60969628951554194e-10
-8.16526673793130972e-11
-4.24633494029706149e-10
9.1163577853521222e-10
-4.17102341125753542e-10
-2.0374578493887932e-09
3.73637125310986449e-09
-1.71955018232263434e-09
-4.5600183719217148e-09
2.64512805880127664e-08
1.70023453341283714e-09
-7.91969693195241321e-08
3.42064065650212622e-07
9.50997874736638875e-08
5.26117906813769411e-07
3.14400496617164202e-07
-1.85799909329968179e-12
2.28152409236724997e-13
1.45356992121783258e-14
-1.91189825463636406e-12
2.36014752429231031e-13
2.32743826368021926e-15
-1.99367220299354844e-12
2.52472819184237808e-13
-2.5244463635386684e-14
-2.12642070019363876e-12
2.9944559488550722e-13
-6.21492555482761201e-14
-2.29804109991671487e-12
5.1407773803648567e-13
-1.10638452009680822e-13
-2.52315177435309066e-12
1.08414547578181068e-12
-1.8623913430538251e-13
-3.42707504012221741e-12
2.4802282695166755e-12
-3.71591060065294581e-13
-5.99350470473969618e-12
5.66350403058800626e-12
-9.33912093439731745e-13
-1.32094042080074079e-11
1.91030866665851591e-11
-3.35928436494560098e-12
-3.61568921596461201e-11
7.77919300559398593e-11
-1.48830015888738153e-11
-1.47017063597697825e-10
3.09585674370722845e-10
-7.74593542902172471e-11
-6.57381597334741505e-10
1.12474862559364648e-09
-3.86536745258719159e-10
-3.16502724526965861e-09
4.62205897902491377e-09
-1.41191444435873711e-09
-1.18371701502075851e-08
2.78667551212834766e-08
2.6731550867551865e-09
-7.30424407742906919e-08
2.80406644006404796e-07
7.81070353691084178e-08
4.24464480237974677e-07
2.20969204316553838e-07
-6.97332496548124259e-13
1.76504814390921558e-13
6.61790070246571451e-15
-7.32626071804163303e-13
1.88672940514825615e-13
2.06698305726396981e-15
-7.84260726029508614e-13
2.06480317708151834e-13
-7.11469522214709903e-15
-8.54968174433714796e-13
2.41461383644351026e-13
-2.09656229925451733e-14
-9.43348714603549053e-13
3.71798462002983311e-13
-4.0301412716492624e-14
-1.18589011609721035e-12
7.91510030794990528e-13
-7.67372393812734091e-14
-1.89224289494596854e-12
1.67951720601205057e-12
-1.79214729964198382e-13
-4.01376248786210344e-12
4.82683354439590666e-12
-5.9185373513103044e-13
-9.96190560814591492e-12
1.95782501294020442e-11
-2.48432874494994105e-12
-3.74550618376093546e-11
8.41754376141921091e-11
-1.23447306612270624e-11
-1.74593632039802371e-10
3.45599033815768704e-10
-6.57337545066247551e-11
-8.26857586440608523e-10
1.28480835602333207e-09
-3.13976267997740532e-10
-3.82853737364635541e-09
5.32243078398484577e-09
-1.01633967384418521e-09
-2.67822206940646917e-08
2.73780889270332275e-08
3.28353460669220709e-09
-6.02563007810987479e-08
2.0407439955255196e-07
5.71776962838671309e-08
3.46997278481955708e-07
1.66214245122902943e-07
-3.06429811010736564e-13
1.53649544454107149e-13
9.28992612974994665e-15
-2.98419831015880581e-13
1.61244399702876505e-13
7.58195733981895517e-15
-2.88235048589585729e-13
1.65582059808770393e-13
5.83073559452731983e-15
-2.8976164715124047e-13
1.67488836816362322e-13
3.8847510316109207e-15
-3.05102975196651117e-13
1.75997339508194583e-13
1.70690521283187263e-15
-3.26289592685188314e-13
1.8891648657548484e-13
-1.55484850237942072e-15
-3.59054316201765755e-13
2.01888293369439298e-13
-7.07588852142918025e-15
-4.17480493615430413e-13
2.56038842317635115e-13
-1.52509686407417663e-14
-5.99466142490207627e-13
5.46830547105216538e-13
-3.46570827261358443e-14
-1.13243621100772438e-12
1.20352828982819883e-12
-9.66201499496198913e-14
-2.74233956745949985e-12
4.3595461168301428e-12
-3.96493910681894674e-13
-8.41577465502970125e-12
1.92997011256672457e-11
-1.85815644940136297e-12
-3.79442181471676114e-11
8.67430094457808939e-11
-9.73589014890023199e-12
-1.83303378330465868e-10
3.61838106469051984e-10
-5.16705116541245203e-11
-8.78538274418603302e-10
1.37841952689750821e-09
-2.34341691246191403e-10
-3.73797854275509384e-09
5.55924908515204879e-09
-6.12471764077738863e-10
-2.49247462745548755e-08
2.49549466564691491e-08
3.305072769565342e-09
-4.86107529664597601e-08
1.46146449927778988e-07
4.16741430952081931e-08
2.76003576761062847e-07
1.13824430944292922e-07
-1.55410980430741926e-13
1.09518428096708e-13
6.7283913704758135e-15
-1.51254302391867609e-13
1.15319192223200887e-13
5.4611247366419144e-15
-1.47569475364061172e-13
1.21077301829031924e-13
4.19519927609598905e-15
-1.47363114050457485e-13
1.28028604994706381e-13
2.88874425548691108e-15
-1.53501548272958193e-13
1.3470081536022429e-13
1.52596820750613749e-15
-1.6144989764501917e-13
1.43547635118621993e-13
1.00119471776432406e-17
-1.71830734358936071e-13
1.53549701271281373e-13
-2.46820888695782352e-15
-2.06314598226337395e-13
1.7612366755398421e-13
-6.0771776886939677e-15
-3.35709223232923246e-13
3.43508665753488659e-13
-1.58278738406759196e-14
-6.77398212182705452e-13
9.26598985581605319e-13
-5.62419877625811819e-14
-1.78101892635980435e-12
3.8988179186252124e-12
-2.61988373773510012e-13
-6.76869752448037125e-12
1.80000372669361512e-11
-1.35663809339418922e-12
-3.12340027768793087e-11
8.14222638625788853e-11
-7.23004174392698571e-12
-1.51211295411456715e-10
3.40635390582096937e-10
-3.65278527738593511e-11
-7.09306422377841493e-10
1.29444008502701158e-09
-1.48668284879296798e-10
-2.92551749549201132e-09
5.13080084707913837e-09
-2.52805843493781113e-10
-2.15797114976856886e-08
2.07037412366723525e-08
2.93119644096716339e-09
-4.25291844264620727e-08
9.84590224202329856e-08
2.85726651400111279e-08
1.82534989050892809e-07
7.67316499492478135e-08
-8.60567203063555322e-14
6.47557338759111837e-15
6.11433763371615395e-14
-8.48011641018216668e-14
5.523214862127901e-15
6.84818391280325342e-14
-8.13850651045983549e-14
4.59567846236262426e-15
7.32059752520200788e-14
-7.83443879109963986e-14
3.6818871281637512e-15
7.61044527261160625e-14
-7.6879592519325455e-14
2.84562419240343348e-15
7.9474691332541092e-14
-7.72947929150693099e-14
2.05498933454328031e-15
8.47051763656945568e-14
-7.89705266674661898e-14
1.2350877141613625e-15
9.01965987831394583e-14
-8.21957270568336657e-14
3.59136870539141982e-16
9.61384179024498158e-14
-8.72662976667735929e-14
-7.16393249212991535e-16
1.05829739987445662e-13
-9.77095888408326324e-14
-2.38753812092188147e-15
1.27366904472321335e-13
-1.57297871864762635e-13
-7.43839004532419477e-15
2.18789981379492095e-13
-3.88114703930550514e-13
-3.15679158708931826e-14
6.87148745618711406e-13
-1.19840884805865808e-12
-1.68710116071816912e-13
3.24282691250471798e-12
-5.01369516832534754e-12
-9.15306395753061881e-13
1.55420529622558211e-11
-2.35615306911117299e-11
-4.75435547135568715e-12
7.02547835594395591e-11
-1.126310050844978e-10
-2.2270088669570866e-11
2.91086405614671592e-10
-5.20201415028383998e-10