/*--------------------------------*- C++ -*----------------------------------*\
| =========                 |                                                 |
| \\      /  F ield         | OpenFOAM: The Open Source CFD Toolbox           |
|  \\    /   O peration     | Version:  2206                                  |
|   \\  /    A nd           | Website:  www.openfoam.com                      |
|    \\/     M anipulation  |                                                 |
\*---------------------------------------------------------------------------*/
FoamFile
{
    version     2.0;
    format      ascii;
    arch        "LSB;label=32;scalar=64";
    class       volScalarField;
    location    "0.300000000000000044";
    object      alpha.water;
}
// * * * * * * * * * * * * * * * * * * * * * * * * * * * * * * * * * * * * * //

dimensions      [0 0 0 0 0 0 0];

internalField   nonuniform List<scalar> 
7340
(
7.75563383899242663e-07
7.56223172612435999e-07
7.98319437748016741e-07
8.33147418611034715e-07
8.23426689030521524e-07
8.10965236739907465e-07
8.10634771028225304e-07
8.70479791591167196e-07
1.04316791805949084e-06
1.60245623244289231e-06
2.40968388109755687e-06
3.83093427011542946e-06
8.65319736005268816e-06
3.81621632168299693e-05
0.000415548202370587207
0.00242432172419495672
3.12396895646142068e-07
3.10021425981623042e-07
3.32898239774699815e-07
3.4900558931527584e-07
3.57740670173274904e-07
3.59135936262764973e-07
3.78236133491536216e-07
4.16683570256219872e-07
5.99658222297554436e-07
9.46136281513120843e-07
1.4179089516181841e-06
2.78639451330284902e-06
7.6494713068894787e-06
3.00586367249476786e-05
0.00043334145013627901
0.00226612748437074116
1.25882838683380449e-07
1.25776013181262399e-07
1.36492815394383643e-07
1.46046429973190277e-07
1.50946730918603851e-07
1.51163136502750191e-07
1.69691457983448607e-07
2.19877546625770788e-07
3.50913607995836696e-07
5.15645240026380609e-07
8.71718853276994539e-07
2.30919458714658224e-06
6.34179967405468898e-06
3.0534434171921996e-05
0.000488517542226029754
0.00199445021695297603
5.07610852022953743e-08
5.15872616092211858e-08
5.76606062395454995e-08
6.10166483931389902e-08
6.25889648198263885e-08
6.56826069196667571e-08
7.88210765989940651e-08
1.19876418574421814e-07
1.86713849916638139e-07
2.92873272331052675e-07
6.38424809665984098e-07
2.00290703656784033e-06
7.84391807226836195e-06
3.77172120337954336e-05
0.000535388930605034796
0.0016696328696551078
2.23723563427778765e-08
2.34758543055483994e-08
2.23986915510885145e-08
2.20165015162360891e-08
2.28888515245282424e-08
2.50668994846619421e-08
2.56944076971517401e-08
2.64677451001284833e-08
2.96683644305342557e-08
4.02462184712864834e-08
6.82733892906542606e-08
1.037898568187284e-07
2.04405519975080625e-07
5.96288402902183873e-07
2.28707576720398455e-06
9.58898391009391084e-06
0.000102751115201998446
0.000521113982953633984
0.000700378964777157993
1.06892422994328603e-08
1.11012909256655645e-08
1.05569656613323079e-08
1.0702294489440578e-08
1.1083107202828033e-08
1.13159768736742998e-08
1.16425931028808498e-08
1.23492894039234002e-08
1.36097825583180539e-08
2.06557464891534917e-08
3.31690083024642026e-08
6.37633434850959675e-08
1.67492959497732243e-07
6.1431588681645698e-07
2.60515106587018861e-06
1.10200808997237414e-05
0.000109508937549466416
0.000518732506545732598
0.000586542530090295236
3.36944178926144167e-09
3.37569472818422123e-09
3.72147335328555251e-09
3.7724359776135394e-09
3.67419191280268989e-09
3.70673433285815731e-09
3.62324493660787962e-09
3.34189209492033987e-09
3.306147200218655e-09
3.4706860536931771e-09
3.91281178007960613e-09
7.71694552852079515e-09
1.62202303750560539e-08
4.17314512791420633e-08
1.49086119779799201e-07
6.36462385487095712e-07
2.79899237556809461e-06
1.16503673138227517e-05
0.000109027085074521699
0.000502144215277466259
0.000466742027134439469
2.87386534332813811e-07
3.06893311502685107e-07
3.18848314077015834e-07
3.28386519659110022e-07
3.39239285362348955e-07
3.75730063680933023e-07
4.24810535787714686e-07
5.96522881626590312e-07
9.68274982106968185e-07
1.42026364579641503e-06
2.82152414575504583e-06
7.50598045750234681e-06
2.46760762148417892e-05
0.000510114432288542407
0.00244899698091383469
1.04009484977639535e-07
1.09895107726968049e-07
1.18859111934888195e-07
1.26697286165481616e-07
1.35307642710700355e-07
1.48137360091194248e-07
1.68628496539860173e-07
2.14661951155137579e-07
3.45752032932670408e-07
5.00943247671048946e-07
8.56307295092025952e-07
2.25826763732325346e-06
7.04675038142438079e-06
2.83286017139687142e-05
0.000491018524641884807
0.0022181737129612451
3.99441449799393549e-08
4.25685576360903733e-08
4.66460390436768987e-08
5.04261844288492708e-08
5.46941826873638867e-08
6.20712380635641219e-08
7.60492875587858126e-08
1.15253157562940234e-07
1.76214252726655252e-07
2.95033166786142143e-07
6.65223986808883302e-07
2.14082950122676817e-06
8.38984529747187105e-06
3.47557099397965139e-05
0.000544283805028989765
0.0012080632193401347
1.5995702151039713e-08
1.6922148155057423e-08
1.87148059162814011e-08
2.05845301211774841e-08
2.25882740133185093e-08
2.62881156712252277e-08
3.74443609820606167e-08
6.25108879922476769e-08
1.00963724580698546e-07
2.04348833309737452e-07
6.12382362188152196e-07
2.36494197844188145e-06
9.85596989928366914e-06
6.88939683230502351e-05
0.000559413709433825737
0.000696230022032470188
7.27665037913290227e-09
7.35168046821921313e-09
7.15725640082358304e-09
7.0033841611856449e-09
7.4243048484369136e-09
8.25578353731563953e-09
8.98783558865857925e-09
9.86473094402521861e-09
1.25070529638134897e-08
1.99911074514172636e-08
3.2202155996857418e-08
6.18321391770775005e-08
1.67141843447384871e-07
6.20828316311146608e-07
2.62440775775159552e-06
1.10465551045922827e-05
0.00010563621796806454
0.000553662328847725213
0.000491559393004722001
3.97091529307757601e-09
4.00145909795449616e-09
3.90245251096257035e-09
3.81771133895323914e-09
3.92767930273835248e-09
4.26205961365980373e-09
4.53022731774036098e-09
4.86677876312833202e-09
6.5552284560737414e-09
1.1097510221291517e-08
1.90224796373085726e-08
4.4479045555433347e-08
1.52869166884573749e-07
6.39793491739146676e-07
2.78748715819305003e-06
1.15550819501276128e-05
0.00010661418241466499
0.000463178583596714644
0.000481344702366290106
1.47075397601698107e-09
1.82085116917175193e-09
1.92117522654848739e-09
1.91747429787397845e-09
1.87292862128913422e-09
1.85015302272004373e-09
1.83483825063159903e-09
1.8485819251882225e-09
1.87593598145845086e-09
1.92656496366013337e-09
2.58699401644488991e-09
4.82035505915433687e-09
1.10341216136521433e-08
3.44861826823367481e-08
1.42235160011028079e-07
6.32364363146809104e-07
2.75937326487399125e-06
1.11750507287142698e-05
0.000102936485181013074
0.000405294513367174399
0.000365924385041148164
9.77887906251042094e-08
1.07421431111694206e-07
1.16627219689351772e-07
1.27891126175380101e-07
1.43089366077142172e-07
1.64140733993788577e-07
2.12553806291661789e-07
3.42724697706450869e-07
5.10557324868451573e-07
9.35879401590933632e-07
2.45766967626050318e-06
8.59941175049992038e-06
3.41767021785173298e-05
0.00061908582299194468
0.00243145024102396374
3.35586643728565597e-08
3.72241327572643016e-08
4.188697554211874e-08
4.66849830537652066e-08
5.29625128829383422e-08
5.98476372405934364e-08
7.28917730943171044e-08
1.1061366213097937e-07
1.71893890042874414e-07
3.07977955977776111e-07
7.40443621024341488e-07
2.48470649936759544e-06
9.71343095733936417e-06
3.91886858545109526e-05
0.000596615639162850569
0.00188417766079806395
1.26662553517255188e-08
1.41722647388602481e-08
1.62272335705760527e-08
1.8576997593397776e-08
2.12958458068462047e-08
2.50411882123935771e-08
3.56269600297046174e-08
5.80088087075825368e-08
1.00620423068820775e-07
2.1492982359614679e-07
6.74936947718379201e-07
2.63085789158028185e-06
1.07608927349416201e-05
5.09653792290677558e-05
0.000627136044600366295
0.000765364092689994934
5.24913949136136758e-09
5.86325358922731824e-09
6.67188259030298393e-09
7.71760389096844782e-09
8.99748020163667145e-09
1.17299535013923153e-08
1.85944951811673606e-08
3.15894640731026506e-08
6.16743358464165036e-08
1.75337168576454259e-07
6.6303488711595592e-07
2.7753146684889254e-06
1.14558663585106118e-05
0.000106280679164340224
0.000568981054754347194
0.000476188149663224957
2.59489428474499457e-09
2.63875079134593682e-09
2.62840873471206119e-09
2.58387422223079142e-09
2.78103752895920837e-09
3.09365367496265806e-09
3.49941821752176092e-09
4.27196138126006299e-09
6.08784124173363292e-09
9.93631316412110646e-09
1.82685956617683985e-08
4.47215630601703467e-08
1.57760019781126128e-07
6.59304141363562602e-07
2.82786221238372943e-06
1.15370418773971306e-05
0.00010399777649018087
0.000426040906567484202
0.00044470197363811006
1.68059284999056969e-09
1.687785933321853e-09
1.67811353533795543e-09
1.65610910421981444e-09
1.71255650635063722e-09
1.82535427533292265e-09
1.94272343917371699e-09
2.28800789414045768e-09
3.38270078980187568e-09
5.50219878054550848e-09
1.15724681551762883e-08
3.62495134426596935e-08
1.46121400618347244e-07
6.36248617719920733e-07
2.72870808556818401e-06
1.09072727484796591e-05
9.88032242530770277e-05
0.00035114430668402221
0.000393619379160218088
9.57211751571240105e-10
1.00800910280648634e-09
1.01318257284074738e-09
9.96006224043438613e-10
9.91802640085136325e-10
1.01237215781799142e-09
1.03117463178501276e-09
1.05555389275339278e-09
1.08316085208522624e-09
1.15359317923312421e-09
1.67921115479858887e-09
2.98173335527629896e-09
7.99989037860748342e-09
3.00809385812735442e-08
1.31326249423002799e-07
5.8124155817570896e-07
2.46596633288177785e-06
9.65210816468710366e-06
8.45263478876299957e-05
0.000279923949802319378
0.000269980890451209038
3.12409793612101113e-08
3.46221252129705799e-08
3.88211549700392341e-08
4.33010761277989178e-08
4.860405366825819e-08
5.6454070785259734e-08
7.3535355651011544e-08
1.15466267026584393e-07
1.93837746439939301e-07
3.61057939648962941e-07
9.0421041315022853e-07
3.02935704348883784e-06
1.15491843673165007e-05
4.46560087054784571e-05
0.000686888308988657008
0.00187614892267097414
1.22331117163739595e-08
1.37154913329627307e-08
1.55528368635998209e-08
1.75819047928194578e-08
2.01715913348254029e-08
2.47261764194490039e-08
3.60128163971097985e-08
6.21877557483982224e-08
1.11736101288478866e-07
2.52616008783626674e-07
7.99574774947132242e-07
3.04522840576829498e-06
1.20431051363957066e-05
6.44930288443131894e-05
0.000648780163422620656
0.000817794571603986634
5.07047277507107283e-09
5.69953213475433208e-09
6.48172559578908815e-09
7.44828355084146782e-09
8.7918184475241056e-09
1.19022847602206439e-08
1.97312769253942235e-08
3.43399149203494333e-08
6.92520917973122352e-08
2.00978845274358666e-07
7.48455554011396232e-07
3.03656923679642534e-06
1.21052877621122347e-05
0.000108792607353225978
0.000539549413519884737
0.000476590896737096297
2.28182234771729481e-09
2.54212962871282879e-09
2.89030977676198244e-09
3.38530887992662881e-09
4.21179483892161295e-09
6.16225093749836589e-09
1.04329423191459569e-08
1.96683054788105652e-08
4.94744209638817959e-08
1.73311445545048849e-07
7.04978715794801085e-07
2.93509277735794471e-06
1.16104407223488835e-05
0.000103648213556197134
0.000395930753241493768
0.00041178821774228813
1.09346570606563625e-09
1.11319265968521933e-09
1.15663045739154503e-09
1.22418338045300088e-09
1.31888985325491987e-09
1.44944934920520474e-09
1.66056622934757405e-09
2.21450390318753073e-09
3.51415375731104398e-09
5.8775067674733919e-09
1.24922875788832297e-08
3.90709298788104472e-08
1.53658828143948562e-07
6.50030286918531193e-07
2.70775507786617222e-06
1.05615536864664938e-05
9.29270293956937105e-05
0.000311396616061004427
0.000348295388857689577
7.4502203012421784e-10
7.50468879859348658e-10
7.66645381476613584e-10
7.96673433812871433e-10
8.42568740029864207e-10
9.01864874784642006e-10
9.89475910879074159e-10
1.22880187672143804e-09
1.93744950255066561e-09
3.37271158437566636e-09
8.75517601067755291e-09
3.19685549492674649e-08
1.34233839014882985e-07
5.74738555609599206e-07
2.37219944971030482e-06
9.08174689135791437e-06
7.73963010053476839e-05
0.000236046420241697543
0.000282604943687005811
4.54718541789643478e-10
4.55920194059041525e-10
4.56762138088720201e-10
4.59998654710683157e-10
4.68850188921771734e-10
4.85640924260503299e-10
5.08967474500454019e-10
5.39464602941665122e-10
5.83311941744691295e-10
6.74050790340818024e-10
1.04920966501540272e-09
2.10525269438394778e-09
6.44266293990399207e-09
2.58706644761747808e-08
1.12328782421219257e-07
4.81585431521730324e-07
1.96173994531646056e-06
7.38064089741741331e-06
5.8057481012591713e-05
0.000172933923645602987
0.00017067226034766386
2.22334159011167102e-08
2.65296658900462753e-08
3.20588242669282186e-08
3.88085970010917668e-08
4.67577929719792148e-08
5.54133385017114681e-08
7.21378687874812948e-08
1.28542699879363885e-07
2.27497983127097116e-07
4.20657872003453902e-07
1.04258106940736802e-06
3.4811152753522874e-06
1.28129753828540242e-05
0.000111829298934975829
0.000588867550764159836
0.000466142591274218291
8.16034762621547276e-09
9.85465633075703772e-09
1.1943925659373875e-08
1.45953524678201257e-08
1.78716207472641433e-08
2.27591974695472305e-08
3.62485097239355762e-08
7.20760136666441361e-08
1.27738052307043784e-07
2.7577945973104565e-07
8.71371168704502556e-07
3.24941295554335962e-06
1.22594890507056149e-05
0.000107644920621517985
0.000433868900968896617
0.000420582844967370127
3.21379607686928694e-09
3.88920644495365125e-09
4.72486068977119991e-09
5.76595127791222244e-09
7.16648445075846095e-09
1.04236874534212885e-08
1.98608352211864467e-08
3.61634397173713757e-08
7.2869223192011838e-08
2.07810705303274425e-07
7.61533598029827676e-07
2.97382765111486852e-06
1.12694432901058979e-05
9.86395086153004318e-05
0.00033912841987410728
0.000361171984125715031
1.37608885888861857e-09
1.66197549058187984e-09
2.01329252568100597e-09
2.48100904410831717e-09
3.20987724091806852e-09
5.36329140043855961e-09
1.04236823535581241e-08
1.98216316068885902e-08
4.86027951517305597e-08
1.67557948167366663e-07
6.61706333062381382e-07
2.62820138904998887e-06
9.86675466956317094e-06
8.49189575612153134e-05
0.000266564414394187426
0.000285436792648471188
5.34782321219865359e-10
5.73319560930003863e-10
6.30328797923123876e-10
6.96303118026414894e-10
7.81096388247187189e-10
9.29297627292379956e-10
1.151084438907244e-09
1.63284758658051292e-09
2.90974938862439014e-09
5.36329173979948428e-09
1.15981792425325252e-08
3.58842350266562305e-08
1.37717156628578675e-07
5.59039744225680527e-07
2.2186516404436182e-06
8.2294131985808403e-06
6.58188178701683314e-05
0.00019829513704524459
0.000216455061626135131
3.38418086803777398e-10
3.66109103231287243e-10
3.97409860483604706e-10
4.31033348624867076e-10
4.6965178502932936e-10
5.24680510673427681e-10
6.11170388432600014e-10
8.87241255448712432e-10
1.51146064742613475e-09
2.90974938862439097e-09
7.59134053597279374e-09
2.73515468638198299e-08
1.10973423710070297e-07
4.53661737629427961e-07
1.78213828553290582e-06
6.5127473952933652e-06
4.4577151297718376e-05
0.000142332519264561666
0.000160122163062735985
1.52264350325336846e-10
1.58647210973768696e-10
1.69959118559928918e-10
1.85095400112648086e-10
2.02839223116769951e-10
2.2386205167439869e-10
2.51036031064184288e-10
2.83845165455984219e-10
3.26220423419778112e-10
4.25411579762407557e-10
7.47782896900179708e-10
1.65847395629159693e-09
5.25560641176169798e-09
2.06071825687542607e-08
8.57439469665895362e-08
3.50263115097581886e-07
1.35859216251894209e-06
4.88888395555401654e-06
3.29204524358563136e-05
8.65818981331354119e-05
8.77931980510394537e-05
7.11027430600070621e-08
8.11603084960846705e-08
9.44803736579557243e-08
1.04244718790731978e-07
1.1276136222206446e-07
1.31977767353985121e-07
1.59648898943401159e-07
2.25189739051294356e-07
4.15038265599492276e-07
7.53899879053860898e-07
1.39899677775814227e-06
3.51355101981451959e-06
1.13566860016202462e-05
9.35188481617726486e-05
0.00033656030519558887
0.000301004778537853875
2.29303701660409004e-08
2.76507527635478721e-08
3.12216363885174392e-08
3.69923775012758542e-08
4.42852348245931297e-08
5.37993783262730668e-08
7.19597208570796519e-08
1.20951076608760455e-07
2.41758061158539762e-07
4.28220697252292674e-07
9.33548612850927591e-07
2.90033736499711068e-06
1.00343742508843206e-05
8.40411845269847877e-05
0.000265189270819403075
0.00024451705474409812
7.84726775354473118e-09
9.54444136884105035e-09
1.16157050209519603e-08
1.41953627502422197e-08
1.74895645280131248e-08
2.2772322532963282e-08
3.4554333986065706e-08
6.62063443009179782e-08
1.20638542817983481e-07
2.45378450118760246e-07
6.94858396916801855e-07
2.41375450837329697e-06
8.52695949297239199e-06
6.76517747914463801e-05
0.000205712213958795436
0.00019497692231951251
2.91268219627692768e-09
3.5824821352729964e-09
4.44223914294828393e-09
5.53787009305958373e-09
7.13099933179106481e-09
1.0033630267661361e-08
1.71354089587030664e-08
3.48284441115241713e-08
6.62370324712873019e-08
1.60636553835970569e-07
5.36199234513587335e-07
1.9575315379789425e-06
6.91482283992422709e-06
5.21829568534238223e-05
0.000145283074638071261
0.00013851289407604034
6.65879195624982735e-10
7.90761323944955195e-10
9.64870600634726273e-10
1.18218206350412321e-09
1.4397770686796073e-09
1.77830596155718387e-09
2.24032862366384092e-09
2.97961809726017506e-09
4.46363128197216374e-09
9.00937726971212275e-09
1.71357781595656258e-08
3.75623598379594652e-08
1.13499202964059e-07
4.10956300505744785e-07
1.51971339257082219e-06
5.32844631259133229e-06
3.64558049866827493e-05
9.5443149602743348e-05
9.3764647475496604e-05
3.04038824615854691e-10
3.61233896305942704e-10
4.51515748485461868e-10
5.45103640731080828e-10
6.52246282246030561e-10
7.88665458821057283e-10
9.62907347316759186e-10
1.24843710680595666e-09
1.97557863978044151e-09
4.28754150628991563e-09
9.00899394535360113e-09
2.35348624474388291e-08
8.15376747327318801e-08
3.05723296428467334e-07
1.12511832214067842e-06
3.89368294778398549e-06
2.27775583668027748e-05
5.86088908606030248e-05
6.17638007860095493e-05
7.0466543484674038e-11
9.15479436102204355e-11
1.15873022269657347e-10
1.43293158818420774e-10
1.75918687459231311e-10
2.05293366873938354e-10
2.32732631571638472e-10
2.63473297144454072e-10
3.01249836554318081e-10
3.61085058442610769e-10
6.83883850283805572e-10
1.648982924450052e-09
4.73220032440927264e-09
1.54071020532692135e-08
5.73681755144206922e-08
2.17967590893570822e-07
7.95178051039359849e-07
2.71691983814670987e-06
1.42145897507671524e-05
3.27519878113014098e-05
3.74550575858078667e-05
4.14451044888506312e-07
4.00472745513520067e-07
3.61400541883215863e-07
3.83458574653718836e-07
4.06164258199092255e-07
4.27785500692980341e-07
4.55947038746638319e-07
5.21049614463028072e-07
6.95534209063086435e-07
1.18387999461007872e-06
2.05541571942817579e-06
3.75836881255063096e-06
8.92311122219467655e-06
5.92437676665757829e-05
0.000156389657893000003
0.000144789958158650172
1.02953608398775956e-07
1.18009128041424685e-07
1.31394008956678551e-07
1.43147794491858824e-07
1.54073173920244121e-07
1.65859674708013836e-07
1.85255694428924623e-07
2.36845516780101403e-07
3.40854660477798528e-07
6.75266911426665586e-07
1.17315747488469854e-06
2.45230230653896019e-06
6.8898222264535722e-06
4.78405438766933049e-05
0.000113062241405121502
0.000107365120524328093
3.5693513253288357e-08
4.16478586494002202e-08
5.00465414405361455e-08
5.42378407030727439e-08
5.76327147319994264e-08
6.427614672811459e-08
7.87397743342813704e-08
1.07032860265942827e-07
1.86808528199411167e-07
3.40850091859309152e-07
6.67824350161088631e-07
1.72326466837668024e-06
5.25371435814637913e-06
3.50383976018332991e-05
7.73070644602358114e-05
7.803618218390835e-05
1.30706701438256956e-08
1.51573951206230618e-08
1.68916032505922382e-08
1.89256697913483302e-08
2.13837519226615824e-08
2.54033873429602921e-08
3.37855076073905386e-08
4.98595906850576552e-08
1.02046855097868719e-07
1.86300279699201531e-07
4.13991981604397133e-07
1.22773287033130479e-06
3.88650794966384842e-06
2.33438080015556474e-05
4.96709278719835966e-05
5.20516499518205948e-05
1.92814281346004132e-09
2.66980950779550287e-09
3.44615724659442129e-09
4.24096090240393956e-09
5.03447942034586993e-09
5.90630117477542184e-09
6.83834926158057183e-09
8.07182680423338179e-09
1.02840516899827795e-08
1.44276206467929786e-08
2.5428638402243085e-08
4.98803484591414476e-08
1.01807901410100444e-07
2.70074744677183981e-07
8.59950490327340222e-07
2.75144302742612697e-06
1.4931056894981146e-05
2.9875108716190897e-05
3.4069518770766479e-05
6.78210044869403145e-10
9.2011724659027112e-10
1.19107809108660881e-09
1.4779201134196764e-09
1.76627611139827155e-09
2.0503327603891076e-09
2.34595171628786607e-09
2.80577654773466781e-09
3.66168213185608069e-09
5.34069854876572858e-09
1.16252004953443191e-08
2.54294793326322036e-08
5.87115286903774048e-08
1.77641294244949279e-07
5.83629535030476351e-07
1.82376684614721435e-06
9.50260755075729568e-06
1.69857484773268237e-05
2.16840732621399199e-05
1.35166412027605634e-10
1.58602499871569013e-10
1.82705827806628932e-10
2.25182263811328406e-10
2.92827445654925113e-10
3.59671749800510505e-10
4.24639892215353069e-10
4.85948782162709316e-10
5.48806050934258287e-10
6.40468204081010331e-10
8.73249583413663286e-10
1.38357618237297421e-09
3.52719179253360294e-09
1.16251442448983408e-08
3.52987708224575933e-08
1.1519397608917568e-07
3.83339351183406368e-07
1.12284801132022489e-06
5.25813145588131911e-06
9.37928155524780651e-06
1.11061591997960479e-05
1.75325013084047517e-06
1.8086712434448631e-06
1.78985942762019763e-06
1.78744682573360269e-06
1.75167992444473922e-06
1.68550611801263324e-06
1.60014965574083594e-06
1.52185266554121013e-06
1.37023402536209483e-06
1.41229265653190837e-06
2.17659593551752254e-06
3.78626415444591526e-06
6.6986971449570902e-06
1.531797249807777e-05
5.24392051151775527e-05
8.23420899953863927e-05
5.80210628897473105e-07
6.26114298192216882e-07
6.51583328516338914e-07
6.58872143313070803e-07
6.51726446501253927e-07
6.3354013705501581e-07
6.11235781761919538e-07
5.88894316451563442e-07
5.52435829847322685e-07
6.85188843575286138e-07
1.26997964114213537e-06
2.16149989796705997e-06
4.2409679639837039e-06
1.12131163580988721e-05
3.60578195373445465e-05
6.05482563282169092e-05
1.99204791060494086e-07
2.18112548460888987e-07
2.30210149612736414e-07
2.35790401600908514e-07
2.36246718408527823e-07
2.33291639722934583e-07
2.32542013580822601e-07
2.20589879964325441e-07
2.3316479349250617e-07
3.57842225556185396e-07
6.88193317855108704e-07
1.26523707528814504e-06
2.75532160029203463e-06
7.67252613912065802e-06
2.32050753302204336e-05
4.14802374284152422e-05
6.63289497869025794e-08
7.37825921529724251e-08
7.90768545342794653e-08
8.22807457970914832e-08
8.38276984473941911e-08
8.48617018508635444e-08
8.66251686864469193e-08
8.43481764006569852e-08
1.04667210009841399e-07
1.96776096579438555e-07
3.57945339873490477e-07
7.31971698745685324e-07
1.79372980550325731e-06
4.91215553993591458e-06
1.38883205890274182e-05
2.70136210394432335e-05
1.1162868568371075e-08
1.46675121004400694e-08
1.82449514392495017e-08
2.15993760638287247e-08
2.44645199903276648e-08
2.66936543679756857e-08
2.82816756972118609e-08
2.94439697765130527e-08
3.10096497471427968e-08
3.10828421545406819e-08
3.34893284653939628e-08
5.00566269101989563e-08
1.0437167553213515e-07
1.96635061739171742e-07
4.34656864142968529e-07
1.14473038881240236e-06
3.02020998859632954e-06
8.09125946083757481e-06
1.75401413679051358e-05
3.37693839485551937e-09
4.52510156998233533e-09
5.69807240121141499e-09
6.80618382153414316e-09
7.75910761278074258e-09
8.49953803299880218e-09
9.01708602924998978e-09
9.37074593248855591e-09
9.59626296321323981e-09
9.67208810458718019e-09
1.17930494257533115e-08
2.10257919273467075e-08
4.56015303669267014e-08
1.04384315215578509e-07
2.59842712045435662e-07
7.11501354191733451e-07
1.90479319964385596e-06
5.16672605806323894e-06
1.04297215229320617e-05
3.14521703020185712e-10
4.47462652377078067e-10
5.97992391110653151e-10
7.63163215173156127e-10
9.33081991681298591e-10
1.11123336258182174e-09
1.25529106141009363e-09
1.35472616853085716e-09
1.40665619773832423e-09
1.42354414947789198e-09
1.45133936150430417e-09
1.644570940385428e-09
2.49416546096481842e-09
5.55246588446894315e-09
1.55045831021842366e-08
4.55137411025912872e-08
1.30260710182686701e-07
3.78784653068296795e-07
1.13455802925554604e-06
2.55767546686035406e-06
3.3982053491850578e-06
0.000992768813028006023
0.00075362924623238541
0.000541473350846092194
0.000328424364555555081
0.000132404357468151083
8.46322573170856744e-05
4.14451546096874054e-05
2.35883028229836062e-05
1.91674130116837804e-05
2.2611145187914416e-05
3.06021442083098539e-05
4.5057298145495162e-05
5.83806762394280411e-05
0.000252712372870733302
0.00110446376319787184
0.00106854441730564321
0.000677115592778315852
0.000475927433030723379
0.000309642654258924599
0.000110315753392170891
6.55756970150512484e-05
2.15874115917729747e-05
1.20850480784241378e-05
9.8819524336463371e-06
1.03199690169508552e-05
1.36073527913448016e-05
1.93235486447285504e-05
3.27086664850600387e-05
6.38583272056290441e-05
0.000271752751857783656
0.00109964170592408454
0.000665851776575831383
0.000436653215904736264
0.000281407623116706194
0.000103759298676515439
4.36065977003601956e-05
1.53490193244947648e-05
7.40118073217048185e-06
5.30888501198398976e-06
5.06759054844088023e-06
6.04947746952275884e-06
8.73417572957987251e-06
1.25929559280898107e-05
2.3028370269984094e-05
0.000108895145800244131
0.000328018226681585953
0.0010921123609174254
0.000411394257379096265
0.000251763254700325943
9.02866711690781149e-05
3.65396450888896379e-05
1.19953763727206817e-05
4.75120490092948559e-06
3.14960118819014191e-06
2.61639924206807737e-06
2.68592778081515016e-06
3.43001412960765052e-06
5.23129352243735636e-06
8.07587088198892598e-06
1.63327483069238368e-05
0.000108647727896911872
0.000394351850257079837
0.00161302134299081204
0.00102841750671307992
0.000662112778236294925
0.000397669421355482098
0.00019754600703249085
6.73450506322001874e-05
3.11704964247575851e-05
9.78569795232370163e-06
3.51400716837961253e-06
1.9180269079873325e-06
1.39909981008054079e-06
1.28187334280160194e-06
1.35243389066224368e-06
2.11484451166013667e-06
3.23495916318268355e-06
5.55231228174489703e-06
1.29686944976439965e-05
5.72720085811488021e-05
0.000404592097534076198
0.00126891052091980278
0.000684542627250794822
0.000358342328300222828
0.00013114473491886264
4.36458164880624563e-05
2.08774332975611375e-05
6.94804118375548923e-06
2.47988119879330475e-06
1.09058817774375123e-06
6.74711953986666569e-07
5.15798222554737768e-07
4.85575968764940548e-07
6.48076588460508495e-07
1.22687682464441087e-06
1.97788781139629462e-06
4.26782980984753191e-06
1.02697014687961787e-05
0.000105519320815707676
0.000690879455500674868
0.000815392323498598855
0.0010555196732959318
0.000655582809792279713
0.000352378361077197309
5.16054183338496283e-05
9.58840684752664308e-06
4.20446482655604434e-06
1.87884541367944071e-06
8.29120982602875082e-07
3.05932844034038582e-07
1.16257523209315643e-07
7.58127756200222772e-08
8.03779916010702236e-08
1.07104441691399897e-07
2.5276347264475374e-07
5.27566719684207607e-07
1.17225497334098732e-06
3.37394133933186045e-06
1.0298007276421194e-05
0.000143176536514427028
0.000964299505736558918
0.000843744531704732547
0.000379279293531749632
0.000294595743763811045
0.000233694413278713988
0.00016680109481658948
0.000102148171345773465
8.3588963261682956e-05
5.12572128771204255e-05
2.52345866593394745e-05
1.77296648473814798e-05
2.01868759056408744e-05
2.85011784196479765e-05
3.22250633171424945e-05
3.66573344521718e-05
3.42933349881587046e-05
0.000846654431714309336
0.000330657970170958966
0.000294182087022382718
0.000217772188410402217
0.000158222095926403855
8.98137276037204538e-05
6.20564394399970897e-05
2.5759302988449236e-05
1.16961057356868733e-05
9.42778072481685542e-06
9.5234519005787149e-06
1.25100643952271848e-05
1.77577020223163365e-05
2.63642692399554752e-05
3.24649176994813474e-05
0.000118869511683262767
0.000756281124655064189
0.000299098324680464672
0.000191141598202966009
0.000142291311678460259
9.54375334753390327e-05
4.50385221735222473e-05
1.49111763443174004e-05
6.64678226724585786e-06
5.06884189439429151e-06
4.83595225601819382e-06
5.580265459914754e-06
7.95072214800371534e-06
1.11508857188716218e-05
2.10545693833614861e-05
4.57364288597002789e-05
0.000301482036982772636
0.000833434740516453146
0.000172333190085284472
0.000121641383397055216
9.37141363136728917e-05
3.64818002029306698e-05
9.4954060594861044e-06
4.28414736797278491e-06
2.94457491980876221e-06
2.51691979073844882e-06
2.53748965424944973e-06
3.20049223653098791e-06
4.79616054849015124e-06
7.15241474037994766e-06
1.56633299683559248e-05
8.58103512232534092e-05
0.000582360968583144978
0.000776527801906366777
0.0004701065529952276
0.000284845324965959891
0.000160597538108309655
0.00010155823699652003
8.67524815956442627e-05
2.99742458071871197e-05
5.90670562844358375e-06
2.79887330759743293e-06
1.80239529460782065e-06
1.34566522496096072e-06
1.22291528212322332e-06
1.28432074084542442e-06
1.95390304590405349e-06
3.01125288962061804e-06
4.99706806067554578e-06
1.13219637708155774e-05
8.06257565380952669e-05
0.000326437584653965004
0.00154556551197069462
0.000254712017107966936
0.000125422452833458373
7.83596302142193653e-05
6.62915383902099161e-05
2.01174184002389248e-05
3.54103735822248025e-06
1.69969182734543306e-06
9.85841496031437753e-07
6.42339519201305713e-07
5.03916961226135525e-07
4.71142703171710341e-07
6.21200706982296589e-07
1.17978289551522009e-06
1.85384949145442005e-06
3.6346846850047124e-06
9.15099778984605934e-06
5.84557115453476891e-05
0.000413637499794077879
0.00120657342393785971
0.000350087932860279106
0.00028548972092305681
0.000115940242875711504
3.19794975416398458e-05
2.96580770591738812e-05
8.89988842800798759e-06
8.18967026342168004e-07
4.00167519892817847e-07
1.845444316613653e-07
9.90434851306460256e-08
8.57310970731360768e-08
7.92792930742575741e-08
1.00895313620054893e-07