/*--------------------------------*- C++ -*----------------------------------*\
| =========                 |                                                 |
| \\      /  F ield         | OpenFOAM: The Open Source CFD Toolbox           |
|  \\    /   O peration     | Version:  2206                                  |
|   \\  /    A nd           | Website:  www.openfoam.com                      |
|    \\/     M anipulation  |                                                 |
\*---------------------------------------------------------------------------*/
FoamFile
{
    version     2.0;
    format      ascii;
    arch        "LSB;label=32;scalar=64";
    class       surfaceScalarField;
    location    "0.300000000000000044";
    object      phi;
}
// * * * * * * * * * * * * * * * * * * * * * * * * * * * * * * * * * * * * * //

dimensions      [0 3 -1 0 0 0 0];

oriented        oriented;

internalField   nonuniform List<scalar> 
20856
(
-6.1128431347426732e-05
9.95812415405562812e-05
-1.03325466105120196e-05
-5.96948032548352811e-05
0.000102068615778018595
5.13449057255993773e-06
-7.56938929316928623e-06
-5.83631416655756768e-05
0.000103557406654918572
3.18798106795047584e-06
-5.25455854913458415e-06
-5.7392923357923469e-05
0.000103727697041000133
1.0981636964484086e-06
-3.03718195427698812e-06
-5.69749978914779731e-05
0.000103020877161669959
-1.15037151490691631e-06
-7.27182417078446749e-07
-5.68978325357747362e-05
0.000102087215402147372
-3.40456464096322261e-06
1.61694057342521841e-06
-5.68311749278020326e-05
0.000100294271098382525
-5.73076487106720316e-06
3.94095327695565091e-06
-5.69417676795393654e-05
9.63452122283032093e-05
-8.51667672301562826e-06
6.46709121222231585e-06
-5.73156964641257944e-05
9.00653432862530201e-05
-1.19465700216717459e-05
9.44177109569336151e-06
-5.71089215420021685e-05
8.15618209271790729e-05
-1.5992291563933328e-05
1.2851264102318285e-05
-5.45868278882245096e-05
7.00017863977531597e-05
-2.08818228114409928e-05
1.65510700230437171e-05
-4.75979331332691661e-05
5.6321128931477316e-05
-2.64716928470111488e-05
1.97723845244287706e-05
-3.48981550209459196e-05
4.87855618422039879e-05
-2.67920801204745117e-05
1.74575834013210803e-05
-2.52052984211280832e-05
0.000169621444948354373
1.57906252061910239e-05
-2.57106077572185777e-05
-3.75660587176019061e-05
0.000617780748100246963
0.000154707247742643343
-0.000154680884248203199
0.00139814211635285119
0.000351757471483847691
-0.000343688962536238085
-6.16159373415372863e-05
9.99382473156174798e-05
6.4385682393415789e-06
-8.57266821722730754e-06
-6.01768712062967281e-05
0.000102345410512875046
4.47971875831547417e-06
-6.19619465025717608e-06
-5.89969210849499321e-05
0.000103890859126975287
2.59793737506721279e-06
-4.11132606661529514e-06
-5.82470073439293179e-05
0.000104431201838762246
6.41672462117683778e-07
-2.0942124300019327e-06
-5.80145965878709732e-05
0.000104229849887694246
-1.40856908863370605e-06
-3.02408098728855124e-08
-5.81088564443657169e-05
0.00010360642505096709
-3.48601063820136006e-06
2.06450434414785466e-06
-5.83584943552153796e-05
0.000102031136100520949
-5.67345575847202245e-06
4.18838022069617916e-06
-5.89395577796966093e-05
9.86400029991013784e-05
-8.24058791869973046e-06
6.52752929199958297e-06
-5.98952450670956399e-05
9.31003403574304038e-05
-1.13616367189700986e-05
9.28268154619411523e-06
-6.05947190287799262e-05
8.48744487151287209e-05
-1.5197313603068705e-05
1.25845191684463385e-05
-5.95871265658660341e-05
7.26119863430535381e-05
-2.01303408069208029e-05
1.65126473292455626e-05
-5.4947438903712427e-05
5.71559703005764964e-05
-2.57924909377546619e-05
2.0318347380806684e-05
-4.69653071000435238e-05
4.84613520326473385e-05
-2.61819551539213987e-05
1.8525785105307236e-05
-4.40129444025301486e-05
0.000173863604183330467
1.70925216359875498e-05
-2.42848276540613376e-05
-5.23953078118925814e-05
0.000626491820629678539
0.000150482497767406951
-0.000150810704517604169
0.00133977543952946369
0.000325207440544960313
-0.000319236266083644733
-6.12131472392369956e-05
9.99932347172523376e-05
6.1145920078298172e-06
-7.85387501038334432e-06
-5.98981573420474464e-05
0.000102472916259347397
4.2154509800159405e-06
-5.65879693560851899e-06
-5.89278782180211461e-05
0.000104219119911580312
2.39158370639532306e-06
-3.68979389434568674e-06
-5.83994303068465729e-05
0.000105152792013409472
5.49353451675197918e-07
-1.79712622472371126e-06
-5.83493902362534607e-05
0.000105420537939735214
-1.34268708673427151e-06
1.05738469590973403e-07
-5.86561851416885559e-05
0.000105151423589478879
-3.26775628806205206e-06
2.03231478329829616e-06
-5.92727167278636816e-05
0.000103944980257908434
-5.30345515041812115e-06
4.00655258002005206e-06
-6.03523411129202055e-05
0.000101186465233940568
-7.64433560501709578e-06
6.17687400089594975e-06
-6.19420841511019371e-05
9.642667114385352e-05
-1.04689295860645645e-05
8.73195376674328898e-06
-6.36628326406035071e-05
8.87327751238109382e-05
-1.40376633335328093e-05
1.1900180247378451e-05
-6.44615663336158457e-05
7.62925855670378321e-05
-1.8794115838583866e-05
1.59134848313316726e-05
-6.32120490784622726e-05
6.00031499249368872e-05
-2.40710466091015173e-05
1.99773645815601815e-05
-6.20474372680701115e-05
5.27968813314197779e-05
-2.39102171754790839e-05
1.8413837486259129e-05
-6.64098757506557166e-05
0.000182990535654803914
1.95612896602146487e-05
-2.43241904303701282e-05
-6.68445014283598516e-05
0.000628177174116914408
0.000144917468151200906
-0.000146168939323608737
0.00126931279393401085
0.000297608604199923641
-0.000293991413621222516
-6.05589882649816685e-05
9.99997970192884473e-05
5.9764642137106784e-06
-7.53559594415313933e-06
-5.94015929415274232e-05
0.000102632758919070358
4.1308045744040366e-06
-5.44881144517785759e-06
-5.86248075586204385e-05
0.000104632975146447854
2.37441754058371346e-06
-3.5648742239263302e-06
-5.82849984427733777e-05
0.000105950581534078285
6.40265836866594099e-07
-1.77567622308547879e-06
-5.84070113590201274e-05
0.000106660168462260457
-1.10864578062996414e-06
-5.2944292169418555e-09
-5.89414720112969477e-05
0.000106795216446749585
-2.88264880016209684e-06
1.7755306291764211e-06
-5.99138083264580488e-05
0.000106063814142030435
-4.74834342506217836e-06
3.60148546384147434e-06
-6.14700371443061374e-05
0.00010399969942292617
-6.85044531511750447e-06
5.5922426123295369e-06
-6.37138042698946522e-05
0.000100099775985665608
-9.36217094373699581e-06
7.93231047209694306e-06
-6.65337733325961021e-05
9.32281961614568247e-05
-1.25743832644004565e-05
1.08996980236058913e-05
-6.94393272067530631e-05
8.13089775703845335e-05
-1.68883963840343518e-05
1.47803463667677791e-05
-7.22832864098886161e-05
6.55873386552207358e-05
-2.13312146040769504e-05
1.85952479662520753e-05
-7.83283038124084715e-05
6.18331366509893276e-05
-2.00082770637832648e-05
1.70203927419332435e-05
-8.8958015926066087e-05
0.000195924863044828328
2.30352854542444354e-05
-2.53397940068279337e-05
-7.98919153114861216e-05
0.000620915895870342198
0.000137927561095533001
-0.000139733885786241406
0.00118922793857782023
0.000268607272712613151
-0.000268415606040867702
-6.56030441128587399e-05
8.8273837314420815e-05
1.202673969060514e-05
-1.4746127486990412e-05
-6.31413720745555978e-05
9.2800427153138604e-05
9.90238678474839572e-06
-1.20846827922213457e-05
-6.1245335367951238e-05
9.66943472927717497e-05
7.85420113992292722e-06
-9.61634345770476205e-06
-5.98314282806212779e-05
0.000100033178583035427
5.92819708231235997e-06
-7.37630010978498299e-06
-5.88259493975121515e-05
0.000102860117404637974
4.14122880476917721e-06
-5.37481761296302873e-06
-5.8215341486851123e-05
0.000105132518867445058
2.45944023473721572e-06
-3.57026768832275432e-06
-5.80376256074348684e-05
0.000106822216691143912
8.30609879657178224e-07
-1.87855993333844507e-06
-5.83235398286897219e-05
0.000107963519279920167
-7.82194618831389587e-07
-2.31875529403224016e-07
-5.90788742709190463e-05
0.000108549076222500107
-2.40134850702843625e-06
1.405137041097598e-06
-6.03716350533339434e-05
0.000108366978609069159
-4.08112686484358533e-06
3.0706979366286071e-06
-6.23644094015149284e-05
0.000107057709411780705
-5.92968040042307284e-06
4.86362092644174568e-06
-6.52436166747007775e-05
0.000104122034423752765
-8.10033791470975545e-06
6.95721533093154353e-06
-6.91620334504651485e-05
9.83730016480503501e-05
-1.08588722067529146e-05
9.63402002496844179e-06
-7.42763854240840787e-05
8.77739884605618432e-05
-1.44891179097138103e-05
1.31417838688127972e-05
-8.14820950203584606e-05
7.42940597217023595e-05
-1.78078114912798066e-05
1.63104641678432654e-05
-9.47944226501475334e-05
7.59427405862131357e-05
-1.48561861114078585e-05
1.40609118546008017e-05
-0.000110028051888157451
0.000211627537575579414
2.75899426901450912e-05
-2.80596228608354491e-05
-9.15076346164172541e-05
0.000604412119765106496
0.000129820267262685508
-0.000131838417044320146
0.0011006713072494608
0.000239277159124829313
-0.000242229345563886047
-6.44065074801531486e-05
8.79034732276865854e-05
1.19453304318009804e-05
-1.45105334021528556e-05
-6.21082872207643662e-05
9.25503568367491274e-05
9.82032352959652627e-06
-1.18699330747321837e-05
-6.03560232095362448e-05
9.65924992205854428e-05
7.80422402870819587e-06
-9.45534683271344523e-06
-5.90730829259555396e-05
0.000100108006507636685
5.93097295105501678e-06
-7.28904679734839083e-06
-5.82033262963583257e-05
0.000103147525285217809
4.20682307941215657e-06
-5.36490830849601926e-06
-5.77350259317965816e-05
0.000105699220948421511
2.60360118533119698e-06
-3.63984892052110046e-06
-5.76989250071641496e-05
0.000107752427582152445
1.07875953982232206e-06
-2.04416177974916105e-06
-5.81358166364314427e-05
0.000109323995300107329
-4.01611891611190743e-07
-5.18777216301295075e-07
-5.90887366085170827e-05
0.000110395390866924536
-1.86247110074869088e-06
9.71791198792917918e-07
-6.0656983629244797e-05
0.000110816692366483323
-3.34529124683164594e-06
2.46455834899965492e-06
-6.30302226335851493e-05
0.000110318486356029665
-4.92763551958517593e-06
4.03985681148342139e-06
-6.64781680770268612e-05
0.000108452534003598635
-6.73046509395624226e-06
5.84823153086828585e-06
-7.14029647736856695e-05
0.00010412016836342292
-8.95572144552737398e-06
8.13507590003464076e-06
-7.85669070863721536e-05
9.56066361913619127e-05
-1.17239362309283744e-05
1.10579547141874667e-05
-8.96325951436978988e-05
8.57178445543735584e-05
-1.37079014609878228e-05
1.33522225245033966e-05
-0.000108444997374919843
9.41395380208089223e-05
-9.43778778303251582e-06
1.00544540721051882e-05
-0.000125280853372999564
0.000228132763114374565
3.09956041680051593e-05
-3.06654677171828535e-05
-0.000101752776648077133
0.000583414534357036573
0.000120062465222493318
-0.000122594092337126212
0.00100403454703799975
0.000211425310239761726
-0.000216542111220590315
-6.94125558535902803e-05
1.62733887004812816e-05
-2.01149334036333507e-05
7.61248241383771898e-05
-6.5934156106282546e-05
1.40775989600947814e-05
-1.71575173219103005e-05
8.22048805026807369e-05
-6.31728179498316296e-05
1.18721400966044198e-05
-1.4316585347788252e-05
8.75852297625722044e-05
-6.10256091176952469e-05
9.75232948879510138e-06
-1.16900142253935681e-05
9.23399916676143019e-05
-5.94074745116230643e-05
7.76976615124329608e-06
-9.32040365419820197e-06
9.65248552294869328e-05
-5.82478810957056393e-05
5.94888132255313086e-06
-7.21895535857657437e-06
0.000100218416760835649
-5.75004744028693662e-05
4.28921150113120165e-06
-5.36750530080230455e-06
0.0001034776364609008
-5.71567165661118325e-05
2.76602394711349057e-06
-3.72159894097494767e-06
0.000106310436841457637
-5.72454806539788357e-05
1.34405396921696047e-06
-2.22187228388083994e-06
0.000108720291570041876
-5.78165868135683625e-05
-6.40663569063687504e-09
-8.17698154118298842e-07
0.000110721997834906119
-5.89385745357183277e-05
-1.30734996454831973e-06
5.23582342841340098e-07
0.000112303424206474593
-6.07352652346517809e-05
-2.5874153119499078e-06
1.83399387353277001e-06
0.000113367704608479975
-6.34256516966142726e-05
-3.89555078124934246e-06
3.17458901837107818e-06
0.000113730030274258371
-6.73576819200903134e-05
-5.31103520633526292e-06
4.66104682993250987e-06
0.00011303522262323749
-7.31423096513097461e-05
-6.9481929639481075e-06
6.46914949306252829e-06
0.000110385296721681969
-8.1942943414721055e-05
-8.76552615752136243e-06
8.63809875551275412e-06
0.000104536288407924513
-9.56165099260343954e-05
-9.43300532010282384e-06
9.92229362774969417e-06
9.89034058680137834e-05
-0.000117292256944814209
-4.3115601954255833e-06
5.85889034511459419e-06
0.000114268381941493946
-0.000132925718121022166
3.28039616855596003e-05
-3.21978183472020182e-05
0.000243159712294717574
-0.000108296792996470404
0.000109943904360459974
-0.000112676991606675992
0.000561518016830306679
0.000185508507104871766
-0.00019205944505464674
0.000902288525552475025
-6.27708552915986367e-05
0.000101820021448341879
2.96607249591959289e-06
-6.14412795926109958e-05
0.00010320056856557498
1.12950927980217433e-06
-6.06353487088791393e-05
0.000103782646124278284
-8.71239666986050024e-07
-6.02671730759916395e-05
0.000103937295781973205
-2.95858311429227622e-06
-6.01630458845368315e-05
0.000103532366206476273
-5.12637498526345007e-06
-6.03772006303692261e-05
0.000101830068960545193
-7.62858827904204295e-06
-6.10773062480504631e-05
9.8519833581411711e-05
-1.07228830059054583e-05
-6.20723410894413031e-05
9.36450636999171964e-05
-1.44575646444335372e-05
-6.26347239817980658e-05
8.63098422258804713e-05
-1.90032427474115892e-05
-6.15239031266278719e-05
7.42036926175516985e-05
-2.51072293698212002e-05
-5.7402479803100344e-05
5.75196615881240836e-05
-3.28137971921467942e-05
-5.15528635342000894e-05
4.82980024097027447e-05
-3.53385895052849117e-05
-5.02524572053340775e-05
0.000156284033126766572
7.69075945342373533e-06
-5.55919400553258627e-05
0.000586391622425466328
0.000154971706549809955
0.00123791355071903807
0.000348298259032342157
-6.38735879209044276e-05
9.97118399060989972e-05
4.33748220080460442e-06
-6.23227659467060619e-05
0.000102132079045385218
2.61605015914338825e-06
-6.11955711756920835e-05
0.000103821710273736196
8.49824979700589399e-07
-6.05693493400242703e-05
0.000104817767544371332
-1.01715768412300782e-06
-6.03906678783465905e-05
0.000105315092135426571
-2.96084152031081741e-06
-6.0558405957902953e-05
0.000105219268789262396
-5.00236478030725812e-06
-6.11363823480008678e-05
0.000104048593356132271
-7.31419289468627038e-06
-6.22639335253925234e-05
0.000101491636543836908
-1.00865988334097763e-05
-6.38641019440772681e-05
9.7318322199647407e-05
-1.34362255995463528e-05
-6.55138250251287074e-05
9.0421452343587128e-05
-1.76596879947401932e-05
-6.6365935624405377e-05
7.8405091437009581e-05
-2.34787106491286662e-05
-6.57892343707670326e-05
6.16668078282691783e-05
-3.05138299572840145e-05
-6.63543879496282144e-05
5.45758300081730774e-05
-3.18913349264232757e-05
-7.15504411201912688e-05
0.000166404524305053896
1.21697408681122049e-05
-6.93143822466581752e-05
0.000585414244718021268
0.000149223601043003349
0.0011743257958959385
0.000319480211029807423
-6.31359977378984018e-05
9.98364287303913825e-05
4.19449532401493977e-06
-6.17541260170007949e-05
0.000102453782015076694
2.51130699945708997e-06
-6.08046172889109617e-05
0.000104446415249803045
8.18185808634424538e-07
-6.03352711889734966e-05
0.000105829182091291948
-9.28075337594370492e-07
-6.03283363951838736e-05
0.000106702614241346381
-2.73297054428687164e-06
-6.07440127358700976e-05
0.000106995991390349142
-4.62723654126474166e-06
-6.16554217286095996e-05
0.000106385868757378799
-6.73089626108079265e-06
-6.31987474240588699e-05
0.000104580460525437465
-9.19194678393065121e-06
-6.54136490596925809e-05
0.000101219757347006785
-1.21560623842365419e-05
-6.81722761802181236e-05
9.51031246929913659e-05
-1.59596107956063747e-05
-7.11650397960010355e-05
8.38325237028983146e-05
-2.12263301124076849e-05
-7.44763351201564884e-05
6.80847183594060929e-05
-2.71745346332117229e-05
-8.12310292116992305e-05
6.42824206931578193e-05
-2.68597509119875398e-05
-9.20870048801881872e-05
0.000179812054890671387
1.70099920104737585e-05
-8.14121302993073536e-05
0.000577516763567486073
0.000142139337528344171
0.00110211008930272613
0.000288411529803069987
-6.23840260922326677e-05
9.99682670029314584e-05
4.18443981256801533e-06
-6.11506622180109187e-05
0.000102800576117993445
2.55006436697576847e-06
-6.03528042781846343e-05
0.000105088847543387097
9.34322974453155222e-07
-6.00255548581293339e-05
0.000106842406249998043
-6.97736088166774167e-07
-6.01768671391195165e-05
0.000108112906496719279
-2.36427022409758788e-06
-6.0811888769502619e-05
0.000108847124172064744
-4.09741756646618271e-06
-6.20172360793980139e-05
0.000108824692373138803
-5.98273309200436443e-06
-6.39466087123828137e-05
0.000107793624942512686
-8.13511720072124768e-06
-6.67495603886276669e-05
0.000105358816099311031
-1.06977300242618337e-05
-7.05723799756423554e-05
0.000100335531639315966
-1.39822684812005396e-05
-7.56912934609236702e-05
9.05062276322156253e-05
-1.84408532067953383e-05
-8.30377293832381449e-05
7.70575853474292501e-05
-2.29553786047892394e-05
-9.5794921622032215e-05
7.76131822580500324e-05
-2.05806139008189597e-05
-0.000110756723534018894
0.000195258602702591603
2.2550497584409554e-05
-9.23748869840153905e-05
0.00056310770418244963
0.0001339542439694965
0.00102112716602943666
0.000257214971788297423
-6.76742840492024293e-05
8.8050917855930094e-05
9.28550543300520246e-06
-6.51511469958212906e-05
9.25697353523947133e-05
7.58543416136991536e-06
-6.31455513017275828e-05
9.65769594549219023e-05
5.89444947324447663e-06
-6.16086639117943935e-05
0.000100106454433712428
4.25287518184750225e-06
-6.05062783206394096e-05
0.000103164177094771224
2.67422066812856453e-06
-5.98412783314882199e-05
0.000105744154645754518
1.13860929345016173e-06
-5.96432273167641378e-05
0.000107859169678159596
-3.82618388392798556e-07
-5.99375196002197762e-05
0.000109539185230889122
-1.9111264530829541e-06
-6.07611103343869751e-05
0.000110747947705951152
-3.47635164902495203e-06
-6.22170679480890811e-05
0.000111338694413464919
-5.13851905732816598e-06
-6.44844765425383145e-05
0.000111113239151185771
-6.98170631825519901e-06
-6.78069914531963101e-05
0.000109706549381280332
-9.12497867535101863e-06
-7.25753968370547421e-05
0.000106054519396769258
-1.18083526204577654e-05
-7.96234711614197548e-05
9.8334576965320705e-05
-1.52680511065041979e-05
-9.07223007894584208e-05
8.84924503419098332e-05
-1.81425646806976921e-05
-0.000108489903418033292
9.45645385261002845e-05
-1.40389796662781388e-05
-0.000124949998371890218
0.000211905627767884982
2.74034554382735118e-05
-0.000101145889633203064
0.00054441711561952703
0.000124706696745786942
0.000932500954743829954
0.000226757591291682295
-6.65078706426046882e-05
8.76965239551246437e-05
9.33401855031481723e-06
-6.41115050598745344e-05
9.23623397096984624e-05
7.63101043394020606e-06
-6.22251441547622998e-05
9.65304942422628244e-05
5.96447912205825352e-06
-6.08022269186966744e-05
0.000100246861819360642
4.36710258714070174e-06
-5.98154162005577918e-05
0.000103534562010803945
2.84865412521016059e-06
-5.92662550569207587e-05
0.000106403768233140803
1.39443776828335278e-06
-5.91819243828686252e-05
0.000108873397856530598
-1.84270780684037092e-08
-5.95995982608207151e-05
0.000110968818284523595
-1.41049746860797358e-06
-6.05782669552377159e-05
0.000112672878414102519
-2.80579004946248899e-06
-6.22369296086232115e-05
0.000113897722655324264
-4.24415801230707539e-06
-6.47785085951342376e-05
0.000114506424390788101
-5.7789295045949095e-06
-6.85208862764675135e-05
0.000114210287056050987
-7.49185175213603487e-06
-7.4058627424045554e-05
0.000112163846094419966
-9.5269383924965982e-06
-8.26466681470566106e-05
0.000107105317511114079
-1.19058482063584476e-05
-9.64570477661919772e-05
0.0001017476548028506
-1.31517662332033174e-05
-0.000117202370909326046
0.00011368863423194737
-7.81549375688235059e-06
-0.000132766827764551655
0.000227563691392826146
3.0902703991389472e-05
-0.000106658144008726609
0.000523663806712898797
0.000114707372379867432
0.00083973803782771549
0.000197530533237753257
-7.15617240346320011e-05
1.27253043450279063e-05
7.61671191516912442e-05
-6.81162593535935293e-05
1.10894179648573316e-05
8.20456096667952837e-05
-6.52844176245484487e-05
9.38219784436153394e-06
8.73551582116341755e-05
-6.30092405945225281e-05
7.68402600409366017e-06
9.2156063914061018e-05
-6.12364411925436612e-05
6.0456954217614426e-06
9.64816098092197085e-05
-5.99209215442623501e-05
4.49501630781842284e-06
0.000100384692600365589
-5.90383720179848444e-05
3.03872894085436335e-06
0.000103902637358999056
-5.85906154035725633e-05
1.66585884458781398e-06
0.000107056851940832469
-5.86043767896187148e-05
3.58399279026282862e-07
0.000109874191712787327
-5.91249246721821714e-05
-9.00292042176523591e-07
0.000112385368523670119
-6.02260270646048728e-05
-2.1271327308906495e-06
0.000114595822921442452
-6.20397361699222022e-05
-3.34368714773367106e-06
0.000116468910699477415
-6.47890564513159178e-05
-4.57529990200584105e-06
0.000117935703116175812
-6.88505673058889583e-05
-5.85559589925108338e-06
0.000118816265404168148
-7.49467650069045955e-05
-7.22889673636898572e-06
0.000118540861994307747
-8.44917751131469267e-05
-8.55094288616080209e-06
0.000116436096949052188
-9.94306940964874409e-05
-8.41649217662677411e-06
0.000115670535955020336
-0.000121015567816663079
-2.18370801448807437e-06
0.000133146190631505429
-0.000134943844079310704
3.28009022831170138e-05
0.000241495410767053744
-0.000107170590143823924
0.000104092063205978285
0.00050174279145721683
0.00017055859634247623
0.00074751806510394835
-6.47312634748005851e-05
0.000100746036909693239
1.07064257446895474e-07
-6.3530177939765119e-05
0.000102423249818848108
-1.59966761547297246e-06
-6.28261678829822263e-05
0.000103570908888754026
-3.43768712136629718e-06
-6.2594669241469226e-05
0.000104226256488389055
-5.4034574713770004e-06
-6.28403223676717157e-05
0.000104230558263496733
-7.58769867097702693e-06
-6.36041255681145639e-05
0.000103354920416912121
-1.01844414417874477e-05
-6.48937133268299808e-05
0.000101495573668932565
-1.33185108974483808e-05
-6.66112961536449998e-05
9.82817701100034127e-05
-1.71258025792025524e-05
-6.85227668997219009e-05
9.22688472787121748e-05
-2.20854820578034406e-05
-7.0138507830717431e-05
8.08498894580360306e-05
-2.9181235392917578e-05
-7.15266814194069227e-05
6.45545136098863706e-05
-3.79311474452261198e-05
-7.57414577957503019e-05
5.99921452374258365e-05
-4.0320332526148022e-05
-8.31767131467843197e-05
0.000159062685740357147
3.47009905531534072e-06
-7.27314555034289806e-05
0.000547761231369646765
0.000149412846363317238
0.00106226764216604559
0.000332364664108063604
-6.55640256619157596e-05
9.91910684548388225e-05
1.68667544656066504e-06
-6.40629843926499248e-05
0.000101729752495771601
1.30549573701649907e-07
-6.30284800650458962e-05
0.000103733097815332471
-1.49385650385758833e-06
-6.24923054585502967e-05
0.000105234083110604447
-3.21397698402456862e-06
-6.2444960065105473e-05
0.000106265737946924853
-5.04475683679908928e-06
-6.28948159570404846e-05
0.000106734329727803368
-7.05527921957551159e-06
-6.39159033237425762e-05
0.000106444364291499025
-9.38391763058596623e-06
-6.5590290458964376e-05
0.000105236368033432241
-1.21550750071106923e-05
-6.79402381042871041e-05
0.000102728450232978066
-1.55340895821827539e-05
-7.09413076615640013e-05
9.75857497860472227e-05
-1.99754953323448949e-05
-7.4595270562207702e-05
8.7283174453959929e-05
-2.62574803679707186e-05
-7.94386159004112049e-05
7.24600326448055404e-05
-3.35752902264255503e-05
-8.87563940467717361e-05
7.14830827384946782e-05
-3.40637131010083937e-05
-0.000100802406258810543
0.000172417603295125458
1.08613742865206644e-05
-8.41521363266165435e-05
0.00053644493086028595
0.000143890025905385536
0.000996399095574512089
0.000301196861155385656
-6.47862021692006507e-05
9.9753861906704596e-05
1.82291729889379193e-06
-6.34188186025838932e-05
0.000102551645425733842
3.2171954690276919e-07
-6.25181658024361931e-05
0.000104868220131337027
-1.21677401166777515e-06
-6.21141720212925236e-05
0.000106723846489920261
-2.81976317630207728e-06
-6.22176218746263156e-05
0.000108146151909412435
-4.50791181637326386e-06
-6.28538850525173882e-05
0.000109078323949365192
-6.33439936447917977e-06
-6.41122775378343473e-05
0.000109374835707518229
-8.40362127897139326e-06
-6.61223295378055465e-05
0.000108878491708926136
-1.0824248078557915e-05
-6.90182489622383124e-05
0.000107223198225922533
-1.37541358251637221e-05
-7.30092218124209886e-05
0.000103201826137518451
-1.75841064439100553e-05
-7.86066370838125295e-05
9.45258943690076802e-05
-2.28721569188418126e-05
-8.69775199868179041e-05
8.2115973089436092e-05
-2.84607167885914082e-05
-0.000100996578919674792
8.52185567420169865e-05
-2.65766317430343102e-05
-0.000116046153734557196
0.000186774779266121071
1.77031543194644504e-05
-9.38017795999257855e-05
0.000520397186063235157
0.000135943811686929064
0.000923735063195847174
0.000267274668166833944
-6.40081460159638204e-05
0.000100189238223135011
2.05340918738568976e-06
-6.2758105100296614e-05
0.00010323734131403052
6.1377768768549149e-07
-6.19727967311410589e-05
0.000105855648018392522
-8.38116839527314285e-07
-6.16825364152012219e-05
0.00010806295203253604
-2.32578288051421377e-06
-6.19136088287770814e-05
0.000109884889736607937
-3.87004913011393305e-06
-6.27095507037014709e-05
0.00011129144118074366
-5.5129682971035922e-06
-6.4172465476814992e-05
0.000112185470694187752
-7.32920351437280959e-06
-6.64648420867241553e-05
0.000112442853119664992
-9.40571244102244227e-06
-6.98150150081617817e-05
0.000111749021264577302
-1.18723613908009509e-05
-7.46485142451304814e-05
0.000109077383025369274
-1.50248314336382229e-05
-8.19393762826529611e-05
0.000102542626734968036
-1.91688087772497893e-05
-9.34937027014338463e-05
9.35617985368532805e-05
-2.2849063643066536e-05
-0.00011133556772786101
0.000101384116472313392
-1.89047734889929896e-05
-0.000127295016789041274
0.00020175782333263216
2.35284879209721519e-05
-0.000101969336426283152
0.000502601456650110284
0.000126426078261812462
0.000844388018898967739
0.000234594135990172001
-6.93660564294544925e-05
8.82417377214348412e-05
6.51787553110821202e-06
-6.68361732426321625e-05
9.27362922363754401e-05
5.13433839158002375e-06
-6.47854170423310183e-05
9.68250566506250501e-05
3.72966564691349936e-06
-6.31929219155567676e-05
0.000100515369223220963
2.33342514180350224e-06
-6.20482495582659382e-05
0.00010380937435597464
9.56859120725674345e-07
-6.13657829962938934e-05
0.000106721432426541051
-4.09308388709011026e-07
-6.11754140942207284e-05
0.000109275475244209464
-1.78422276520072468e-06
-6.15135033180036137e-05
0.000111500686759513664
-3.18635584740176904e-06
-6.24390207131392554e-05
0.000113390832758240685
-4.64734064005513888e-06
-6.40650729664654747e-05
0.00011489333509486856
-6.21796981065011555e-06
-6.65795422426680581e-05
0.000115936256504345131
-7.95925018535720756e-06
-7.02815991723081097e-05
0.000116283696135721073
-9.9576712541841946e-06
-7.57682450615838291e-05
0.000115150056533486599
-1.23960776702144962e-05
-8.43395764544863113e-05
0.00011118274598790908
-1.53393845837010262e-05
-9.81402643630804368e-05
0.000106406299503642181
-1.71881652298912167e-05
-0.00011815577068461096
0.000119180287155858967
-1.18193865500097879e-05
-0.000133205404052403958
0.000216603600978362561
2.76093340525559005e-05
-0.000106202012713757995
0.000484305503871141404
0.000116001345229689118
0.000761392746504116935
0.000203552527126238457
-6.82116828692717501e-05
8.79058187770462372e-05
6.72762372804689795e-06
-6.57821583018378396e-05
9.25829818257727446e-05
5.35491576080571274e-06
-6.38302062646024343e-05
9.68563301043733971e-05
3.98035914847140568e-06
-6.23332721986816728e-05
0.000100752897385957983
2.63118789112390919e-06
-6.12825796302860024e-05
0.000104289062461903682
1.31813514899448121e-06
-6.06899439301997656e-05
0.000107488359070957604
3.5619143443906051e-08
-6.05841702696316881e-05
0.000110383098409273504
-1.23016695086709308e-06
-6.10075012227499506e-05
0.000113010906143127699
-2.49451340867401709e-06
-6.20301159089795858e-05
0.000115389211873054572
-3.77854202392481385e-06
-6.37770443882540276e-05
0.000117510137212390679
-5.11208142761916436e-06
-6.64410588933241736e-05
0.000119350317105163675
-6.52853187137080597e-06
-7.03787552329346853e-05
0.000120793147880773565
-8.06454031986204139e-06
-7.62859909409561554e-05
0.000121320971872739293
-9.79228817059786328e-06
-8.56068831320557725e-05
0.000120185332219667333
-1.15892717697072163e-05
-0.000100474966174607361
0.000119985083756020454
-1.1863343550425331e-05
-0.000121078725026424336
0.000137375672364143059
-5.40661574212920023e-06
-0.00013456519215178069
0.000230494563568976513
3.04997926457643567e-05
-0.000105199402609547135
0.000464245402945370278
0.000105403484184563232
0.000679160869474043595
0.000174564560078112514
-7.31920470541370759e-05
9.48421154575493889e-06
7.65760024300931073e-05
-6.98211214481794427e-05
8.25011520645607674e-06
8.22801320729266427e-05
-6.6984906576707728e-05
6.92137123007017282e-06
8.75311570430773941e-05
-6.46544333148020166e-05
5.56347127114597919e-06
9.23727901464884023e-05
-6.27980056515534482e-05
4.22099878093369303e-06
9.6823432933001397e-05
-6.1391302446423736e-05
2.9198488486961761e-06
0.000100920670435920027
-6.04255755920310201e-05
1.66978811060557133e-06
0.000104692588471132426
-5.99107155292324432e-05
4.6863243249810404e-07
0.000108171617107434575
-5.98745286566474801e-05
-6.92816872800847802e-07
0.000111399772145585462
-6.03625782748716072e-05
-1.82497245290162286e-06
0.000114425657082274472
-6.14506311305040219e-05
-2.93898229125191392e-06
0.000117290606318083817
-6.32658669508157003e-05
-4.04575017941003689e-06
0.000120028089614839756
-6.60197406403011024e-05
-5.14958326665876788e-06
0.000122678335312994527
-7.00797902372543948e-05
-6.24017836169569331e-06
0.000125237118714252262
-7.61674344856257048e-05
-7.29157172184408613e-06
0.000127470550326837592
-8.56835216673603774e-05
-8.06904445243713343e-06
0.000129218892484713718
-0.000100424226503993417
-7.13023700742631256e-06