/*--------------------------------*- C++ -*----------------------------------*\
| =========                 |                                                 |
| \\      /  F ield         | OpenFOAM: The Open Source CFD Toolbox           |
|  \\    /   O peration     | Version:  2206                                  |
|   \\  /    A nd           | Website:  www.openfoam.com                      |
|    \\/     M anipulation  |                                                 |
\*---------------------------------------------------------------------------*/
FoamFile
{
    version     2.0;
    format      ascii;
    arch        "LSB;label=32;scalar=64";
    class       surfaceVectorField;
    location    "0.300000000000000044";
    object      Uf;
}
// * * * * * * * * * * * * * * * * * * * * * * * * * * * * * * * * * * * * * //

dimensions      [0 1 -1 0 0 0 0];

internalField   nonuniform List<vector> 
20856
(
(-0.195610980311765742 0.160942235354328222 0.0230097907945556804)
(-0.198970760391486756 0.159329986464890633 0.025066332335317687)
(-0.186483875652593195 0.156304798565977954 0.0330641491536382837)
(-0.191023370415472765 0.164241171753298998 0.0160758700272644987)
(-0.193903016849218734 0.163309785244830419 0.0180201933660287007)
(-0.198225167285041803 0.162847750951214509 0.0164303698321921383)
(-0.182666711396641757 0.160538291561875157 0.0242220457381423365)
(-0.186762053329842026 0.165505676963975473 0.00944523338589409525)
(-0.189413811706541785 0.165691850647868982 0.0116666183149365284)
(-0.193391576695601586 0.165066828519313924 0.0102015394174416862)
(-0.179150969826329581 0.16356942162684393 0.016814587357231299)
(-0.183657354745354967 0.164768582061052188 0.00242643092340729706)
(-0.185899938362729916 0.165964315265600654 0.00513515805459984626)
(-0.189802834892297184 0.165407022844470841 0.00351412382863549883)
(-0.176066896315525717 0.164023630475651966 0.0097189822536869596)
(-0.182319993252732265 0.163115502618610353 -0.00483783985381377579)
(-0.184141114687781854 0.164833403458672367 -0.00180567747067190867)
(-0.187918716405055225 0.1646392496601293 -0.00368118884770212958)
(-0.174389866071474275 0.162386456447578154 0.0023269837346510283)
(-0.182073064114479433 0.160750855742263526 -0.0120392166305283085)
(-0.183822413510289939 0.163339544643434781 -0.00872864497606341307)
(-0.187232980054663545 0.163335994704262022 -0.0108946068510820202)
(-0.174043809808643535 0.160282159665090407 -0.00517420983496151912)
(-0.181859759768965262 0.155924133867277825 -0.0197847945982980652)
(-0.183902546848980025 0.16047083375741103 -0.0156836818314336872)
(-0.187080554614567102 0.160286769189794648 -0.0183384475874147322)
(-0.174005098921143325 0.157255201354932039 -0.0126110504862586952)
(-0.182213656574526262 0.1472760932250958 -0.0291075514555682313)
(-0.184250394389955524 0.154152339565287094 -0.0237327261245441068)
(-0.187604605404293273 0.153996173398697173 -0.0272533655136498049)
(-0.173776083725049463 0.150660998435993149 -0.0206946918791115798)
(-0.18341022868520282 0.135112483017149093 -0.0402533713047256575)
(-0.186112192238883922 0.144104549258004255 -0.0336086349066826301)
(-0.189673812273394582 0.144545268454844444 -0.0382290240693493877)
(-0.174466977285163416 0.139708351551942805 -0.0302136675062186048)
(-0.182748548934407035 0.119368433749972025 -0.0530404820711070993)
(-0.187674313831187517 0.130498913483487161 -0.0453185806138014166)
(-0.191075012351855367 0.131729676927720696 -0.0511753330045873478)
(-0.174650430983350896 0.125666141241325469 -0.0411240451274186708)
(-0.174677849242318384 0.100257415485010007 -0.0669300305420628822)
(-0.186201702243143197 0.11200285823640449 -0.059194881428472991)
(-0.189481167120192362 0.113282574853145301 -0.0668218329966106389)
(-0.170764405491074273 0.109021980227327481 -0.0529634240737392459)
(-0.152313386026461384 0.0851735062229276585 -0.0723984579822208874)
(-0.180448570683358844 0.0901138062903631409 -0.0739671840250211154)
(-0.183639876137393521 0.0900451540169928955 -0.0847094171104352395)
(-0.160298590028798926 0.0922607576574648036 -0.0632716304781721361)
(-0.111674096067026996 0.175218722163094309 -0.00300643353365791233)
(-0.14298488723061803 0.0780568989475266262 -0.0712418549066983903)
(-0.145404828178574252 0.0772752711348822924 -0.0857346563855185956)
(-0.122312019944747885 0.0877548039504436606 -0.0558642668842277285)
(-0.0806569549476142122 0.624270717212417225 0.278999994001145835)
(-0.0161017404270808046 0.271394311917368181 0.0646253245113051489)
(-0.0305596334022064757 0.257185122701608482 0.0505300006598106005)
(0.0508552056544478021 0.294609017835286591 0.0822739448230998677)
(-0.120211387896315275 1.6294968873506348 0.807894640660995034)
(-0.501662643196433389 0.988449196960399901 0.4876197678303551)
(-0.509101552189859086 0.957912211048061901 0.495063192776463379)
(-0.474906885070385698 1.00959988208729756 0.494978829594254877)
(0.436168175664472635 2.23702738616455044 1.08145293226473793)
(0.438137652929517507 2.15484281339446904 1.12562390874830398)
(0.504348032670186575 2.39071432342497214 1.09980468011596089)
(-0.197170999492919607 0.161789367794354377 0.0200767349067907282)
(-0.199044307039657031 0.159901195704988841 0.0227926109956819202)
(-0.203515063932308754 0.159665093671272601 0.0206034183658931301)
(-0.193460879349442227 0.158905533952984013 0.0274325382951275953)
(-0.192565987860149612 0.164902105171692459 0.0136109416537006939)
(-0.194089875377350174 0.163752656820600556 0.0162057137877353701)
(-0.198121983200554685 0.163464606120188816 0.014335100026609586)
(-0.189013268915692756 0.162638168776274183 0.019827822880822861)
(-0.188790147471836728 0.166370662584483298 0.00735654298364219091)
(-0.190022622912037892 0.16622537460315806 0.0101115229620706831)
(-0.19374785004491446 0.16588713630114621 0.0083133996002144276)
(-0.185219937769533216 0.165166737987493428 0.013156243413168069)
(-0.186390423500570751 0.166297603132763039 0.000903049660520697985)
(-0.187194742800395608 0.167089922942020075 0.00397443617711333748)
(-0.190765095453069716 0.16681215933319618 0.00205335187877643457)
(-0.182309986303169802 0.165731638361203498 0.00670147977600620871)
(-0.185646709081184275 0.165308512705691357 -0.00569648259292139698)
(-0.186067447485749354 0.166767759820311723 -0.00236095673234251215)
(-0.18946727578558395 0.16671078531764541 -0.00450742108362787129)
(-0.180908754314236503 0.164735575146541663 9.67705915939655711e-05)
(-0.185948340621969965 0.163296598754121614 -0.0123731101769686998)
(-0.186295559369025282 0.165770280081547844 -0.00872234176045957529)
(-0.189428776013119138 0.165862934725758304 -0.0111552340422443434)
(-0.180815741341999459 0.163068150803245826 -0.0066064139012725594)
(-0.186747181936688877 0.158974643701008611 -0.019631613357679694)
(-0.187185846455814042 0.163249817760832555 -0.0152625535849717064)
(-0.19015868438954181 0.163333808999906793 -0.0181550584271109108)
(-0.181201812308688953 0.160108359810780393 -0.0134028167062280913)
(-0.188606584895026935 0.151312100159985197 -0.0282338095756583772)
(-0.188975497933441566 0.157824004798563261 -0.0227355751726188091)
(-0.192016116158030603 0.158050473325789725 -0.0263698813398394634)
(-0.181953994856118795 0.154031332897809958 -0.0208880937343988368)
(-0.191664784214708422 0.139864640352767189 -0.0386738442157582296)
(-0.192479891073709275 0.148960544571890313 -0.031767565874717324)
(-0.195600586961815232 0.149699449471031615 -0.0363572375007044438)
(-0.183994642674245229 0.144094394172694429 -0.0297045809478213955)
(-0.193903100892096059 0.123545043945972419 -0.0514729799711672459)
(-0.196305898559049286 0.135799117944205322 -0.042894447331463019)
(-0.199353669620814467 0.137226415416670966 -0.0486314035298198236)
(-0.185871247585296162 0.130197818359835849 -0.0402704613390288332)
(-0.190678805010771196 0.102231648588247626 -0.0662320349114312867)
(-0.198875062397051022 0.116179178148884829 -0.0570009431462983884)
(-0.201986765890598774 0.117911105772632155 -0.0644170905821462442)
(-0.184823489578792327 0.111695233421306772 -0.0528404714535855233)
(-0.175831804491880517 0.0835425428700356798 -0.0728105809494986322)
(-0.199688707788088393 0.0914495524809228882 -0.0721848195188252439)
(-0.20279190274872122 0.092750774813575132 -0.0825359710008152225)
(-0.17956828088966148 0.0909139906864582514 -0.0650187116185805825)
(-0.150288982720138742 0.175101599555821885 -0.00361009686173353883)
(-0.172453708485946711 0.0775381632522350039 -0.0698807704252640272)
(-0.175810341914116069 0.0791465523843709051 -0.0837822564925479463)
(-0.145124946046448572 0.0806611569921930754 -0.0592825123369834228)
(-0.140841422088096552 0.636120733182013343 0.273245098340523018)
(-0.0994030997582292242 0.278181766693329557 0.0669441364242552572)
(-0.111685247041467761 0.266048290285966327 0.0546960692351605368)
(-0.0173887937820897676 0.293499878906359368 0.07771144849299573)
(-0.167664984998056682 1.59796879504220501 0.761178059434094889)
(-0.508278709793418382 1.00238691300748939 0.4746065137084029)
(-0.513694572356228507 0.969820916198338989 0.481543992855704595)
(-0.48590299079419319 1.03018488069387804 0.48259425445633225)
(0.342462037981753897 2.14364070324713163 0.998089828257569645)
(0.344192343622284569 2.066222937094226 1.04066380974386785)
(0.420400336673501185 2.31462054262485006 1.02155605146765693)
(-0.195882071165558475 0.16198485734154569 0.0189215898766266211)
(-0.197160169927676071 0.159989175547604612 0.0218642146186068045)
(-0.201478286426869713 0.159864543860276515 0.0195666944250554656)
(-0.194104068938580648 0.159730592109286557 0.0251324000332267677)
(-0.191674103494548553 0.16523858579792744 0.0127062950961053054)
(-0.192595449838225213 0.163956666014954899 0.0155320821591393172)
(-0.196516961978602217 0.16381985701445137 0.0134894431360509832)
(-0.189737890373609941 0.163407241110096163 0.0181081501939476495)
(-0.18856921029767007 0.167152254348688023 0.00672941615554169086)
(-0.189122556099012323 0.166750591858529001 0.0096435976500786804)
(-0.192732856721230084 0.166617267467193492 0.00765306786046496875)
(-0.186277824513294943 0.165980651572100235 0.0118073404619062836)
(-0.186878176981909422 0.167785437324902864 0.000710429784250132118)
(-0.18698145838221647 0.168244467221454669 0.00384797683732872667)
(-0.190373006381181736 0.168174191407921891 0.0017579310453605492)
(-0.18392502145149317 0.167010788666045379 0.00575080391911586553)
(-0.186718048756010974 0.167453533679925048 -0.00538681589988057163)
(-0.186426441264916171 0.168672860703576871 -0.00200605851066884252)
(-0.189615481302571748 0.168751128021593172 -0.00429659867754997662)
(-0.18305909658292438 0.166737084856044798 -0.000338363102691689244)
(-0.187699792453403264 0.165956055162899879 -0.0116117851684624622)
(-0.187223440822682913 0.168242277743167024 -0.00789457011331399713)
(-0.190190731617876224 0.168454718117810764 -0.010456820121798582)
(-0.183493997893018262 0.165591000302064639 -0.00650340730655399324)
(-0.189672693529165604 0.16236387216835621 -0.0183665153999106878)
(-0.189039703435218559 0.166311968412653555 -0.0139905926165486815)
(-0.191857551285518402 0.166613443200122252 -0.0169710564813379018)
(-0.184691477372549567 0.163003270192235372 -0.0128209682560639863)
(-0.193127491561344761 0.155784142273264398 -0.0262693314716776274)
(-0.192269433845087656 0.161898344374305225 -0.0208429928456258032)
(-0.195060054606616906 0.162412084632426762 -0.0244618739360547947)
(-0.186822731951748644 0.157691944687391256 -0.019765996802867003)
(-0.198214669283523465 0.145260648730207526 -0.0359881689904218496)
(-0.197477097539630247 0.154282673830166112 -0.0290485592326379313)
(-0.200243944397467094 0.155265674511893187 -0.0335005746754068814)
(-0.190508621939579209 0.148821568268714982 -0.0279422520535782988)
(-0.203721064449930184 0.128907452792185739 -0.0484224105065942101)
(-0.203869037761194138 0.141972440198097627 -0.0394139858297394355)
(-0.206561156616056008 0.143611593878846727 -0.044920522667304813)
(-0.194572639151186472 0.135362115058997062 -0.0380805767916109275)
(-0.20627701226757067 0.106208621877777354 -0.0629537277536924844)
(-0.210952841515673228 0.122068136907259706 -0.0529895794234983356)
(-0.21374321317281994 0.124290425041915176 -0.0601411706834674362)
(-0.197405191452532935 0.115668290720521427 -0.0509231514602614607)
(-0.202278557051080082 0.0868864503225842966 -0.0692550089945906944)
(-0.219216726758665076 0.0960050398799004306 -0.0669702119668290907)
(-0.222004882675185422 0.0985173224634890293 -0.0770273491491257484)
(-0.198914594352340213 0.0920965620155885928 -0.0639275666609925852)
(-0.198551799257824457 0.182792899042244661 0.00067346286072776651)
(-0.209190049148991947 0.0844750101302701312 -0.0640260167228289684)
(-0.212087930543074399 0.0875309657096983024 -0.076512694961531999)
(-0.174013084483692515 0.0800395766098967593 -0.0589242799560289812)
(-0.212511602402098182 0.646992781421424135 0.268305551792140662)
(-0.187960090624217147 0.292784857047687364 0.0732408508583278356)
(-0.195582345143794523 0.281017820879189084 0.0625961269126871084)
(-0.100152572176380572 0.299265262286723899 0.0778374093771852654)
(-0.213902404570695787 1.55087901506257575 0.711518282531882318)
(-0.512618416208007743 1.00508347858704905 0.457276983901943712)
(-0.51603925183333188 0.972003160217112638 0.463735898083839415)
(-0.495043819844416866 1.0432064292812735 0.467740605835545775)
(0.24231058423584878 2.03090047029444243 0.911961172871766812)
(0.244294052009521562 1.95864157971108477 0.952347533439757088)
(0.326059355149546204 2.2159247305066998 0.940772523587911635)
(-0.193788762447941437 0.162084737167631693 0.0184747069011195024)
(-0.194723464954177333 0.159999675230863531 0.0214689269799548978)
(-0.199002337613664204 0.159964262508958815 0.0191246854838743249)
(-0.192487942317396965 0.159976108320968674 0.0241139070212901263)
(-0.19008509741289098 0.165626894702884636 0.0124693847131126922)
(-0.190620941427448093 0.164212414270513168 0.015344220129371056)
(-0.194508080651066367 0.164183255339400563 0.0132185746380929069)
(-0.188494461880383685 0.163826362534292586 0.0174361966245691509)
(-0.18759938418758601 0.168039528740463573 0.00676215833186563989)
(-0.187720050803692307 0.167412760234315783 0.00967424004998290732)
(-0.191278302245186882 0.167405232474238441 0.00759813612986781454)
(-0.185560786701771369 0.166675077518038645 0.0114075975165642621)
(-0.186511995016877569 0.169345804796218025 0.00113148854240972211)
(-0.186165526825008504 0.16952093045452582 0.00420488095304276995)
(-0.18946634398558318 0.169575582371509381 0.0020488506779732683)
(-0.183817845783642214 0.168260497283473337 0.00568216391387352682)
(-0.186902436348864887 0.169680192303700073 -0.00451381272410229621)
(-0.186119804445425169 0.170656269539615768 -0.00121755510618955232)
(-0.189196481766783914 0.170828619817162436 -0.00354766649801521294)
(-0.183513612320290037 0.168693000100414575 1.69421734942139241e-05)
(-0.188612710436150716 0.168832911823730836 -0.0102733775614001106)
(-0.18749528107410976 0.170872346314799833 -0.00664405726607821597)
(-0.190358117300392371 0.171172852175627443 -0.0092244761605187655)
(-0.184553230613382496 0.168142642951211146 -0.00568169801336515252)
(-0.19172418664466595 0.166119718718251597 -0.016467070062263698)
(-0.190225880275418341 0.169702102627248469 -0.0122369240718956766)
(-0.192921673218479861 0.170135908534193386 -0.0151946989601988922)
(-0.186687314856860936 0.166147086903744912 -0.0115247534842929326)
(-0.196704118861779492 0.160724144114017864 -0.0236222206065860654)
(-0.194753628210172752 0.166399519076681685 -0.0184087120618372825)
(-0.197347753752788596 0.167076070115943609 -0.021921425008376072)
(-0.190218239432162373 0.161753153441292763 -0.017895176359455145)
(-0.203884173663665735 0.151394688107692771 -0.0324743760719555172)
(-0.201631467192815411 0.16015964157706683 -0.0257184365039288786)
(-0.204113451676030205 0.16128068224760253 -0.0299589470199584651)
(-0.19564524754594842 0.154045251535485955 -0.0253833935107106619)
(-0.21290807466430281 0.135711071419920032 -0.0439811547466436789)
(-0.210707481511134664 0.149165113858327508 -0.0350425502613721102)
(-0.213052456997470607 0.15092819050191239 -0.0402380264460818274)
(-0.202289780783739048 0.141444855035159189 -0.0348790336755383165)
(-0.222205847061609923 0.113009291206775636 -0.0570060636366351223)
(-0.222491455749066119 0.130094364112616823 -0.0473296103794555792)
(-0.224871100830157683 0.132588157275992213 -0.0540428684289099154)
(-0.209604362195381477 0.121462591962213734 -0.0472971083736566239)
(-0.231306516511639776 0.095698428395863594 -0.0617412196950674133)
(-0.239039654217583719 0.104939741848352683 -0.059054628462506073)
(-0.24127950235489648 0.107892741935749395 -0.0682598867330466846)
(-0.218603173924584004 0.0965199075294019548 -0.0595047934920068661)
(-0.250650572199707211 0.196443801316414202 0.00854137127477289093)
(-0.250246826593347627 0.098933018641583173 -0.0531270339818606246)
(-0.251668969275981091 0.102172472894698621 -0.0640264866041061198)
(-0.210888686589630531 0.0867962879462946257 -0.0544652567741861007)
(-0.284665650963404904 0.653348947870165175 0.262212282968128874)
(-0.272692589886456616 0.3134797808717249 0.0837392261308764624)
(-0.275320210508881669 0.301361151636868885 0.0737129134535822322)
(-0.188743916623979047 0.311145455577263863 0.0810873408218488606)
(-0.255654128996808838 1.48804682213048256 0.657719874241839975)
(-0.51526447638006434 0.993465433392552999 0.434919730981757346)
(-0.516622975070500035 0.961306524054439393 0.441368195505707384)
(-0.502212910803119028 1.04387601608888181 0.447148434515966531)
(0.142430761632051484 1.90276470172450041 0.823061722292772524)
(0.144509652020681223 1.8352806781946347 0.859543272680370118)
(0.226540197984439085 2.09822888522059303 0.858929939330781655)
(-0.20992974116114807 0.145191426731185402 0.0389258728743202276)
(-0.21244835394142178 0.141238139703072557 0.0425090777452466692)
(-0.217826251843013546 0.141416462361938999 0.0384855670099363695)
(-0.210487310057647758 0.142212322710970673 0.0471876079583687658)
(-0.202052390638577772 0.151817383230315739 0.0315532120748289943)
(-0.203854458741756228 0.148480683445021022 0.0349423007948229669)
(-0.208911622876008424 0.14854310395057474 0.0316876377111948368)
(-0.201746724897263002 0.149244164874277524 0.0386709849351085169)
(-0.195985073177447261 0.1574721556341106 0.0246592247663882311)
(-0.197165777559834887 0.154710955668435152 0.0278352023681099625)
(-0.201834593541989155 0.154735852504105625 0.0251334436477540016)
(-0.195063722555487207 0.155147928297041798 0.0307722990646547463)
(-0.191460570497987981 0.162254851588008037 0.0183384402082064218)
(-0.192127891201490791 0.160053085732857203 0.0213101504626706933)
(-0.196383594793181682 0.160086456806645239 0.0189702306633997286)
(-0.190141274280466815 0.160094113875417415 0.0236041603513126794)
(-0.188243038072038849 0.166148489063077553 0.0125490754662412971)
(-0.188473062069719061 0.164576187847421535 0.0153913150244793292)
(-0.19233236519524391 0.164625906640192582 0.0132519321752613255)
(-0.186600440759920855 0.16422785024273337 0.0171994163614818743)
(-0.186289092757921798 0.169071332262701712 0.00711696267115991769)
(-0.18607232710322541 0.168212030187910699 0.00995674846980718238)
(-0.18958944149371168 0.168290177817206899 0.00787020875115894934)
(-0.184201175712410153 0.167448039774895419 0.0114248566026330881)
(-0.185720401943790026 0.171026603649197612 0.00185583730444354431)
(-0.185014369397898643 0.170915546705831201 0.00480722649077275528)
(-0.188252009644679696 0.171053816485570831 0.00265795161490207888)
(-0.183023291357904572 0.16960207327767568 0.00601139178668266046)
(-0.186635327451806554 0.17205452337851404 -0.0033477996481654955)
(-0.185433940745904247 0.172741630847872224 -0.000203938358730119257)
(-0.188431198485636969 0.172980243713915016 -0.00250302278026091072)
(-0.183254213305805824 0.17072171048557544 0.00074200169409071909)
(-0.189052397666941152 0.171966935279948524 -0.00860760377657375508)
(-0.18736651445778138 0.17367852195600092 -0.00515737904086991522)
(-0.190142352278669047 0.174039354294559023 -0.00768431522249109558)
(-0.184906781904370876 0.170843029487334153 -0.0044964385315127359)
(-0.193189232170667274 0.170246696696790989 -0.0141785660714692612)
(-0.190920594475035288 0.173387165774509883 -0.0101935775136417616)
(-0.193504353263469514 0.173896406979782092 -0.0130596059674995633)
(-0.18795649573853726 0.169599803098352014 -0.00982623339721110794)
(-0.199566110084850368 0.1661598852423464 -0.0205049279591799777)
(-0.196575622697985924 0.171292335058850748 -0.0156247773126494283)
(-0.198998385105843723 0.172046246427324495 -0.0189749772813534272)
(-0.192780171472376444 0.166253593848089798 -0.0155635869646136259)
(-0.208779573359040266 0.158350423989528893 -0.028286610693345534)
(-0.204997356193776903 0.166595255078003796 -0.0219367396625944899)
(-0.207232193264739961 0.167768010728783334 -0.0259210813270712263)
(-0.199933569519279181 0.159878190121078734 -0.0222630890589809657)
(-0.221318507041488088 0.144199256999095415 -0.0383910058941842394)
(-0.216625370922889027 0.157396802636878053 -0.0299228991647398843)
(-0.21863319544141982 0.159203461390787643 -0.0347483910616088812)
(-0.209326678069928024 0.148604574490559027 -0.0308288640798982383)
(-0.237684433357071623 0.123265629001268404 -0.0493781752053265369)
(-0.232905219634542138 0.140438381536902218 -0.0402574427707991234)
(-0.2348133666833086 0.143018042251963462 -0.0463651773110847279)
(-0.221355244593065326 0.129388926611443578 -0.0420537083802015807)
(-0.260742704065150988 0.1102274194070747 -0.050440442749299326)
(-0.257885894428244444 0.118870495554724495 -0.0489818899878482483)
(-0.259538214911525733 0.121618743053867231 -0.0569849967720956196)
(-0.238524911665690148 0.105300601821635503 -0.0521934853370978821)
(-0.303342152480471916 0.219532611316910931 0.0220708208742441542)
(-0.290082172406791683 0.121508384937939473 -0.0385180874718786953)
(-0.290624421994226056 0.123205655680018067 -0.0475397955565050392)
(-0.252298975390058189 0.1008694094929483 -0.044994917934721837)
(-0.352089766042095798 0.659053660227800209 0.256446674144504005)
(-0.343416076975812001 0.33860406012092592 0.0952553498036873281)
(-0.3443034090578595 0.329590299924609587 0.0882878166084627714)
(-0.275916690043233492 0.334358102045714145 0.0897907931546747667)
(-0.292824430772548938 1.41040786211989277 0.600261579032696946)
(-0.516584324400850892 0.967059391624185416 0.406617841987733264)
(-0.51478151013611595 0.939394436289027523 0.4154248552405993)
(-0.508393191779274445 1.03139506252101598 0.421882934541829846)
(0.0483814921702717324 1.76107409159911854 0.734985699418950644)
(0.0505038450469326855 1.69885532417460894 0.765686909199440935)
(0.128724706783227977 1.9621909853027546 0.775133905804425427)
(-0.206100823936490596 0.14462804522063219 0.0385255056657494988)
(-0.208291859070508761 0.14064555716429808 0.0421214634204749375)
(-0.213802949692090821 0.140780948076139639 0.0382250573817627046)
(-0.206270000567698453 0.141497724092521149 0.0464337068868890326)
(-0.198746519106442698 0.151481121175056521 0.0312242910881038969)
(-0.200232819513696647 0.148080570938796507 0.0345767937391506242)
(-0.205375866295899046 0.148135268821107641 0.0314250352947079981)
(-0.198171888608418972 0.148749860169580306 0.0379837858391431082)
(-0.19313927427051561 0.157398812951829087 0.0244861280643924525)
(-0.194016299292351591 0.154547998752938343 0.0275908487922362222)
(-0.198737237349242646 0.154585595179948909 0.0249735168918663493)
(-0.192045750332710818 0.154931066080715107 0.0302571098646827429)
(-0.189033865363058023 0.162483777624235548 0.0183630252789435712)
(-0.189394835108872311 0.160172810412218952 0.0212478853988898389)
(-0.193685421019180098 0.16022344207613351 0.0189791134433768133)
(-0.187586237310366666 0.16018938858511883 0.0233249497515143969)
(-0.186250644148347438 0.166760154249684683 0.0127989880280451641)
(-0.186150719205396331 0.165036040456349092 0.0155376464746875727)
(-0.190035581604985959 0.165107758242362235 0.0134618338541198316)
(-0.184485718949072702 0.164655309964076929 0.017167706587187366)
(-0.18475208298175097 0.170192856734251996 0.00764701228941986125)
(-0.184183499141876206 0.169118753517473575 0.0103481097777254165)
(-0.187713133837786622 0.169221536605580841 0.0083315237930601839)
(-0.182568877240187027 0.168289787451864153 0.0116475165456678426)
(-0.18463656002292414 0.172781518040354187 0.00274745082759909453)
(-0.183554504102798555 0.172403884131442836 0.00551516730885168432)
(-0.186786788640595058 0.172560070514959335 0.00345203052743180356)
(-0.181890220329989777 0.171007109962509424 0.00654131769519676522)
(-0.186034613236580909 0.174528409654427924 -0.00201351775143451643)
(-0.184396310811164643 0.174918392480172352 0.000906803203923537641)
(-0.18737092764054436 0.175158356811651372 -0.00128515805315572613)
(-0.18261373755781779 0.172806216135110435 0.00166008709216414478)
(-0.189083957147255344 0.175279351563847802 -0.00674335277793792001)
(-0.186832963866366747 0.176632625387080217 -0.00356176945753436044)
(-0.189569451137261757 0.176982214031729868 -0.00595990752239553782)
(-0.184844470992611642 0.173664249024413575 -0.00310973183613708157)
(-0.19410234761358236 0.17464494852278839 -0.0116397887548219444)
(-0.191088733402793365 0.177306707786372197 -0.00800327506149212803)
(-0.193602731812254542 0.177798993995003901 -0.0107049319898615391)
(-0.18871766278485988 0.173293501186885829 -0.00788658671679813746)
(-0.201696712427472585 0.171992156798776802 -0.0170565890160637862)
(-0.197692959252960487 0.176509578169649434 -0.0126440570843875579)
(-0.199989945452995282 0.177225577427805064 -0.0157684336626723008)
(-0.194682372186210789 0.17111777413346238 -0.0129275417967471117)
(-0.212730137846485839 0.165995486704848427 -0.0235730281339888402)
(-0.207455351932149396 0.173524054405756717 -0.0178616011000460768)
(-0.209482347754477938 0.174609921080625813 -0.0215374883006596851)
(-0.203427952269076562 0.166261941725324769 -0.018714340898778891)
(-0.228489487275799957 0.154147500803987508 -0.0317893360413549486)
(-0.221332238561458228 0.166592269381477115 -0.0242494725412359738)
(-0.222993234428132209 0.168230151154629859 -0.0286583086256867944)
(-0.215427722926507054 0.156776504751841239 -0.0260322428801102942)
(-0.251414102676388695 0.136811917356105955 -0.0398611575533207932)
(-0.241583232363606543 0.152970617906177914 -0.0320488518084003637)
(-0.242953580545108266 0.155262779317468264 -0.037516595938970769)
(-0.231997322089373986 0.139525475165959867 -0.0353854550854008285)
(-0.286824304459829482 0.131707532131030119 -0.0370595347104277634)
(-0.273806483174301563 0.137148551286996823 -0.037076355983349879)
(-0.275024334359793454 0.139563443256165515 -0.0438652846751601336)
(-0.257552530277333491 0.118504003411135678 -0.0427271120784114278)
(-0.347023991599749337 0.245155129265950983 0.0346664414575661578)
(-0.321816134730306069 0.150623260833296246 -0.0233208308582776094)
(-0.322320856979726178 0.151464243485939259 -0.0302009209057034038)
(-0.291998123885369054 0.124983183489100286 -0.0321742530307365798)
(-0.400898730793603442 0.65259483026602727 0.245426517646920195)
(-0.391004984139792788 0.365012420982995578 0.10269215029516289)
(-0.39152276151034815 0.35346364074211567 0.0991859333376143015)
(-0.346084773342672458 0.358152082009840667 0.0981294966949831371)
(-0.325608885273838022 1.31818580473761249 0.541341962373985242)
(-0.510456871508871313 0.933463254971265033 0.374950942092276196)
(-0.508076013149118655 0.902742725524025236 0.384199888711984183)
(-0.512369319274080359 1.00158648449877408 0.392301095478806372)
(-0.0340630530331781575 1.60645527526078991 0.651673381687839059)
(-0.031184805227315246 1.55207732740748594 0.676560992767231806)
(0.036403533571085965 1.81290339627378994 0.692934755905886934)
(-0.222120178731489232 0.126996626045648014 0.0539643312579857967)
(-0.231792268409682811 0.122233405912487575 0.0520748438415402359)
(-0.224208270776856733 0.122637742613667902 0.0643677868916269214)
(-0.225988414031620899 0.121799718621404443 0.0579528400586526646)
(-0.210989299540104314 0.136122947115757092 0.0459269966690168258)
(-0.219590916122714613 0.131742785894018388 0.0450483166723036899)
(-0.211691318881669949 0.132353919279837834 0.0549040554301132716)
(-0.213897105693271167 0.131527808804289631 0.0497808028587491819)
(-0.202153017439460764 0.144173688429607594 0.0381727514938761323)
(-0.20963958655917897 0.140230065420102801 0.0379908483091338164)
(-0.201939278075502965 0.140910094820236309 0.0458130731129220287)
(-0.204241645178613929 0.140136367620114693 0.0417909896192083311)
(-0.195281949176626696 0.151238148135269423 0.0309433514432829841)
(-0.201669988456867955 0.147792343338903592 0.0312074543641436414)
(-0.194447262977003904 0.148369974633165203 0.0374080455212588286)
(-0.196665907820694347 0.147743986668182031 0.0342924218552027801)
(-0.190103918437196706 0.157418631640949519 0.0243526061267336918)
(-0.195450294335436675 0.154489126957990247 0.0248632516839782762)
(-0.188843049180118627 0.154809959725242891 0.0298252916934347266)
(-0.190879370605823467 0.154439768367181457 0.0274343048062112953)
(-0.186393219506257285 0.162824691849071002 0.0184225065946337363)
(-0.190777264890381826 0.160423516902604507 0.0190364202321692752)
(-0.184822596520187538 0.160380316578219106 0.0231006571474449973)
(-0.186638951443620138 0.160349466817335806 0.0212728516122808534)
(-0.184001518089181415 0.167504872296979052 0.0130867682243678216)
(-0.187494634850209618 0.165670560955481855 0.013725476803619692)
(-0.18213341674474931 0.165202519097451817 0.0171760169625666502)
(-0.183756918521695678 0.165564218337441699 0.0157769277133786787)
(-0.182901493011555644 0.171458036804397917 0.00821626479715717277)
(-0.185542146081545428 0.170245383323394728 0.00885127663076309447)
(-0.180646736852060119 0.169279245060447558 0.0119091166111195048)