/*--------------------------------*- C++ -*----------------------------------*\
| =========                 |                                                 |
| \\      /  F ield         | OpenFOAM: The Open Source CFD Toolbox           |
|  \\    /   O peration     | Version:  2206                                  |
|   \\  /    A nd           | Website:  www.openfoam.com                      |
|    \\/     M anipulation  |                                                 |
\*---------------------------------------------------------------------------*/
FoamFile
{
    version     2.0;
    format      ascii;
    arch        "LSB;label=32;scalar=64";
    class       surfaceScalarField;
    location    "0.0599999999999999978";
    object      alphaPhi0.water;
}
// * * * * * * * * * * * * * * * * * * * * * * * * * * * * * * * * * * * * * //

dimensions      [0 3 -1 0 0 0 0];

oriented        oriented;

internalField   nonuniform List<scalar> 
20789
(
1.33194429999521164e-05
-1.33161737624604098e-05
-3.66420308612128715e-07
3.63151071123314272e-07
2.74055826619149111e-05
-1.40838974753553331e-05
-3.86473330523986547e-07
3.84231143921016521e-07
4.18687820923837952e-05
-1.44597136177905854e-05
-4.08366819528821408e-07
4.04881006857184802e-07
5.71883991428865301e-05
-1.53142745904203236e-05
-4.35915168173583464e-07
4.30572708100555675e-07
7.37309501442006771e-05
-1.65345413749696996e-05
-4.67767572231348249e-07
4.59757945901309434e-07
9.20364421043708646e-05
-1.8294086423008308e-05
-5.00240896596740752e-07
4.88835359462602519e-07
0.00011280803726165857
-2.07563994794775287e-05
-5.20802736954488636e-07
5.05607059205454152e-07
0.000136803891159451908
-2.39757499031046197e-05
-5.06166743593459635e-07
4.86062749076543369e-07
0.000165644008403550969
-2.8806091568525025e-05
-3.94460104209639284e-07
3.60434429212009095e-07
0.000201727660869064322
-3.59889853324479053e-05
-9.8241304629180365e-08
3.57417381031474728e-09
0.000243700674463055678
-4.16930212590294104e-05
7.9712095747613613e-07
-1.07711328195306223e-06
0.000235311233096215599
-7.12524558875815388e-05
3.74148569577641282e-06
-5.88417686372999158e-06
0.000106448703667392131
-5.26142328892318536e-05
1.82976069695974294e-06
-8.35947674171714085e-06
8.73431845030241534e-05
-8.49298730773515986e-06
-2.84206219213081528e-06
1.21069230377397724e-06
5.48294576960238218e-05
5.86297594210240607e-06
-8.77754681163385922e-06
1.35862107805020663e-05
1.46855812658329542e-05
-1.86702942080681819e-05
3.87146804330425881e-05
1.33299077218481523e-05
-2.66426606597525384e-05
-3.77348806401336688e-07
3.73927981860499443e-07
2.72284694653941049e-05
-2.79795476264893056e-05
-3.95490365034613634e-07
3.92578772637610646e-07
4.14520755498722822e-05
-2.86787391421579906e-05
-4.14174581758243834e-07
4.09594021661094371e-07
5.65363584498283948e-05
-3.03916639005952836e-05
-4.38669425271686111e-07
4.31775835507587509e-07
7.28951730806908378e-05
-3.2883401422720839e-05
-4.66626677043961493e-07
4.56672093953861108e-07
9.09636024601036313e-05
-3.63479642500923796e-05
-4.93246457271880912e-07
4.78694904957142051e-07
0.000111313201195564965
-4.1085976246658102e-05
-5.05302891885536905e-07
4.85280923716289681e-07
0.000134945050402288276
-4.75793672837709013e-05
-4.78889636033191382e-07
4.50657810551316206e-07
0.00016273861486565172
-5.65534863367971404e-05
-3.44510015778314707e-07
2.98340322933551976e-07
0.000198289257818555715
-7.14365055699403621e-05
-2.24573438382312797e-08
-8.06653610886684551e-08
0.000240205006224785398
-8.3254917974868279e-05
9.69791766368732928e-07
-1.32364341301848856e-06
0.000205444915072615494
-0.000129117003367058521
3.5925942247115292e-06
-5.54504806130011989e-06
7.50184442092374467e-05
-7.5867839755152782e-05
9.73610595318375421e-07
-2.79842446361433317e-06
6.24586593019855552e-05
-2.26459383024555332e-05
-4.77437327677913608e-06
5.70034077388198054e-06
4.08199698780975425e-05
3.19702828831876874e-06
-1.14227556745409323e-05
1.57353167573405458e-05
2.08527781238866775e-05
-2.32738781991458763e-05
4.06472478157151928e-05
1.32911913851596076e-05
-3.99297841775181985e-05
-3.89227203025525778e-07
3.85159335927385681e-07
2.69916166007602774e-05
-4.16762468817160649e-05
-4.05443283997957444e-07
4.01717323928747384e-07
4.1121092442068494e-05
-4.28023183428942694e-05
-4.21917507427960397e-07
4.16020867152219243e-07
5.60799460153569418e-05
-4.53419618751512771e-05
-4.43872105314097846e-07
4.35316506916320283e-07
7.22585640948462038e-05
-4.90500045004923246e-05
-4.68336366170780923e-07
4.56321364781201411e-07
9.0086741604479545e-05
-5.41586832317748931e-05
-4.90014208206632255e-07
4.72555680863343881e-07
0.000110114569912365235
-6.10895328475479697e-05
-4.94440234753081245e-07
4.70168529480527288e-07
0.000133186235528150404
-7.06175747116457371e-05
-4.56398111344866778e-07
4.22939930694315354e-07
0.000160090939479022999
-8.34090686666479162e-05
-2.85464629735707486e-07
2.36343037036088887e-07
0.000193073744426915849
-0.000104294609416867354
2.87019895532694979e-08
-1.53402970769230361e-07
0.000232683328824552326
-0.000122612012753106918
1.56941741459977939e-06
-1.82190658972958246e-06
0.000171694972285340279
-0.00017779774118845205
3.0614911749433497e-06
-4.08734379952613704e-06
6.20262999651401077e-05
-7.90951697878245749e-05
9.56251492912354e-08
-5.35361966960180967e-08
4.81234194552614518e-05
-3.21705359028642859e-05
-5.84381123097570417e-06
6.7804402617928031e-06
2.85391999372192286e-05
1.80557126694005228e-06
-1.15413597613983742e-05
1.53439223698170318e-05
2.07180412785865505e-05
-2.22946823873431279e-05
3.64109409978070718e-05
1.31790036099321337e-05
-5.31039453451030301e-05
-4.02581823754369546e-07
3.97739383631932688e-07
2.66572556059345293e-05
-5.51497140088223121e-05
-4.17424232852379142e-07
4.12639366227323947e-07
4.06176050771557594e-05
-5.67554910282224578e-05
-4.31826632799930591e-07
4.24649849141317193e-07
5.5372034051853884e-05
-6.0086434473686053e-05
-4.51298908582744672e-07
4.41342534687040005e-07
7.12807254053011573e-05
-6.49448318131377449e-05
-4.72401553027575624e-07
4.58537516068957658e-07
8.87492054628137957e-05
-7.1606941781364515e-05
-4.89988549218206738e-07
4.69767048028997315e-07
0.000108286166900603594
-8.05988951688445168e-05
-4.87283831831220622e-07
4.59684737485228358e-07
0.000130572415602059518
-9.28673282494363436e-05
-4.39106873491593099e-07
4.02611777259886931e-07
0.00015630044336214751
-0.00010910160668595779
-2.31490841660349265e-07
1.96001334317260667e-07
0.000186957318908552336
-0.000134809825346484736
6.59331483236506073e-08
-2.07591895074593731e-07
0.000222899984262972918
-0.000158568923264298446
2.29654646788207814e-06
-2.28229834331801912e-06
0.000138771243047714973
-0.000216328202803603127
2.5804367876208142e-06
-2.41408159925449502e-06
5.18859515750574613e-05
-8.02829949109512602e-05
-2.77996318018838501e-07
5.55931061928217627e-07
3.71947309617936265e-05
-3.74477816866022428e-05
-6.1992285650838165e-06
6.83437413620710923e-06
1.98612899360305828e-05
5.40293200993880022e-07
-1.11690974392695683e-05
1.47345121439263159e-05
1.71766496666820703e-05
-2.06938300747938295e-05
3.21746590996023569e-05
1.2997115335137968e-05
-6.60952712121114813e-05
-4.18107775929939426e-07
4.12318320714339912e-07
2.62311088874623674e-05
-6.83777707080827208e-05
-4.31892392788662987e-07
4.25955551627307087e-07
3.99545583107814133e-05
-7.04705458782710196e-05
-4.44352820006031501e-07
4.35958260831392148e-07
5.44319595589697113e-05
-7.45526988313677605e-05
-4.61416588967029322e-07
4.5027971555876027e-07
6.99878310214417437e-05
-8.04854759125795809e-05
-4.79326549719582408e-07
4.64099218722308671e-07
8.69916859043742401e-05
-8.85890254266619848e-05
-4.92673487749003733e-07
4.70902307508315925e-07
0.000105899026996525766
-9.94764193591947437e-05
-4.84681629047607119e-07
4.54864874177993263e-07
0.000127236455729299322
-0.000114168415378384732
-4.2890761015521567e-07
3.92566455882606987e-07
0.000151787799970736127
-0.000133647997471402082
-1.8785583577156768e-07
1.82903748037328921e-07
0.000180114448713618525
-0.00016297890245780587
6.51765131848714081e-08
-2.2274365975984375e-07
0.000211966380091641819
-0.000190959382359419692
3.00933165712801134e-06
-2.4707898856886405e-06
0.000109501285810127268
-0.000244565182281345482
2.83816319166239351e-06
-4.35350979780201355e-07
4.4755472737857277e-05
-8.001694724092822e-05
-6.92003654872467993e-07
1.32832115074781142e-06
2.92504436550168576e-05
-3.88509086609760342e-05
-6.50502095600726222e-06
7.03104030169623617e-06
1.44789271844969084e-05
-1.00672429903408586e-06
-1.04111843210484187e-05
1.3337326008921403e-05
1.35415598540933722e-05
-1.85077098354620879e-05
2.68668022256185389e-05
1.27586759008114048e-05
-7.88470113412015501e-05
-4.36423970822190729e-07
4.29488278563147595e-07
2.57126340643914055e-05
-8.13245874055813794e-05
-4.49337194543676367e-07
4.42195797831282611e-07
3.91406407864774492e-05
-8.38889590697185743e-05
-4.59931898093024407e-07
4.50338455918508977e-07
5.32748781706381689e-05
-8.86747860550264741e-05
-4.74593447722586999e-07
4.6244339416755575e-07
6.84027675080321182e-05
-9.55971759663254813e-05
-4.89404021566656151e-07
4.73214939033813194e-07
8.48510427485598914e-05
-0.0001050149678666393
-4.98809079321704489e-07
4.76476631183855539e-07
0.000103006635759697081
-0.000117601793095205599
-4.86880978937854126e-07
4.56662564902127938e-07
0.00012330045643074307
-0.000134427719373222753
-4.27061252716057728e-07
3.92546754810463923e-07
0.000146587653828013782
-0.000156933585887345797
-1.75122228103030869e-07
1.73519634964610971e-07
0.000172265390599440221
-0.000188532509089079205
3.61445140199007886e-08
-1.60256165767019825e-07
0.000199940455203942506
-0.000220120494068041741
3.80314811666289445e-06
-2.31704769640478584e-06
8.22098412434999349e-05
-0.000261174234387531387
2.56414919974307363e-06
1.96102017539973684e-06
3.82133246853293105e-05
-7.67194874912004241e-05
-1.27955526911775097e-06
2.80898432785542124e-06
2.24576806828130679e-05
-3.64088373785763451e-05
-6.58623448837381882e-06
6.66482170856349427e-06
1.08637708850597093e-05
-1.87887751010062335e-06
-9.24019162862693035e-06
1.10081298107827389e-05
1.1111550779145078e-05
-1.62935578433094667e-05
2.14414696289895903e-05
1.247146809113631e-05
-9.13101319011216895e-05
-4.58125004464016582e-07
4.4977791647557036e-07
2.51055969183575342e-05
-9.39503112567721265e-05
-4.70243771869088655e-07
4.61839170203158435e-07
3.81861249065538872e-05
-9.69585575812805336e-05
-4.79040474570472408e-07
4.6811147451398269e-07
5.19180462047171221e-05
-0.000102393593782376682
-4.91179615792673881e-07
4.78066600298608965e-07
6.65519113795610598e-05
-0.00011021423167582437
-5.02845700639641852e-07
4.8603727316313133e-07
8.23677260793843262e-05
-0.000120808853488326847
-5.08817236263667756e-07
4.8688989022536488e-07
9.96785517000512881e-05
-0.000134884519467285855
-4.93624340780311437e-07
4.65529209956289877e-07
0.000118817217010041485
-0.000153537798398653075
-4.31578039540246757e-07
4.03001097084502182e-07
0.000139982930025917229
-0.000178146304121442695
-1.71264037165803992e-07
2.182937692653585e-07
0.000163460950008976905
-0.000211925814978402731
-2.17095543935284242e-08
-6.29396827921022958e-08
0.000187368695617195748
-0.000246719194135127089
4.59109596929171652e-06
-1.89996848933196064e-06
6.10897504364830393e-05
-0.000269939717467580591
2.14569326655862117e-06
4.83260005942117147e-06
3.11669587164387221e-05
-7.11034710307931596e-05
-1.59135917909015667e-06
3.85000016185045966e-06
1.68720082707092013e-05
-3.21040540216481468e-05
-6.2157866238798285e-06
5.56869066386837082e-06
8.13108953812888021e-06
-1.99600273542579912e-06
-7.88264757650818454e-06
8.45968431729252394e-06
9.39415431994567055e-06
-1.40788822682730839e-05
1.64784855124146453e-05
1.21413834082746024e-05
-0.000103441554402771536
-4.83633160198652015e-07
4.73674394501254018e-07
2.44160451506222357e-05
-0.000106215206969430078
-4.95121786049351074e-07
4.85357509219442695e-07
3.71022951747732531e-05
-0.000109632148391342762
-5.02253102067010329e-07
4.89596115617440782e-07
5.03800619350722666e-05
-0.000115657222201878568
-5.11537577833286064e-07
4.97401728700497957e-07
6.44635329883756796e-05
-0.000124280530342317313
-5.19849669091732772e-07
5.0268191025498772e-07
7.95839322203576436e-05
-0.000135909689303545614
-5.22358711458156954e-07
5.0280258080741734e-07
9.59844930913142884e-05
-0.000151259770827134621
-5.06262493171470728e-07
4.80969822463836871e-07
0.000113879450973501041
-0.000171419025209734168
-4.38794844399556634e-07
4.25098715791940137e-07
0.000133448098342451899
-0.000197839285569107614
-1.60484983525930316e-07
2.84902771304926948e-07
0.000154673783845475155
-0.000233070641613944093
-9.78472060345780244e-08
1.71882758437339588e-08
0.000174196320214062213
-0.000270404733090668595
5.17617346712958258e-06
-1.01267130113205882e-06
4.59436102319161292e-05
-0.000273955584694077865
2.01512083378072388e-06
6.84828729986933355e-06
2.43856512828713574e-05
-6.40374404168931374e-05
-1.57738954418923108e-06
3.17648392887124256e-06
1.19996366386993777e-05
-2.70323264645803935e-05
-5.11443941001074305e-06
4.22323519490397224e-06
5.9568941470440954e-06
-1.55540206130018607e-06
-6.98699241398071389e-06
6.3537586312703471e-06
8.50284747472002309e-06
-1.19442597113083922e-05
1.23324337003478008e-05
1.17736193600005414e-05
-0.000115203123862953722
-5.1358301594396417e-07
5.01542321839455793e-07
2.36513760656716566e-05
-0.000118081822319082128
-5.24466993448713939e-07
5.13332949616748097e-07
3.59012671225798953e-05
-0.000121866922856859726
-5.30300511038122919e-07
5.15193201572023863e-07
4.86804620002287042e-05
-0.000128421196571194986
-5.36049922105652399e-07
5.20839357657493755e-07
6.21666683612674003e-05
-0.000137749388640923993
-5.4062510901684461e-07
5.23295430869556162e-07
7.65443033693194837e-05
-0.000150270101435543351
-5.39276189855122418e-07
5.22080484367245093e-07
9.19851042840401785e-05
-0.000166683424502682751
-5.19196287578612886e-07
5.02110244407217044e-07
0.000108595579359598287
-0.000188039208995081908
-4.46310547884013456e-07
4.5613585511258556e-07
0.000126293252605793032
-0.000215774274013735541
-1.37141799114907679e-07
3.74715162560363999e-07
0.000145540537378602248
-0.000252195168366588934
-1.51938036508577632e-07
2.97407036123467786e-08
0.000160716312960804201
-0.000291004861949472281
5.50531259211031205e-06
-7.96437367410495944e-08
3.55763745572775138e-05
-0.000271330775727662247
1.61630439396576181e-06
7.56419978999020302e-06
1.80470015267369026e-05
-5.78354191657250697e-05
-1.1921795823297667e-06
2.50459385627372152e-06
7.61754539457170789e-06
-2.18618813466181839e-05
-3.94582086886006739e-06
3.0975941749533352e-06
3.84270100316529764e-06
-1.20945294243971682e-06
-5.93905832680558534e-06
4.72440634159720318e-06
7.97075290529528218e-06
-1.02966578284783567e-05
9.10820777664637395e-06
1.1373317031154119e-05
-0.000126561717546604243
-5.49019174515360094e-07
5.34331764333306658e-07
2.28198314155942925e-05
-0.000129516108138790197
-5.58887521140263049e-07
5.46686674264974179e-07
3.45955208975329219e-05
-0.000133623811297924218
-5.64216705742965279e-07
5.45450829532892402e-07
4.68391948549255128e-05
-0.000140648780141605938
-5.65100765866232769e-07
5.49046380560325166e-07
5.96905302812215005e-05
-0.00015058325752694102
-5.65422056403049283e-07
5.48021979608653403e-07
7.32913300458899644e-05
-0.000163859586012001949
-5.59530882701444611e-07
5.48307566476132601e-07
8.7741789475559361e-05
-0.000181123537050198875
-5.3936713999892405e-07
5.29222765755076875e-07
0.00010306243607734868
-0.000203394860058083831
-4.59225821844281041e-07
4.94585040530691067e-07
0.000119079790334377386
-0.000232103170828792488
-1.30978873902986184e-07
4.43253586275532552e-07
0.000136202665972173358
-0.000269152305402059098
-2.12213940075438254e-07
4.79286598221719338e-08
0.000147484964263155271
-0.000308586528822194981
5.53831005188677332e-06
7.64277216642497861e-07
2.73878151611213095e-05
-0.000264003289841821347
1.19117874139179974e-06
7.28977150614353126e-06
1.2930217985501484e-05
-5.26849248209758624e-05
-4.52768610322686609e-08
1.77040041280578396e-06
4.37815004460988269e-06
-1.73206279455313851e-05
-2.88332873914342317e-06
2.33592791399129651e-06
2.41180465122337314e-06
-9.92804793403825888e-07
-5.36911948790646252e-06
3.49726541445687143e-06
7.81884998360453096e-06
-7.83368806483904369e-06
6.57567307610084833e-06
1.09457060261687261e-05
-0.000137489945077720886
-5.9062607494249466e-07
5.73276906790412986e-07
2.19299635728275254e-05
-0.000140487667359184338
-5.99130593625112776e-07
5.86529147408214904e-07
3.31973917128513787e-05
-0.000144866720095097786
-6.05346840150821339e-07
5.80950473944422618e-07
4.48762012229288719e-05
-0.000152311207245481301
-5.99153073127769777e-07
5.82890803170738286e-07
5.70629994347435934e-05
-0.000162752191569559264
-5.94587605321286294e-07
5.76945639886313039e-07
6.98660795812118036e-05
-0.000176661361061309399
-5.82931383830503503e-07
5.81912718982635789e-07
8.33104118362829857e-05
-0.00019456218950809014
-5.66302161663607207e-07
5.61243435863618205e-07
9.73499042552500299e-05
-0.000217501592352203112
-4.71825405936636928e-07
5.40064962038651364e-07
0.00011168946983010228
-0.000246794782452504368
-1.41989461942898647e-07
4.95973588347816933e-07
0.000126687339444525089
-0.000283985225677142608
-2.86306017016685628e-07
1.24884548395752981e-07
0.000134904023432778349
-0.000323427057498991508
5.31541093260592356e-06
1.31585581799707816e-06
2.18304179732392505e-05
-0.000256418278171017264
9.89453081912507074e-07
6.34120470111338506e-06
9.08735491776314054e-06
-4.77113093514719877e-05
8.84607476135360081e-07
1.39490022846172948e-06
2.02937144113056426e-06
-1.3781211678571226e-05
-1.97909857427411717e-06
1.96937601899950796e-06
1.5126505001110521e-06
-1.08269190282075447e-06
-4.92960536164397084e-06
2.73911581826662199e-06
8.17288358089729702e-06
-6.63343217763986566e-06
4.73639292023692933e-06
1.04961242716661921e-05
-0.000147966739743039718
-6.39557761966739106e-07
6.20662570051665945e-07
2.09911646631952793e-05
-0.000150970858041267215
-6.4673570726842413e-07
6.35201940942826252e-07
3.17182457393772692e-05
-0.000155559484438031945
-6.56414239038764632e-07
6.2249951378900717e-07
4.28107516950024318e-05
-0.000163388641859423564
-6.38831139314190685e-07
6.24133929124829392e-07
5.43102458023220661e-05
-0.000174232056996004699
-6.28690699257883675e-07
6.09757644564316066e-07
6.63074788217142802e-05
-0.000188673958063802379
-6.08902977211551884e-07
6.25100582835261147e-07
7.87411214444386768e-05
-0.000206992374414718277
-6.02266735718263366e-07
6.00597117878552356e-07
9.15302688431648655e-05
-0.000230399430203528509
-4.8598714894552123e-07
5.97317427169091587e-07
0.000104259839605713221
-0.000259874748246780127
-1.83327375241178254e-07
5.38566251557393304e-07
0.000117323832810027932
-0.000296946247868775715
-3.5589335977474811e-07
2.61028450963032512e-07
0.000123325983767575515
-0.00033559944007905654
4.80838152223110879e-06
1.37815951015848947e-06
1.90003713807774096e-05
-0.000244045878258971461
8.27555234178137437e-07
4.32669685974652418e-06
6.72915147469847759e-06
-4.06310889997663015e-05
6.68172574048688354e-07
9.06747140074524332e-07
1.07107195211193637e-06
-1.11814593774129607e-05
-1.36895758703347848e-06
1.73905283003185479e-06
1.05014854363143418e-06
-1.15543589337418046e-06
-4.43387196885356694e-06
2.25809902909597455e-06
7.09688989804261779e-06
-6.34107818440010258e-06
4.57092874892515843e-06
1.00266019546230969e-05
-0.000157973882433351678
-6.96583805689564169e-07
6.78500105086587524e-07
2.00099296756770155e-05
-0.000160941651746951631
-7.04543616981476686e-07
6.92979678546530061e-07
3.01674985342718251e-05
-0.000165664881972376932
-7.21508050013613911e-07
6.7057715453823757e-07
4.06622587722535553e-05
-0.000173870542372840447
-6.86265034735298822e-07
6.74503083655526234e-07
5.14546190687396093e-05
-0.000184999679788892151
-6.693626039152574e-07
6.46683629052728013e-07
6.26538228773587663e-05
-0.000199918304960315565
-6.36459353285119448e-07
6.83888556508364738e-07
7.40756391304321431e-05
-0.000218406578214542499
-6.51459622470324457e-07
6.48727380242110324e-07
8.56518929753325234e-05
-0.000242126929527616044
-5.03542636618387627e-07
6.61379928619072943e-07
9.69240985767284814e-05
-0.000271438440066194787
-2.79437455202439444e-07
5.824612300220938e-07
0.000107816916761404731
-0.000307933272079480671
-3.59790818535989449e-07
4.71779538654968092e-07
0.000113474716644798576
-0.000346358133201927034
4.13526881294248083e-06
1.00007238213226096e-06
1.42760852908670765e-05
-0.000231369178871791904
2.41705343995523355e-08
3.15106197858462693e-06
5.28289382080636678e-06
-3.51321071459956435e-05
1.95184785959780098e-08
5.38790992434596056e-07
7.68684798059345099e-07
-9.29610922462204006e-06
-1.10709659649177578e-06
1.47208286934275979e-06
9.23490630701036683e-07
-1.25960248846185499e-06
-3.69843851027415594e-06
1.75778780320349166e-06
5.9781535420875087e-06
-5.37957804092101882e-06
4.32971289698282885e-06
9.52966990360525775e-06
-0.000167485782937887469
-7.78047056053279137e-07
7.64414823378500933e-07
1.89818063312732421e-05
-0.000170373139659334936
-7.84925610102151259e-07
7.67099210308188199e-07
2.85535703180321591e-05
-0.00017515514998395459
-8.10313749881400676e-07
7.32457908862991224e-07
3.84537370503716555e-05
-0.000183759748825833508
-7.49585451811144525e-07
7.41682209910962098e-07
4.85166093276905388e-05
-0.000195029762261614444
-7.17043938484914727e-07
6.90053315491780787e-07
5.8937207979512581e-05
-0.000210434517409268111
-6.63752203829455897e-07
7.65314862599388383e-07
6.9349565260840918e-05
-0.000228800434891961125
-7.13889176074336006e-07
7.08115126016342196e-07
7.97632639906840511e-05
-0.000252749622547773073
-5.18480640618635344e-07
7.43150568213728094e-07
8.96508701389998723e-05
-0.000281557350015604053
-3.931719860373564e-07
6.50868657676728188e-07
9.79021257477753911e-05
-0.000316574663879052936
-2.91373713663202568e-07
7.19009328180235352e-07
0.000103730282160754286
-0.000356009143094658911
3.18265736550059252e-06
7.10631893678588577e-07
1.27528541396367546e-05
-0.000213716252950092917
-1.23924182015651433e-06
3.55367844212929016e-06
6.34541202365528877e-06
-2.98588898144498188e-05
-1.11267298295395539e-06
1.53767977112765126e-07
1.35415047032148669e-06
-6.02223079981923771e-06
-1.31585913966742562e-06
1.14806635308503331e-06
1.07325132420741443e-06
-1.00188888018346394e-06
-2.86097261383979916e-06
1.39676111299403221e-06
5.24507018313537442e-06
-4.46651641062082809e-06
3.41765390354432971e-06
8.91950929683385793e-06
-0.000176400907671955993
-8.49237954173972933e-07
8.56744073192497011e-07
1.78582252060900647e-05
-0.000179261779056664534
-8.75517340559740686e-07
8.33251193036034595e-07
2.68516100881438879e-05
-0.000184004494847361312
-9.11196720185796167e-07
7.77376988964712528e-07
3.61980906745453475e-05
-0.000193108083251711807
-8.12818386809310828e-07
8.22796458718210299e-07
4.55072272897926556e-05
-0.000204265384826662612
-7.80902959784680044e-07
7.23031608650216894e-07
5.51811364213841777e-05
-0.000220266164055322707
-7.07442290392657352e-07
8.79952513630680879e-07
6.45742313595617937e-05
-0.000238114315359228359
-8.33039269438568192e-07
7.85730983751713049e-07
7.39604574004337621e-05
-0.000262388617589147041
-5.65413000980974223e-07
8.53856001903902048e-07
8.2528592711542749e-05
-0.000290255387159368263
-5.44266138497960091e-07
7.32486369774009999e-07
8.89607321703424095e-05
-0.000323457892885631077
-3.43038068786535326e-07
8.70560499382038691e-07
9.14243927606213597e-05
-0.00036118245660529387
1.85340090807777459e-06
9.96257101983774791e-07
9.60623619188533252e-06
-0.000203526298842470805
-1.69622237761279437e-06
3.78413913730372981e-06
3.08985261840573822e-06
-2.10732184225606437e-05
-2.72598751443199745e-06
-7.0635915975555053e-07
6.80775956504416306e-07
-4.12023898881676034e-06
-1.52179982131829515e-06
5.31104787520809204e-07
7.74163551066774104e-07
-9.75783655530280679e-07
-2.2411451143996962e-06
9.35665566811787188e-07
4.51145858138538424e-06
-2.60965326926333786e-06
2.49172259383764434e-06
8.14349380673700318e-06
-9.39909271075304359e-07
1.13689026994224224e-06
-0.000184708558259181864
1.67590008075995689e-05
-1.0532636146609526e-06
9.51571045240275106e-07
-0.000187754988807500606
2.52665427050089079e-05
-9.79302215204115434e-07
9.64580143596114804e-07
-0.000192469712433514841
3.4026041646626173e-05
-9.19078304371788897e-07
9.60845916239269959e-07
-0.000201888643326960147
4.25702510810874947e-05
-7.41917766176727401e-07
7.98714932171305459e-07
-0.000212825716741650524
5.14999955991026406e-05
-7.26664517669567578e-07
9.46254925215178256e-07
-0.000229380282411110288
5.99435391561826158e-05
-8.5933437063526881e-07
8.54648449107717847e-07
-0.000246475817212296004
6.83508992000302258e-05
-5.12947660490718776e-07
8.83736990421048151e-07
-0.000271088694677522975
7.5837258801513815e-05
-5.34321223036196284e-07
7.76516329625628109e-07
-0.000297858769017497109
8.05682157794906212e-05
-1.72368489725725335e-07
9.13226381978652001e-07
-0.00032877826803347427
8.14089010815835523e-05
8.54693239465707273e-07
1.19557657205299819e-06
-0.000363801782223444406
9.32286686066433364e-07
-7.2513193615287427e-07
4.30312592637805511e-06
-0.000183367367512354975
1.62838329950185858e-07
-2.18163833825872362e-06
-5.50096643548397222e-07
-1.77671621229203042e-05
4.23947873058949412e-07
-1.58920254730958418e-06
2.38947095293521324e-07
-4.21776701278874847e-06
7.64185768772845848e-07
-2.03872726696420564e-06
8.57481918370269966e-07
-2.52608596288877934e-06
1.81135009401920621e-06
1.33136968942730962e-05
-1.33242341588500787e-05
-3.55883044033578251e-07
2.7394600831540698e-05
-1.40920233560737905e-05
-3.75353911716388632e-07
4.18524296957867631e-05
-1.44672089343061835e-05
-3.98986749465645736e-07
5.71676459106971102e-05
-1.53202449753221314e-05
-4.30886407755848903e-07
7.37096592743008774e-05
-1.65381156400416707e-05
-4.71665295778995575e-07
9.20243807635717396e-05
-1.82940921637755988e-05
-5.20870222062755019e-07
0.000112828466617065595
-2.07501517092454803e-05
-5.74736881138258685e-07
0.000136907781311409527
-2.39582576964877483e-05
-6.27223741284510365e-07
0.000165930429497648146
-2.87539442255339771e-05
-6.63164064384473591e-07
0.000202460610058891597
-3.59307980972858331e-05
-6.97623766629720846e-07
0.000245007049081047488
-4.13234875589458097e-05
-4.25830496528254263e-07
0.000237786285943935986
-6.82360919079054147e-05
-1.06913900935145558e-07
0.000102037875253335356
-5.15066713224988975e-05
-1.56589994026297356e-06
7.97187827496072623e-05
-4.78159063669865862e-06
-3.90278864321353671e-06
4.83895708410853796e-05
9.55588395793777092e-06
-7.30905754639863317e-06
1.94995808837674964e-05
-8.44366465254871582e-06
1.33247038735724609e-05
-2.66598312449077351e-05
-3.66455593910817773e-07
2.72185531175978789e-05
-2.79969030377161997e-05
-3.84459927409901097e-07
4.14376208227145424e-05
-2.86951260959020734e-05
-4.05325125266578092e-07
5.65188185570994928e-05
-3.04055826633994499e-05
-4.34529471566677113e-07
7.28791959953130152e-05
-3.28932527015064199e-05
-4.71867053768120135e-07
9.09603896327700414e-05
-3.63522089638190473e-05
-5.16323294671735077e-07
0.000111348625875716791
-4.10803257448902627e-05
-5.63365099075415689e-07
0.000135077031964037504
-4.75574230536498973e-05
-6.08130366662237448e-07
0.000163066788669892482
-5.64525834660792311e-05
-6.35627479130652551e-07
0.000199070230110670674
-7.13120366438985251e-05
-6.44660228797903114e-07
0.000241789403964308631
-8.27249582170446542e-05
-3.47911389592063066e-07
0.000205744908140971928
-0.000123909912366733686
-4.29868246878432208e-07
7.16395512388325712e-05
-6.8746385173959319e-05
-1.79820585451617325e-06
5.62753404658577626e-05
-1.3568455584977014e-05
-4.80797417651622072e-06
3.44349555037574176e-05
1.02311976867023765e-05
-8.75772812029114594e-06
2.72475398269307645e-05
-1.24755542625521638e-05
1.32864966326082555e-05
-3.99571325437233219e-05
-3.78422536689232679e-07
2.6982752778419149e-05
-4.17038883544104566e-05
-3.94714112906918024e-07
4.11084070048023042e-05
-4.28288106835806061e-05
-4.13887145854455843e-07
5.60652855948796743e-05
-4.53653131882022842e-05
-4.41020170356176027e-07
7.22472546463504077e-05
-4.9068003894080342e-05
-4.75554224744029363e-07
9.00911572517260469e-05
-5.41699117815867107e-05
-5.16213995158678362e-07
0.000110165003247560735
-6.10901395074041228e-05
-5.58472466467989511e-07
0.000133349327100769376
-7.06035135952547599e-05
-5.94631416270179078e-07
0.000160523792228044892
-8.33074914624458744e-05
-6.05021736374505875e-07
0.00019411565872127484
-0.000104268451282491721
-6.06749759099324066e-07
0.000234918123778850643
-0.000121753560133294454
-2.044453172152336e-07
0.000171139059032583105
-0.00017000833784611342
-1.06067401170274144e-06
6.1149920517103467e-05
-7.06348929823514226e-05
-1.86836729229940149e-06
4.56151577827704539e-05
-2.01393017325095271e-05
-5.61988195319321017e-06
2.53073254917865457e-05
1.06914068101848901e-05
-8.81867651664232869e-06
2.97775003088627587e-05
-1.29581741936004233e-05
1.31748206638539877e-05
-5.31425180715746948e-05
-3.92016958641381304e-07
2.66494892246531542e-05
-5.51886857593989131e-05
-4.07295386946312136e-07
4.06068026824426458e-05
-5.67932524054423686e-05
-4.24698366607404507e-07
5.53603665656010325e-05
-6.01204397365603162e-05
-4.49736240739750528e-07
7.1274017730213235e-05
-6.4972566617172033e-05
-4.81489990819917592e-07
8.87608144591078602e-05
-7.16280927571207092e-05
-5.18604295218877986e-07
0.000108350282810151346
-8.06106352958732835e-05
-5.56256374276250169e-07
0.000130763205576848941
-9.28718440492487871e-05
-5.83699124228583187e-07
0.000156814915157865199
-0.000109015959644940795
-5.74732040936232664e-07
0.00018826966531526639
-0.000135093051990803619
-5.64215527443928941e-07
0.000226127928719081875
-0.000157189894481763332
-1.25379823005924911e-07
0.000136948075182688407
-0.000206897436822311661
-1.50240791847382974e-06
5.25080534589667517e-05
-7.00927143204408299e-05
-2.47597233185065295e-06
3.60502411579245171e-05
-2.33081780554187379e-05
-6.61287495361993232e-06