/*--------------------------------*- C++ -*----------------------------------*\
| =========                 |                                                 |
| \\      /  F ield         | OpenFOAM: The Open Source CFD Toolbox           |
|  \\    /   O peration     | Version:  2206                                  |
|   \\  /    A nd           | Website:  www.openfoam.com                      |
|    \\/     M anipulation  |                                                 |
\*---------------------------------------------------------------------------*/
FoamFile
{
    version     2.0;
    format      ascii;
    arch        "LSB;label=32;scalar=64";
    class       volVectorField;
    location    "0.0599999999999999978";
    object      faceForces;
}
// * * * * * * * * * * * * * * * * * * * * * * * * * * * * * * * * * * * * * //

dimensions      [1 1 -2 0 0 0 0];

internalField   uniform (0 0 0);

boundaryField
{
    inlet
    {
        type            calculated;
        value           uniform (0 0 0);
    }
    outlet
    {
        type            calculated;
        value           nonuniform List<vector> 0();
    }
    top
    {
        type            calculated;
        value           uniform (0 0 0);
    }
    bottom
    {
        type            calculated;
        value           uniform (0 0 0);
    }
    left
    {
        type            calculated;
        value           uniform (0 0 0);
    }
    symmetry
    {
        type            symmetryPlane;
    }
    interface
    {
        type            calculated;
        value           nonuniform List<vector> 
181
(
(0.0600901347391995938 -2.58548664113748297e-06 -9.5755368172013339e-07)
(0.0525723076943210785 6.51450127353501853e-07 -1.32465055103808396e-06)
(0.042168754044450231 1.15954628375295908e-06 -1.24680020494945698e-06)
(0.0325404669437242833 1.2325021111862278e-06 -1.12042929941575191e-06)
(0.0247809481830180318 1.17043595654832533e-06 -9.42623096919096724e-07)
(0.0185097578891233912 1.09075779342835271e-06 -7.89455013611975896e-07)
(0.0135056939773353993 9.7331294964689889e-07 -6.32867695078521044e-07)
(0.00987937138316317964 9.4716266469708884e-07 -5.56655462759830176e-07)
(0.00728383597187273746 9.17616049673488491e-07 -4.99922619300576381e-07)
(0.00542907617143397088 8.58551906844726106e-07 -4.56373040955467266e-07)
(0.004145137566188597 9.66687546953691469e-07 -4.9585946367859124e-07)
(0.0035820315099556483 6.77788780193902099e-07 -3.36949534406775304e-07)
(0.00342379737209412777 4.25656233097247649e-07 -2.21252105877061971e-07)
(0.00307631922469683025 2.97057476603931359e-07 -1.66420188949973441e-07)
(0.00265524392289797836 2.49699855165371665e-07 -1.46927413495254809e-07)
(0.00209976798476474002 3.02892179331517258e-07 -2.02622509569029183e-07)
(0.0795758556600087985 -8.019189476827037e-07 -5.74282372219036321e-07)
(0.0704276607845196051 8.31646916776929902e-07 -7.1058157806601765e-07)
(0.0583622877320087649 1.13232880403490965e-06 -6.28088064658376343e-07)
(0.0469984110327997598 1.1941617844043134e-06 -5.39714740472037693e-07)
(0.037151090783410598 1.22600494848623328e-06 -5.03428563537170061e-07)
(0.028679526378487398 1.09730303117175726e-06 -4.33226587310713737e-07)
(0.0216196213992401638 1.04007184688806867e-06 -3.91057287566250063e-07)
(0.0159379969252183493 1.0540445910552624e-06 -3.81555030416463502e-07)
(0.0117485203482565366 1.0098431883443566e-06 -3.59393896126422303e-07)
(0.00852318619791935135 1.12626436391702426e-06 -3.97555005609386055e-07)
(0.00607360184726175954 1.18367836444813492e-06 -4.19614558004953926e-07)
(0.00457104710795722298 7.81200108597205558e-07 -2.73528719371087517e-07)
(0.00382609854507450203 4.20230935106733618e-07 -1.52086426558963752e-07)
(0.00306007276123776342 2.57927481369639939e-07 -9.930319795800043e-08)
(0.00217338080123914484 2.35821263092286601e-07 -9.80803340017510382e-08)
(0.00133173981619950617 3.08973659358396718e-07 -1.46481115040469004e-07)
(0.0867156624928803188 -9.98583151963972444e-07 -2.19190797466962804e-07)
(0.0777239988214916827 8.7669329776403467e-07 -3.71810973268477655e-07)
(0.0657238025048091923 1.21033159261522768e-06 -3.49490154030724338e-07)
(0.0545032682231783652 1.08418438636884075e-06 -2.67843655692544956e-07)
(0.0445062308571618354 1.29884977118596246e-06 -3.09497070592722923e-07)
(0.035023083832106762 1.29713926499961276e-06 -3.08566726812883965e-07)
(0.0268606278473099702 1.18200218491884478e-06 -2.85567219055299134e-07)
(0.020307087577623506 1.15578209259074921e-06 -2.80536797293032713e-07)
(0.0152288087970242885 1.06450096138221422e-06 -2.69876418343804435e-07)
(0.011063601024075928 1.29707420231785849e-06 -3.47834418652118064e-07)
(0.0077566491892570779 1.35722204401299521e-06 -3.7597415693147693e-07)
(0.0056989352608998638 9.47889191285562153e-07 -2.66648076417367733e-07)
(0.00439074876820505413 4.34715405056770926e-07 -1.29959137344005173e-07)
(0.00320405217931540778 2.64926355605336109e-07 -8.62706714129226488e-08)
(0.00211218266662054066 2.64869660719395299e-07 -9.41780526118007157e-08)
(0.00126151805914212012 3.89142536366333164e-07 -1.57664875832294467e-07)
(0.0891378274002083137 -1.07167834074597857e-06 -7.98361118832843096e-08)
(0.0805887867859829687 8.79766684743764369e-07 -1.86651791201235446e-07)
(0.0689741339692723082 1.21462706137618914e-06 -1.90796827627063459e-07)
(0.0578653093996872037 1.10547772323987022e-06 -1.57861027520226783e-07)
(0.0481892862965739924 8.44949787870287735e-07 -1.21474334316088781e-07)
(0.0387354775999487963 1.36015761775236919e-06 -2.04865589107057627e-07)
(0.0298050757333085843 1.33318376816775889e-06 -2.12427901251774098e-07)
(0.0228148409478516265 1.13832525781726546e-06 -1.94414264535044813e-07)
(0.0175922937772571251 8.91310535261450206e-07 -1.63199135371793007e-07)
(0.0131800172676890207 9.20847311666883787e-07 -1.84809182283823293e-07)
(0.00928102427674615434 1.44868003368511105e-06 -3.15578574631670572e-07)
(0.00656164633166192186 8.56582348261078747e-07 -2.04121114367921647e-07)
(0.004995553491090916 1.84857577141053804e-07 -4.79032912892251031e-08)
(0.00349764319866147999 3.72876373054847037e-07 -1.08014445398326564e-07)
(0.00208858790084729979 5.0116530175048949e-07 -1.62517237610090791e-07)
(0.00130285667338895118 5.75891783953030981e-07 -2.04434181451867524e-07)
(0.0906043105721712483 -1.06544612353981359e-06 -2.32849714750014262e-08)
(0.0822844045792405776 8.85943087525735012e-07 -1.01977612836146308e-07)
(0.0709519683077402125 1.2663797890997823e-06 -1.13151032396979291e-07)
(0.0600871896027958749 8.44948024737888184e-07 -7.12512339726973313e-08)
(0.0501446274690764832 1.31634745407175214e-06 -1.18092606619617238e-07)
(0.0405658810722675026 1.19471951163778841e-06 -1.1948847301570096e-07)
(0.0320000436660656459 1.19983289641814717e-06 -1.31406752848325897e-07)
(0.0252290773954143496 9.11586672862069182e-07 -1.13617494884961067e-07)
(0.0198906829637845138 7.74243603772959198e-07 -1.10391404171048916e-07)
(0.0152376230786018495 9.26904659963391168e-07 -1.52370693887483727e-07)
(0.0110433447767778921 1.62190449019555372e-06 -3.01434249555904892e-07)
(0.00797585656934918404 1.01946637810397642e-06 -2.1311282736458878e-07)
(0.00631654377230461608 6.25678670435923807e-08 -1.49319058538161695e-08)
(0.00470068052889235921 2.51029686633997455e-07 -6.82124910172190118e-08)
(0.00299226824476823581 5.54922254495853953e-07 -1.71043537900170548e-07)
(0.00203720871323245616 6.11312428096060265e-07 -1.99941326870946826e-07)
(0.0905174725487373211 -1.06392060448566972e-06 -1.98717687711542896e-08)
(0.0823008968763379312 9.46551142490518344e-07 -5.73160345373784866e-08)
(0.0712599918586328124 1.28131312289291087e-06 -6.11670275674447353e-08)
(0.0606473291419874008 9.4388435466089531e-07 -4.52529866979968488e-08)
(0.0509493640554688001 1.07971320027756363e-06 -5.8345784400922342e-08)
(0.0416620983626488015 1.1758086770330371e-06 -7.53670068650373979e-08)
(0.0332961963009168263 1.01592071413038003e-06 -7.91411034440508255e-08)
(0.0266539655196700309 8.62047570288562148e-07 -8.09033786578450296e-08)
(0.0211126505822261563 7.71992922005037124e-07 -8.65595261425830181e-08)
(0.0162365436171774159 1.17053999665484634e-06 -1.5384431060897767e-07)
(0.012182677555997657 1.66193247744107281e-06 -2.61404795621672077e-07)
(0.00928239023424430772 9.91793129372570973e-07 -1.83486827614214177e-07)
(0.00758453278072764893 5.7347074810237043e-08 -1.31095885205102352e-08)
(0.00633289121687145417 3.18657983555039791e-07 -8.98014836141804167e-08)
(0.00499170678680636165 6.11302976751844626e-07 -1.92612084973295958e-07)
(0.00393339963619340153 5.78816179188129194e-07 -2.00390459976177474e-07)
(0.0896807454583878616 -1.02626292924800057e-06 -7.72628556040736548e-08)
(0.0815478999969969781 9.38954000366247972e-07 -7.76362676502827415e-08)
(0.0709801780612703548 1.08903331175356212e-06 -6.04038683135659726e-08)
(0.0606466858900299097 8.60347867221367445e-07 -4.27098415193481953e-08)
(0.0507997437969684926 9.71122691961051573e-07 -4.70801492546528256e-08)
(0.0412090330852541639 1.03474290802025555e-06 -6.69674627837531557e-08)
(0.0328974424888213504 8.62780130724643405e-07 -6.62371784159964191e-08)
(0.0261448767885553678 7.28485538079446126e-07 -6.77819652897810189e-08)
(0.0202759419905015371 7.35214262349206199e-07 -8.78915246927645283e-08)
(0.0152318935794913055 1.26985741208276316e-06 -1.92151340287734313e-07)
(0.0110964128559164973 1.59125214373002302e-06 -2.82734713048299236e-07)
(0.0083124155578854237 2.99061473028334498e-07 -6.66764683943014846e-08)
(0.00645970153102680324 1.49644843274883738e-07 -4.26502359317318548e-08)
(0.00504480274321085758 6.37568788768029981e-07 -2.41283612513708939e-07)
(0.00461148248474701865 6.81761754506597007e-07 -2.95777488621123131e-07)
(0.00393059384443266661 5.47221464858353929e-07 -2.82566972506655771e-07)
(0.0902938775823981798 -1.12757085331534492e-06 -4.92449245658869071e-08)
(0.0821590815198657148 7.46956741294586409e-07 -5.36992555406520529e-08)
(0.0710242105689811304 1.23915537214255864e-06 -5.45276967963509287e-08)
(0.0597379370971885537 1.24350099076078956e-06 -5.05989565013349666e-08)
(0.0499067416640886219 1.08969670383699807e-06 -4.13140288252709346e-08)
(0.0401671903992872129 9.75335900848162255e-07 -4.54150271888692811e-08)
(0.0305099223513834242 9.64943497742217269e-07 -5.85374788569895716e-08)
(0.0223841889512784789 1.29720224738933556e-06 -1.04933229278979143e-07)
(0.0163625424259418485 1.43608292360529662e-06 -1.44117359504682636e-07)
(0.0115734677662068762 1.37612360744759235e-06 -1.49416538406559733e-07)
(0.00797785490954755656 8.71446944491381776e-07 -9.84889235823343187e-08)
(0.00573056776389811121 1.09793009924291658e-07 -1.46983524799089081e-08)
(0.00396533377904899429 1.86148382422657307e-07 -3.49677842854248939e-08)
(0.0025526528736275764 4.8377399212896005e-07 -1.42222556100388723e-07)
(0.00197958078153264707 4.09596825821526388e-07 -1.53603773868875175e-07)
(0.00146720597695600922 2.95373840134427765e-07 -1.58040892910824518e-07)
(2.92654441550025186e-06 1.04261324935514871e-06 -0.0117708694327080237)
(2.77741456934128958e-06 4.31323795188573492e-07 -0.0140771305712262575)
(1.79490985870085765e-06 3.23764850762749463e-07 -0.0125316500098394523)
(1.07879207610089137e-06 2.66190116590882747e-07 -0.00972747119566317632)
(5.52176257376101621e-07 1.85437224404065487e-07 -0.00721401356168463806)
(2.44379785370424908e-07 1.09050930878074269e-07 -0.00515912171761844125)
(5.85072283996470676e-08 4.02065044705078479e-08 -0.00355923752222013891)
(2.52716233400779432e-08 2.85774321586445632e-08 -0.00284514913116751429)
(1.24064236304083767e-08 2.27744143571207825e-08 -0.00253550033026677573)
(8.13852387812679e-09 1.80458861200094593e-08 -0.00230458314093712462)
(1.58063704692398464e-08 3.70510565475083759e-08 -0.00200283898628724442)
(1.37347476428917806e-08 3.77334375553289762e-08 -0.00169173405771676135)
(1.02654219441591794e-08 3.91071921377028302e-08 -0.00144583754704913207)
(8.78647283624798773e-09 3.95090452114382612e-08 -0.0012665269010149248)
(1.18916608425373884e-08 5.14609704110274331e-08 -0.0011442301705718058)
(1.681912374642049e-06 5.73249439144595252e-07 -0.00471149538132121463)
(1.50781055151472693e-06 2.11047199205201915e-07 -0.00516142421095296382)
(6.60746985540696447e-07 -2.57661552373702735e-08 -0.00399968743661797098)
(1.75809747195254296e-07 -4.46645886781495571e-08 -0.0029646896637879035)
(2.59602364287383569e-08 -2.5776328953598474e-08 -0.00230593565712919595)
(-7.9600162889447659e-09 -2.06735283974628805e-08 -0.0018185519663719207)
(-2.21868795830102232e-08 -2.28446864778923356e-08 -0.00162782101633209887)
(-2.79619382091471875e-08 -2.88190931921232568e-08 -0.00154631196543788228)
(-1.76404653391204803e-08 -2.42277056394670658e-08 -0.00149431250458430861)
(-1.06157272365229138e-08 -2.34146552401740654e-08 -0.00142397164651765972)
(-9.21082883277412564e-09 -2.44818736875542718e-08 -0.00130635727732096672)
(-9.04853089837948189e-09 -2.60083169788445867e-08 -0.00117745220677575153)
(-7.49418981256981352e-09 -2.51438490786530623e-08 -0.00107009431777027575)
(-6.93010834234243882e-09 -1.96765768813318179e-08 -0.000979659394579968437)
(1.0256715884529742e-06 2.40596501120050228e-07 0.000360895956068704585)
(6.81988828763412814e-07 5.59658463169838794e-08 -0.000413081805305574)
(1.52998636577059071e-07 -6.59872433275394105e-08 -0.000777198256324024717)
(-1.24347043870640105e-08 -3.85511146482581792e-08 -0.000981714028474695542)
(-1.57497962155594393e-08 -1.52366444241437562e-08 -0.00104963136380751046)
(-1.59209508616170626e-08 -1.60318397498286961e-08 -0.00106266087169110839)
(-1.79873377158395237e-08 -2.24680231551053948e-08 -0.00107381274739516848)
(-1.54664974765485089e-08 -2.24383946240108054e-08 -0.00107496530441465298)
(-6.7512422561131061e-09 -1.563759619633931e-08 -0.00105525046866081934)
(-2.3242637121800988e-09 -1.386064394805316e-08 -0.00101070169641699127)
(-3.28580230975996803e-09 -1.38253161860030084e-08 -0.000944073419681417791)
(-4.98812708287409036e-09 -1.25820406166437883e-08 -0.000849731394375198893)
(5.48973485445253682e-07 6.23467902943069989e-08 0.000543353392423811111)
(3.31883928627766808e-07 1.53232195057610447e-08 -9.65258903785913601e-05)
(7.48196626708455637e-08 -3.32322046303853599e-08 -0.000474185116721178852)
(1.54198517515503416e-08 -1.28589149746577029e-08 -0.000620792033143363381)
(1.33137461444873759e-09 -7.68055572537987657e-09 -0.000667163468758017993)
(-6.33063873983985922e-09 -1.16233330020401181e-08 -0.000686051522590851149)
(-9.39810844241406872e-09 -1.38307918061166447e-08 -0.000690440464463622249)
(-8.18246664863583932e-09 -1.34296223412102776e-08 -0.000675183494717686728)
(-7.06604942967494424e-09 -1.0655820842141969e-08 -0.000639514963990103443)
(-4.19465869229083475e-09 -8.56743969521719811e-09 -0.00060617221750664614)
(-4.4341194734742293e-10 -6.8956494548478724e-09 -0.000579508236852643572)
(-5.89276586137702398e-10 -6.39124020391002197e-09 -0.000541890495960206013)
)
;
    }
    procBoundary0to1
    {
        type            processor;
        value           uniform (0 0 0);
    }
    procBoundary0to3
    {
        type            processor;
        value           uniform (0 0 0);
    }
}


// ************************************************************************* //
