/*--------------------------------*- C++ -*----------------------------------*\
| =========                 |                                                 |
| \\      /  F ield         | OpenFOAM: The Open Source CFD Toolbox           |
|  \\    /   O peration     | Version:  2206                                  |
|   \\  /    A nd           | Website:  www.openfoam.com                      |
|    \\/     M anipulation  |                                                 |
\*---------------------------------------------------------------------------*/
FoamFile
{
    version     2.0;
    format      ascii;
    arch        "LSB;label=32;scalar=64";
    class       volVectorField;
    location    "0.0599999999999999978";
    object      faceTraction;
}
// * * * * * * * * * * * * * * * * * * * * * * * * * * * * * * * * * * * * * //

dimensions      [1 -1 -2 0 0 0 0];

internalField   uniform (0 0 0);

boundaryField
{
    inlet
    {
        type            calculated;
        value           uniform (0 0 0);
    }
    outlet
    {
        type            calculated;
        value           nonuniform List<vector> 0();
    }
    top
    {
        type            calculated;
        value           uniform (0 0 0);
    }
    bottom
    {
        type            calculated;
        value           uniform (0 0 0);
    }
    left
    {
        type            calculated;
        value           uniform (0 0 0);
    }
    symmetry
    {
        type            symmetryPlane;
    }
    interface
    {
        type            calculated;
        value           nonuniform List<vector> 
181
(
(192.288431165438794 -0.00827355725163994929 -0.00306417178150442853)
(168.231384621827459 0.00208464040753120585 -0.00423888176332186829)
(134.94001294224077 0.00371054810800946957 -0.00398976065583826322)
(104.129494219917689 0.00394400675579592835 -0.00358537375813040545)
(79.299034185657689 0.00374539506095464053 -0.00301639391014110877)
(59.2312252451947501 0.00349042493897072257 -0.00252625604355831857)
(43.2182207274732448 0.00311460143887007422 -0.00202517662425126576)
(31.6139884261221589 0.00303092052703068243 -0.00178129748083145564)
(23.3082751099928096 0.00293637135895516909 -0.00159975238176184769)
(17.373043748588703 0.00274736610190312288 -0.00146039373105749507)
(13.2644402118034872 0.00309340015025180715 -0.00158675028377148922)
(11.4625008318580548 0.00216892409662048291 -0.00107823851010167902)
(10.956151590701225 0.0013620999459111945 -0.000708006738806599405)
(9.84422151902984943 0.000950583925132579663 -0.000532544604639914663)
(8.49678055327353476 0.00079903953652918976 -0.000470167723184815648)
(6.71925755124715174 0.000969254973860852868 -0.000648392030620891804)
(254.642738112028155 -0.00256614063258465194 -0.00183770359110091625)
(225.368514510462774 0.00266127013368617615 -0.00227386104981125697)
(186.759320742428088 0.00362345217291171152 -0.00200988180690680465)
(150.394915304959198 0.00382131771009380219 -0.00172708716951052018)
(118.883490506914029 0.00392321583515595033 -0.00161097140331894584)
(91.7744844111596052 0.00351136969974962052 -0.00138632507939428292)
(69.1827884775685646 0.00332822991004182124 -0.0012513833202120008)
(51.001590160698683 0.00337294269137683716 -0.00122097609733268241)
(37.595265114420954 0.00323149820270194439 -0.00115006046760455258)
(27.2741958333419205 0.00360404596453447676 -0.0012721760179500352)
(19.4355259112376153 0.00378777076623402912 -0.00134276658561585161)
(14.6273507454631027 0.00249984034751105609 -0.000875291901987479437)
(12.2435153442384248 0.0013447389923415497 -0.000486676564988684757)
(9.79223283596083505 0.000825367940382847249 -0.000317770233465601169)
(6.95481856396527398 0.000754628041895318295 -0.000313857068805603807)
(4.26156741183840815 0.000988715709946866739 -0.000468739568129499526)
(277.49011997721675 -0.00319546608628470822 -0.000701410551894280244)
(248.71679622877312 0.00280541855284490793 -0.00118979511445912729)
(210.316168015389223 0.00387306109636872519 -0.00111836849289831679)
(174.41045831417054 0.00346939003638028608 -0.000857099698216142836)
(142.41993874291785 0.00415631926779507898 -0.000990390625896713211)
(112.073868262741442 0.00415084564799875384 -0.000987413525801226913)
(85.9540091113918407 0.00378240699174030044 -0.000913815100976956619)
(64.9826802483950985 0.00369850269629039101 -0.000897717751337703124)
(48.732188150477775 0.0034064030764230889 -0.000863604538700175092)
(35.4035232770429289 0.00415063744741714195 -0.00111307013968677633)
(24.821277405622606 0.00434311054084157711 -0.00120311730218072409)
(18.2365928348795308 0.00303324541211379356 -0.000853273844535575249)
(14.0503960582561955 0.00139108929618166912 -0.000415869239500817208)
(10.2529669738092739 0.000847764337937073056 -0.00027606614852135168)
(6.75898453318573367 0.000847582914302065418 -0.00030136976835776246)
(4.03685778925476857 0.00124525611637226114 -0.000504527602663340296)
(285.241047680666611 -0.00342937069038713131 -0.000255475558026509782)
(257.884117715145521 0.00281525339118004602 -0.000597285731843953411)
(220.717228701671417 0.00388680659640380571 -0.000610549848406603162)
(185.168990078999002 0.00353752871436758404 -0.000505155288064725581)
(154.205716149037016 0.00270383932118492499 -0.000388717869811484678)
(123.953528319836124 0.00435250437680758089 -0.00065556988514258428)
(95.3762423465875742 0.00426618805813683277 -0.000679769284005677797)
(73.0074910331251488 0.00364264082501524703 -0.000622125646512142931)
(56.2953400872229182 0.00285219371283664674 -0.000522237233189738726)
(42.1760552566048901 0.00294671139733402969 -0.000591389383308234869)
(29.6992776855876883 0.00463577610779235434 -0.00100985143882134556)
(20.9972682613181476 0.00274106351443545145 -0.00065318756597734914)
(15.9857711714909723 0.000591544246851373706 -0.000153290532125520721)
(11.1924582357167157 0.00119320439377550852 -0.000345646225274644388)
(6.68348128271137298 0.00160372896560156963 -0.000520055160352291619)
(4.16914135484463433 0.0018428537086496949 -0.0006541893806459746)
(289.933793830947934 -0.00340942759532740286 -7.45119087200045503e-05)
(263.31009465356982 0.00283501788008235205 -0.000326328361075668195)
(227.046298584768749 0.00405241532511930493 -0.000362083303670333856)
(192.279006728946683 0.00270383367916124081 -0.000228003948712631328)
(160.46280790104484 0.00421231185302960859 -0.000377896341182775352)
(129.810819431255936 0.00382310243724092065 -0.000382363113650242847)
(102.400139731409993 0.00383946526853806832 -0.000420501609114642559)
(80.7330476653258415 0.00291707735315861879 -0.000363575983631875103)
(63.6501854841105441 0.00247757953207347311 -0.000353252493347357079)
(48.7603938515259188 0.00296609491188285163 -0.000487586220439947902)
(35.3387032856892134 0.00519009436862576546 -0.000964589598578894421)
(25.5227410219173834 0.00326229240993272402 -0.000681961047566684016)
(20.2129400713747813 0.000200217174539495715 -4.77820987322117688e-05)
(15.0421776924555388 0.000803294997228791267 -0.000218279971255100694)
(9.57525838325836354 0.00177575121438673439 -0.000547339321280546315)
(6.51906788234383683 0.00195619976990738615 -0.000639812245987027642)
(289.655912155959186 -0.00340454593435414021 -6.35896600676936764e-05)
(263.362870004281149 0.00302896365596965617 -0.000183411310519610997)
(228.031973947624948 0.00410020199325731357 -0.000195734488215823109)
(194.071453254359511 0.00302042993491486236 -0.000144809557433589795)
(163.037964977500252 0.00345508224088820516 -0.000186706510082951596)
(133.318714760476041 0.0037625877665057152 -0.000241174421968119468)
(106.547828162933754 0.00325094628521721335 -0.00025325153102096241)
(85.292689662943971 0.00275855222492339463 -0.000258890811705103695)
(67.5604818631237407 0.00247037735041612033 -0.000276990483656265824)
(51.9569395749677057 0.0037457279892955061 -0.000492301793948728269)
(38.9845681791924434 0.00531818392781142468 -0.000836495345989349292)
(29.7036487495817738 0.00317373801399222595 -0.00058715784836548511)
(24.2705048983284684 0.000183510639392758476 -4.19506832656327356e-05)
(20.2652518939886228 0.00101970554737612564 -0.000287364747565376866)
(15.9734617177803688 0.00195616952560590408 -0.000616358671914547449)
(12.5868788358188386 0.00185221177340200659 -0.000641249471923765568)
(286.978385466841075 -0.00328404137359360106 -0.000247241137933035639)
(260.953279990390342 0.00300465280117199335 -0.000248436056480904742)
(227.136569796065118 0.00348490659761139859 -0.000193292378603411119)
(194.069394848095612 0.00275311317510837416 -0.000136671492861914143)
(162.559180150299284 0.00310759261427536728 -0.000150656477614889142)
(131.868905872813201 0.00331117730566481486 -0.000214295880908009902)
(105.271815964228338 0.00276089641831885925 -0.000211958970931188577)
(83.6636057233771027 0.00233115372185422557 -0.000216902288927299069)
(64.8830143696050072 0.00235268563951746305 -0.000281252879016846897)
(48.7420594543721961 0.0040635437186648431 -0.000614884288920749958)
(35.5085211389327569 0.00509200685993606902 -0.000904751081754556763)
(26.5997297852333325 0.000956996713690669494 -0.000213364698861764559)
(20.6710448992857998 0.000478863498479628613 -0.000136480754981542122)
(16.1433687782747306 0.00204022012405769395 -0.000772107560043867902)
(14.7567439511904794 0.00218163761442111354 -0.000946487963587595328)
(12.5779003021844957 0.00175110868754672737 -0.000904214312021295818)
(288.940408263674158 -0.00360822673060910357 -0.000157583758610838087)
(262.909060863570232 0.00239026157214267598 -0.000171837617730086526)
(227.277473820739601 0.0039652971908561872 -0.000174488629748322974)
(191.161398711003301 0.00397920317043452473 -0.000161916660804271829)
(159.7015733250837 0.00348702945227839615 -0.00013220489224086707)
(128.535009277718956 0.00312107488271411637 -0.000145328087004381579)
(97.6317515244269885 0.00308781919277509613 -0.000187319932342366695)
(71.6294046440910677 0.0041510471916458699 -0.000335786333692732978)
(52.3601357630139859 0.00459546535553695575 -0.000461175550414985049)
(37.0350968518620149 0.00440359554383229664 -0.000478132922900991288)
(25.5291357105521577 0.00278863022237241936 -0.000315164555463469539)
(18.337816844473938 0.000351337631757733001 -4.70347279357084667e-05)
(12.6890680929567967 0.000595674823752504064 -0.000111896909713359792)
(8.16848919560823639 0.00154807677481267085 -0.000455112179521243495)
(6.33465850090447891 0.00131070984262888633 -0.000491532076380401281)
(4.69505912625922051 0.000945196288430167047 -0.000505730857314637492)
(0.00936494212960078433 0.00333636239793646833 -37.6667821846655926)
(0.00888772662189209715 0.00138023614460343054 -45.0468178279238742)
(0.00574371154784274109 0.00103604752244079766 -40.1012800314862261)
(0.00345213464352285039 0.000851808373090824308 -31.1279078261221471)
(0.00176696402360352494 0.000593399118093009426 -23.0848433973908378)
(0.00078201531318535791 0.000348962978809836863 -16.5091894963789727)
(0.000187223130878870004 0.000128660814305624698 -11.3895600711044072)
(8.08691946882490981e-05 9.14477829076622371e-05 -9.10447721973600999)
(3.9700555617306737e-05 7.28781259427863808e-05 -8.11360105685366761)
(2.6043276410005681e-05 5.77468355840301691e-05 -7.37466605099878603)
(5.05803855015673614e-05 0.000118563380952026444 -6.40908475611916284)
(4.39511924572536113e-05 0.000120747000177052493 -5.41354898469362578)
(3.28493502213093134e-05 0.000125143014840648815 -4.62668015055721327)
(2.81167130759934483e-05 0.000126428944676601935 -4.05288608324774291)
(3.80533146961196166e-05 0.000164675105315287664 -3.66153654582977595)
(0.00538211959885456347 0.00183439820526270689 -15.0767852202279045)
(0.00482499376484713232 0.000675351037456646975 -16.5165574750495026)
(0.00211439035373023375 -8.24516967595850738e-05 -12.7989997971775384)
(0.000562591191024814979 -0.000142926683770078894 -9.48700692412131197)
(8.30727565719628684e-05 -8.24842526515152469e-05 -7.37899410281343826)
(-2.54720521246232782e-05 -6.61552908718812883e-05 -5.81936629239015257)
(-7.09980146656327899e-05 -7.31029967292555472e-05 -5.20902725226272167)
(-8.94782022692712373e-05 -9.22210982147946652e-05 -4.94819828940123596)
(-5.64494890851856821e-05 -7.75286580462948165e-05 -4.78180001466980009)
(-3.39703271568733779e-05 -7.49268967685571251e-05 -4.55670926885651806)
(-2.9474652264877248e-05 -7.83419958001737931e-05 -4.1803432874270996)
(-2.89552988748143556e-05 -8.32266143323027129e-05 -3.76784706168240691)
(-2.39814074002234636e-05 -8.04603170516900087e-05 -3.4243018168648911)
(-2.21763466954958618e-05 -6.29650460202619736e-05 -3.13491006265590721)
(0.00328214908304951458 0.000769908803584160072 1.15486705941985357)
(0.00218236425204291909 0.000179090708214348245 -1.32186177697783558)
(0.000489595637046588445 -0.000211159178648125849 -2.48703442023687593)
(-3.97910540386048006e-05 -0.000123363566874426067 -3.14148489111902274)
(-5.03993478897901665e-05 -4.87572621572599855e-05 -3.35882036418403107)
(-5.09470427571745085e-05 -5.13018871994517378e-05 -3.40051478941154084)
(-5.75594806906864424e-05 -7.18976740963372279e-05 -3.4362007916645374)
(-4.94927919249551912e-05 -7.18028627968345215e-05 -3.43988897412688699)
(-2.16039752195619006e-05 -5.00403078282857044e-05 -3.37680149971461585)
(-7.4376438789763197e-06 -4.4354060633770136e-05 -3.2342454285343738)
(-1.05145673912318897e-05 -4.42410117952095967e-05 -3.02103494298053477)
(-1.59620066651970442e-05 -4.02625299732600083e-05 -2.71914046200062876)
(0.00175671515342481002 0.000199509728941782183 1.73873085575619379)
(0.00106202857160885033 4.90343024184351818e-05 -0.308882849211491339)
(0.000239422920546705553 -0.000106343054817233036 -1.51739237350777079)
(4.9343525604961144e-05 -4.11485279189046903e-05 -1.98653450605876492)
(4.26039876623596038e-06 -2.45777783212156055e-05 -2.13492310002565766)
(-2.0258043967487513e-05 -3.7194665606528312e-05 -2.19536487229071975)
(-3.00739470157250028e-05 -4.42585337795732377e-05 -2.2094094862835898)
(-2.61838932756346983e-05 -4.29747914918729093e-05 -2.16058718309659881)
(-2.26113581749598562e-05 -3.40986266948543543e-05 -2.04644788476833428)
(-1.34229078153306782e-05 -2.74158070246950475e-05 -1.93975109602126872)
(-1.41891823151175088e-06 -2.2066078255513152e-05 -1.85442635792845611)
(-1.88568507564064444e-06 -2.04519686525120333e-05 -1.73404958707265622)
)
;
    }
    procBoundary0to1
    {
        type            processor;
        value           uniform (0 0 0);
    }
    procBoundary0to3
    {
        type            processor;
        value           uniform (0 0 0);
    }
}


// ************************************************************************* //
