/*--------------------------------*- C++ -*----------------------------------*\
| =========                 |                                                 |
| \\      /  F ield         | OpenFOAM: The Open Source CFD Toolbox           |
|  \\    /   O peration     | Version:  2206                                  |
|   \\  /    A nd           | Website:  www.openfoam.com                      |
|    \\/     M anipulation  |                                                 |
\*---------------------------------------------------------------------------*/
FoamFile
{
    version     2.0;
    format      ascii;
    arch        "LSB;label=32;scalar=64";
    class       volScalarField;
    location    "0.0599999999999999978";
    object      p_rgh;
}
// * * * * * * * * * * * * * * * * * * * * * * * * * * * * * * * * * * * * * //

dimensions      [1 -1 -2 0 0 0 0];

internalField   nonuniform List<scalar> 
7360
(
2446.51292470030103
2427.75579715415233
2388.46533754938355
2328.58334597369776
2246.55618418183258
2139.98967657020557
2005.80116962274428
1840.38544056398337
1636.17203269794732
1392.91785071328627
1086.92886501986573
711.997544631002484
415.969375481759812
219.940312611014946
184.630232091426109
196.941241884640078
2449.63966071870573
2430.84298090288621
2391.76111394077725
2332.09086685713419
2250.31754870323903
2144.13157491586071
2010.45313703391025
1845.56606951470872
1642.18947966036808
1398.92196747252001
1091.03561556115164
701.449811010631151
389.644424593409553
198.741693868965541
169.061390858093858
180.209901886087664
2455.84539629203391
2437.02428562909881
2398.28782284176214
2339.04549946474981
2257.82154282325882
2152.38716616832198
2019.67226700607557
1855.94291947857619
1653.84565915163125
1411.82325090578843
1103.15581728318807
693.196918743841593
338.019104396440468
172.450376721668505
150.041806617500299
151.223373959483325
2465.07919553799638
2446.33889931285967
2408.05188775605347
2349.43787593120851
2269.0513325914244
2164.74211221934956
2033.46988669265556
1871.53251888878094
1671.37486130128605
1432.07612932531151
1124.96393302587217
693.673626270066165
288.789730070482108
143.526866524008909
128.813000304444529
123.520395547184933
2477.33243513387742
2458.78147439692339
2421.03909073517661
2363.24405693198833
2283.97706872960271
2181.16679056601106
2051.82644588028961
1892.32936225489834
1694.78239466484138
1460.07759508998333
1156.69744848602477
694.902750527871945
228.292456684895058
114.157827955272637
108.136032700423257
100.798240635123065
2492.58850072134737
2474.31095479783971
2437.22160940388449
2380.43209665211589
2302.55902639393162
2201.61674963436008
2074.70454074679083
1918.31813218213233
1724.42065066613191
1495.54925611164958
1197.00142443821551
690.102507815121726
154.334335679712922
86.5773558950998563
86.8710130474615738
81.8453637411214316
2510.81862921906213
2492.88644502548959
2456.56295922227218
2400.96024055894395
2324.74552721282271
2226.02980442549233
2102.03315554825213
1949.42515666482404
1760.40945501542524
1538.34926856106244
1246.1728491532499
678.190375219977341
91.2529529885207751
64.4396105665279606
68.2609102746898486
66.794536637859224
2531.98411113448492
2514.46208586300736
2479.01729539778034
2424.77607882335133
2350.47194270585123
2254.32456795381449
2133.71022630542666
1985.52021420622691
1802.17060019121027
1588.37638567544536
1305.33276956668851
669.621997900958945
51.2835207166829008
48.6985422835631283
52.7445152454069728
53.3942268765680623
2556.03654849311488
2538.98465647435978
2504.52907098668311
2451.81512642147936
2379.65932417963131
2286.39954521260097
2169.60437701791079
2026.41923999583332
1849.62296995341603
1645.37067687252124
1373.32975599493034
655.240035337270569
34.4868637532003035
38.4318094201777498
40.4274083897954384
42.9187757240449841
2582.9163714284141
2566.3900834737583
2533.03130304034994
2481.99819747908896
2412.21187531817895
2322.12945791137417
2209.55863376843536
2071.91518473076985
1902.49115935035434
1708.80423592881357
1448.94099234963369
642.407386468769801
23.8376850839930583
32.2141896898910431
31.8977040433600898
31.3680211600106169
2612.5501679813442
2596.60168792752665
2564.44566925190202
2515.23046213634916
2448.01635720459853
2361.36576467500799
2253.38836310473789
2121.74670614233082
1960.45453424175935
1777.90808261615825
1531.18874949515816
645.533761511643206
19.2035370446292433
28.9858273543220264
25.8862411266011385
24.9141975575053607
2644.85086900063015
2629.5365659810268
2598.69217893054247
2551.4086549614367
2486.95067015444101
2403.94542775343916
2300.89412596744114
2175.63633588213997
2023.12860518575189
1851.97802554114196
1618.578649414349
627.696233245370991
16.0492913984573207
25.8385465553209812
22.2972553959515487
28.5408977951056393
2679.74351194681549
2665.10877091503926
2635.69313330276418
2590.42219692610024
2528.88135104736466
2449.68662461267331
2351.8532260252814
2233.27376734674908
2090.05673315948934
1930.38625258028492
1712.04847741197227
647.997062912526872
17.5589728692430214
23.6390088159262248
20.0097037726090434
25.8996271852260236
2717.17310665482546
2703.2261832216891
2675.33097326526922
2632.11292446135849
2573.63743230286036
2498.34607812036938
2405.9719670845102
2294.22912526595792
2160.52060585378467
2012.36641714269035
1811.67118948927532
641.061525630695428
19.2443346143957186
20.3909948850764664
17.1984464734279534
25.5311249164370899
2756.7364657787034
2743.65508846409739
2717.43732672578244
2676.25739512334167
2620.950677981235
2549.57983368887653
2462.81647715950021
2358.00715662400853
2233.64178089981897
2097.25770320015772
1912.83169361944147
715.242565179344524
17.5377735465982276
16.638120561951812
14.6138151765740432
17.3860985265041315
2798.35049396636487
2786.6666270224423
2762.15360233901447
2723.03246273428431
2670.74675621637607
2603.57002048701179
2522.18277858488364
2424.6947774521368
2309.25688756783984
2183.95762826251257
2013.45314978272995
703.646041537592282
15.0624833522336345
14.1972161924580078
11.0167234171563226
11.3840940383008071
2446.59525262191437
2427.86623248065644
2388.6355660112331
2328.85404687682467
2246.97985800849483
2140.63380957386016
2006.75526481220072
1841.77212384556492
1638.11756721302459
1395.78773647290564
1091.31489360996147
719.116115005446318
431.433855487901553
247.134558124045952
223.990692316772453
261.204638424049392
2449.71784410468763
2430.94912551683547
2391.92694647637791
2332.35720640452246
2250.73711126602757
2144.77190860596738
2011.4037673677708
1846.95189251137253
1644.1477756096599
1401.83617359569871
1095.39790477884048
709.794049551946046
404.650633495435557
226.8866576812446
207.48963809722872
239.482512701852272
2455.91586008062723
2437.12280018749652
2398.44620569680364
2339.30455676624342
2258.23372404901284
2153.01985898743533
2020.61506801128758
1857.32801790368399
1655.8171290684038
1414.80043275145022
1107.56425109920474
703.197234164020756
360.724674871380216
202.530360844251305
186.327538864618106
205.328803773612663
2465.13854206472752
2446.42654852638407
2408.19976688143515
2349.68655832713102
2269.45240499059719
2165.36226533346598
2034.39813291333621
1872.91137532633934
1673.3562489112619
1435.13415970989558
1129.52976970154054
712.247945360933613
314.869455049885005
177.351929524912066
163.070726362597384
171.165810333373287
2477.37748319411912
2458.85521306150849
2421.17345203055265
2363.47918456629895
2284.3630584039629
2181.76942332800763
2052.73223271090501
1893.69526926067488
1696.76135529819635
1463.11979994254739
1161.58433679179461
721.466575972458372
268.343296012726114
152.746757359746795
139.782183074142125
139.242942906304165
2492.61628302790723
2474.36815850032553
2437.33980488136558
2380.65098251400741
2302.92614046150766
2202.19662654034937
2075.57902408879363
1919.6570946597717
1726.38606447058805
1498.57223721080231
1201.66069205667577
730.213085795713141
213.847622840173074
130.080660907703219
116.864558674864583
114.760932153603747
2510.82639615303697
2492.92494911576887
2456.66262763032955
2401.16092932340098
2325.09033695689777
2226.58215112744801
2102.86683283584807
1950.72861119742629
1762.38597584045351
1541.25945838585335
1249.57578973784962
732.003192990820367
166.117955583180049
110.097873888505916
97.1861869872141995
92.213773519193154
2531.9691630279176
2514.48012178340969
2479.09584717830558
2424.95745458175543
2350.79133362335278
2254.84654584457803
2134.49299097811127
1986.77681837468799
1804.09375796509585
1591.02356386901442
1306.77169696607461
723.94103926262801
131.002176298103052
91.3026434944460163
77.3367183035704358
75.5963381963532157
2555.9958604599824
2538.98073181529207
2504.58259436507433
2451.97706752537897
2379.94991306184329
2286.89150562440182
2170.33103308081627
2027.61732259254086
1851.44155931075693
1647.67497709966074
1373.53626726203834
723.413819966860956
104.668088677263384
74.9621135785288857
60.4470861845578398
60.3876482069324467
2582.8463714169543
2566.362985375069
2533.05256375562521
2482.14224714967168
2412.46899452284697
2322.59862387503017
2210.2221973878527
2073.03961403932954
1904.15659722001237
1710.78944057500757
1449.46372301820406
739.309499396152205
88.1999231092089957
61.5916700263904389
46.0222978509389264
48.7373879998703643
2612.44704268474743
2596.5506652790109
2564.42128082867112
2515.3609525408292
2448.23245228953283
2361.83035309120442
2253.98366025935411
2122.79719931615455
1961.88877614226817
1779.65694998885715
1532.54994669832263
738.897981892213579
73.2988742160344771
50.3001667840403002
35.1984529100971031
47.0525972895736757
2644.7125663886568
2629.46260757692153
2598.59756463594067
2551.53615165977908
2487.11298198534087
2404.44122282559556
2301.41803617063351
2176.62358036970136
2024.23985066123873
1853.54530214531587
1620.81336482065103
696.728705993279732
58.7678871773563003
41.365156920700862
28.6451824756266582
40.630489333145789
2679.57999940140871
2665.01324055378427
2635.48044984867965
2590.56699046583253
2528.97529584259928
2450.27614022374019
2352.31049274829775
2234.21633352951267
2090.7978536527653
1931.70690998084115
1714.58832288261942
648.033143461977943
47.5711344932284419
34.145303903434197
24.8136326740716768
25.0513321863705372
2717.01229496380438
2703.11606488657799
2674.93932674660209
2632.30567281184312
2573.63013935119261
2499.11424126071734
2406.3570094515826
2295.17613687286757
2161.01663380236505
2013.37572374286651
1812.20362158254375
576.947802019190249
36.3750371130002961
29.2239243431080489
21.8204180605586124
17.5086035396127073
2756.70448382729683
2743.53014391502711
2716.73944536067665
2676.5178669048114
2620.79001564881219
2550.65193936597871
2463.19473317958727
2359.01901551046376
2234.23029789530938
2097.77523040592678
1911.39002792586484
694.676344062556723
26.9704759994807155
22.2480286266448992
16.8989570096323973
11.0042399057231197
2798.69360269213576
2786.35083706887099
2761.06229634444662
2723.11353234390663
2670.55733239589472
2604.75034547698169
2522.9686736932731
2425.59405201536174
2310.28420630513619
2184.18333815491133
2010.98578891038619
741.331094502280735
19.7777232088860586
14.9457005577287507
14.5363962743382427
14.3680451205175341
2446.6665342215947
2427.96160208306765
2388.78244727596166
2329.09020615999407
2247.35713841986671
2141.22316412101645
2007.65458949333652
1843.12157262270057
1640.14455698041024
1398.92773082632925
1096.34535911003491
728.612248267731502
450.128404008856819
265.627099783129609
245.117798267866476
284.641254449954658
2449.7854473782786
2431.04059498090692
2392.06951142302023
2332.58876437051595
2251.10999612990599
2145.35788041022442
2012.30219785611894
1848.30698562231282
1646.19239905509289
1405.01573875821646
1100.45196066747235
718.590332928218118
422.261399340990124
245.993586823634018
227.871259376959756
263.098970825777769
2455.97671368526244
2437.20723237210495
2398.58128895988239
2339.52830743456798
2258.5989363499225
2153.59910226590273
2021.50947230616976
1858.69103265548438
1657.89890422047756
1418.0563238824036
1112.69316273696609
712.023827741936316
376.081570524170957
221.409376586618635
205.184633333070849
228.201210012907836
2465.18990755496543
2446.50119928785489
2408.32470054907526
2349.8997733136016
2269.80681611485988
2165.93080876952445
2035.28427535868468
1874.2818760130242
1675.47913350150407
1438.4753236255433
1134.86918761842435
722.642909521214619
331.557050286445929
194.18725395934419
179.51145581705029
192.60849583829156
2477.4170867987491
2458.91783588286353
2421.28607206240213
2363.67945269358597
2284.70351909313558
2182.32241394256744
2053.6052294347005
1895.07165865364209
1698.93072593620377
1466.41567956817471
1166.98302803406864
734.565823869587689
287.78835787290808
166.979153889702843
153.122182407946383
164.458649019040934
2492.64244691955128
2474.41705696030749
2437.43853992253253
2380.83627190484822
2303.24971783279807
2202.72884868707979
2076.43201050397374
1921.03020421454403
1728.63858913132253
1501.79683053935014
1206.65767712085403
747.33372861538021
231.921538052758365
141.255257845449648
129.54345575901732
131.813177714621759
2510.83821423321342
2492.9589474608124
2456.74647560241874
2401.32941004622216
2325.3945086764129
2227.08832946588564
2103.69173204775916
1952.09177546756246
1764.61854743254844
1544.32216257783489
1253.9363631701442
753.778773628523595
177.778187260821454
117.559573214786937
104.096865186469813
108.188151632294606
2531.96670174154997
2514.49841184524485
2479.16435834465165
2425.10703825773817
2351.07417405637079
2255.32078608813754
2135.28220082107691
1988.11782703885137
1806.36063783704412
1593.96273193372781
1310.07106187229078
728.264622019558942
132.036656346741324
96.3559930819805146
84.1580117223936242
86.6425069799272478
2555.98069080161031
2538.98275624558391
2504.63618487619215
2452.10466491568195
2380.21049047322458
2287.32675178177305
2171.07596516154535
2028.91446086046312
1853.67289940161186
1650.39158648686021
1375.11508516640038
676.359525701629764
102.816258019618914
79.8193649700311596
69.3910174457243016
69.398507766968649
2582.82270171172513
2566.34878422669544
2533.09386000515224
2482.24276036804395
2412.70848938878589
2322.98579174028373
2210.91889922455584
2074.25867298839921
1906.28079462478922
1713.19969762216692
1450.81786612810811
666.293278570282951
85.2391950895706856
66.3525857437582403
57.4772944223886029
59.7888562515040789
2612.42349094554766
2596.52168776487406
2564.45826650746858
2515.42665835455864
2448.45614855014128
2362.15685381235335
2254.63233313494447
2123.89498284091906
1963.85070154529421
1781.72245156031795
1535.4135253068273
684.036818985575792
68.7499590144334292
55.708078196181404
46.1276143611335385
54.2745467313200862
2644.70586574603476
2629.42322289629237
2598.65036973381348
2551.55617245528902
2487.33634533805753
2404.68898333912921
2302.02607515236014
2177.54807748903113
2025.97428376311291
1855.2002162350957
1624.52699232075906
692.01673624332318
55.9798974459701313
45.3528163989065831
35.2403847519982349
48.6370171843699524
2679.61524989347981
2664.98266106122537
2635.59501269542216
2590.53162604797944
2529.23077937089874
2450.42120290375624
2352.88821576333748
2234.90508886999532
2092.1921182243309
1932.64281594911176
1715.95981546143958
692.517845131094873
46.6601371842620338
35.5325315834006972
29.3322032573702529
24.8004456687994761
2717.12456787753217
2703.12207650091932
2675.1963357081363
2632.21102225414643
2573.96641776165961
2499.11156204529289
2406.91291162265907
2295.54318921078902
2161.98687629942242
2013.56041907630402
1809.89320349999616
569.799173976756833
34.1480940606666721
30.7048739413533909
22.3548381583856575
15.5225905871853573
2756.90338121313562
2743.60516314604138
2717.32190480122381
2676.38998892649124
2621.31729335878663
2550.49943978881311
2463.72248254675742
2358.92304773935211
2234.72522834413667
2097.5864232895492
1908.19257753721399
657.982717489215474
28.2869454709205144
25.8497502559275851
17.8950202615880869
11.1119202658379805
2798.51428216218892
2786.50756226398698
2761.94491353962985
2723.15942496950947
2671.10684765492897
2604.69780671370518
2523.13536389131377
2425.1276173427118
2310.10533613506823
2183.95500226133754
2009.66448089535174
670.245438573774891
24.4878586822779951
17.0759703948284596
16.2717855588577578
12.9981418607864754
2446.72147919104782
2428.03457338019552
2388.89457160792563
2329.27187045547498
2247.65165056324759
2141.69026361152874
2008.37317538250932
1844.19507753554421
1641.73289292961954
1401.18906997669387
1099.28760970221902
732.101933487735323
458.429369060260171
274.910774278341933
253.465557576608262
291.538144896389838
2449.83718187074055
2431.11007453031243
2392.17751763608248
2332.76581291172215
2251.39994622869199
2145.8210559290319
2013.01756815922113
1849.37840119299949
1647.76562820146023
1407.22384085935778
1103.14278145002299
720.145458743274162
429.131186608643475
253.069929168630637
235.577543638141435
270.848530538910268
2456.02243333682463
2437.27029351762621
2398.68218891990864
2339.69775277337249
2258.88121514989462
2154.05480984369024
2022.21749992598052
1859.7551397928471
1659.45023924141515
1420.18378017140708
1114.75993744521202
710.555126958239725
379.512797734452306
227.906540287452401
212.311452763420306
236.791856043868904
2465.22705408671527
2446.5553981670123
2408.41613586062886
2350.05929827896125
2270.07871192289485
2166.37538779580609
2035.98071892103326
1875.33571492942656
1676.96095996807344
1440.52392611223604
1136.14840441681145
719.375357728491167
331.663587559775692
200.39065666798831
186.082312294255473
197.98256527364012
2477.44342227045081
2458.96118491849256
2421.36612660834589
2363.82707866058809
2284.96231895156734
2182.75182931609379
2054.28796798188841
1896.11219599478272
1700.36728699434047
1468.48998331268081
1167.26368058025355
728.230913962617365
288.656593315918713
172.969013443940185
157.70275074376346
169.854392399794079
2492.65593046100776
2474.44790750335096
2437.50556006454144
2380.97029969716596
2303.49264766840861
2203.13884965073157
2077.09585120871861
1922.05557075352976
1730.46413007432238
1503.68437206270164
1206.11434674084285
742.656272722337121
238.107454009563952
145.909390627901985
133.144015395435019
143.847382334245424
2510.83666214231926
2492.97582913495717
2456.79872915931128
2401.4482660600429
2325.61852217907335
2227.47495442353602
2104.32769109990477
1953.09029098268047
1766.35682952530578
1546.15220161609159
1254.67680625979074
765.021195404053287
195.034076892097431
122.414770073039577
110.807164312007444
114.577937907731211
2531.94722532181186
2514.49981337979625
2479.19950372531093
2425.20921449222897
2351.27552780372571
2255.67993830711521
2135.88221555710152
1989.0661173291428
1808.10408158332552
1595.53064396338686
1312.6336148379421
793.481557409003472
161.809139038792921
102.729209151452977
90.4362151926417113
90.5964952067618157
2555.93881919413798
2538.96697247275551
2504.65045129405325
2452.18882236652507
2380.38390486850403
2287.65491598669496
2171.62996827715733
2029.80304281890426
1855.3275870731668
1651.52397400984091
1378.84766952751079
787.663360874998375
130.952950091525537
85.8254440512495052
72.0231665947564892
71.0788000115984033
2582.75112210755242
2566.31407588388311
2533.08078763146477
2482.30806836052352
2412.84547649672049
2323.28034788329887
2211.41580695236053
2075.0859366567679
1907.76549324490657
1713.71112368819104
1452.56882363953605
756.205161042606164
92.9769561964987474
70.7718628382457666
58.1419111822992178
58.8088176952957014
2612.31048802509849
2596.46638261379348
2564.40684851203059
2515.47403825029733
2448.54320088601753
2362.41629870003089
2255.06010549609618
2124.67320061380815
1965.09131346605113
1781.64526094638427
1534.23197513892228
779.583683941040704
78.2218043616245211
59.1458145640503332
51.25452557710598
58.0744409906820493
2644.53338800829351
2629.34738360872643
2598.54295370189402
2551.59171145924029
2487.35182087690328
2404.91433378779084
2302.37165634482426
2178.30852556876425
2026.94493078279288
1854.808622810521
1622.10353866258947
765.64657662690388
64.9331921834855876
48.3446180746080714
40.1131817123721746
46.3761039178320331
2679.35918146493941
2664.8885947885633
2635.40331530818776
2590.56381136673917
2529.13611263019629
2450.60955194658391
2353.13456762253963
2235.70820876948119
2092.92958281803521
1932.33268701655265
1713.28966541172827
609.291041273192604
52.3183562873613113
38.9284357534532148
27.6078316258202783
19.7783848837534428
2716.74897613203757
2702.99821885795973
2674.8525722321092
2632.24152423715304
2573.69739869215073
2499.25171041727299
2407.02140688141571
2296.48975695103582
2162.60032750066648
2013.61444599051083
1808.55921258618764
505.923538764138641
42.0871676043802836
33.303551002906822
24.2064467503213372
18.9174251286234494
2756.38327975255424
2743.44293177009149
2716.70930266038931
2676.40837944425266
2620.79313183194881
2550.5071364925243
2463.66937481445893
2360.21832269280821
2235.36943641103835
2098.12315847602622
1909.2537516496875
617.418812823742769
35.5295882452313592
28.0901363156707085
21.6280944716838484
16.6818200735505968
2797.96783282835077
2786.10744528951091
2761.08235041141461
2722.88577840815969
2670.42052560117736
2604.18588125019005
2523.05069542594401
2426.71759355470476
2311.20513840542708
2184.97159334021626
2012.33926195562344
687.582340884987275
30.1965811156460582
18.8199016351152046
16.707944603831244
18.0039370959861849
2446.75831686436277
2428.08245912469738
2388.96814466785509
2329.3916614023492
2247.84736381417633
2142.00126087506533
2008.84544340199909
1844.87340965298267
1642.66138908809535
1402.3646718539369
1100.89256655906865
734.752279660808313
460.827526605915182
278.676380174298231
258.446804758490657
296.617576754116556
2449.87107375504911
2431.15464389025556
2392.24708503759848
2332.88100801859264
2251.59077251234203
2146.12706478072187
2013.48368516018922
1850.04688437793243
1648.67335670522743
1408.35127370340319
1104.59034490414683
722.974685864953813
430.898016652527247
257.000048078420605
241.0390802721478
276.57400660606811
2456.05072514796166
2437.30883528017876
2398.74500965831567
2339.8055552158944
2259.06416335434687
2154.35173715008523
2022.67111269677798
1860.40286592228267
1660.31703307799398
1421.18653349714805
1115.86231720584988
712.998112188945697
381.035029924608807
231.725103246470752
218.121514530488355
243.812398821614892
2465.24729364286168
2446.58554628015008
2408.46996476225377
2350.15748181844265
2270.25123848699013
2166.65939077264011
2036.41609637449346
1875.95371162826154
1677.7710439971836
1441.34684575183383
1136.66472991930982
717.24603031782658
330.179389378640735
203.729100543929803
192.034617284700147
203.537021138212538
2477.45331652663572
2458.98072919701053
2421.40884893620569
2363.91340451484393
2285.12179549202892
2183.01917885034027
2054.70118933689946
1896.6971235504177
1701.13429108287096
1469.20174619404247
1167.15835610419185
718.235876259057022
276.538342027363626
176.116204109061101
162.332475694937159
177.279897244305971
2492.6532192590571
2474.45451559512776
2437.53496447847283
2381.04226266237674
2303.63629174749985
2203.38585125786494
2077.48348774294664
1922.60785120477544
1731.27686865932242
1504.30346943799464
1206.00719300373657
737.406264824223626
224.915388848391757
148.980013597632905
138.416998141584287
147.997543769279162
2510.81905029070231
2492.96674270440872
2456.81233821267142
2401.50273555724289
2325.7432774568374
2227.69780950038239
2104.68553079330968
1953.60231217481123
1767.207163021513
1546.8645859117787
1255.28668520176893
774.084402439770543
195.464270866502488
127.003473651531863
115.064627543696133
119.524232336451803
2531.91252929921711
2514.47160711446213
2479.19466571378416
2425.24205352788385
2351.37811601135581
2255.87457193561704
2136.20633727281893
1989.52500685824407
1808.93312013930426
1596.28614497484887
1314.00935721323344
814.728222134984662
174.963489713121874
107.089907000208257
93.8950180111683039
94.2045159148390638
2555.8855019585103
2538.91537647743644
2504.62483042438953
2452.19440603270823
2380.46123265926644
2287.81700593624237
2171.91842043273437
2030.19959436204704
1856.13342825228801
1652.25110633545796
1380.36403325305287
797.413539316500191
140.797514926082187
90.2901084972605759
76.747612636963737
75.8937452943663828
2582.67929725955719
2566.23368127138019
2533.03348069723643
2482.27852408628451
2412.89573231756003
2323.40541458328562
2211.67072671041387
2075.41312095717376
1908.53775633678811
1714.34797983683006
1454.21246962883743
788.460361711240807
102.241185510137797
75.275118047785881
63.346572917004984
63.495052009767754
2612.22307177880748
2596.35069594522656
2564.33993680287585
2515.3978954149843
2448.56740854092368
2362.50025648884048
2255.29109816288428
2124.92614471437173
1965.81324796507215
1782.14468556140741
1536.23766517568856
811.012120486830668
82.4121817080721542
62.2771263151992116
53.9656810770860318
64.1637497515761339
2644.43725605245299
2629.18787438591289
2598.46572604036783
2551.45235872512285
2487.35567271253285
2404.95416479856431
2302.60146376129342
2178.48265423914063
2027.60562746524556
1855.11227287269776
1625.00826480960359
816.682143772439986
67.4556885409843829
50.9764446864516785
43.6209764602051919
46.7423780089229126
2679.26340365933311
2664.6726422321417
2635.33418882177466
2590.33629374725433
2529.13316184395444
2450.60334154696602
2353.40887180798745
2235.79361107992599
2093.49110584061873
1932.50449385752177
1718.22221559732384
744.470558188028576
55.7284532956384169
41.4088533047153931
27.721085915176328
19.2042141267558222
2716.67124981446932
2702.7114432985868
2674.8096513062992
2631.87502944867492
2573.69003986114831
2499.18058958558095
2407.40549847722696
2296.47252350530243
2162.97497707954699
2013.68411207381291
1813.57669054781422
630.082649396477223
47.2518668590172339
33.6119931264096934
24.3772287780227224
18.285921883888971
2756.29595119309397
2743.03436218710431
2716.7138404123948
2675.84043421692604
2620.75231240348239
2550.4022271052163
2464.33413697426431
2360.10732058810981
2235.39213631263601
2097.99922885495562
1913.62614398111737
762.978827381071028
38.2238828309195782
28.2626765876945747
23.3832219317827104
20.5825978555126419
2797.55727700956686
2785.58215216085273
2760.86605474261432
2722.16035625088944
2670.26021971451155
2604.18594606389479
2524.05300696548875
2426.72341285550829
2310.71934123695064
2184.78621233918466
2015.67968441748144
792.753601653071541
32.5324016773416034
22.0287030376654975
19.5717622998418967
20.2684326182723318
2446.7788922377149
2428.10782186668985
2389.00759296552633
2329.45610754396921
2247.95172766030555
2142.16318893314792
2009.07787310433423
1845.1754279464069
1643.0318581325364
1402.81424275954032
1101.692322901436
736.827868238407291
462.306241696574318
280.577872318176787
260.47269986295953
296.551975481494821
2449.88899907495033
2431.17705470566852
2392.28304687001719
2332.94153965865644
2251.69086085080835
2146.28336071956073
2013.70626403319693
1850.33044356564096
1649.00975301608833
1408.74091742981182
1105.24446569505767
725.31344128103342
433.059549157931087
259.063953621926601
243.471262864121911
277.012458563720543
2456.06357826694875
2437.32587950160541
2398.7750802984965
2339.8596787712172
2259.15686344405231
2154.49737175171867
2022.87473834597927
1860.65126083105179
1660.5929348543425
1421.45417579006721
1116.28146676248207
714.887605011610617
381.554752864871546
233.61737855785168
220.640971040438416
244.449925719140737
2465.25267077773697
2446.59491654441536
2408.49195235967409
2350.20304147325078
2270.33379933686274
2166.78976389743684
2036.59279988109961
1876.15464288010844
1677.97123458881401
1441.46656222233696
1136.67822007388463
716.759941273038635
327.155446114292204
205.460172030607055
193.45189347704607
206.731643496328303
2477.44857980458664
2458.97986775545633
2421.42022403035435
2363.94793801418655
2285.19120821115303
2183.13003131169671
2054.84543292933267
1896.84485148218869
1701.24949395842827
1469.25280648631406
1166.66016291287292
715.805583880064432
272.597180295833596
176.908740412483013
163.367326772223748
177.615673384042537
2492.63511432929954
2474.44022245142833
2437.53244903474115
2381.06266602594633
2303.68898340550277
2203.47313212120389
2077.59155814916039
1922.70122394644841
1731.35918945605044
1504.34115977746387
1204.8035672451233
729.953428654313825
220.01221292528993
149.748631168081317
136.286032244515297
148.691404196317848
2510.78335414896128
2492.93490972747077
2456.79154425835486
2401.50501709363289
2325.77464127039457
2227.75737383647129
2104.75397598054724
1953.64581210453161
1767.29170226688234
1546.94529862597915
1253.60138671820459
760.015342119045386
188.789635229336056
126.867735349939863
112.272378073832527
121.085315214999
2531.85376943152005
2514.41722149515908
2479.14990581535722
2425.22146313063422
2351.38217422017715
2255.90204650947089
2136.23162034140523
1989.52224541984174
1809.003534983588
1596.50460652744732
1312.53499468525933
796.08393939838777
168.190715548651468
106.422580330192503
93.8520100508078485
98.532338696992511
2555.79681575961558
2538.83291209937761
2504.54918757089354
2452.14626594416677
2380.43067839712012
2287.8085213125205
2171.89687775763969
2030.16027351818275
1856.23251058815458
1652.67020801286822
1379.63052165067916
785.577221729543226
134.997862175328976
89.9913810975035915
77.732826098913705
80.3633080614741999
2582.5525531288863
2566.11805344770983
2532.91909578862033
2482.20011890576143
2412.82231631310833
2323.35963278780946
2211.59770866721965
2075.34933013566479
1908.68764475925491
1714.96868701032531
1453.87495340088572
762.241487095707157
98.635627097022109
75.3335269929743845
65.5424115816196036
69.762216455726545
2612.04933238334843
2596.19842266537762
2564.17841947836587
2515.29077432327085
2448.44220721909187
2362.42146343243257
2255.15951007671356
2124.85113737245638
1966.02319401640966
1782.91506868832971
1535.44516366024482
749.011143526658316
83.6116266839550804
62.9234895302036605
54.272079970684068
68.2049789420094044
2644.20787390725991
2628.99952104707017
2598.24666447099116
2551.32464021214082
2487.16787764765331