/*--------------------------------*- C++ -*----------------------------------*\
| =========                 |                                                 |
| \\      /  F ield         | OpenFOAM: The Open Source CFD Toolbox           |
|  \\    /   O peration     | Version:  2206                                  |
|   \\  /    A nd           | Website:  www.openfoam.com                      |
|    \\/     M anipulation  |                                                 |
\*---------------------------------------------------------------------------*/
FoamFile
{
    version     2.0;
    format      ascii;
    arch        "LSB;label=32;scalar=64";
    class       surfaceScalarField;
    location    "0.0899999999999999967";
    object      phi;
}
// * * * * * * * * * * * * * * * * * * * * * * * * * * * * * * * * * * * * * //

dimensions      [0 3 -1 0 0 0 0];

oriented        oriented;

internalField   nonuniform List<scalar> 
20390
(
0.000105254758738044946
-2.12705220897388337e-05
-8.42971792606732367e-05
3.12941582537789123e-07
0.000205781471619763629
-4.58803488931838421e-05
-3.67661208624170798e-05
-1.78798741159708996e-05
0.000282079012427286218
-3.83392754466586121e-05
1.52667962497743359e-05
-5.32249497502057582e-05
0.00033370918596451523
-3.60808123790341942e-05
6.18189112750237261e-05
-7.73681581217418779e-05
0.000371192563153446896
-3.06296505838911566e-05
9.31383922126621843e-05
-9.99921215649434152e-05
0.000394439908813364309
-2.26332721369332392e-05
0.000112525634408537542
-0.000113139777767237064
0.000406249521334614225
-1.32552864933743335e-05
0.000122031785161293916
-0.000120586145101780486
0.000404576163117206019
1.30559908299336604e-06
0.000125977583373939694
-0.000125609840741748542
0.000382461015714313703
2.42532312256940412e-05
0.000128180789228326826
-0.000130318895801094715
0.00033853689424277549
4.66347140972717399e-05
0.000132688600584732446
-0.000135399252420665474
0.000275893624179270644
6.4503161461954784e-05
0.00013818609584200902
-0.000140046060170978152
0.000205308753227806374
7.28555116333878708e-05
0.000138992175298553044
-0.000141263067260012995
0.000144433701145401197
6.76557624013734396e-05
0.000130146847953329606
-0.000136928040416803125
0.000104157706741728385
5.21147200498568936e-05
0.000113273256788766369
-0.00012511250071002187
8.15114783012338239e-05
3.6715738761812497e-05
9.26038823702691707e-05
-0.000106673947416745723
6.95544138964371213e-05
2.43615414498982966e-05
7.24353702824210921e-05
-8.4840428202586271e-05
6.21328577462731317e-05
1.6334577394746808e-05
5.55001148663133135e-05
-6.44138426402793925e-05
5.6038020993659652e-05
1.1867977744245473e-05
4.25673920115049638e-05
-4.83415110854340551e-05
5.05084570901643686e-05
9.18301872596868218e-06
3.30069165666244124e-05
-3.66616175277655699e-05
4.55379588832410868e-05
7.3416940025923187e-06
2.58347140678271663e-05
-2.82072802757087521e-05
4.10978883045232444e-05
6.02578606311919355e-06
2.0340617579643934e-05
-2.19275599105637499e-05
3.71120652209150874e-05
5.0672966857217139e-06
1.60799961326943156e-05
-1.71623692327199428e-05
3.35050184639167547e-05
4.35359633371494775e-06
1.27543580719932074e-05
-1.35015357443867911e-05
3.0216600338283849e-05
3.80906108549891623e-06
1.01458383512034152e-05
-1.06670009292512994e-05
2.71993469357790572e-05
3.38520669306269636e-06
8.09134891650058369e-06
-8.45983883451684673e-06
2.44120460494414845e-05
3.05052842178105959e-06
6.46908546580164525e-06
-6.73296725154270127e-06
2.18196838575186737e-05
2.78283117994455903e-06
5.18550076476984661e-06
-5.37683979924873289e-06
1.93927207126699095e-05
2.56639226784629911e-06
4.16847334199096221e-06
-4.30901995123047746e-06
1.71060488675830743e-05
2.39005502563652494e-06
3.36226838560545149e-06
-3.46690277319383375e-06
1.49381027880204843e-05
2.24581068677247644e-06
2.72367112531477739e-06
-2.80266859151724698e-06
1.28700938004710208e-05
2.12780615104023465e-06
2.21908391687426056e-06
-2.27962906450254563e-06
1.08853771483056837e-05
2.03166700825366575e-06
1.82238629314145731e-06
-1.86956182736316916e-06
8.96901188537741568e-06
1.95407461109927139e-06
1.51334274426383385e-06
-1.55078615295581167e-06
7.107485834765873e-06
1.89251532699160834e-06
1.27637505076823505e-06
-1.30674618669464257e-06
5.28852423048837323e-06
1.8450960500586801e-06
1.09963030889408802e-06
-1.12495190764666069e-06
3.50260448195717157e-06
1.80869326908159106e-06
9.7432358429488111e-07
-9.96201985368316595e-07
1.74230308861818456e-06
1.78097452608554239e-06
8.94216938042258771e-07
-9.1395863555279915e-07
1.76190179420410992e-06
8.53706893436094163e-07
-8.72345170437294578e-07
-2.31532829849673311e-05
-1.61336434324939744e-06
-8.78236505938465939e-05
9.13182928760198048e-05
-1.79706963680930746e-05
-4.72132126330194853e-05
-4.41068784554191591e-05
4.02582467600625445e-05
4.19820470030880322e-06
-5.11835837443543013e-05
-3.73504597058351795e-06
-5.58928302489799579e-06
3.71926773598403018e-05
-5.47365074321176182e-05
2.99965531719118908e-05
-4.4335373596566811e-05
7.45738447715664125e-05
-5.08980268749339795e-05
5.44402590230730782e-05
-7.15533435701978695e-05
0.000106333034303862282
-4.15241140416906934e-05
7.22199725224306771e-05
-8.50887353106327449e-05
0.000127499230391960874
-2.50783461204020871e-05
8.33580949802166954e-05
-9.27014801256203244e-05
0.000147551120995844146
-1.02015666715382452e-05
8.87262146914100802e-05
-9.72712427051339963e-05
0.00017177323827577919
1.03206982718672104e-05
9.36290979791820399e-05
-0.000103919133835333961
0.000188028961417379976
4.16516028140983191e-05
0.000102084275602421236
-0.000113357322159900935
0.000188611606438389618
7.4991974424874232e-05
0.000113301806263852725
-0.000124374046787257701
0.000172279170454038669
9.88383451254050253e-05
0.000122021963914895537
-0.000131673554207872748
0.000144695649305625457
0.00010418754051494576
0.000122151658722323409
-0.000131101183783868905
0.000115161475219532742
9.26191988426378055e-05
0.000111704189807865293
-0.000122675902676111037
9.15442640219553839e-05
7.30371339457772659e-05
9.41605417348614443e-05
-0.000106866357193552002
7.53798175165954057e-05
5.26251635099748521e-05
7.46552091428297459e-05
-8.67564249438043547e-05
6.47631159653248568e-05
3.6307118706983489e-05
5.72183078754441669e-05
-6.65768103720724324e-05
5.72581143358687143e-05
2.56244782924994789e-05
4.36140360865136731e-05
-4.98687706638207141e-05
5.1265494214156393e-05
1.91097413399243369e-05
3.35899098151551262e-05
-3.75275602175852206e-05
4.61246493103473792e-05
1.49795442554052075e-05
2.61715473552875601e-05
-2.86719257523865436e-05
4.15963076473661457e-05
1.21905525877090655e-05
2.05561933983253333e-05
-2.21953887826040347e-05
3.75554475525314142e-05
1.02112526797704357e-05
1.62306547193259637e-05
-1.73358825938718503e-05
3.39116506224513287e-05
8.7549602700452698e-06
1.2864953996317457e-05
-1.36242224880334207e-05
3.0593573231278759e-05
7.65403309808018978e-06
1.02295129861465726e-05
-1.07579446532700756e-05
2.75476580387106108e-05
6.80224471748007643e-06
8.15607463054622721e-06
-8.52892717732186786e-06
2.47319251614029696e-05
6.13065028546231693e-06
6.51976113325029333e-06
-6.7864357974746223e-06
2.21116660206611672e-05
5.59345215516329872e-06
5.22552380892330081e-06
-5.4188292963650662e-06
1.96575580616432307e-05
5.15924329959387188e-06
4.20032499628924892e-06
-4.34234754131339403e-06
1.73446008832502532e-05
4.80577948173378147e-06
3.38780753090680635e-06
-3.49354723132671713e-06
1.51512552541982148e-05
4.51692186698931862e-06
2.74429344763583436e-06
-2.82406819576163056e-06
1.30586974570449525e-05
4.28071688063605629e-06
2.23583584151655853e-06
-2.29687242867105245e-06
1.10502199094739799e-05
4.08818736762906395e-06
1.83606822982662362e-06
-1.88350576858790398e-06
9.11082695002018036e-06
3.93258157569735547e-06
1.52457929422537836e-06
-1.56211601683279677e-06
7.22698837610385956e-06
3.808867850328809e-06
1.28565650363435833e-06
-1.31601029663895237e-06
5.38639616201462323e-06
3.71337278368787963e-06
1.10735307089825006e-06
-1.13259205815296945e-06
3.5756943862711887e-06
3.64372849947777284e-06
9.80819911170461687e-07
-1.00257208954378818e-06
1.78163400175642753e-06
3.59727373179082888e-06
8.99800014021812046e-07
-9.19376176464005724e-07
3.56418956395129937e-06
8.58653087188962361e-07
-8.77065596208860078e-07
-3.6673256334397196e-05
-4.77208728426499473e-06
-9.94726824758808751e-05
0.000139302659389220907
-3.96387750752952005e-05
-4.9227416155717581e-05
-4.3872904489189041e-05
4.88528703240322836e-05
-2.90222452580419817e-05
-5.57439446732837152e-05
-8.37257266811254321e-06
2.31656828445897297e-06
-1.5435402170902504e-05
-5.31661365049390379e-05
1.86289930719425078e-05
-3.37866007211947979e-05
-2.75361415159839105e-06
-4.38094190970881697e-05
3.95790921727972624e-05
-5.93503196749266794e-05
4.88823717239201427e-06
-2.91561972874133348e-05
5.34791498827095091e-05
-7.34895678036727055e-05
1.0272727818297715e-05
-1.14637732360154712e-05
6.14762499835415767e-05
-8.0475978597528957e-05
1.46942248839585741e-05
4.82978860820996431e-06
6.77600617371403854e-05
-8.72137970449090569e-05
2.25856512118126186e-05
2.35465264369606687e-05
7.50104926106436845e-05
-9.61283556444485546e-05
3.92583932066817287e-05
4.77629828677159679e-05
8.47249611766164181e-05
-0.000107509789971252628
6.01031014982110305e-05
7.62222725792466391e-05
9.40478574631552916e-05
-0.000116123897375973293
7.66008527813308673e-05
0.000100669954507878967
0.000101353104674268009
-0.000119683551379634915
8.30709350764525774e-05
0.000112035799967478538
0.000102220291427116184
-0.000116539818849888954
8.05429815638618633e-05
0.000107160279944833899
9.54147622523994563e-05
-0.000107429309808908051
7.41724829639801766e-05
9.03568520455760079e-05
8.28404438945696067e-05
-9.37913314474517299e-05
6.72645591547691427e-05
6.92818120738334471e-05
6.77378415878336615e-05
-7.74885365975346902e-05
6.08789247975326432e-05
5.03708449378809537e-05
5.3346557728115726e-05
-6.10269787972832635e-05
5.51436379722297494e-05
3.67124582593724488e-05
4.14997569877371798e-05
-4.68551882887060559e-05
4.99699917348680987e-05
2.77970261108790348e-05
3.23819319674758016e-05
-3.58985979334522771e-05
4.52789073277731855e-05
2.19722749871072959e-05
2.54330959613697423e-05
-2.77376397336240755e-05
4.10202251103158828e-05
1.79884876993006909e-05
2.0079943332229993e-05
-2.16216030006660708e-05
3.71454183344007211e-05
1.5136452514553083e-05
1.59126141030494311e-05
-1.69648277478357815e-05
3.36065499490882929e-05
1.30215350666674591e-05
1.26469915437401794e-05
-1.337597167934538e-05
3.03596085512849309e-05
1.14111066881573724e-05
1.00768763462368291e-05
-1.05879762426263573e-05
2.73643444740616929e-05
1.01590399422094678e-05
8.04752156556123028e-06
-8.41021347783789435e-06
2.4585693699291941e-05
9.16810237349792448e-06
6.44148345258323023e-06
-6.70207386460729279e-06
2.19931914907244656e-05
8.3731451977563715e-06
5.16836506604358456e-06
-5.35798109092855479e-06
1.95602697412558742e-05
7.72925059729067385e-06
4.15814206594413899e-06
-4.29787898978693838e-06
1.72637663818188298e-05
7.20423240381810625e-06
3.35639004344252278e-06
-3.4606589855751027e-06
1.50833843888518636e-05
6.77455953558033252e-06
2.72068612032842061e-06
-2.79947149469633963e-06
1.30011660338129188e-05
6.42275871959206207e-06
2.21793477800394646e-06
-2.27827577044715023e-06
1.10010415168636742e-05
6.13569550971558538e-06
1.82236573946556153e-06
-1.86928903548432896e-06
9.0685037252365072e-06
5.9034765369677037e-06
1.51398338905901577e-06
-1.551118705559665e-06
7.19040430891711621e-06
5.71869768104053935e-06
1.27736310384311111e-06
-1.30738916741191165e-06
5.35480557498481054e-06
5.57588204914931481e-06
1.10075974489178275e-06
-1.12572117755566349e-06
3.55096474803230498e-06
5.4711263828062824e-06
9.7546318184099654e-07
-9.96970611382007789e-07
1.76887725602056024e-06
5.40079476742606456e-06
8.95320185342719148e-07
-9.1467317335069228e-07
5.3530024218417674e-06
8.54693682241573374e-07
-8.72905382928098318e-07
-5.0914839174173585e-05
-1.51747016935980161e-05
-0.000102043507076113641
0.000163359024042063281
-6.17768162701631422e-05
-4.64857971345875585e-05
-3.81847866388692226e-05
4.63047666332492628e-05
-5.92785961507610304e-05
-5.13934954436192707e-05
-4.6966751683692081e-06
-2.15220344138732149e-06
-5.07197912832290648e-05
-4.38414549252096679e-05
1.70557770579196901e-05
-3.49396775425680426e-05
-4.16314454869519559e-05
-3.12249791809133382e-05
3.54375323995506877e-05
-5.71110308421912032e-05
-3.56318395875357573e-05
-1.34417089879213627e-05
4.76756553408431223e-05
-6.93908026877803773e-05
-3.00588230337992308e-05
3.34371474619286663e-06
5.60222269958886385e-05
-7.64040656272045262e-05
-2.40611517296211011e-05
1.90823244246091233e-05
6.22719033768515828e-05
-8.25231913749419852e-05
-1.61591018736297228e-05
3.68194142590168885e-05
6.93424158905887465e-05
-9.05183076067474229e-05
-3.82911689881468433e-06
5.88231344462658361e-05
7.76941464160429914e-05
-0.000101085416438962767
1.27394692649085894e-05
8.19780290308192187e-05
8.44950161233933071e-05
-0.000106820572706764334
3.09398403101006602e-05
0.000101806972826312813
8.8402233549365975e-05
-0.000107740948302159178
4.61113397586354167e-05
0.000111845161406704555
8.75887961285309679e-05
-0.000102571277131431658
5.54552759205169949e-05
0.000109167954401232165
8.18321169591254614e-05
-9.31856143568795202e-05
5.93232305074850827e-05
9.56392730897826908e-05
7.22356317657479809e-05
-8.13880808038850681e-05
5.92172449815802683e-05
7.70051484418109118e-05
6.07014836140163061e-05
-6.83211087678072188e-05
5.65774630126787115e-05
5.90724651632042939e-05
4.92239918134373001e-05
-5.52883471435279024e-05
5.26979872507355357e-05
4.50339296367032233e-05
3.92042664176704898e-05
-4.36490567996051685e-05
4.84517640255828657e-05
3.51228326134456849e-05
3.10665835340905993e-05
-3.41490447464015722e-05
4.42691749278054282e-05
2.82564834973169294e-05
2.46298872510902631e-05
-2.67340647475264984e-05
4.03151642398068635e-05
2.33835400145595816e-05
1.95615809182684566e-05
-2.10046268463367267e-05
3.66345957116855691e-05
1.98148400224970645e-05
1.55653862050589382e-05
-1.6564629438296138e-05
3.32255185384426068e-05
1.71285313688950985e-05
1.24082355607288027e-05
-1.31070608612689173e-05
3.00687708774727335e-05
1.50607001694613261e-05
9.90930071602193793e-06
-1.0402835891926768e-05
2.71381947257082482e-05
1.34408833352265929e-05
7.92798940526990594e-06
-8.28024943244550005e-06
2.44073678125421172e-05
1.21515429434979352e-05
6.35507859164183614e-06
-6.6093360866946782e-06
2.18511018852452201e-05
1.11129125147704004e-05
5.10516879824994285e-06
-5.29085515929970831e-06
1.94461990188448576e-05
1.02690879017701077e-05
4.11144305354701339e-06
-4.24867040781166973e-06
1.71717740808900297e-05
9.57933554306339088e-06
3.32154958566519368e-06
-3.42416638622927743e-06
1.50090976127038914e-05
9.01365074667363391e-06
2.69443580237196144e-06
-2.77210843676755394e-06
1.2941322156720673e-05
8.54968542284545696e-06
2.19794697565807556e-06
-2.25752114693634689e-06
1.0953199556536338e-05
8.17059253128585019e-06
1.80696651226149081e-06
-1.85334055298510719e-06
9.03084722891980897e-06
7.86362191571829449e-06
1.50194902538365323e-06
-1.53866944309019291e-06
7.16159427744881614e-06
7.61915635312783612e-06
1.26778137902066238e-06
-1.29747763570341273e-06
5.33388061852899375e-06
7.42999388085051155e-06
1.09293635591427869e-06
-1.11762461048125788e-06
3.53723411716468796e-06
7.29079656523644318e-06
9.68851588012940003e-07
-9.90124384322749618e-07
1.76183888305648982e-06
7.19705745339473579e-06
8.89472492311776387e-07
-9.08618144870121196e-07
7.13424599911485335e-06
8.49242016584384131e-07
-8.6727414200991595e-07
-6.22707475468196918e-05
-2.68187424347788806e-05
-0.000100093541778836765
0.000174007167123853144
-7.39060374154592063e-05
-4.29235066706119015e-05
-3.2706601935994262e-05
4.07787934229279322e-05
-7.1268916633886642e-05
-4.45575179066294482e-05
-1.16245354484336479e-06
-8.31126682463743325e-06
-6.30997577404803606e-05
-3.52623621384008323e-05
1.9610382815637551e-05
-3.63593401080209992e-05
-5.41314966297753295e-05
-2.00879635094911278e-05
3.56752677257077462e-05
-5.57817804260518673e-05
-4.50801283628838415e-05
-1.54988865120543238e-06
4.8414082986644982e-05
-6.93588571413414335e-05
-3.67974264567319818e-05
1.52691883113493349e-05
5.63467939674362699e-05
-7.65565996287449898e-05
-2.90670213933077403e-05
3.1223313158232421e-05
6.20370530209850794e-05
-8.19099209915715045e-05
-2.07472014404968986e-05
4.87123460849748504e-05
6.77008260145781809e-05
-8.79149477485611212e-05
-1.06008052324046401e-05
6.84755327763940852e-05
7.34184692496693753e-05
-9.32185696092616687e-05
2.63875421803882353e-06
8.77959871527386705e-05
7.7938134753216911e-05
-9.69970133754937801e-05
1.80820877580964143e-05
0.000103061779706542151
7.9626461670425047e-05
-9.63262634268255451e-05
3.2697481498084109e-05
0.000110269844731798614
7.76146741279420325e-05
-9.06567667557498695e-05
4.40069327465610852e-05
0.000107605743138806335
7.21861843116358216e-05
-8.19356728617481108e-05
5.08535564112122393e-05
9.63486299947751584e-05
6.42063934914788228e-05
-7.1764801656533161e-05
5.34235296081487924e-05
8.05580015160697508e-05
5.48650346423355741e-05
-6.0990441929574055e-05
5.2751444009049156e-05
6.46444149626536617e-05
4.54193928907976885e-05
-5.0321929865376736e-05
5.01681027728587096e-05
5.1337471968240992e-05
3.68508268842187921e-05
-4.05736965420946114e-05
4.67365137270513107e-05
4.12457303505997297e-05
2.96032480275335541e-05
-3.22969717083355576e-05
4.30687805961588394e-05
3.38248036212547939e-05
2.36896153944540468e-05
-2.55921067300126265e-05
3.94490935540335602e-05
2.83370066041499762e-05
1.89367679774520546e-05
-2.02719279475203032e-05
3.59926488301090761e-05
2.42091168192275615e-05
1.51391251733916394e-05
-1.60779027489590065e-05
3.27387266179151801e-05
2.10455133037019853e-05
1.21114032477525416e-05
-1.27750723996857022e-05
2.96926397633093216e-05
1.85788381647344062e-05
9.69909910324007269e-06
-1.01717187438322068e-05
2.68428658470123044e-05
1.66293433238340055e-05
7.7770082210417709e-06
-8.11663704991931489e-06
2.41726903029849142e-05
1.50666540901557814e-05
6.24538313658065398e-06
-6.49183862688720388e-06
2.16629212429577159e-05
1.38015180987566784e-05
5.02462870648803993e-06
-5.20538269792608355e-06
1.92943072079900905e-05
1.27698036807607583e-05
4.05174463142578515e-06
-4.18577325492567528e-06
1.70487237383002574e-05
1.19238327689860814e-05
3.27689628498800675e-06
-3.37739405171208765e-06
1.49093798101825781e-05
1.12282305679236182e-05
2.66072300060908932e-06
-2.73697125664405435e-06
1.28608095750416421e-05
1.06565297626963463e-05
2.17223826889287569e-06
-2.23083552072577932e-06
1.08887848162839193e-05
1.01886709415689028e-05
1.78713671471328284e-06
-1.83281548006918384e-06
8.98019731651297926e-06
9.80936928451459921e-06
1.4864353811049101e-06
-1.52263737962308951e-06
7.1229683788240272e-06
9.50699992043210233e-06
1.25541498369823924e-06
-1.28470908566113143e-06
5.30598509924950959e-06
9.27278557748926154e-06
1.08282555969625632e-06
-1.10719220926662455e-06
3.51901175638400448e-06
9.1001794974935197e-06
9.60293825690451796e-07
-9.81300815160296245e-07
1.75219615689177128e-06
8.98410276740297473e-06
8.81888545954890133e-07
-9.00806381379774506e-07
8.90527284816016956e-06
8.42127292228890174e-07
-8.59963763430067503e-07
-6.87584375899069448e-05
-3.56405929817169833e-05
-9.79039580685854452e-05
0.000175483567410948183
-7.79066740039962739e-05
-4.05610633804904719e-05
-2.76420717471708441e-05
3.44269879820249797e-05
-7.39221029157272926e-05
-3.76480134345047186e-05
2.65840589475554431e-06
-1.35533750902503268e-05
-6.56448452218292774e-05
-2.6202982621079943e-05
2.2402085767040151e-05
-3.97397195841378613e-05
-5.61518941657355525e-05
-9.497172696719244e-06
3.8638706515537106e-05
-5.87237470126229425e-05
-4.62089833853378639e-05
8.93940984111723776e-06
5.01774903352135171e-05
-7.06112505787345794e-05
-3.68755645853703393e-05
2.55736701750543003e-05
5.73379902481338142e-05
-7.69776739538945826e-05
-2.83314303326538872e-05
4.12493733819119411e-05
6.21343894495890854e-05
-8.07063605795995542e-05
-1.94814072005142255e-05
5.78706590646085113e-05
6.62779232121980577e-05
-8.42878938960413493e-05
-9.16787079088757031e-06
7.53689626902276252e-05
6.99509359194538141e-05
-8.71594578402517373e-05
3.06612030571057131e-06
9.16076185581882912e-05
7.24943059459559483e-05
-8.85415975969581294e-05
1.6336465280006415e-05
0.00010353688779981914
7.26546296990939063e-05
-8.64020458426285388e-05
2.89183834722874154e-05
0.000108460457818503921
6.99594989674593901e-05
-8.07342971521055237e-05
3.91754263322321281e-05
0.000105472382089218361
6.47982499812272588e-05
-7.29244459859375473e-05
4.59904735381252075e-05
9.58124829798156976e-05
5.7855206145579801e-05
-6.41368072908256434e-05
4.91822162960236852e-05
8.24207023393843915e-05
4.99509499529657037e-05
-5.50081334890375922e-05
4.93929319032618378e-05
6.85026374394305336e-05
4.19306038734623907e-05
-4.60021261011505153e-05
4.76563160578272953e-05
5.62306836712455065e-05
3.44971637115530405e-05
-3.76560107914238729e-05
4.48975333385930438e-05
4.63548248053381886e-05
2.80373354487951377e-05
-3.03893615319423871e-05
4.17186223376803274e-05
3.87081736711320776e-05
2.26383567244921245e-05
-2.43439244797194456e-05
3.84438811116985746e-05
3.28330725860304909e-05
1.82192222189490012e-05
-1.94412245474127605e-05
3.5231051498512054e-05
2.82942135905605118e-05
1.46410378476991849e-05
-1.55137508763080935e-05
3.21517862020491058e-05
2.47487667449687801e-05
1.17603399612191955e-05
-1.23846993836985872e-05
2.92334814669618559e-05
2.1945436019772934e-05
9.4483249155878075e-06
-9.89715979839162816e-06
2.6478824333383925e-05
1.97081516041714588e-05
7.59571227815124095e-06
-7.92078251411036197e-06
2.38812160760571633e-05
1.79002442632541763e-05
6.11303799625413184e-06
-6.350359112502837e-06
2.14276986225572961e-05
1.64283602939397017e-05
4.92708419290817862e-06
-5.10199051657931668e-06
1.91033680255553058e-05
1.52228059996723566e-05
3.97921719989003785e-06
-4.10942466495423819e-06
1.68932630401304239e-05
1.42306632438933738e-05
3.22251332837705685e-06
-3.32047396422053033e-06
1.47828465233687757e-05
1.34124270061580949e-05
2.61958790232054504e-06
-2.69412854068163277e-06
1.27582645065968695e-05
1.27383424023861911e-05
2.14082697348432986e-06
-2.19824839659572143e-06
1.08064785774050472e-05
1.21856803593960435e-05
1.76288268768304681e-06
-1.80772245098738777e-06
8.91528842877073387e-06
1.17369859757312944e-05
1.46744247562621839e-06
-1.50302362042256607e-06
7.07331859321255922e-06
1.13788818093319615e-05
1.24026190690350114e-06
-1.26908453126014727e-06
5.26999785765520085e-06
1.11012073474606065e-05
1.07042709634366243e-06
-1.09442737491825914e-06
3.49547440641263119e-06
1.08963879224910576e-05
9.49794049712733445e-07
-9.70505697899634628e-07
1.74024096778890651e-06
1.07588315918733784e-05
8.72579776147418915e-07
-8.91248033248620795e-07
1.06637023042898097e-05
8.33394753443801599e-07
-8.51017922759209381e-07
-7.04279945472115892e-05
-4.37794728475374265e-05
-9.26251931870144694e-05
0.00017119178287712357
-7.9108280180914428e-05
-3.84516218598156506e-05
-2.29506784557614765e-05
2.95205451031778349e-05
-7.45469530465088048e-05
-3.07501472311851721e-05
6.81878181598717501e-06
-1.82792943159784614e-05
-6.61427575612137837e-05
-1.72228642043868502e-05
2.67101078274845986e-05
-4.40956466620890606e-05
-5.5304669640332779e-05
-1.10437920036927407e-07
4.16154473393370552e-05
-6.18415890966750662e-05
-4.40391355911168964e-05
1.78630278439512944e-05
5.17721574390380893e-05
-7.19629233256451214e-05
-3.38891697962120708e-05
3.42407423900376392e-05
5.79467487221086691e-05
-7.67656477965328066e-05
-2.48471099872746669e-05
4.95744210385552677e-05
6.1841044750200134e-05
-7.92100536294480052e-05
-1.57812037928859244e-05
6.4991801078108648e-05
6.46610823172611175e-05
-8.08499814930733367e-05
-5.74339577762826993e-06
8.03823111403415631e-05
6.67391614936261831e-05
-8.17921678419437589e-05
5.41710834817212851e-06
9.3969939365789101e-05
6.76739314821895048e-05
-8.11987035391036337e-05
1.69823007574000478e-05
0.000103311999347967959
6.67036550848018351e-05
-7.80461486068736239e-05
2.77451278974361377e-05
0.000106610066256107586
6.36028907152675938e-05
-7.25178220134649158e-05
3.65602293326407435e-05
0.000103469357782545705
5.87002127564375257e-05
-6.55150490154812206e-05
4.26282314182267302e-05
9.50489579720610817e-05
5.25192302323567828e-05
-5.78265639735104281e-05
4.57660009819014314e-05
8.3548870177676545e-05
4.56559192626437442e-05
-4.99245447470245937e-05
4.63840381458159619e-05
7.13267749096818741e-05
3.87104834108945934e-05
-4.21549408146802202e-05
4.5223495152091594e-05
6.00952203437117753e-05
3.21965780774896733e-05
-3.49022848465681726e-05
4.30114972637386344e-05
5.06203268181400079e-05
2.64305081239834031e-05
-2.84850289575938734e-05
4.02753958248521871e-05
4.29648957986578103e-05
2.1520210600209615e-05
-2.30412170180059337e-05
3.73368729912165168e-05
3.68814082872524987e-05
1.74365029417723427e-05
-1.85463619854903004e-05
3.43739649464105268e-05
3.20617890450753209e-05
1.40878558742213679e-05
-1.48925383058448464e-05
3.14805374809043372e-05
2.82248710284594689e-05
1.13652343419629833e-05
-1.1948127729771216e-05
2.87016551132587001e-05
2.51470863877691729e-05
9.16326021510883462e-06
-9.58660871877798061e-06
2.60531592079105975e-05
2.26649558750498064e-05
7.38814936212041903e-06
-7.69731157735181592e-06
2.3537944396141203e-05
2.06415572148312094e-05
5.96066720066028757e-06
-6.18782304840634376e-06
2.11489786050704542e-05
1.89844775306194916e-05
4.8142433764295552e-06
-4.98257233298198262e-06
1.88759218806190885e-05
1.76206056399192723e-05
3.89500089575655071e-06
-4.02088309538439212e-06
1.67072423089970836e-05
1.64935195214813558e-05
3.15917937212324784e-06
-3.254257299453657e-06
1.46308677398975423e-05
1.55608936824966071e-05
2.57157164337264941e-06
-2.64416072718335084e-06
1.26347135183718056e-05
1.47905416028319888e-05
2.10409391321064116e-06
-2.16015942735700869e-06
1.07070552778075026e-05
1.41576275075480055e-05
1.73447529989614513e-06
-1.77834276714753705e-06
8.8367069346313559e-06
1.36429265267703122e-05
1.44516522309291581e-06
-1.48003285185941833e-06
7.01309210653124105e-06
1.32316015716426629e-05
1.22246491073679026e-06
-1.25075778147864816e-06
5.22627276411836791e-06
1.29123211661518357e-05
1.05584874578492237e-06
-1.07944829559528348e-06
3.46690018734879985e-06
1.26766350459547856e-05
9.37437121176109579e-07
-9.57831619635842637e-07
1.72595830853080763e-06
1.25184626473164797e-05
8.61616946054820814e-07
-8.80018940186679531e-07
1.24071560292858881e-05
8.2310932699670087e-07
-8.40505631157067682e-07
-7.08710346814343936e-05
-4.89766595449471536e-05
-8.51750685852215104e-05
0.000161242982023946833
-7.94555168159729697e-05
-3.59991093827797829e-05
-1.80860497880159368e-05
2.4216576316593325e-05
-7.37675682335384836e-05
-2.44555567387898206e-05
1.16627028286180154e-05
-2.36466207033099481e-05
-6.36182651688930279e-05
-9.08947390325373704e-06
3.08127407625457069e-05
-4.90967174139561959e-05
-5.17832611600597259e-05
8.13678615341457501e-06
4.41691635976106139e-05
-6.42527974313013511e-05
-4.02926969654329037e-05
2.556049512669765e-05
5.29652708505435978e-05
-7.21549742319368097e-05
-2.99947327226929696e-05
4.15964221982580975e-05
5.81200811665235611e-05
-7.57755947600997437e-05
-2.07789242316561394e-05
5.64443628932158201e-05
6.10693521455591532e-05
-7.71570653888389087e-05
-1.18241791651827888e-05
7.07477707019921534e-05
6.27704377505095169e-05
-7.74831696818706491e-05
-2.38010859260896261e-06
8.41899129449697202e-05
6.35681423650948904e-05
-7.68218750806366171e-05
7.67650365701242018e-06
9.5445601492306136e-05
6.32730415144054409e-05
-7.48074621718486745e-05
1.77751297850351241e-05
0.000102732399720633632
6.14858077436836376e-05
-7.10072258551869897e-05
2.70285449926754116e-05
0.000104858051909850988
5.81310888266289031e-05
-6.56351881979663028e-05
3.45906740810836684e-05
0.000101710523715079022
5.34669015027502368e-05
-5.92730891923411212e-05
3.99020782674366721e-05
9.42898228315818736e-05
4.78867807701707811e-05
-5.24418660956599882e-05
4.28310389733993271e-05
8.42769843566075277e-05
4.18307158830186746e-05
-4.54902497817881416e-05
4.36550602263479986e-05
7.34520419601720321e-05
3.57369180878343851e-05
-3.86881189590323419e-05
4.29026594119165874e-05
6.31810959420501254e-05
2.99855703460188112e-05
-3.2320278457684952e-05
4.11314066552651424e-05
5.41887194148075828e-05
2.48281890996271721e-05
-2.6625802742044986e-05
3.87845318504982057e-05
4.66647770086562409e-05
2.03709396478291872e-05
-2.17238052498818047e-05
3.61613318755468752e-05
4.05079301664541859e-05
1.66129439864060006e-05
-1.76158685332146952e-05
3.34445425645517991e-05
3.55163311248580391e-05
1.34953281160741604e-05
-1.42328358745886377e-05
3.07414194441493784e-05
3.14687925017267025e-05
1.09361901794801436e-05
-1.14771831040153505e-05
2.81078650213628688e-05
2.81776876758743657e-05
8.84993412526650259e-06
-9.24767914527040642e-06
2.55735445200521702e-05
2.54911357289171908e-05
7.15845716240574528e-06
-7.45100981222576808e-06
2.31483867157426966e-05
2.32823446749491096e-05
5.79103025043499923e-06
-6.00732271924737851e-06
2.08307051943411225e-05
2.14626779096142392e-05
4.6879278480089894e-06
-4.84917156130870513e-06
1.86148188566824035e-05
1.99569246789151194e-05
3.80032886122638336e-06
-3.92152705509023024e-06
1.64927498582345171e-05
1.87069324554465491e-05
3.08774319446046011e-06
-3.17968283548760586e-06
1.44549952563787443e-05
1.76688654846600217e-05
2.51726539334980317e-06
-2.58770880552079766e-06
1.24913152527036955e-05
1.68089543669573448e-05
2.06245544770125308e-06
-2.11701076305661483e-06
1.05913765396513612e-05
1.61008192511138663e-05
1.70221122346302774e-06
-1.74498870046818084e-06
8.74509134013793578e-06
1.55238796082565428e-05
1.41981767291891184e-06
-1.45389258500620013e-06
6.94276099564599382e-06
1.50621521036340846e-05
1.20218136955335008e-06
-1.22990030393551952e-06
5.17515315708356343e-06
1.47033553882403592e-05
1.03921011094936255e-06
-1.0623890295376026e-06
3.43350625112456609e-06