/*--------------------------------*- C++ -*----------------------------------*\
| =========                 |                                                 |
| \\      /  F ield         | OpenFOAM: The Open Source CFD Toolbox           |
|  \\    /   O peration     | Version:  2206                                  |
|   \\  /    A nd           | Website:  www.openfoam.com                      |
|    \\/     M anipulation  |                                                 |
\*---------------------------------------------------------------------------*/
FoamFile
{
    version     2.0;
    format      ascii;
    arch        "LSB;label=32;scalar=64";
    class       surfaceVectorField;
    location    "0.0899999999999999967";
    object      Uf;
}
// * * * * * * * * * * * * * * * * * * * * * * * * * * * * * * * * * * * * * //

dimensions      [0 1 -1 0 0 0 0];

internalField   nonuniform List<vector> 
20390
(
(0.336815227961744124 -0.0200586319276569586 -0.00776514488589540725)
(0.0787052703555341238 -0.0340328353435821601 -0.192231635271650991)
(0.0568902868131371739 -0.00594498301737815451 -0.269750973634154123)
(0.911482511352649682 0.000624112433480035196 -0.00100141306412142306)
(0.658500709183243882 -0.0268133300981323354 0.0962444711141330622)
(0.220143307091700047 -0.0734085582290944783 -0.058313023946835435)
(0.207880274160501421 -0.021750201056178347 -0.117651586759734736)
(1.11682459537733036 -0.00964725548999726193 0.0572155971711068995)
(0.902652839767316917 -0.0216537895950985639 0.212401972548652701)
(0.391665927632711353 -0.0613428407146536722 0.0792096519721695452)
(0.38588694157678799 -0.0217057731408925904 0.0488537479992774831)
(1.29330344143086773 -0.00910765408675536133 0.170319839200658185)
(1.06786939508645107 -0.0176906749177466148 0.30708941483411234)
(0.526680460150482976 -0.0577292998064549007 0.20363607638967382)
(0.554781117181765482 -0.0174799256421391928 0.197820516080076225)
(1.40759192084207863 -0.00867571409624442839 0.247578105989575803)
(1.18781620209102967 -0.0150428176388938493 0.37103522347060941)
(0.66262869533356894 -0.0490074409342261264 0.292026807209952)
(0.703990864054424126 -0.0117128585416439897 0.298042855080520808)
(1.50386408566666874 -0.00995892018116386127 0.319974789007817562)
(1.26220770820276407 -0.0128412112722986367 0.401583622602796564)
(0.76649176793151319 -0.0362132354190928749 0.335001088470833097)
(0.802683854014748399 -0.00515338257281772443 0.360082030107319595)
(1.56573258805500748 -0.0110508135962675558 0.362047288855157634)
(1.29999846827076726 -0.00918328647489899397 0.417018434059175824)
(0.835928724745424345 -0.0212084583893987939 0.359024072975513864)
(0.85678478816085557 0.000975603387459485086 0.390501712516138744)
(1.59351504594541882 -0.0113717554113521892 0.385875664325698919)
(1.2946437219750595 -0.00179074704168812439 0.427663180460967185)
(0.869683084665486827 0.00208895853278938913 0.372237004889301004)
(0.873712714377893551 0.00747260214857748718 0.403128266796608348)
(1.59399176702132084 -0.00880380820374304651 0.4019514903735949)
(1.22387525028580479 0.0126700638360631099 0.438829104516138102)
(0.895165576723488954 0.0388051699611101364 0.385415939712056399)
(0.847447704765772136 0.015655148306505863 0.410178525530643101)
(1.54513960543896434 -0.000801199201673454139 0.41702046656350078)
(1.08331806157688004 0.0324869084355808926 0.451909086428934015)
(0.880894685463026295 0.0746155425556356 0.403824811464518096)
(0.776625880880306374 0.0283950737675067837 0.424603521871146694)
(1.43219573575482806 0.0163804278857693116 0.433277607746131055)
(0.88285959737366515 0.04983142096701626 0.460089709213320819)
(0.810229949417712536 0.103205058339128214 0.425433728379234211)
(0.664937318909068487 0.0418621056573000028 0.442195506694431306)
(1.25173785057577081 0.0362322555164934848 0.448147392547133094)
(0.656988010328982019 0.0565875854012644827 0.450371430928222238)
(0.682649055551767359 0.116568818613419709 0.437413941721862487)
(0.51933961193851963 0.0502107026688422831 0.444774960955365006)
(1.0122739260595166 0.0521844598362050383 0.452041815232039124)
(0.462187843665282538 0.049436972300226506 0.414992220161162162)
(0.526402917670512172 0.108249219842197847 0.425987192501267875)
(0.373721689624614717 0.046979584989524821 0.416469913450657037)
(0.755815044246727519 0.0557422782684907012 0.438169729333769353)
(0.33330466157353017 0.0356934311544776783 0.357657371399016599)
(0.394216138309982422 0.0833835520797705926 0.386827550725311275)
(0.276133504765529447 0.0346819826175821314 0.362474421724052198)
(0.541756783973061706 0.0477725686280825734 0.400360002272069804)
(0.260836730563946462 0.0235645899824254469 0.289494850852637264)
(0.302200045943628703 0.058745182018899729 0.326396968635440654)
(0.224005802451556824 0.0230841445142847927 0.296332423584862059)
(0.385124437662711872 0.0361488764430593912 0.341356631733585159)
(0.222574124468599727 0.0153238431746990957 0.223483496023645034)
(0.247202816657973112 0.0389784663198374515 0.258027698946998896)
(0.199385479285609041 0.0151674568834476338 0.231793184903747368)
(0.29016586838613706 0.0242227292470192854 0.27148937024827885)
(0.198825144788073893 0.0106533119824781305 0.169084322248649721)
(0.214275268213114656 0.0261353238315948609 0.195890722170574405)
(0.184752808375529431 0.0106244129206812046 0.177600367572202295)
(0.240717886227315492 0.0151629986540405652 0.206124296448892963)
(0.179321667179711097 0.00811833126051531885 0.128550982960787791)
(0.190980027589085805 0.0189887643907927575 0.147645720419718546)
(0.17083633808265361 0.00817602126582172434 0.136215654436815908)
(0.21043372521752185 0.0103093244664712435 0.154692835473389301)
(0.16162706268852628 0.00648261337128256537 0.0990878844703235728)
(0.171462517917830182 0.0146928299615499709 0.112714639182972712)
(0.156661014744228583 0.00658375014899093957 0.10562213301319838)
(0.186083392236009532 0.00785688343603218806 0.117317176088850228)
(0.145721468426371653 0.00528592549062138501 0.0771888885047558038)
(0.15437023188146573 0.0117467104041476915 0.0872464983177219933)
(0.143098140171134758 0.00539771109610279794 0.0826710850170463696)
(0.165288611451618661 0.00626882480050827435 0.0902632968822673493)
(0.131513242574474248 0.00440111096026331999 0.060525032628936451)
(0.139221233849956549 0.00964125770099066685 0.0681466596962536642)
(0.130477456543731551 0.00450822719549998346 0.0650899762548605293)
(0.147378940225818461 0.00510069866786711131 0.0701681917138036321)
(0.118758608706928365 0.0037457871555598727 0.047686601781656672)
(0.125695744418824112 0.00810767469715475107 0.0535504611807183159)
(0.118826883596525865 0.00384298598517417937 0.0514559876246220918)
(0.131805004666588343 0.00424282576688992871 0.0549195815447042421)
(0.107216059084533508 0.00325055410137182945 0.0377209269562021887)
(0.11353060219259492 0.00696575413394393949 0.0422747619085596937)
(0.108067417008251829 0.00333872197928047594 0.0408139458303782288)
(0.118111638126420268 0.0036104365945165552 0.0432049143820375375)
(0.0966931210825082155 0.00286760435340756813 0.0299403925648243779)
(0.102477027525601852 0.00609449773679828204 0.0334994943860705621)
(0.098096395172069778 0.00294731029803053804 0.0324666827238510383)
(0.105921908746338361 0.00313425351367431189 0.0341344029736042678)
(0.0870379101944926403 0.00256692793225469238 0.0238389606826615828)
(0.0923643029406388122 0.005416330708900274 0.0266330948571218834)
(0.0888263711808624234 0.00263741156860616529 0.025892316532801822)
(0.0949579927896944676 0.00276862090897629599 0.0270714842704536419)
(0.0781185473582129003 0.00232788914301643385 0.0190382719288773108)
(0.0830485161917955406 0.0048808454748496535 0.0212392479359208783)
(0.0801774811643824054 0.00238936780216559251 0.0207010734905651618)
(0.0849997497063725155 0.00248311209847724371 0.0215454952049369056)
(0.0698229883440598109 0.00213562976788610106 0.015251492783145618)
(0.0744087320074381109 0.00445252988791132454 0.0169894213615432686)
(0.0720702068623698122 0.00218890348410239518 0.0165936024472634544)
(0.0758726182013623185 0.00225681021969116949 0.0172058873575958518)
(0.0620567062805437511 0.00197955044895095373 0.0122596803069401298)
(0.0663434449153832428 0.00410622762855409815 0.0136338216712408485)
(0.0644332649852554507 0.00202548090799903888 0.0133391146943711986)
(0.0674364274153776561 0.00207525855314254692 0.0137888638439376578)
(0.054739356376265938 0.00185209153438242974 0.00989486574478600986)
(0.0587663695774763434 0.00382408804101844191 0.0109813874461392388)
(0.0572034565469574444 0.00189145521391031329 0.0107592588339373574)
(0.0595765094293836672 0.0019283426760441293 0.0110940888742202433)
(0.0478019289216655568 0.00174778472315932241 0.00802763873548969879)
(0.0516034991830997825 0.00359329709883599545 0.00888524526163312831)
(0.0503245255058217197 0.00178123421226931023 0.00871574760100739428)
(0.0521977329197232595 0.00180887860087685379 0.00896853949285522818)
(0.0411843001615072035 0.00166258352600584525 0.0065580272210358833)
(0.0447906475525342643 0.00340448984166438155 0.00723205922708981298)
(0.0437460888821023519 0.00169065248633925246 0.00710106853399762768)
(0.045220044530696682 0.00171164080964812389 0.00729481300640809349)
(0.0348332068745781029 0.00159342409514947876 0.00540882435258147314)
(0.0382713192404047844 0.00325066721320584106 0.00593425757834203059)
(0.0374225121309035222 0.0016165556540014463 0.00583163613805265293)
(0.0385748790428116009 0.00163271920865120474 0.005982597847562123)
(0.0287008380332077345 0.00153796256601855291 0.0045206455798012116)
(0.0319950815114273257 0.00312651937775881156 0.00492432141062339093)
(0.0313119577924091258 0.00155651962095536126 0.00484269678164425503)
(0.0322024649445157019 0.00156915662852269693 0.00496251568945860807)
(0.0227439546712507983 0.00149441241340115822 0.00384820136195558864)
(0.0259165103767308655 0.00302802452318661148 0.00415049160238732326)
(0.0253758314969955191 0.00150867752372620362 0.00408440016245840282)
(0.0260500184965741337 0.00151873971982938822 0.00418158779742290859)
(0.0169232775375627795 0.00145902475751420149 0.00335754229930976386)
(0.0199944091014176394 0.00295215368009387911 0.00357355963484653648)
(0.0195784461845347688 0.00147160526847410749 0.00351881698846103754)
(0.0200704316684530842 0.00147982223320649079 0.00359984610446928551)
(0.0112083343422629631 0.00142811368458476144 0.00302399354503888945)
(0.0141925626705461348 0.00289390923053051792 0.00316454782340009786)
(0.0138884852239063005 0.00143947138626815147 0.00311783546974361662)
(0.0142230413221038389 0.00144634145020834421 0.00318784635317861552)
(0.00557536988357824198 0.00140781060546930426 0.00282809124354994022)
(0.0084722236877035409 0.00284955924173683995 0.00290291491457420449)
(0.00828202450379502547 0.00141090860640987088 0.00286149420173523183)
(0.00847590072707301613 0.00141684381579123804 0.00292466763376894763)
(0.00280815736135848386 0.00281904287072661441 0.00277014155331661849)
(0.00274483776422441853 0.00139960522152069756 0.00273186205899551143)
(0.00280831873546537715 0.00140511165109652859 0.00279150454539935783)
(-0.0740905055518954608 -0.0590202926698356056 -0.242779514332591484)
(-0.035137738270565759 -0.00258138294919898342 -0.406321359991576092)
(-0.0564513169662010234 -0.0139067805212003751 -0.28103568190030942)
(0.23542727452991119 0.0107815319392530213 -0.292218537203263795)
(-0.0575062283778986078 -0.0868393176940376321 -0.0753478430887991046)
(-0.111693910299113353 -0.0755411402128310233 -0.160842447598133542)
(-0.119095822732385101 -0.0571791741686727764 -0.141142011057341726)
(0.163036282233287977 -0.0446044496423665879 -0.1288263896322)
(0.0134342550409879517 -0.0843455154143068347 0.0704437558131900954)
(-0.0750886984083838638 -0.0818937339909667356 -0.0155110799947776688)
(-0.102731008300424045 -0.0578135574845581868 -0.0119521471058672314)
(0.260078641553699252 -0.0804733988164727382 0.0178857056796734581)
(0.119016567551489885 -0.0808155197315085644 0.18857346876551323)
(-0.00355593880682612828 -0.087578411891388902 0.117575890496804517)
(-0.0457412661141396379 -0.053062833702618134 0.0959889701501185494)
(0.422712059775611548 -0.0858754723277488086 0.141873195509014921)
(0.238636303269010946 -0.0696470303935517593 0.255992672210175798)
(0.0802745243589640251 -0.0814368429998936216 0.201067124574288186)
(0.0441668438487210144 -0.0422556563267215343 0.174208828873833266)
(0.55309804936668705 -0.0828185889931642855 0.22897069942463083)
(0.34026570977235987 -0.0492063614716309258 0.292441538843550231)
(0.151559463723422549 -0.0664385824667059893 0.244242355405264011)
(0.152570501036021489 -0.0237833075978475424 0.231103912071779272)
(0.639926211459867833 -0.0672152860220963932 0.272283952994026579)
(0.407997537254276843 -0.0219161577977274244 0.314242643805639044)
(0.202403590334550743 -0.0401253537926429676 0.268872253523103233)
(0.237831858556699999 -0.000371544364248397902 0.26674590393669112)
(0.69684192592534977 -0.0443450041244079426 0.296644736401984577)
(0.472163587186701483 0.0148999615158687988 0.329989764140390052)
(0.234652891100575772 -0.0163225066744612617 0.286319153195497389)
(0.28460154409773053 0.0243000343383923088 0.283923887012513587)
(0.730497681405599897 -0.0139008593522965372 0.311267976656428469)
(0.549674362482491796 0.0596874342397663502 0.35041164666043656)
(0.284733942295024023 0.0165131172349875892 0.307362344685918387)
(0.342074965069219639 0.0543676770671103204 0.299613113533381659)
(0.79252880170035489 0.0280328046063427691 0.33254122827306748)
(0.601692676535618531 0.103020247071100968 0.377349453414818459)
(0.341587102226972417 0.0666425645025566504 0.336818114738849594)
(0.391667256418300913 0.0846350380883159059 0.326669681927748312)
(0.840167270213505901 0.07383689811924532 0.362743430911684761)
(0.603557140602850706 0.135819675686315727 0.402757960887775712)
(0.392002106389902738 0.119987159079798941 0.364934766123585441)
(0.417505499422055226 0.111866594680196718 0.362565780044328434)
(0.842695999387540473 0.115111953905709885 0.397996949719223558)
(0.551293345452923411 0.14662324884408795 0.413029703294908068)
(0.410258381215771961 0.158141352200649316 0.384060201410995061)
(0.407126654511892228 0.128119579129792244 0.390470284527665579)
(0.789169737706815644 0.143779127120837846 0.421355373465192973)
(0.463026077778000145 0.133145328994201118 0.397822523065417044)
(0.387414025528937389 0.166700064823913197 0.382490377872192089)
(0.361323650402019747 0.121719992557209208 0.390885307911435775)
(0.68327143482985353 0.149343822696170914 0.419523788108379259)
(0.368516720702503631 0.106179179146600994 0.355567147961734664)
(0.33723796724291899 0.148190718148219935 0.355658181261544137)
(0.303631288652816078 0.0996845395643951721 0.357453407385168676)
(0.549243732333467238 0.135910444611903075 0.392562888563555368)
(0.292941644870253981 0.0769898191444915586 0.294929816729802452)
(0.283715420883673797 0.116859414313243481 0.307220831227587476)
(0.253504289821366025 0.0739357493902412233 0.301313733551557106)
(0.419975582671785252 0.110027823379800022 0.341972343019364799)
(0.241215416053106591 0.0526902210548441871 0.230434925093928572)
(0.241673350626811945 0.0842002616159596845 0.248170297127881884)
(0.217860144895437952 0.0518045556863939993 0.238896669257054051)
(0.321346930433228872 0.0787805533215884812 0.277620559820176471)
(0.207241971089040272 0.0361940369515624735 0.174452120341642564)
(0.21160457004401656 0.0580913899311732498 0.191530803219770618)
(0.193262033616583506 0.036227170524640244 0.183098585201421193)
(0.257453780268707022 0.0518991873578593318 0.213045793190630967)
(0.183225965874779906 0.0262830171535389234 0.131809376641903481)
(0.189072839989666536 0.0409991652679994878 0.145700930732683587)
(0.174923154038425066 0.0266048819107306302 0.139564915476844076)
(0.217310049024999841 0.0347445181075577009 0.159580066124226538)
(0.164049581485300827 0.020221380030657269 0.100873253030371354)
(0.17025840099756806 0.0305755861438790702 0.111637542077233864)
(0.159237781379791693 0.0206082888040605323 0.107487711408496611)
(0.189288511721384584 0.0251363360288442798 0.120088192696273272)
(0.147598877793111871 0.0162046342167133511 0.0782042695092197704)
(0.153720751395052785 0.0239672708086482826 0.0865516204393191463)
(0.145070342359889165 0.0165845088531007719 0.0837489515369198162)
(0.167366396118467792 0.0193767235054584167 0.0917501624076364486)
(0.133108184471571606 0.0133898558606062659 0.061172088248035543)
(0.138949480022629052 0.0195048841403344143 0.0676958636976443262)
(0.132136829531991462 0.0137403128658236413 0.065779818874640808)
(0.14906226592565322 0.015546390971269362 0.0710252441043323218)
(0.120177432168100423 0.0113465021519988888 0.0481386213076213446)
(0.125659180404488424 0.0163380042876327229 0.0532633692419790389)
(0.120285068594187666 0.0116607817342541404 0.0519380951018431625)
(0.133297556455513111 0.0128592277510330422 0.0554748243003899272)
(0.108517281991844142 0.00982061761783820791 0.0380533293384280255)
(0.113633916399351498 0.0140079364320724788 0.0420929416890751945)
(0.109387877228365737 0.0100981272203796105 0.0411678527882161568)
(0.119480113255122616 0.0109114605515982406 0.0435975119617072471)
(0.0978994343400919204 0.00865298122938789986 0.0301921966783680398)
(0.102670316109301371 0.0122464529569283349 0.0333847128088754289)
(0.099318667513566064 0.00889660388130748825 0.0327344415556690485)
(0.107190700517453358 0.00945926936764216776 0.0344254228904642551)
(0.0881525057238737308 0.00774099351707363981 0.0240333821103812066)
(0.0926088521184874752 0.0108835915479680075 0.0265611742893936999)
(0.0899621096344635496 0.00795430138213128884 0.0260994388177478651)
(0.0961312498155538209 0.00835009695412143593 0.0272925669674297065)
(0.079142160516489396 0.00701718379097414444 0.0191903973685868395)
(0.083317492503773391 0.00980904045673975343 0.0211946970059884929)
(0.0812266409767289366 0.00720294559861383958 0.020863235626400814)
(0.086078781857226519 0.00748577355601410047 0.0217165945519189468)
(0.0707573312661158998 0.00643553285252448405 0.015371750249638454)
(0.0746845636411243297 0.00894952344826115478 0.0169623909384197837)
(0.0730329988369960298 0.00659641760878487693 0.0167216761885544372)
(0.0768594216043679002 0.00680133397996793548 0.0173402537483680862)
(0.0629041857972584412 0.00596382891218279806 0.0123555288104399679)
(0.0666145580445163255 0.00825478927935031741 0.013618032801824987)
(0.0653110255718747229 0.00610244357689095074 0.0134410399881257168)
(0.0683336337544575984 0.00625269221664026976 0.0138955121322030823)
(0.0555027228264009659 0.00557905469271099269 0.00997176696298633994)
(0.0590250539471318877 0.00768924717077404136 0.0109727880076619776)
(0.0579981785037821038 0.00569773777956736598 0.0108409840989016938)
(0.0603870675479742935 0.00580909916771280965 0.0111793511402454564)
(0.0484840168134343108 0.00526443744929675547 0.0080896657532332425)
(0.0518445812005030593 0.00722707498718300461 0.00888117357959998001)
(0.0510385208389994988 0.0053651759627050535 0.0087817390324347426)
(0.0529246762484581121 0.00544862284410608383 0.00903701822643721703)
(0.0417878318625439019 0.00500752203762534591 0.00660828958439596634)
(0.0450106201188854235 0.00684914700901763894 0.00723075807928541883)
(0.0443817565021386237 0.00509197532740848433 0.00715467469285300042)
(0.0458663101877280835 0.00515525840842977635 0.00734999177174729904)
(0.0353607037103167085 0.00479893991335199679 0.00544975463638393103)
(0.0384677878868040155 0.00654109978820652596 0.00593459136049295094)
(0.0379821787396457458 0.00486847616747621351 0.00587541833544522225)
(0.0391431976672192844 0.00491709977024444578 0.00602721845948134185)
(0.0291546462400645509 0.00463163574288689983 0.00455416743320949651)
(0.0321664477955188044 0.00629213052111573731 0.00492556893476904251)
(0.0317978139465639881 0.00468733382440434786 0.00487865374152113892)
(0.0326953510468145289 0.00472525504729963061 0.0049987712538648978)
(0.0231263628035325922 0.00450034177335469163 0.00387584987527828887)
(0.0260618061335783531 0.00609418856052600273 0.00415218997305756912)
(0.0257899803262560158 0.00454299638783669385 0.00411410081162994282)
(0.0264698456729103859 0.00457313836972813269 0.00421123294924466256)
(0.0172364677184468733 0.00440110306097761875 0.00338056515893687352)
(0.0201132490317978037 0.00594139645390068163 0.00357541526140489141)
(0.0199229843500406366 0.00443132704606394919 0.00354352982687441238)
(0.0204195188336109903 0.00445590983131550697 0.00362429458608949477)
(0.0114422220360677271 0.00433030388265773659 0.00304346919293540944)
(0.0142843824606276783 0.00582996559916450999 0.00316637184684021846)
(0.0141648201852003879 0.00434914387323878052 0.00313862371574546604)
(0.0145029558820573851 0.00436990735636890934 0.00320823068654015357)
(0.00570122880562042283 0.00427886941505582676 0.00284496522434088059)
(0.00853442234299251271 0.00575563797086530229 0.00290464281794211012)
(0.00846994058715446786 0.00429282446676351476 0.00287936004486977638)
(0.00866627406548997441 0.00431113757194647763 0.0029420037646847759)
(0.00283187830829171932 0.00570270330232205015 0.00277163612458503116)
(0.00280840007751009986 0.00424812466928288501 0.00274768987900468912)
(0.00287276084053388883 0.00426517960204695571 0.00280660990786834891)
(-0.117354420270071022 -0.0435195839217847671 -0.324384293257120704)
(-0.0451671346652452663 -0.00763533965482396122 -0.487170205654912314)
(-0.0634106514764318507 -0.00333328310584911792 -0.318312583922818415)
(-0.0935302167716789146 0.0625621683333391909 -0.445768510045506217)
(-0.126844080240944485 -0.0836024398090651349 -0.101005684504112458)
(-0.176729142042010012 -0.0787638658491481292 -0.160277781266787434)
(-0.154945974819508309 -0.0532989580931373524 -0.140393294365404764)
(0.0182601763562907082 -0.0632025046062890394 -0.156329185036903157)
(-0.0928711848257338796 -0.0917676564217720647 0.0316210546888361019)
(-0.159833719969584037 -0.0891903114772540501 -0.0185367566806154127)
(-0.150630146645878676 -0.0590746262756122534 -0.0267922325379598078)
(0.123939241563359726 -0.127815175218271515 -0.00741301851026872349)
(-0.0493932869468896169 -0.0917629443164405811 0.130069546305579015)
(-0.122582532614259887 -0.0850658184079025326 0.0865220176971718824)
(-0.120782612478567752 -0.0573894461040296705 0.0596127778302164915)
(0.167837445947746328 -0.136589737490884683 0.108117122307823374)
(-0.00881156528511347834 -0.076419016315590102 0.189316807769376427)
(-0.0826432548215189355 -0.0700950705553415182 0.158652576998019129)
(-0.089058869455632253 -0.0500020576284244608 0.126653094952950601)
(0.176732808575449485 -0.12697611656742222 0.189921022959764679)
(0.0156423589516528766 -0.0488619242198569254 0.220673070084816708)
(-0.0576448300295861471 -0.0466499156598609369 0.198260878641255273)
(-0.0576154489083540999 -0.0287258043895294128 0.171133279624670787)
(0.170218263742398818 -0.0948460760098547018 0.23516661697175284)
(0.0328727290185542656 -0.0207673321348926972 0.240948762912961661)
(-0.0429889492984571048 -0.0183420371776247294 0.220433344990172114)
(-0.0335629620193338488 -0.00128279836441599795 0.196723999947331113)
(0.169318012784901745 -0.061856085717597438 0.25752313151209244)
(0.0470215196286675047 0.00896292369260805535 0.263691733741025613)
(-0.0238393550767246887 0.00772766177313599732 0.240097982232722829)
(-0.00782763983920200732 0.0228152779910338437 0.216832197558851109)
(0.181984209314250217 -0.0292666661086105756 0.27908415054370922)
(0.0722740838778008626 0.0492297535275308673 0.293768812764331588)
(-0.00509470107842113079 0.0376744422991370509 0.264780031510848335)
(0.0133484233620482194 0.0480077894616503589 0.240033576354060252)
(0.207633092818696713 0.0114835250477707939 0.307610738062235878)
(0.125626858261380064 0.0990172812118815804 0.324403427447616632)
(0.0305138408009356515 0.0764207725883458283 0.296607814032426531)
(0.0472747905327646489 0.0804309819642228113 0.271119875765171769)
(0.249978084857378935 0.068276431771656057 0.344031327908007778)
(0.192329924794273882 0.144479233699099874 0.34623700664680479)
(0.0882214477552156068 0.121955636126793929 0.320358431964910817)
(0.102582328603579992 0.116949198058716938 0.300953143882096208)
(0.303942321850263764 0.126516082455969431 0.371596471603112266)
(0.245122728900259157 0.171249365861379788 0.353520875988279082)
(0.149368444040260784 0.161071927212607019 0.333158480001064183)
(0.158465555665982638 0.144454421886985429 0.324329934957659327)
(0.344596740714490646 0.171016231220674303 0.382987364414834552)
(0.265826992244647786 0.171675968382411809 0.340326036068319238)
(0.195221624655303128 0.179257279947965475 0.328017630203464861)
(0.19558373457716921 0.152439420692920491 0.327104932566771978)
(0.359029185415139729 0.19143767017350144 0.372927420319643488)
(0.25773754100435603 0.149549020709642239 0.307311864527397116)
(0.214922859934699395 0.1714564479117342 0.304722445398669051)
(0.207173251621158766 0.137741692109716096 0.305327239207679124)
(0.340833038160453072 0.185194273698241096 0.343773791388506278)
(0.237351945484734789 0.117105132669390544 0.260461311625667158)
(0.215587491437502998 0.144570963272921849 0.266924724198311425)
(0.202941811468638045 0.111368018585935924 0.265089420462622571)
(0.304657134555752718 0.158336715479689055 0.300132260631845893)
(0.215246589295259388 0.0851673482715215036 0.209266175253724401)
(0.206982193657347158 0.110850899318133966 0.221238182408707018)
(0.192796967262884422 0.0833967013362591908 0.216761093081067363)
(0.266009201993140432 0.120367833547425557 0.247963317112111004)
(0.194812559352103482 0.0604535039470887048 0.162779613610811003)
(0.194347306330855618 0.0805933519006091226 0.17595308448141625)
(0.180818019603276842 0.0604819134981000456 0.170708984729969288)
(0.232855515678080771 0.0842949867871927438 0.195286332151305808)
(0.176459641511135024 0.0440495811468553308 0.125529096168013832)
(0.179747513784922708 0.058739933214995689 0.137298213925370144)
(0.167995148811636102 0.0446215394912039959 0.132799222360759556)
(0.205653671402592442 0.0582943683036205931 0.14993660252385943)
(0.159903973551578538 0.0336730714332441269 0.0973159094861818785)
(0.164657079983171695 0.0444752417774064573 0.106990154780867902)
(0.154941949624833153 0.0343398081856334733 0.103622182295922363)
(0.182877159584923454 0.0421227281993334923 0.114875513387047642)
(0.14489250344887436 0.0268986803123197581 0.0760432146277434523)
(0.150099673397803612 0.0351556399793717944 0.0837946744857924614)
(0.142246369958642871 0.0275405233637954598 0.0813859070763831849)
(0.163406099262909832 0.0322097808992944032 0.088760447147597038)
(0.131264720353011011 0.0222267785667929381 0.0597871446915878152)
(0.13649353728167829 0.0287815803188809505 0.0659562385661371653)
(0.130207303038071959 0.0228135917363031029 0.0642558186631355943)
(0.146459005100513073 0.0257740171022350084 0.0691891296021309582)
(0.11886533867008249 0.0188532071524602739 0.047217689623432986)
(0.123927642830933382 0.0242183240232848457 0.0521181909048774733)
(0.118919189450384044 0.019377904414421724 0.0509203651297582272)
(0.131509428038505793 0.0213321739727457133 0.0542874487930743721)
(0.107540959837082548 0.0163343868998225561 0.0374243251595226326)
(0.112361489687307525 0.0208344561066681963 0.0413163475168280003)
(0.108379776131401956 0.0167971613595063185 0.0404703729399689682)
(0.118194723379211983 0.0181248077875882929 0.0428031093739058219)
(0.0971507473641115699 0.0144055790258258935 0.0297536904199010889)
(0.101707570335985389 0.0182577707010518654 0.0328462044866334943)
(0.0985451962565334072 0.0148107664199400944 0.0322460043079579664)
(0.106234294070013252 0.0157321854226131763 0.033881523976404232)
(0.0875659023169973044 0.0128977807847558638 0.0237224891850009167)
(0.0918645629161432276 0.0162544639075349433 0.0261810734604570987)
(0.089354333242586792 0.0132518847969117243 0.0257520690097955696)
(0.0954006830989758553 0.0139023657439907716 0.0269126831290809193)
(0.0786742198377342189 0.0116994231334109459 0.0189666905758214543)
(0.0827317733063667599 0.0146689637975968342 0.0209223065299297337)
(0.0807403227840698401 0.0120078487779809225 0.0206127470482664922)
(0.0855082698761193694 0.0124739011640566371 0.0214466363667437238)
(0.0703782127703179022 0.0107352279444725193 0.0152086734906063149)
(0.074217023981200142 0.0133970323164102796 0.0167645611793887789)
(0.0726379274878414111 0.0110025262529256772 0.0165387682113393823)
(0.076405516788669775 0.0113408604607163413 0.0171455394909713309)
(0.0625928631720188977 0.00995268897135058103 0.0122352919990469967)
(0.0662370998727653537 0.0123668009556650148 0.0134726627220376483)
(0.0649859135238790298 0.0101830993920117765 0.01330605461102124)
(0.0679667348716899294 0.0104315677678739945 0.0137532127673182687)
(0.0552440524218202819 0.00931406088290138469 0.00988219462427558822)
(0.0587175609757698835 0.0115267718461089623 0.0108648316413787697)
(0.0577275850115567951 0.00951136028573274991 0.0107404481390161004)
(0.0600864032691318523 0.00969576700879978652 0.0110741087538403175)
(0.0482668300443261297 0.00879165279957960615 0.00802226590565212686)
(0.0515923587401856884 0.0108392952569285102 0.00880017652644434975)
(0.0508110184724721442 0.00895909065815900414 0.00870619558505107347)
(0.0526753094376251341 0.00909739567201830676 0.008958308783028281)
(0.0416037313082011362 0.00836482350961483684 0.0065570598553824043)
(0.0448027424727378484 0.0102764139513474816 0.0071693446022643879)
(0.0441887365884114161 0.00850516961615259935 0.00709739128961265914)
(0.0456572496252724419 0.00861005736726692256 0.00729048246543097592)
(0.0352033328539637438 0.00801806029897619323 0.00541040565887804074)
(0.0382960424063224641 0.00981711281554484803 0.00588749602711411291)
(0.0378170725354580045 0.00813360381775813518 0.00583157036628984948)
(0.038966228251880633 0.00821413602153773376 0.00598172491354987887)