/*--------------------------------*- C++ -*----------------------------------*\
| =========                 |                                                 |
| \\      /  F ield         | OpenFOAM: The Open Source CFD Toolbox           |
|  \\    /   O peration     | Version:  2206                                  |
|   \\  /    A nd           | Website:  www.openfoam.com                      |
|    \\/     M anipulation  |                                                 |
\*---------------------------------------------------------------------------*/
FoamFile
{
    version     2.0;
    format      ascii;
    arch        "LSB;label=32;scalar=64";
    class       volScalarField;
    location    "0.900000000000000577";
    object      p_rgh;
}
// * * * * * * * * * * * * * * * * * * * * * * * * * * * * * * * * * * * * * //

dimensions      [1 -1 -2 0 0 0 0];

internalField   nonuniform List<scalar> 
7236
(
187.917723052054214
322.080188933862246
419.308442800190051
434.882551040078454
418.269098910432831
383.812062220181701
332.587108523225481
294.345312050479833
276.402365954027061
272.126412533484483
276.194645831669959
286.469948655723897
300.823853510544836
314.254454279809295
332.192576859849282
355.572451694671827
381.178498382000328
398.735254401887119
398.143718156454781
384.207382692059809
367.803524080295404
354.602214720559971
345.280907774023433
336.634992838963797
319.574908748716609
305.479773336408584
306.572394444257611
310.749405386044259
307.482236117880518
300.233123152237624
303.027333101196575
317.973829557861734
349.437274602512161
430.037646300448444
658.417377864054515
1131.66977661262172
1687.43570082657038
1904.38978373184227
132.653046685596792
237.586663332528502
359.541903493781774
385.311941028795673
367.637247085478407
363.994720734690532
298.558224236287742
254.811393367108764
238.296602391832693
235.501482386488391
247.863201025761498
264.433077444319281
286.000082710198171
304.657105458474518
326.162697486533773
352.196400545074482
381.363353398752167
399.826783669086581
396.141649877909174
377.749891034562211
358.731674127743872
345.722821236611992
337.065182920996335
331.379545934553505
300.511943829793665
277.995418856196295
290.028498828748752
302.907968810105729
286.401731136813851
267.734830415066654
272.760628828191443
288.78034457052172
294.947507769430274
311.241791707639948
475.672637039576443
899.09219002910811
1579.9392406737029
1938.29473184697804
113.728750952220324
119.024336730108402
219.432321482716134
253.194227940398207
200.922646625388836
155.834904252403277
106.933960087380711
76.3770493570358155
63.8082217947741839
60.3274656073293443
61.6067870156215918
84.6175122860743869
113.453031771958038
91.6614790200735712
163.784817885252949
230.18437334007919
304.015657803689123
325.315791835198297
291.330100725168336
241.458106265035639
196.53985369867803
181.257759684951395
175.777966616153464
171.419755514933399
108.263461212251258
75.8331016160288698
93.2885845334642028
98.1123777604915261
123.836546900079696
78.2563387488117854
81.8513438240469355
95.6223698803349293
108.141942566985875
127.185742663735056
168.141038387831941
456.007309767852803
1271.15745080436204
1888.82428898194576
80.1521230010797581
66.4797615398564687
71.0896427166932341
117.846668251909463
162.696333254055787
134.36843391640457
92.7423119357588774
71.1524298456855746
62.2269338732824195
56.5683542876446879
50.2692289009061071
45.1367064473339568
45.0911195869969816
47.6785869693018185
54.5424443955592793
66.0222301652635792
83.4953585168070163
95.4796483962368541
94.4472685612139742
91.3979209393615122
85.0164627384613993
77.1142177180157944
71.9609960900336461
69.0156679962403388
67.7841996014018235
67.4558459668232899
67.8169435099881071
69.4595137474124158
71.1918446317924065
75.6122562115776589
81.2318010650991766
89.0300466719507426
99.6838573025713117
114.442896673489642
135.952524293558497
211.899023908843589
946.832684144978771
1717.16746158371302
46.471124594196155
21.5375181500258464
55.3284036902937757
104.788092778846774
131.390934706866744
100.602153510865648
55.9097539753863586
34.6025479312841995
28.7382387453555523
33.2008971263068204
45.9590516028074987
43.7986936887053702
41.5964036402592825
47.9425725617122893
62.5461393783359014
80.1201088660999119
93.789081504561068
101.233547159677599
87.4704337747511431
84.9904423323308578
82.0415466927550625
74.4353652927239295
68.5525398964357606
66.0138872585452106
65.6392790058090441
66.3413530037259136
67.5845350344995524
69.2338731624011245
71.7187171003798625
75.6242443866246106
81.2389654059162325
88.987396201404195
99.4599635320010975
113.732630890372292
130.785987236014876
165.126177392235064
668.501917801655736
1524.93882995877971
14.1703709414134114
16.6595395835027382
40.8246052175356127
92.2914559236025127
103.639123138517121
72.8342648305114722
36.9705399731774662
21.3310561761108275
17.7071341546126177
18.5699760024179241
21.3964217733885178
27.5939379600358485
42.4341965910041168
55.7284077980810437
63.5918920655696951
77.4125770140981899
85.479162236991769
74.6223184942012381
79.2072420579452512
73.5389053837615307
68.252413772042118
62.4976670874285176
58.7598716906191569
58.6792430648741146
60.9290606962295271
63.9293897214068707
67.0361339769058873
69.707900372575736
73.2754772160128738
77.2380523845475295
83.0361005978383417
89.3078334206914519
97.906792324419996
115.130805868636543
132.099079711464299
150.738045021671894
362.292999622865125
1364.71687560777559
16.4099947566340205
12.1520545847310597
31.4840645306093734
81.2479001918045469
79.5998196045883191
42.2434571704923982
20.7760974075709335
15.2685521610704544
14.5168661319995511
16.1925341878620905
17.9767578145174127
20.6928646847205506
24.9094329903954872
29.2356727807311003
34.9630047449614239
64.4434007047447892
76.9992072014829461
66.9390627874467015
63.8592845684751964
57.6536677464014247
51.721712915029066
48.4112481396928729
48.8731246836904987
51.8450934390352316
56.0962081491325577
60.5546655418780944
67.1673916901326749
70.4741169927098099
73.9623808174624742
77.6516594906448319
83.596035114824474
91.0205233118547881
98.4978899999744471
111.642113384752435
128.51410662974223
153.207725160987053
519.045428199741082
1290.47949307527642
16.6982551281954272
8.78090479053668282
47.124630765091581
72.8708283716793517
41.705104468829802
20.6564713877888089
13.8748891822541971
11.8471596494253362
12.4735515407346025
15.3051031645488749
17.5901215227335257
19.9928634982030715
23.5157418886808038
27.780820708095014
34.1951893636351159
43.833452381154963
47.4438429923716569
52.7280390681922952
47.1565528449275391
42.3397382813088896
39.6538224405548405
40.4202296633453955
43.566422574347186
47.2793759807529241
52.2298034424989552
62.2287861876255874
66.6589761243512982
64.722205782064151
67.9912214055793669
73.4210178820654988
80.0428118153484434
84.8659101023224594
95.8746514019409943
108.494471681654062
115.109989460772653
217.579532581353448
881.269482592730014
1250.74428082741474
17.8891710225418947
9.36918163839822427
60.7431355225914515
75.1535901110865439
29.4298238408417099
13.2339844586462529
9.87304654700057682
9.388833990284283
11.0301258954761092
13.6720757372554029
15.7132204310809271
18.8082384269504637
22.7875605123752507
27.3979473706189722
31.2313317765104017
34.5663316711343214
37.3793057815525742
37.5343607512568767
35.6998807851627902
32.8514473493590629
34.0318780887011911
37.233350604507244
42.5529805716102842
47.7526536027429103
52.0312934503359017
52.6355857730506926
55.0553705367891979
55.4484379594336119
58.7342874099250238
53.3127320712424151
60.0291088179889982
71.901795525311968
88.2488346250872127
106.599945194678057
96.4953321902480354
190.139537133670387
706.732807846033324
1206.16702828364055
21.0180407421585933
12.0453662301491029
66.1003531300841587
78.4934749087300077
16.9882971722669858
9.06342986592061273
7.35721242768194195
7.39328925070122356
8.70373077695620623
10.9593693953421578
13.7903256955996767
16.965308081526544
20.8939230808213736
25.6406417370102844
33.3468775826826516
29.3683465055485975
27.7822850792737626
27.6975160946577326
27.3535442135058382
29.0522080755175267
32.3790600783850451
36.1543768336748172
26.2310916119577016
21.8505604965468478
75.3528160665489395
78.7560113759692086
9.20524519508125039
6.60231413602435158
5.53946606851230161
5.78092997596964242
6.96163131708188754
8.91436551221705642
11.7009011064854107
14.8291065508591871
18.00934178162683
26.0681346418825584
34.0306018156250474
24.2244937226802612
22.3354459797984291
22.5595896620703975
24.906845236258004
28.1573243265701372
32.245218379046193
35.7332194517867734
31.2363080875073713
87.2113355217927193
90.2750238513543763
16.1826270234606859
5.45312217681458566
4.83384690127295258
4.2549534350764171
4.5643771303547922
5.52629418112674387
7.23821964003714413
9.63365185215981512
12.3771252853271054
16.2071182965630136
27.9805427188268148
29.0236116889672786
21.1559335427342923
19.3779203001041971
19.9009429598724168
23.2800436928385714
28.0282520067199066
32.3382208970523024
35.9792161622163036
35.9375811066055206
109.706125912598807
102.234298906320475
13.255492624476334
4.89013525900124701
3.69973019063746023
3.41065146367922845
3.6989123971969442
4.44596436960009544
5.7971753390555314
7.62324649982225644
10.3000114797944757
14.3039077560058825
25.288133230982627
21.3501600516324999
21.0855520789523574
18.5054748441494077
19.6474860628014731
23.427742288738191
29.2038290875416671
33.1567430621260399
35.9775858919605653
4.85243298640337617
6.27776860748692478
8.92336415524397708
17.1385928693537934
25.1647158470388774
20.9800752236863772
19.9835236959497315
27.553413329282062
24.7649833722256183
25.4914472962898486
8.70149155126975948
20.2538821464019847
24.1504271262719392
19.768715894065565
19.8489921651427466
34.3474612929515857
25.6504726759709598
28.8423729379656066
24.286074981129012
18.6766465398826682
27.5613972687793698
36.3371883930005453
118.659791905469746
189.461753688440297
294.42693113434683
371.629275281098558
403.386436613525916
371.330696404585353
311.362713789263182
264.474283393851749
241.192148929730052
236.62472320973103
238.690513681154727
251.827844903436073
268.040404762642197
284.763240537258866
304.282232075445847
326.197676524972508
351.0332418882806
379.625922231661434
393.705975921414392
386.01570126763994
370.13045340700728
353.674831258120435
339.360352906144499
323.409884645113152
308.097215590719884
304.607751400920506
306.955079048039011
303.424587355798906
294.593606197918234
295.48543944928565
306.473290554042535
322.956566351216509
363.455122835721227
469.285650334947661
750.558788999366584
1264.82995331481857
1778.91859878061882
1941.40599994578906
49.3667812947845235
99.6232214211051996
150.712029112652118
292.06187987406463
364.027336083922705
314.844634653423952
247.36426210014875
196.119199252737133
171.507069610066338
173.027307375109444
171.918150979687482
204.300130514824502
236.252991243157908
265.022559668559268
290.839007284062006
315.965705684195143
346.276345308456996
382.837260833844311
395.314982686186852
379.467164334979714
359.987857662572026
345.936928103598518
333.671021649265697
308.03005296370219
282.397459622999861
284.2834406582827
296.548616151008787
284.525785316932229
261.840660997488555
265.894481447843248
278.552952941938088
284.658376294140453
287.997194501064484
331.83527057931974
547.380577143928576
1037.44539630129975
1695.50922598059469
1973.71962126638414
43.9605713512485394
30.1518190751540516
76.1092547192598232
133.387974615935605
175.240877140906917
154.422802577979866
105.616374820269712
72.0760241764116643
57.5811016182848263
51.8024871806637179
52.5057840436980996
56.8015646863753787
62.9021295474959459
74.2814934178314843
103.581613057677245
133.778030889576002
148.172058207660541
263.622961647481191
294.892591258141977
229.745337915574623
206.745936099625652
170.79105261334891
152.557188009617249
114.685614937941125
76.6612857157368524
90.472433138537184
93.4053438441179509
112.653764045445371
72.6872827449474102
75.9662936231776911
87.6781982904000614
99.2574831243666154
115.654055013846246
143.779127164620974
225.341584005413353
611.730777469783789
1419.53749712761578
1952.02878048310549
36.4305524833993744
28.9229477105842712
62.548770568407825
120.233764441384992
157.761357051775775
137.564702442878996
88.4567140383689718
67.2494399991402645
54.9393267654566628
45.8272754819430688
48.3364106468749171
52.1649252732137754
56.0179189239607283
58.8739952387590293
65.4697499720262073
78.2963300890833978
101.605947789458099
114.170094970994128
113.132386974640198
106.640619487071788
93.7575216579555217
81.5368310778541456
73.7387454971191261
69.4456918216970251
67.1276544117699245
65.7062611337959055
66.3197504523687655
67.1574588503175107
70.3924243147488227
74.9790601303395334
82.3558864905989196
93.4269203332888907
110.000170848172189
132.293756224635615
165.625216553063012
282.787984409085141
1111.04538143998525
1820.58457310621247
26.7262124856785341
24.9337891786269878
50.2875330113939398
104.349164507889171
128.735170243721484
98.242297289995534
57.3094376527694038
37.9478114700110538
28.0813860331913752
33.8425011968278184
46.0579067888165099
49.6273219455369841
54.3884506284702312
55.9398439224853448
64.3667549244316604
81.4350825029621035
115.71265209358377
120.80669082183978
113.235504837700347
105.093029129036026
89.3489118316301614
76.3149212338315692
69.6264461453064598
66.0730603118912256
64.2153006158091273
64.7201068307358156
65.8432868958256279
67.2587198856177935
70.3145728574181845
75.0774322972145995
81.9482965068675924
92.1297157305051826
108.127021027009846
132.229774789754373
162.998871768362761
228.868956488298522
835.938015067960123
1656.51581047387026
21.361479025874651
19.2822225128786506
31.0088337220827235
82.824630277120292
104.491078700485119
69.467925611490287
34.4829613732865283
21.5600067207560109
17.9952873019342441
18.3742514601485993
21.8776284525578291
29.8249419054757539
49.4791695082601777
56.9134291597199251
68.3210044858153367
88.177795654829751
115.448822797833657
113.768020255385792
105.641794716299003
91.9642570269085695
77.7918052779165237
67.6240127337323997
61.7288142195137794
63.5820332734202722
62.2863697941484276
60.2488095410275264
62.0512255792746572
64.7043372101564387
70.5084344948258774
75.2375481489487186
80.7299796963283001
87.1059730049657617
103.94698508907058
132.115480749133212
166.746510135627972
216.527272548095084
499.941732944083299
1521.28708346234453
18.7120395879024528
13.4269879331171307
16.5833413952369106
56.0984818636536744
82.1491314781173401
43.9876376360206791
21.4846452351943924
15.5455317393285029
14.8980054786430074
16.8058918248975075
19.1236365148485241
22.1944828463517432
24.6519381579105357
29.9788183312689931
54.2573779531250153
82.1829710876846207
106.936796774364907
95.2785256425861036
86.6900000955433399
79.3021132874638397
63.6912438779822594
55.565389360787897
51.2616328227182834
50.8880600300988064
52.0046203494595645
53.7646076564162883
56.9375974450956477
60.3640360143298622
69.6713456042886037
74.1165782005180347
81.0825341099413066
85.8820317917950717
97.8852133732765708
138.198469359861917
167.766645347653565
251.503946236710959
682.413216998332132
1438.72807031598632
18.5912613826135136
8.87928990975926702
17.5948772370688076
51.2116632601530668
41.0095287050693926
21.5866784694086817
14.1956950070614809
12.034536751209604
12.9309816520023606
16.2581323144730518
18.2901549958472884
20.0435289134544732
24.1224002582997699
29.5573479339081011
48.0945536457710929
63.6538799133283675
71.2893047123086774
82.5206167401373136
81.9446135335527543
69.9224552544514779
51.1363025778560001
45.726494216744257
44.7174196145562419
45.8838590075593586
48.112256293352516
49.6362455772396984
54.1934665010071868
58.3937586760181446
63.7105235304979303
71.2754202453433123
79.2248376847075377
85.0248457998286824
91.1441076083095396
140.030203097203412
281.161139292704775
347.199236326346124
1071.08398903725129
1400.73969475903618
19.1875205152440067
8.05916387627153341
56.0643536373353157
65.7870244530660102
24.8111329884066052
13.8053735537411555
10.0113364133665286
9.57632426939615478
11.2605284062489783
14.6395887312592503
17.7763329757777804
19.1366154802389552
23.6622363496387642
28.9143826595267406
32.8187468307049031
45.1704385219745319
71.6177138124778025
78.1523729727618246
77.117897686301788
47.7718031949484825
40.9580686879924585
40.0385518859994463
42.0470271725099494
44.6311324515406938
46.5101701770593507
48.7620322590820834
51.5985672897457306
54.7708771866737791
53.2457532273646308
55.104306890861352
64.440443026319187
72.4994930810276941
84.9214071187085437
129.145528212460391
284.338862430216125
360.123863976096231
1140.10985503450888
1268.15328897846462
22.4966192415760808
11.0742316497562623
67.447631380377203
85.9093334496683951
18.0151314180375621
9.34800287517954764
7.45620481410267999
8.06733521569994139
9.54735398305627747
12.3537685296011368
14.9066496008811349
17.7874841793746548
22.1078705735216481
26.2187066434581979
29.230635558280774
44.3027173920403712
64.6301513662885441
72.4842006561805334
50.2244560606414794
36.6337809180612268
36.3112594772504309
38.1299818850405074
41.6430065653334935
28.4929432089078674
18.6058663286622341
74.7712187307593439
85.0975996786633857
10.1848105201707071
6.65225965492516025
5.64338558431451265
6.26843921772584167
7.91220438310750307
9.94464384821297998
12.5601820804567232
15.6299695096364228
19.3882243276919795
22.9564272223950887
26.4970093398887521
27.5985944746920744
53.5065553329077872
55.6374194827833435
31.9914468648845975
33.2709563541177786
34.8596478388031912
38.53467757810526
33.984990274165547
61.1871103303988093
91.4793514922263569
20.1924407591965149
6.09196069798610651
4.74426779204226623
4.34644439411904937
5.10486989226061372
6.423275599320041
8.17762382788376563
11.056145865088487
13.7371200690964006
19.7339931607939896
21.4461177113774077
24.4511234601882812
21.4164308165620092
41.6280621906569337
31.8104910845654594
28.6129996552919934
32.0734153711383527
35.1010598732072694
38.9076970513305227
39.8109673174795446
118.958000028834107
106.981026532461541
15.02683012311571
4.50751607669900256
3.56712794166076863
3.52366182560234753
4.11025926912061568
5.30258270590802017
6.98265116240296102
10.0774854619301113
16.755725139403431
23.2378563872646566
20.8906649688286805
22.7630223137721259
27.7203266772776118
43.9107988938871401
33.8656575004968019
32.8038685398048671
35.8197783973500776
36.7919111401501553
38.7281600527106846
6.04727254563686767
11.3552945116379913
17.7852532159910268
22.3517727178441099
19.5508254957659062
23.9025904924726831
36.102413496084516
42.4391663071803791
51.541264450271882
53.4576959487366921
11.90305889390714
20.1838789612341927
21.5596943968643586
34.0975032113159671
37.8749007050426201
41.6589421111766072
48.2640568707839748
59.6127852304727028
25.3080111404009713
33.4412186424857012
33.5497034400251763
39.8179527056595148
114.750057828078056
141.597912027962366
188.669127574506263
295.379874771840207
361.504208611968465
346.236246442495599
286.280705453451162
236.001808998888066
209.670716447006782
202.717147386016364
204.889425565625373
213.124862898478824
226.689283760919608
250.155824925336475
277.737513859055412
305.000009237595634
329.82972187131935
351.334739138709324
362.651894410763532
365.616757146802399
361.359391874512653
345.222585861755931
324.431170908124557
308.927607742048394
307.054406392484111
308.1546131601404
304.258420856431599
294.865949443854845
294.301150419855276
299.602212327199652
315.877161602362833
338.118960159188646
400.801621124525525
551.637819178024642
898.916001453096669
1444.0012821014675
1878.7903991356834
1983.28483849428335
59.4826029853835792
56.5054126016955323
83.2182304366415906
208.997539805764774
275.234321747863873
270.622259380297237
208.592763559915255
156.296650123831824
125.135312733050739
117.298072367205862
120.640737645462508
131.892372506922214
150.311407126858143
197.40039890217912
245.269881334134055
289.785160725080061
319.304066117844002
343.517614952207225
354.641361352815579
357.424532528047393
354.905638135476181
330.660271625107612
295.85253395941271
273.444006861170067
283.508871096899497
293.573880716180952
285.133743995818861
259.84097591481526
262.85355126757139
259.82588506273845
285.455436699913093
270.765840912852354
304.688514677243347
382.685137920738953
677.549252700628472
1244.98797658047852
1828.7295981495588
2016.42090291111595
58.3917430273968705
53.1566465990271908
75.9045221485018828
116.874469435277675
157.285479014449407
150.600185776096936
106.609955036736778
72.4376531708937677
55.6538670786391165
51.1448191079113599
50.6565976942248
51.8657732209176459
55.7670022233099729
63.1807297196083937
75.7445264853322016
90.657762111881496
126.34635140108287
149.139609444903812
151.519635162879581
195.524701994576191
195.596847691710167
141.327012906610264
98.3816974218333229
71.9654780833526075
86.6349619440670295
90.1048355798841243
102.029535285395426
71.4448085813463507
74.0469802256531011
82.4288812589228002
91.4840816631106009
106.980297855524057
128.465951782799152
181.564854594448406
317.581639034038801
822.162302873436488
1627.04519062886152
2033.72298468551253
55.3436104770736179
49.9213564591668444
72.8016549173099463
119.018676703830664
143.958971000972866
131.5418610010733
91.1476963520790662
60.009693578444903
45.6978282919204233
44.2313575916896156
48.5716676510754937
51.0891524876130703
54.9367229779749167
60.3393633519892774
71.0374012176053782
84.6113167795391945
106.466764510898386
126.576917887957052
131.618006069174612
104.550050088397711
86.3664594696122521
73.7066523477996043
67.6278696849558969
66.9664055266188569
67.3261804351521249
67.6700342708119962
67.4710943151592062
68.5317027419790321
71.2867217279449932
76.2141362423948294
85.936606433043039
100.787349258987447
122.798250971437
156.656637691183903
222.288452088371713
576.277609567361537
1376.56965122735073
1953.19319526180902
46.8484767033884708
46.3416983171074932
57.7657108921679878
98.831667176238696
126.663617531262389
111.48847667473045
73.8038797098381565
46.3228659524532205
29.8379012813764781
27.3302483706081603
40.4551657452058606
48.5915157936400988
53.1450743475835026
59.6913012119802175
69.8562081836107041
83.4949916908506253
119.292562626428577
140.542532499044938
120.364900408015174
101.648437958636535
81.1508126060451502
67.9675279660019811
63.8664348101707731
65.5510532955112808
65.8345702927978778
64.3478997604386649
65.2466579508341908
66.5061900640972539
69.293188540458317
74.4835261905731016
83.929526152374109
97.8105259641497327
121.086150439893103
159.867613547563224
220.803764558458653
363.929695848359245
1150.88197442972751
1821.36899098333674
38.5016953757089766
34.3260061541642827
31.9337846456839181
67.7608512608712346
106.454320445318658
80.8295932032489759
39.6585658247332447
22.8077965829316582
19.1682567783154809
19.3321339167114559
20.0523530360399214
28.8290291346485787
46.2224483713166023
51.7419240910278475
51.3856026701875237
79.367999991967352
122.378159495935208
125.497533721381615
112.428264410214808
92.2854013293571711
74.6720489725545917
64.8872204613536496
62.7749596632490139
62.9184136984363889
61.9763544705103087
63.541551933019349
58.9560962098143833
59.8827442678213089
64.7931346585443322
70.9922162120484899
78.986706203888815
91.2099874711669543
114.492712632523322
159.101474320136219
229.436403484863177
358.436401699655562
760.898336527713013
1699.75448687045173
29.4927919526932314
24.9718709166320387
16.4661872971957841
40.8027769084260967
85.3575276618886676
42.0977162162387302
21.7312386007506859
15.9820377499603659
15.8782183550260196
17.9661600327218167
20.1262396126462306
21.2617937591505068
27.1004078948566907
31.7452098290844233
44.0877829138137969
83.5460094288716419
106.202882241581946
108.566370497527672
98.9426661676816792
92.1291983960860534
77.9683454560366016
61.5560738343603191
58.8908634141218101
58.2120332416317225
55.2099853713400748
52.028160830341541
50.8981556913798769
52.0520887916051791
57.9741603121342592
68.4529146955799632
78.6061999741402389
88.1228010896650176
104.097804270390938
173.840345511543916
235.632670876773801
381.770086137980911
912.938953030079347
1605.69704747188985
26.2738492885200365
17.6346336528019094
13.6992577876884862
30.7710043607564963
71.6236322929814833
23.7242242029101256
14.5702600747427464
12.3704017698580238
14.4786530041113366
19.1365115755103616
18.9928103927902399
19.4388799702827342
23.782815064275912
29.4425492768271155
41.1507382456849413
74.0646463889250128
99.7589390220459933
106.060481457770791
103.749868489577906
96.0620098792017529
87.9414512612064101
54.4056294516880641
52.0506201603942316
50.5714073744287163
48.3860982634499592
47.2789678377864888
47.073048991459288
48.1002661548247374
55.6354607103180996
63.3803950580934554
74.3692681595914564
75.6607410165644012
86.0274251428666332
138.319789395611849
470.828548149788844
468.378276594573947
1317.0084724591643
1549.5054681956326
26.4521480507594013
14.1829649875771118
24.9813385145709539
64.4914676455731097
22.9343243698689214
13.5401829806259268
10.3816842153740705
9.81849699150026467
12.5187094112979409
17.7170489511232141
19.3533034472949446
22.6127371653993627
22.5452093833767435
27.0086456700753565
47.6461268068918358
71.7960525651988064
86.1242581788663983
94.6241606296967035
97.9781331146533887
100.004747822619393
92.8598167325856565
50.0620753219569039
46.9948101528171591
46.8545609920219519
46.4513088890633341
46.5670965560110943
46.9267975025103965
48.3505625013334566
51.6122817893706269
60.442292492721613
57.7737222912366093
63.4638334674406508
75.726007101657359
145.714777854132649
522.486636095662334
446.909102105840248
1371.84191703273814
1569.3304581402399
28.7215822050589367
16.4243659213884143
82.3762174756341352
93.541121351578127
13.2639318518274276
9.32132057162682592
7.70686554212505026
7.92668589309597493
10.3300650401020278
14.538850093638116
18.1211493884781767
21.788967382606522
20.1504069157344041
22.8539404682050176
43.4308712603573284
64.0218725454183755
75.8683788265846601
87.6430311349418361
96.7920147937037854
102.327750297141037
70.1505314180620871
42.7922236525795654
45.1120062882778967
34.2176672383323606
24.4320527421911002
86.0983414518921961
92.6709513591469261
9.21182919085963725
6.83222499898848223
5.83069181630962152
6.46090346204568355
8.67520949009990439
14.5350095454478474
16.7181857755626915
21.42839056837812
18.8531415655472507
18.9098340156445595
26.8365102548958276
58.1357100996138243
68.7990920133712223
81.7524625308953716
94.7409727346099544
103.836077016017626
55.009871130143523
41.8779784573026532
38.8677039664246564
46.6412976718730334
99.1659411835582745
29.5207730897638854
4.06687121489188108
4.90759319858112786
4.50580723267802785
5.32030920541896979
6.74738765942010055
12.8411659111264669
14.9474396103023466
17.9577502066583605
16.0411384167998001
16.9714874111344294
28.0174721252372301
41.4775498544601575
63.1062251128736662
74.8600467520513462
91.9765399779766852
110.777488525013453
57.7944337893762494
43.0973195191759686
44.1501510461514428
129.436209619445037
114.775237431620099
18.0113644839776867
4.15032021358338454
3.6682484212501687
3.64127875374554222
4.35186909026243907
5.48749322688026631
10.4714216319335964
13.4560307898249985
15.677195869368914
13.224817986946162
15.6519024617820044
18.9373261877104824
27.8379003917232097
51.8556982608931136
55.0330847248827055
85.9064095355868602
113.564895264836835
98.5067221169477563
44.1460129132651034
6.52634868708111249
9.91538313362042523
13.2049863135043051
10.8740702462616596
13.8767327848159301
21.2904309401138256
17.7241390768266882
16.9350208238207713
23.3480532877337161
58.7067967925809597
6.21853892418219711
8.63251931681534046
12.3147341354883597
18.045057054376695
16.7666816213953176
12.8879574706401812
16.2172083569591052
26.4296595334820132
16.9321564091890409
24.3506451902916723
14.6853478691294672
8.53356519452035833
133.051738787607945
120.336288573646016
152.461906458485913
232.749708655820143
331.619599481757405
327.282296927459072
263.650749919521161
210.893544684590807
187.54036058607997
181.415485445064888
182.282651392068828
186.948708066564308
194.885519707839819
211.586171674572995
237.842270705914615
271.10929793862249
303.63943605511696
324.807614762976755
335.6233681184126
340.479325591953682
339.843990863223723
333.265417024411192
328.425670752224335
326.377480037359703
325.87642796225947
317.824180982800215
306.5502370639079
304.735982008227836
310.221600363264713
320.983514161330959
338.273400214928984
385.613087008508955
485.390469374003885
710.286071338077591
1115.9491223739808
1638.05018753462559
1958.11646651934871
2022.68588748730872
89.0965593675275329
79.3010570085197344
84.6601766288699338
139.157226690873557
255.020345431930508
255.238978644665451
188.62439608609904
129.73641457471669
105.807635862905926
94.5220007102639954
92.0285104760340857
94.8953247554980948
100.942929637633156
123.292402665407721
167.009475158579392
222.113296060968025
276.994818211238282
306.981203734528492
318.669049709815397
322.7851869384358
317.489984045516621
299.322511212490383
294.062914143414105
293.583610886676468
303.165860809891626
286.230487465500858
259.423113520850393
260.049452340709024
264.869532995661984
274.347441508519353
260.158718597261554
290.421041845458433
341.186782300861523
533.631956248447636
902.442182918649451
1495.91403140388979
1936.32557379038735
2064.56519921949166
93.1182952165118678
94.6287251879636102
98.5466487177574493
114.538011798566515
184.29110166766057
185.428055157672475
133.257780852483961
76.0525042620270284
50.6247755979876217
49.1882340945449954
49.9481230377673882
51.8043689670673189
56.4288482663476998
61.2572792789171459
67.7076146921721715
82.5083865691305078
98.386883318091563
106.569550944791303
123.229867772061326
112.634406316843069
106.251073209890592
104.746047093013772
106.506117857930889
110.333299180279994
98.7613512418449204
98.3303255303921873
82.4024930536463387