/*--------------------------------*- C++ -*----------------------------------*\
| =========                 |                                                 |
| \\      /  F ield         | OpenFOAM: The Open Source CFD Toolbox           |
|  \\    /   O peration     | Version:  2206                                  |
|   \\  /    A nd           | Website:  www.openfoam.com                      |
|    \\/     M anipulation  |                                                 |
\*---------------------------------------------------------------------------*/
FoamFile
{
    version     2.0;
    format      ascii;
    arch        "LSB;label=32;scalar=64";
    class       volVectorField;
    location    "0.810000000000000497";
    object      faceTraction;
}
// * * * * * * * * * * * * * * * * * * * * * * * * * * * * * * * * * * * * * //

dimensions      [1 -1 -2 0 0 0 0];

internalField   uniform (0 0 0);

boundaryField
{
    inlet
    {
        type            calculated;
        value           uniform (0 0 0);
    }
    outlet
    {
        type            calculated;
        value           nonuniform List<vector> 0();
    }
    top
    {
        type            calculated;
        value           uniform (0 0 0);
    }
    bottom
    {
        type            calculated;
        value           uniform (0 0 0);
    }
    left
    {
        type            calculated;
        value           uniform (0 0 0);
    }
    symmetry
    {
        type            symmetryPlane;
    }
    interface
    {
        type            calculated;
        value           nonuniform List<vector> 
181
(
(1326.52600537605599 -0.01095231567544264 -0.0377442628153167037)
(1205.61977378982283 6.25730973587449868e-07 -0.038740811081221474)
(1085.04747838158778 -0.000689504074758138011 -0.0386962604157396126)
(965.311635378560709 -0.00191944438114422986 -0.0386767869262650346)
(847.1058982413482 -0.00306688275360332508 -0.0380663224957196941)
(731.090504425050881 -0.00446189502912144962 -0.0371887825063210095)
(617.355768264500512 -0.00645916671333195743 -0.0365077689831177499)
(505.669569388540538 -0.00936990681522108931 -0.0365822096012030015)
(393.883978481576776 -0.0128132457285418336 -0.036662102146394579)
(280.148003621532041 -0.0153839178641245657 -0.0337473316713091109)
(167.150209062661276 -0.0190905319212359391 -0.0310971380896713639)
(66.5051867860626089 -0.0208849883250723338 -0.0250338098951638846)
(7.23394485632221773 -0.00940746124273403837 -0.00791857013569107447)
(-15.9072216689326549 -0.00186489930190876919 -0.000740298817817708755)
(-25.3371485797563096 -0.000789079919689903157 -0.000192789219898010405)
(-24.5397262942030068 -0.00227087704345078608 -0.00131910505521908267)
(1388.92074114699972 -5.89694098587626082e-05 -0.0261259950924081948)
(1267.57803314190323 -1.77771362736595958e-05 -0.027123821587569992)
(1145.84451967610653 -0.000372181216339160365 -0.0268694246526637037)
(1024.32603675477594 -0.0012215227881328661 -0.0267950196273173576)
(903.448683002580424 -0.00216895688358745981 -0.0267632338957348413)
(783.173158891736534 -0.00339506137763967604 -0.0268507766092587578)
(664.64280308853472 -0.00459119000507950473 -0.0262859771590085098)
(549.138069016309601 -0.00538419369950512636 -0.0258331243601550957)
(435.881927121299043 -0.00810179290287923147 -0.025709598688257243)
(322.698012377334294 -0.01214176199208933 -0.025516165364989473)
(209.024166695794946 -0.0166919850233098535 -0.0246526287125891155)
(100.042056115167412 -0.0194595806201255696 -0.0223707045965497626)
(22.4666846512614207 -0.0124885524443616204 -0.0115000341951862865)
(-17.3616802565499242 -0.00454574777122542916 -0.00322133065177605295)
(-36.1825750088463423 -0.00197816562760527682 -0.000943247247946414624)
(-34.998058844432677 -0.00229694356362324234 -0.00102897483750367209)
(1419.20013401928577 -0.00746858638448309742 -0.0212682353272014221)
(1297.80849202857644 0.00101659710919629193 -0.0227356985877018164)
(1175.87214116855989 0.00128126147756104378 -0.0224237549803520952)
(1054.00813094585692 0.000623925909031311813 -0.0223689909051380358)
(932.694443280058749 -0.000229179557977467435 -0.0224336500699385891)
(811.818342767789545 -0.00136827404564712372 -0.0228267808677337543)
(691.921670005917235 -0.00269061979589588869 -0.0229550805574429764)
(574.776844235388808 -0.00426082831170980069 -0.0227016043341643284)
(460.443437269832089 -0.00677796336519632166 -0.0222461315155384337)
(347.212468881444408 -0.0106611754639206642 -0.0214736490482194363)
(233.653117156998348 -0.014476849326597296 -0.020225768721477605)
(123.242230041046469 -0.0177284407766698862 -0.0184833122865164963)
(33.597093646243934 -0.0151073734388179129 -0.0121245471582189703)
(-20.537372507104898 -0.00660540007323038615 -0.00407639324528936368)
(-43.732808722475859 -0.00181908644768726132 -0.000760303301913049833)
(-39.8223370021872327 -0.00245369745089586179 -0.00085233138935094559)
(1432.73923122854262 1.52058180726894675e-05 -0.0139535090681212892)
(1311.17671992416035 0.000771367693467993982 -0.0154667370230183628)
(1189.19492792163828 0.000996349061594925013 -0.0151713905664173036)
(1067.1800523264485 0.00061574586181329825 -0.0150718379605262257)
(945.550620623771351 7.11771419208865686e-05 -0.0150796816536307252)
(825.095653103559698 -0.000696831446908549091 -0.0151678249734670968)
(706.233057950565581 -0.00151598543976280134 -0.0154449636206333979)
(589.76257914317523 -0.00320500978835501884 -0.0156572892552748373)
(475.739253170867926 -0.00598687625724281941 -0.0155918754512442918)
(363.380590110659909 -0.0102358684478017735 -0.0151717518667785281)
(251.270806661702551 -0.0138660498473630184 -0.014367980335659546)
(141.256077019092032 -0.0171245815047444613 -0.0132658233699702189)
(43.4577842852028979 -0.0173231655716150935 -0.0104967331318115732)
(-21.6260098405026078 -0.00767401840081890704 -0.00384249004529671088)
(-49.2376162580139649 -0.00172012533246414549 -0.000634336704680023311)
(-43.2459460111435732 -0.00189116979590582524 -0.00056505049218795499)
(1440.64589926724352 -0.000987417807918673351 -0.0115276093571150227)
(1319.4259622929435 0.00090258436708787811 -0.0125494929559446227)
(1197.27501734853718 0.00122017665707945889 -0.0126793847992263242)
(1074.86176283161285 0.000936167995029757818 -0.0126308747769241416)
(953.369570108553717 0.000592509418130600634 -0.0126524474012421461)
(833.232936673973427 0.000134358068504803721 -0.0127438840569205711)
(715.198225177059385 -0.000810231889332748301 -0.0129692084568018753)
(599.523971329225446 -0.00253249722263131386 -0.0131829678581114416)
(485.520919614960064 -0.00539889757864871374 -0.0131466205528583124)
(373.439436272481032 -0.00961776626118062208 -0.0127150845918780949)
(262.178730348717636 -0.0133903508100927729 -0.0120411073936379908)
(152.266105183482978 -0.0168457081757957504 -0.0111895459394083848)
(48.8226468748186022 -0.0188010293313847117 -0.0095369047203116529)
(-23.0464673061476368 -0.0083720030184062863 -0.00342334743998437595)
(-52.3788507059768165 -0.00178254521214118501 -0.000534147543872693091)
(-45.9557428616167627 -0.00251561366595765609 -0.000564404727740063753)
(1444.57278045108706 7.96055397693139834e-05 -0.00641103203501537742)
(1323.34039645921189 0.00101654215477719198 -0.00781585200401180118)
(1201.17176017173347 0.00141683349714534111 -0.00773680627788254655)
(1078.9626686091292 0.00122011334341454712 -0.00765752913365952761)
(957.849662419135711 0.000919105538825570347 -0.00769442419911957418)
(837.942476467713732 0.000584604723453985373 -0.00779983619325323816)
(720.283887030078631 -0.000469598325166580672 -0.00793163004208432415)
(604.953032399053313 -0.00228643063606972542 -0.00799188001418588666)
(491.133242732806934 -0.00534790663381452206 -0.00786510037063462703)
(379.393113853799832 -0.00955183190794457217 -0.00737271431068704797)
(268.998636121857601 -0.0132527138411870481 -0.00666471047538361172)
(159.465622207602138 -0.0167290510428201623 -0.00598793601783061818)
(52.4228123215792934 -0.0198419562971564357 -0.00546096394757882627)
(-23.6649514582278222 -0.00884953073371116776 -0.00212875203698119657)
(-53.5565685992435832 -0.00237138594959653004 -0.000484084139920223542)
(-46.7087626411305834 -0.00270410680596490632 -0.00043303275449652637)
(1447.46139475783048 -0.000128718177112244572 -0.00397117997635096885)
(1325.85104286399837 0.00121303547160411872 -0.00482324711383310453)
(1203.74805680390045 0.00176812616388917336 -0.00472642262877281342)
(1082.21586960656145 0.00171143167815351405 -0.00477136493626063168)
(961.484981638243084 0.00136965363898466311 -0.00488497166151314732)
(842.048449903995561 0.000926092483337648004 -0.00500815086975361142)
(724.847391309196951 -0.00018682029135287545 -0.00512689722620799943)
(609.622875772224006 -0.00214858778674485371 -0.00517121555797155335)
(496.057071384791527 -0.00561220824548345782 -0.00510849679030462526)
(384.595200063819505 -0.00955149705726256182 -0.00479756470560811256)
(275.12933258607876 -0.01292060746478217 -0.0044020879071310845)
(166.472515572329257 -0.0161709164211440992 -0.003933558015771472)
(58.4986361975220461 -0.019471514315160008 -0.00342999178858908321)
(-21.2860657106741264 -0.00997812471081446599 -0.00142540963835588734)
(-53.9368199883917541 -0.00274345613207760668 -0.000335871003358733386)
(-47.0336336398420443 -0.00283756553360942163 -0.000288152276839284639)
(1448.73840179031913 0.000536802757494333712 -0.00126740476423170155)
(1326.95239109713179 0.00126694368884278899 -0.00154350295719773013)
(1204.8614955871642 0.00191220051716919871 -0.0015111701463228083)
(1083.59487431435173 0.0018865200415784445 -0.00152421712585291969)
(963.066915708853458 0.00149658827730169146 -0.00156242943895409372)
(843.894057153301787 0.00103854286985379527 -0.00160732218510281221)
(726.907075039249548 -9.56815486295970147e-05 -0.00164465448509575236)
(611.634854573669145 -0.00213293003608676758 -0.00164773856504325648)
(498.051969457391465 -0.0057040799796415553 -0.00161220960249711955)
(386.618607521628519 -0.00960554539619637784 -0.00150224930465330192)
(277.448742845410322 -0.0129086992107233182 -0.00137803715120950751)
(169.131768928955267 -0.0159831214840201637 -0.00123417079696918393)
(61.1108328883999974 -0.0192846761853380198 -0.00105807464930417964)
(-20.3913342692798842 -0.0106700666990616408 -0.000450316002126293854)
(-54.2948189004282256 -0.00271184399727344896 -9.59347904688024543e-05)
(-46.5297004636291405 -0.00290935829430182934 -9.01434513662909898e-05)
(0.0476332686456805016 0.0294618098904444597 822.51576675027593)
(0.047018547278740469 -0.00287364163499735344 704.408185321489441)
(0.045223226157191404 -0.00723066344595358745 595.012623495279172)
(0.0428667962991190477 -0.011183633650807932 493.645086899635658)
(0.0393739501780418361 -0.0175590724160558168 401.735270764783422)
(0.0344319820942118812 -0.0276811163369408766 312.556488608641075)
(0.0281367641113164785 -0.039297674153303673 220.376521511508031)
(0.0206241695677763966 -0.0487914506976244583 134.176333664714065)
(0.0126284052029563346 -0.0537509058953333577 67.482555353380377)
(0.0033321478186177692 -0.031294885254078926 34.218448992716219)
(0.00154934903531390045 -0.0187531795465638307 18.0863072644439633)
(0.00180194585388670494 -0.00869284124796004115 1.80416473501214614)
(0.00159142321685505996 -0.00319850065176700707 -12.1730382027497424)
(0.00107230114822621288 -0.000820018918585385106 -23.6862547466084621)
(0.00149160994453116148 -0.00203245481876192452 -39.0149390872371313)
(0.0398038127516633297 0.0141798836802967346 891.068568493850989)
(0.0383545367511469865 -0.00760929984112721294 780.143332197563041)
(0.0353015403006845321 -0.0157881346295292921 671.727077103450142)
(0.0317729045991595391 -0.025545785166762279 557.922101411197673)
(0.0280893976506993055 -0.0348390087026125977 438.984910465109806)
(0.0238443180835525258 -0.0412297929713147104 319.062934772961739)
(0.0146125867148725087 -0.0364292627407263175 204.733652034623759)
(0.0027916733453691436 -0.0175832797577958298 115.725823079859225)
(-0.00159867681779093875 -0.00562154670382753428 69.5135734446382543)
(-0.00258607742565597834 -0.00263266873624169468 52.6499650287490937)
(-0.00432335552363252197 -5.35620996454191707e-06 42.3367665045723172)
(-0.00590429202123179953 0.000318420461131904882 25.6489380651645185)
(-0.000415396340146671143 -0.00191640653535479918 3.99281187115735747)
(0.0030929864359085105 -0.00599000088869432439 -24.5209152856127162)
(0.0400082111149181741 0.00190243806774145438 933.545517418011968)
(0.0375711364371308504 -0.0147153454253597087 812.01332187421292)
(0.0345604424152817571 -0.0271761798725776577 682.471686402341788)
(0.0332219707329799441 -0.0356110058864689133 551.28575246767457)
(0.0322529951945514023 -0.0394945872147317301 427.853937412251241)
(0.0286981249446602686 -0.0386603602937303503 301.933807914489989)
(0.0141827205971246217 -0.0209349676813020691 180.542079356196524)
(0.00289790501319267101 -0.00538108795261289536 103.226901919603918)
(0.000498937657448174322 -0.00102884944446322802 70.0420160743014577)
(-0.00025770531712291842 0.00105015259975809795 56.454580223103477)
(-0.00138583263678264011 0.00120761228537152247 42.8592781782533976)
(7.08195925685932209e-05 -0.000503002854371649823 22.8037003649521388)
(0.0598445251838940206 -0.00605121134135466754 821.28266057637677)
(0.0590360468448341558 -0.0231606005271445918 692.224272034507067)
(0.0593845427669515216 -0.0350751451196009909 561.336953489856569)
(0.0590817775539776782 -0.0399994586859661744 442.954697959508451)
(0.05494434511251714 -0.0395339953424123855 329.14497855574399)
(0.0333832390971630297 -0.02457243092335408 211.82718094714204)
(0.0082691925926220225 -0.00508025560538060555 130.280228561291835)
(0.00147225310976141738 -0.00074617860327005881 89.3585070651094071)
(0.000802298469304637803 0.000907666038675712921 69.0769413179186387)
(0.000445116790304095887 0.000988774904789055517 60.2771308461016559)
(0.0018622470603527183 -0.0056771492333358561 48.5449443300743582)
(0.002661653132829032 -0.0103192758444161196 31.8740663906097232)
)
;
    }
    procBoundary0to1
    {
        type            processor;
        value           uniform (0 0 0);
    }
    procBoundary0to3
    {
        type            processor;
        value           uniform (0 0 0);
    }
}


// ************************************************************************* //
