/*--------------------------------*- C++ -*----------------------------------*\
| =========                 |                                                 |
| \\      /  F ield         | OpenFOAM: The Open Source CFD Toolbox           |
|  \\    /   O peration     | Version:  2206                                  |
|   \\  /    A nd           | Website:  www.openfoam.com                      |
|    \\/     M anipulation  |                                                 |
\*---------------------------------------------------------------------------*/
FoamFile
{
    version     2.0;
    format      ascii;
    arch        "LSB;label=32;scalar=64";
    class       surfaceScalarField;
    location    "0.239999999999999991";
    object      alphaPhi0.water;
}
// * * * * * * * * * * * * * * * * * * * * * * * * * * * * * * * * * * * * * //

dimensions      [0 3 -1 0 0 0 0];

oriented        oriented;

internalField   nonuniform List<scalar> 
20789
(
1.71704267368613152e-05
-1.72723672752357911e-05
-6.59840100711090473e-06
6.70034163055396597e-06
3.89119753492291713e-05
-2.18579397823918917e-05
-7.27434072247563365e-06
7.39073198731072675e-06
6.06251342770120589e-05
-2.18406260768656786e-05
-8.16772970097840978e-06
8.29519698760531429e-06
8.2269159570296695e-05
-2.17927071765788762e-05
-9.66150140801078673e-06
9.81018348718074882e-06
0.000103690923544705695
-2.16009364272412268e-05
-1.18406386409599299e-05
1.20198113288168296e-05
0.000125550575422249118
-2.20912691356239119e-05
-1.49331207713052752e-05
1.51647382983895442e-05
0.000148190637517876003
-2.29088486529594891e-05
-1.92064273375664787e-05
1.94752141935315661e-05
0.000171533436755545845
-2.37926589018075036e-05
-2.52235128032388531e-05
2.56733727915541838e-05
0.000195167498930751311
-2.40435791611974076e-05
-3.31933554337582369e-05
3.36028727435227494e-05
0.000218282781242842535
-2.42920657375689398e-05
-4.48229852351051211e-05
4.59997688973203163e-05
0.000240241463961858142
-2.27348031513040142e-05
-5.98917635913927322e-05
6.06678839341537782e-05
0.000256830550557257003
-2.06154208530321129e-05
-8.28768735077394181e-05
8.68959785143963827e-05
0.000269447357096779742
-1.58248751943443607e-05
-0.00011140438978926218
0.000114604525937220996
0.000260440174844724765
-1.35453100312453713e-05
-0.000160029019839958759
0.000182560140917734283
0.00022232177041376432
-3.74606496519725945e-06
-0.00021067028352271476
0.000246264771374147661
2.35453429121498837e-05
-0.000314538734607684256
0.000499538142571423526
1.78471466187904597e-05
-3.52271905681155413e-05
-6.60003682982578682e-06
6.70771359803689649e-06
3.87589136623374552e-05
-4.28869750305773298e-05
-7.17517561444885989e-06
7.29244395198526674e-06
5.90033852124010371e-05
-4.22127688781334654e-05
-8.0552501739928634e-06
8.18292161360634555e-06
7.91303245691382315e-05
-4.20666028385753302e-05
-9.51082063733928568e-06
9.65777716869876096e-06
9.99675133312110211e-05
-4.26160305558624327e-05
-1.16605654600070129e-05
1.18384710861485321e-05
0.00012154191271284498
-4.38865325563631237e-05
-1.46985137249390946e-05
1.49193780476733483e-05
0.000143838802829409561
-4.54905621241397635e-05
-1.891888286747479e-05
1.92037065191851115e-05
0.000166836999563015677
-4.71659554280182968e-05
-2.47385244969475109e-05
2.51136245941754134e-05
0.000190181913956187222
-4.79377255041507595e-05
-3.27529682465730278e-05
3.33022004272400316e-05
0.000213229495063238506
-4.81675768522173484e-05
-4.38835084638390598e-05
4.47114383814286846e-05
0.000235394876167427337
-4.63628317658415468e-05
-5.92365424633601472e-05
6.06991891521795992e-05
0.000253859287112918398
-4.19290116405166328e-05
-8.11115363065631543e-05
8.39473047872562255e-05
0.000267487290422728302
-3.48877637219783925e-05
-0.000111580493928730557
0.000116996838600334047
0.00026479991578938749
-2.83480877189919453e-05
-0.000158014415134400727
0.000175459884997100819
0.000236927917707107006
-1.91698780003556766e-05
-0.000213363781393234592
0.000256483721185559572
6.84531300436339865e-05
-0.000342304624946290065
0.000519264357961746257
1.846536164712826e-05
-5.3805023707053787e-05
-6.5470596133938935e-06
6.65953148382940736e-06
3.86187212103561136e-05
-6.31605821129522675e-05
-7.13926561805987167e-06
7.25951400944049695e-06
5.87108864469439639e-05
-6.2434909932048037e-05
-8.00849699338024586e-06
8.13847377381045524e-06
7.89034318841652578e-05
-6.24078776799876211e-05
-9.43721912958191277e-06
9.58594954647877091e-06
9.97342218721173355e-05
-6.36268782903990851e-05
-1.15509667845419874e-05
1.17310256217641233e-05
0.000121342865410071558
-6.57185727521580621e-05
-1.45381442494969878e-05
1.47615420082174587e-05
0.000143733841495629499
-6.81638137047099263e-05
-1.86843995299347666e-05
1.89666760595568993e-05
0.000166872054264810972
-7.06764920573930939e-05
-2.44014966279228735e-05
2.4773821222325729e-05
0.000190434081766393637
-7.20174976311106606e-05
-3.22759807656899738e-05
3.27937248679990758e-05
0.000213939101177424416
-7.24811616851681832e-05
-4.31995650874535394e-05
4.40081261767652805e-05
0.000236448042362683399
-7.0227165001396881e-05
-5.82764130590047002e-05
5.96317938393214862e-05
0.000255369098333212965
-6.35902489985275862e-05
-7.98890060388984466e-05
8.25987248114983343e-05
0.000269327893005238093
-5.40899307489827992e-05
-0.000109718761508706267
0.000114929921668991815
0.000266367303191205153
-4.23027550894865994e-05
-0.000155718862778665056
0.000172512670514629921
0.000229269534422853373
-2.68407642024714764e-05
-0.000211146583521028264
0.000253011174189048528
0.000108952226367707832
-0.000342536097033000831
0.000517016525680514443
1.88017919492562229e-05
-7.27252117178401513e-05
-6.47174480874980471e-06
6.59014424530530128e-06
3.84203090853085913e-05
-8.29023247240336461e-05
-7.06313469735767931e-06
7.18636727493159818e-06
5.82806527643293834e-05
-8.24264707307453175e-05
-7.91513180335227771e-06
8.0463566260820713e-06
7.84176814291388422e-05
-8.26938658837172687e-05
-9.30875394541293009e-06
9.45772158892385296e-06
9.92014990949158145e-05
-8.45924088746620798e-05
-1.13706233539919268e-05
1.15523451900781245e-05
0.0001208006789610989
-8.75425089821539192e-05
-1.42849879478224046e-05
1.45097542081829078e-05
0.000143258525817268608
-9.09015242577047963e-05
-1.83255706081449134e-05
1.86054444689614651e-05
0.000166546919907479917
-9.43237111878115342e-05
-2.38972497949047469e-05
2.42560835932815578e-05
0.000190388533605601512
-9.63421167992842135e-05
-3.15704820081305705e-05
3.20534880880110612e-05
0.000214468892636193308
-9.73130495675006115e-05
-4.2207325296310658e-05
4.29588280718176224e-05
0.000237545648876988412
-9.45434852829497358e-05
-5.69184949592780375e-05
5.81579819172938178e-05
0.000257246720076486919
-8.59031394330520665e-05
-7.80551902283898002e-05
8.06256299153924519e-05
0.000271717911644056348
-7.36673125022480215e-05
-0.000107069238764883706
0.00011212306914630493
0.000269393054739941028
-5.65521937656198788e-05
-0.000151813926694209912
0.000168193991584399355
0.000227332536763652472
-2.91201154896436822e-05
-0.000207561347907337935
0.000248257735698610097
0.000152053231642442535
-0.000344689009181498951
0.000505717670497177348
1.89124526353174358e-05
-9.17646060183411249e-05
-6.3741991955183355e-06
6.50116401049326816e-06
3.81743484399491798e-05
-0.000102291331118053617
-6.95317123223929572e-06
7.08032425398432724e-06
5.77866177927653351e-05
-0.000102169701693945736
-7.78246759787020492e-06
7.91347507644079121e-06
7.78184183262724049e-05
-0.000102872935883130325
-9.13283614672507341e-06
9.28015491699759648e-06
9.8533735976272493e-05
-0.000105491605893401989
-1.11277967439445308e-05
1.13117319199685795e-05
0.000120108479372773311
-0.000109344930071953768
-1.39478261664760655e-05
1.41755699032971299e-05
0.000142632547910226642
-0.000113704182866601169
-1.78523930107023862e-05
1.81310584876068438e-05
0.000166110187225454507
-0.000118140207317223722
-2.3238642102281925e-05
2.35775739371008054e-05
0.000190339973203129665
-0.000121009849267242488
-3.06494933786139148e-05
3.1087482462140689e-05
0.000215129203657363888
-0.000122761758223020325
-4.09237799001456251e-05
4.15831788146305811e-05
0.000238995139430407796
-0.000119504211421132283
-5.51715954249320267e-05
5.62660564474847883e-05
0.000259845425241828326
-0.000109201348785228225
-7.56255915924904988e-05
7.80172181350109717e-05
0.000275329966216489568
-9.40509750698003967e-05
-0.000103652909887641986
0.000108494975996770201
0.000273771043750286344
-7.09431042643265443e-05
-0.00014702331869790878
0.00016267898878015441
0.000226683136859388525
-2.73620630311585463e-05
-0.000202819582326343366
0.000242554106926047358
0.000198438676114482082
-0.000330127397722995914
0.00048860188414426341
1.88845719659465435e-05
-0.000110788870203494492
-6.25471564420687257e-06
6.39452859307389198e-06
3.78593341542206083e-05
-0.000121398595049821488
-6.81229128472838324e-06
6.94499110039729308e-06
5.72110726413238625e-05
-0.000121648854122646807
-7.61415842278681572e-06
7.74178536276759077e-06
7.70893170840827521e-05
-0.000122894090513992209
-8.91244953756917567e-06
9.05559324053465418e-06
9.77032578539175354e-05
-0.000126294114586322033
-1.08260566217198074e-05
1.10148949266689746e-05
0.000119231505295430305
-0.000131108626952130191
-1.35318293803151768e-05
1.37676038951193499e-05
0.000141812324427492416
-0.000136564995549161788
-1.72738022553609274e-05
1.75541879626914302e-05
0.000165505680191213854
-0.00014214685699821323
-2.24359516991530286e-05
2.27496493525316709e-05
0.000190206792668389614
-0.000146086274697004994
-2.95303956418035496e-05
2.9906008260361553e-05
0.000215830204723469458
-0.000148907896366161705
-3.93717129712571669e-05
3.98943500795423148e-05
0.000240758343983011659
-0.000145346455504214887
-5.30493663984551143e-05
5.39624707055361697e-05
0.000263280097179511034
-0.000133925311561301107
-7.26405807106770776e-05
7.47972088868912731e-05
0.000280250266867005174
-0.000115617916275487844
-9.9534463760167136e-05
0.000104059974184999909
0.000278682883622625522
-8.44191072746814942e-05
-0.000141455985239867738
0.000155976796701539754
0.000225036437154318948
-2.04241192359404499e-05
-0.000196784232388373334
0.000235304817316247107
0.000250144399377711616
-0.000320668850781909848
0.000470467052557793641
1.87575468039875024e-05
-0.000129703901934128703
-6.1147511710838642e-06
6.27274587339189076e-06
3.74632942258186055e-05
-0.000140243502041668158
-6.64320965838622698e-06
6.78313634497157308e-06
5.65393025693065662e-05
-0.000140841236760982919
-7.41477033437519737e-06
7.53196342536799838e-06
7.62195833786822994e-05
-0.000142709165882079725
-8.65160387976852452e-06
8.78731146172874701e-06
9.6694097115857124e-05
-0.000146967025747252845
-1.04701675671358225e-05
1.06696412404726867e-05
0.000118147086810615058
-0.000152811953253660155
-1.3044710869794047e-05
1.32963730007129474e-05
0.000140768176981237924
-0.000159469558680103889
-1.66011801683915304e-05
1.68862365060331862e-05
0.000164688965539126482
-0.000166347896790760912
-2.15038062141789439e-05
2.17857496695768457e-05
0.000189932463650099457
-0.000171612002463220325
-2.82335908324085265e-05
2.85171805422592889e-05
0.000216505358638515859
-0.000175811064808952721
-3.75797723792750947e-05
3.79102766327585444e-05
0.00024279321737465703
-0.000172323240966803853
-5.0583944210347787e-05
5.12706944691110312e-05
0.000267679135494152244
-0.000160685954319991558
-6.91619122654422758e-05
7.10046201427078831e-05
0.000287063777662793752
-0.000139132044376551054
-9.47057099673512888e-05
9.87059743750422235e-05
0.000284228374746341573
-9.59480965116511796e-05
-0.000134690768882891193
0.000148029313013211747
0.00022252758968001782
-7.08269614045108564e-06
-0.000187127034139037232
0.000224667044419973134
0.000308827955451441885
-0.000307992231320014563
0.000445571529179022996
1.85445630700314787e-05
-0.000148427256092282302
-5.95701621104000064e-06
6.13763139016900769e-06
3.69736782951573053e-05
-0.000158817146900519073
-6.44879834233714549e-06
6.59589154124351472e-06
5.5748869035120872e-05
-0.000159705451851650798
-7.19050608514597762e-06
7.28224124685859096e-06
7.51918683031041197e-05
-0.000162272376434766368
-8.35537710986505564e-06
8.47865638739136406e-06
9.54892243461502252e-05
-0.000167477906805997773
-1.00666826136949525e-05
1.02838643729249641e-05
0.000116832041666011511
-0.00017442488586842081
-1.24973440589575336e-05
1.27720468326807666e-05
0.000139466089855985373
-0.000182389120468149784
-1.58491126925194907e-05
1.61404053185614741e-05
0.000163613311334646899
-0.000190731174102800374
-2.04606048200600702e-05
2.07027590510597175e-05
0.000189432248846484771
-0.000197571996233955366
-2.67880562147439177e-05
2.69336615485538638e-05
0.000216992614077270233
-0.000203438431415056524
-3.56014496905964872e-05
3.56702799637709388e-05
0.000244972037157429354
-0.000200692574273026928
-4.78425572817209194e-05
4.8228767565861605e-05
0.000273354842750872409
-0.000190569625174343173
-6.52124040269214279e-05
6.661816724444112e-05
0.000296214497996459439
-0.000165566853066145792
-8.88528742912520891e-05
9.21984851967332417e-05
0.000290999015727689614
-0.00010366586241369664
-0.000126777988282611356
0.000138648403440828872
0.000220078660892667974
1.28996254728143597e-05
-0.000174309905723874306
0.000213854260588065696
0.000375183758432012359
-0.000296864119215870014
0.000421737982835233491
1.82385971595740348e-05
-0.000166863201942341407
-5.7861479112285331e-06
5.98920791440389569e-06
3.63717754433194953e-05
-0.000177091727200170241
-6.23146189924866805e-06
6.38045952072252065e-06
5.48177294751341884e-05
-0.000178179682274612068
-6.94955427081397309e-06
6.98577689011109845e-06
7.39950488078498097e-05
-0.000181541824411321614
-8.0295784915740632e-06
8.1308188632469377e-06
9.40787747007225205e-05
-0.000187789036358295769
-9.62491131151387965e-06
9.86324772156343833e-06
0.000115266096736673092
-0.000195900249336349789
-1.19042752106399658e-05
1.22061229756444378e-05
0.0001378716983199737
-0.000205279324572688548
-1.50355655671520888e-05
1.5337835462420568e-05
0.000162218882612715848
-0.000215250455517265591
-1.93312686403576686e-05
1.95252292434688837e-05
0.000188555852027583713
-0.000223829940138417326
-2.52437912278448384e-05
2.51817080166539739e-05
0.000217038375629715285
-0.000231625004966701996
-3.3516719184189282e-05
3.32257264925969102e-05
0.000247158903698153779
-0.00023080396086958818
-4.48926870977976337e-05
4.48774712137131203e-05
0.000280376954509875315
-0.000224783208555943964
-6.0687940836602741e-05
6.15879801480814771e-05
0.000307585442175908712
-0.000195724656207606521
-8.19330056847731577e-05
8.44252701282574417e-05
0.000299044608007155519
-0.000108207446860742951
-0.000118236385761173016
0.00012783126582230269
0.000228421494893023806
4.21190178998563555e-05
-0.000167920452042391371
0.00020670902942572568
0.000460868064512577049
-0.000289920626461023887
0.000412903069934469566
1.78332910818357862e-05
-0.000184895885672881386
-5.60942414676924584e-06
5.82483559988144427e-06
3.56472432413765302e-05
-0.000195020577739030187
-5.99148859715484797e-06
6.12673861395769222e-06
5.3740113567327997e-05
-0.00019617848926130842
-6.70136829212674289e-06
6.6283523272806596e-06
7.26360383235610541e-05
-0.000200475225859762026
-7.67903506750792915e-06
7.74092877706277654e-06
9.24607379513803609e-05
-0.000207839674939000631
-9.15688978877869196e-06
9.4122171816892085e-06
0.000113425966712430476
-0.000217164141983672916
-1.12829536651590154e-05
1.16187927676388019e-05
0.000135936197678178155
-0.000228072698961323317
-1.41832713051699917e-05
1.45140433152874957e-05
0.000160396157720600212
-0.000239781702217836071
-1.815460998096855e-05
1.82853974887178084e-05
0.000187042606976469495
-0.000250026205698246069
-2.36751353451346964e-05
2.32944259570583497e-05
0.000216285209827344254
-0.000260060979620659548
-3.13967370543754613e-05
3.06238092531523721e-05
0.000249068478833754786
-0.000263130116548363554
-4.17336402449402637e-05
4.12764759775921953e-05
0.00028820328810124328
-0.000264433326193783417
-5.54831998490565512e-05
5.59176038012417189e-05
0.000320153329613762333
-0.000229880695757905514
-7.43664514328180198e-05
7.56956512095724042e-05
0.000306730116929936287
-0.000114868123813066433
-0.000109500307813043628
0.000116222451556678266
0.000229225411566345947
7.92379970870800296e-05
-0.000162966371431907568
0.000195336591041681148
0.000551870953327253822
-0.000291197537812945095
0.000419187038073506814
1.73539915898221252e-05
-0.000202408094593655585
-5.43441218816781816e-06
5.63360275390630649e-06
3.48219065458920559e-05
-0.000212530349995027643
-5.72284134028026383e-06
5.81475803018529969e-06
5.25445604225255626e-05
-0.000213587036868208898
-6.45309043937888783e-06
6.19014269034281191e-06
7.11430681170224322e-05
-0.000219012883010380862
-7.30378764864798903e-06
7.30294471363951568e-06
9.06289354888949942e-05
-0.000227517745378352733
-8.67590491565163892e-06
8.94022691430748776e-06
0.000111263913458498968
-0.000238101215351539772
-1.06528690097260265e-05
1.1046303893672346e-05
0.00013356445748968868
-0.000250648847019545827
-1.33229678878309794e-05
1.37149694468545541e-05
0.000157932493033686013
-0.000264029321304373396
-1.69860175437121255e-05
1.70100182739124615e-05
0.000184471664481529468
-0.000275531325154430319
-2.21526822667933619e-05
2.12897369717532215e-05
0.000214197513584900258
-0.000288256891215692905
-2.92444365262535293e-05
2.79096260348523826e-05
0.000249702973961601611
-0.000297786388675647736
-3.82733445449088297e-05
3.75095241301899224e-05
0.000294067900021373579
-0.000309007498001310468
-4.95948014588298711e-05
4.97363633462183873e-05
0.000327517970636404627
-0.000264688147346148694
-6.63834130403835571e-05
6.64675494649495993e-05
0.000311689142255974826
-0.000118170604717871659
-9.9531597577926954e-05
0.000103904441616618884
0.000220784752837623722
0.000115506276698573804
-0.000153894021444237757
0.000178213177240265822
0.000621178003589212811
-0.00029139342095369224
0.000400708396172412475
1.68747371473171196e-05
-0.000219323713204321746
-5.27688150726240168e-06
5.41470083541103266e-06
3.39667044821433293e-05
-0.000229512454482381329
-5.40431187555783817e-06
5.40883135786718378e-06
5.12950846840446169e-05
-0.000230246379851597744
-6.20518556553679141e-06
5.65167388025096881e-06
6.95470192623907853e-05
-0.000237044364384122487
-6.89706579993354098e-06
6.81354006608934285e-06
8.85428198706635951e-05
-0.000246623926358213676
-8.19789981140230354e-06
8.47208464795113547e-06
0.000108674871758159295
-0.000258531930767934022
-1.00355208351366478e-05
1.05411756025947173e-05
0.000130577453883054263
-0.000272775270322331525
-1.249244086067401e-05
1.29789512210269811e-05
0.0001544807045741233
-0.000287426817029931905
-1.5878153640219785e-05
1.56950259490744674e-05
0.000180303011740605028
-0.000299446911205790921
-2.06868583807807868e-05
1.91551157455995355e-05
0.000209920990554959044
-0.000315583769101337064
-2.69798706795421806e-05
2.51489465887473379e-05
0.00024712127021938896
-0.000333703889928866845
-3.4408775594479442e-05
3.36923981987867716e-05
0.000293531918523234339
-0.000355347285088703294
-4.31478341430650711e-05
4.32745267662628652e-05
0.0003225554373343278
-0.000294255159804893542
-5.76110760202442254e-05
5.70827025722392032e-05
0.00029359415117970807
-0.000118777975719687939
-8.6887732903671573e-05
9.00778808567718667e-05
0.000199052142510606686
0.000117132263959967249
-0.00014035385645118874
0.000144971801699324797
0.000646379821724176753
-0.000280936920821323835
0.00036145074173285865
1.65033651061985103e-05
-0.000235625123115541194
-5.1412998085318693e-06
5.15391276582824527e-06
3.31905033083861647e-05
-0.000245823420996613595
-5.01182607844125416e-06
4.88077607222080746e-06
5.00569697776084334e-05
-0.000245909732997823347
-5.95711424590716128e-06
4.99886648925580861e-06
6.78401537723480731e-05
-0.000254370284802869133
-6.45283659368110464e-06
6.2886053966458261e-06
8.6085259884467394e-05
-0.000264829797565773524
-7.74901717694306308e-06
8.05749299240871069e-06
0.000105467382565170716
-0.000278190484660757536
-9.44904141728727236e-06
1.01639338750806608e-05
0.000126689483357706134
-0.000294032264610751123
-1.17227447605052003e-05
1.23079752692208551e-05
0.000149584058204037831
-0.000309097150084248291
-1.48341512509156877e-05
1.42805529540180252e-05
0.00017390683067121325
-0.000320667386126689228
-1.91800171680293977e-05
1.68567933208056533e-05
0.000202161931559465002
-0.000340868189479701653
-2.44687052200887368e-05
2.24365208833089111e-05
0.000237883787146365001
-0.000367838820589093526
-3.00941142769372175e-05
2.98912202695952058e-05
0.000278452826495525065
-0.000394518698208631705
-3.60519027657983659e-05
3.64710129798503186e-05
0.000287215377015292365
-0.000300761300175714718
-4.68247734104005874e-05
4.58628078914215563e-05
0.000212116512173704991
-8.39011439812116597e-05
-6.79976455171940391e-05
6.49350970656052153e-05
0.000145885885100857735
7.43797721374906106e-05
-0.000106238919606427691
8.3892320549598071e-05
0.000689320148585828422
-0.000255472125545120005
0.000329060625582485984
1.63411542034717232e-05
-0.000251327462944849313
-5.01537386127042398e-06
4.82497752108039068e-06
3.25791214481937404e-05
-0.000261243661868882759
-4.53324467645516409e-06
4.2121230352274204e-06
4.88266995123302653e-05
-0.000260189052542213661
-5.7094830872469121e-06
4.23270050675236269e-06
6.59251250709825588e-05
-0.00027068431973106393
-5.98263152632842296e-06
5.79139925425396185e-06
8.30270616303682788e-05
-0.000281630651764660687
-7.36170657101642183e-06
7.75638086558150963e-06
0.000101350782924478487
-0.000296703408820920579
-8.8873362849250823e-06
9.95148038379336242e-06
0.000121494223199011532
-0.000313692070402126855
-1.10167783739491109e-05
1.16185586245491703e-05
0.00014270915333763559
-0.000327892560180276064
-1.37605578615323123e-05
1.26406330838566506e-05
0.000164578554011199542
-0.00033797608563467473
-1.74422268792804215e-05
1.43885725724246504e-05
0.00018948040760979876
-0.000362145106898615796
-2.1568267585787486e-05
1.9853657226921758e-05
0.000219965137798837579
-0.000396351092860571853
-2.53226395183019105e-05
2.60140911562997821e-05
0.000251276406441533029
-0.000421357237230740556
-2.8487925507129529e-05
2.92714770662798331e-05
0.000213418575748642876
-0.000282704920012235932
-3.47561531288458907e-05
3.37812765372712322e-05
0.000129999612349654842
-4.16233161130330254e-05
-3.64635120531895291e-05
3.14400396312941474e-05
0.000108822315442981139
7.48007152932934162e-05
-6.04220634479903158e-05
5.9821502079224613e-05
0.000694378008544484075
-0.000228345449212791635
0.000293088606812477379
1.64138030105296802e-05
-0.000266326267645923434
-4.85873041593268117e-06
4.33478557777531898e-06
3.20854388699586327e-05
-0.000275374911033852466
-3.98692130006128164e-06
3.40400695586898494e-06
4.74702900482989752e-05
-0.00027261123188802893
-5.44441963865265096e-06
3.42317699149889835e-06
6.35688222643139821e-05
-0.000285559679355577606
-5.50399760326995706e-06
5.42457321909040728e-06
7.90373964107098358e-05
-0.000296312231020531066
-7.03248181552965627e-06
7.56747048961146457e-06
9.59571843312748428e-05
-0.000313505829879256028
-8.30105367123457667e-06
9.8391906241657411e-06
0.000114475719493284508
-0.000330537794935987801
-1.03371456222976908e-05
1.06889463341567384e-05
0.000133232815049771192
-0.000342411552093558951
-1.24667248423465844e-05
1.06201274086778378e-05
0.000151396597427524429
-0.000349929640604253796
-1.53113333803007956e-05
1.1834459112245326e-05
0.000170004992158595292
-0.000376400088570392436
-1.8187913182906646e-05
1.73864438755793851e-05
0.000188904584722215246
-0.000411618098746130076
-1.99986412268548719e-05
2.16698266750644879e-05
0.000196007462192739589
-0.000419812815771426577
-2.025633158021789e-05
2.1086638956972294e-05
0.00010637014055016428
-0.00019756643144971665
-1.74731074413966814e-05
1.46883005677400532e-05
8.3647606430272244e-05
-1.60495752326681476e-05
-2.22004363816883471e-05
2.18247215619866809e-05
7.99253939176336378e-05
6.91264869732362194e-05
-4.31368397893462598e-05
4.04932722722605237e-05
0.000688915384453220574
-0.00020263246289551045
0.000249249983788811481
1.64686892426736082e-05
-4.59084620285216072e-06
3.69764706382182028e-06
-0.000280209253334147131
3.12649075657401345e-05
-3.43014498757292188e-06
2.46488453563274358e-06
-0.000287437948612223257
4.5452616572390425e-05
-4.97926642018305787e-06
2.7293634231366036e-06
-0.000282813517574812467
6.00070265921026619e-05
-5.03028297780546429e-06
5.17092594697388609e-06
-0.000298136196659059432
7.33759935924210887e-05
-6.61423932951197463e-06
7.32997338942122869e-06
-0.000307988101218066839
8.83660735279343928e-05
-7.5509667300617305e-06
9.45260201115422492e-06
-0.000327394645744617503
0.000104439572842777791
-9.44217165014192234e-06
9.15813811657423097e-06
-0.000342716324460190015
0.000119663646422696576
-1.06153100971257382e-05
8.07998944320185353e-06
-0.00035087895415863887
0.00013262595868381686
-1.2657951571026964e-05
9.27318456680144534e-06
-0.000354671281617845505
0.00014304856935801053
-1.41942123398724596e-05
1.46070681304583123e-05
-0.000380991210838991677
0.000154527881586273634
-1.42073509302460709e-05
1.65135622614104476e-05
-0.000416161936123728192
0.000137843266267843618
-1.26999554802354115e-05
1.37519168619802819e-05
-0.000387808029734725869
5.4052188819715421e-05
-7.32603656735707438e-06
6.46803361622800234e-06
-0.000102267693987836099
4.55056482774565769e-05
-1.33065460289824804e-05
1.24659655857810082e-05
-3.86193264945858066e-06
5.23579998639289978e-05
-2.88194952672217717e-05
2.6058054191985538e-05
-0.000189929145813326017
0.000219754642986055035
1.68467977127140957e-05
-1.72022234797267716e-05
-6.24297516387477835e-06
3.82003735867038428e-05
-2.1739990512701858e-05
-6.88792599869490521e-06
5.94362474730020295e-05
-2.16728092677123099e-05
-7.73079419388727227e-06
8.04760360278606468e-05
-2.15653795206988416e-05
-9.13591026213569999e-06
0.000101135876844614481
-2.13167505887212736e-05
-1.11837286524573761e-05
0.00012199198181329709
-2.1709486197931716e-05
-1.40797392967771073e-05
0.000143258413228358625
-2.23822553011486877e-05
-1.80906031847197567e-05
0.000164707770238816081
-2.30286381970850129e-05
-2.36442313377191761e-05
0.000185631093587490092
-2.30211031102980999e-05
-3.10955754134178343e-05
0.000204987343589227417
-2.27073301710735645e-05
-4.14719049130377959e-05
0.000221142531504474186
-2.07638871851980354e-05
-5.52830644812858562e-05
0.000230286900526850501
-1.75457124308014888e-05
-7.44829939043708291e-05
0.000230506280414703859
-1.24621515880421357e-05
-9.91697699026312029e-05
0.000214138416083917783
-7.74094906004243673e-06
-0.000135943101536533409
0.000169064026500441401
1.17196165622205751e-06
-0.000173245019953900361
3.46358130208815104e-05
-0.000194002029375712803
1.75170012976555782e-05
-3.50797891640197977e-05
-6.23947235877641331e-06
3.80374871808247569e-05
-4.26434177424616398e-05
-6.79223414629779047e-06
5.78289472017420178e-05
-4.18952749818965039e-05
-7.62424430734370108e-06
7.74042049495191948e-05
-4.16570238866097222e-05
-8.99443381043859139e-06
9.75231096154425582e-05
-4.20824164932959009e-05
-1.10138039834035774e-05
0.000118142536777323458
-4.31655105512548825e-05
-1.38619162791279364e-05
0.000139140545170717082
-4.44927791978505093e-05
-1.78063670917635067e-05
0.000160356590600875125
-4.57665466646981232e-05
-2.32166612124526386e-05
0.000181182657408619053
-4.59999677077418449e-05
-3.06001703074114349e-05
0.000200734125876544017
-4.54414114057168065e-05
-4.07008958571317432e-05
0.000217788863950738813
-4.27068194724995227e-05
-5.43483490238362967e-05
0.000228873841315541338
-3.66842852611574992e-05
-7.30725355258657935e-05
0.000231281056210798694
-2.81226192822706967e-05
-9.83493284772457322e-05
0.000216877026321253557
-1.87918859738170974e-05
-0.00013261078669491721
0.00018128847579908068
-2.02313517842707028e-06
-0.000174720057277516396
8.38788803863858487e-05
-0.000223087880056031264
1.81302812441399197e-05
-5.35720539996172588e-05
-6.18507566377866277e-06
3.79040268755597085e-05
-6.27996025021371499e-05
-6.75682569145772259e-06
5.75521260152822754e-05
-6.19708202853425718e-05
-7.58104993163830105e-06
7.71994848291202549e-05
-6.1815211354689518e-05
-8.92638953768278251e-06
9.73231130821127822e-05
-6.28460146917164588e-05
-1.0910995847475338e-05
0.000117991119974098109
-6.4661564365756151e-05
-1.37100963520067828e-05
0.000139102630074424354
-6.67013879997987368e-05
-1.75872999669785054e-05
0.000160482040637357533
-6.86452055159963558e-05
-2.29022479231739291e-05
0.000181569434961088708
-6.91932478624656186e-05
-3.01700959146259434e-05
0.000201604468738143978
-6.85957794470646746e-05
-4.00802353020974909e-05
0.000219053423153570158
-6.49140193602528847e-05
-5.35181776826888797e-05
0.000230631158784041791
-5.61462427301566538e-05
-7.20458672596747794e-05
0.000233608114830778868
-4.41252982886935249e-05
-9.67625156584500824e-05
0.000218777074330561884
-2.86100802347930278e-05
-0.000131212272024945853
0.000177573959465839124
-6.56025285117669898e-07
-0.0001718504705532434
0.000132559780143852923
-0.000222802924667952476
1.84674545191159187e-05
-7.2402868961994634e-05
-6.10838113528002962e-06
3.77180922156827153e-05
-8.24293653570217291e-05
-6.68400302769627628e-06
5.7146670179385848e-05
-8.18182787365891027e-05
-7.49624408263660449e-06
7.67515335330323811e-05
-8.19202016921027047e-05
-8.80861941689334951e-06
9.68457577077727307e-05
-8.35685801439773425e-05
-1.07422739341375515e-05
0.000117527502628254611
-8.61570716414932294e-05
-1.34712169909608732e-05
0.000138739049349621585
-8.89879463183203701e-05
-1.72505505913520748e-05
0.000160308745764706239
-9.16776359720142514e-05
-2.24345100045951173e-05
0.000181734719837825732
-9.26646445648397136e-05
-2.95250630427746675e-05
0.000202417544247880199
-9.23069767201883099e-05
-3.91789814205120276e-05
0.00022053937200157509
-8.7647493745119127e-05
-5.23069203864739071e-05
0.000233033746138315144
-7.63100015249262555e-05
-7.0442389187479052e-05
0.000237022031200457374
-6.07510942539690653e-05
-9.44929149195063563e-05
0.000222514273696178044
-3.81711040229738599e-05
-0.000127983930012139861
0.000177986147165575285