/*--------------------------------*- C++ -*----------------------------------*\
| =========                 |                                                 |
| \\      /  F ield         | OpenFOAM: The Open Source CFD Toolbox           |
|  \\    /   O peration     | Version:  2206                                  |
|   \\  /    A nd           | Website:  www.openfoam.com                      |
|    \\/     M anipulation  |                                                 |
\*---------------------------------------------------------------------------*/
FoamFile
{
    version     2.0;
    format      ascii;
    arch        "LSB;label=32;scalar=64";
    class       surfaceVectorField;
    location    "0.239999999999999991";
    object      Uf;
}
// * * * * * * * * * * * * * * * * * * * * * * * * * * * * * * * * * * * * * //

dimensions      [0 1 -1 0 0 0 0];

internalField   nonuniform List<vector> 
20789
(
(0.0549447488918961904 -0.013574705291810674 -0.0199412308022220847)
(0.0280869219621653135 -0.0245648964373428175 -0.0189704943883312188)
(0.0273943751574369614 -0.0115784128783964404 -0.0187677576299122573)
(0.0279173462814258852 -0.0116245168530966971 -0.0190577737115092752)
(0.124516878653453913 -0.0156687640912064191 -0.0222211466148303748)
(0.0894581271632267916 -0.0310865873792878222 -0.0207984853395430519)
(0.0880350990237971365 -0.015507186269728258 -0.0206905872563261581)
(0.0897128729263578228 -0.0155874295420912971 -0.0210216986747879392)
(0.193998127796420422 -0.0158589184897900415 -0.0256690175048975497)
(0.156288487346435273 -0.0310619329580389299 -0.0233598948631899006)
(0.155190119089938794 -0.0157301718310579146 -0.0232319363599928427)
(0.158152093884002004 -0.0158491586978578049 -0.0235945699889024869)
(0.263258027305196207 -0.0158415061444301675 -0.030970082755318401)
(0.225606026780104552 -0.0309937356688313563 -0.0276166019603728205)
(0.227902554087537512 -0.0158433022666759418 -0.0274810158758508512)
(0.23271784400628226 -0.0160120771045457397 -0.0279040421817355333)
(0.331806504547668135 -0.0158388164340550371 -0.0385833891857955413)
(0.291840418688717185 -0.0307209453149182854 -0.0338643588457923986)
(0.294019162115562949 -0.0156486778271004434 -0.0336795199311508212)
(0.300992557318611131 -0.0158616599392628795 -0.0341893496222242174)
(0.401755983283431428 -0.0161787630523376122 -0.049204301816472347)
(0.360072372316299627 -0.0314182470790359686 -0.0427191625096776939)
(0.361467520750768379 -0.0157820358860796192 -0.0424758851002192198)
(0.371251269511502446 -0.0160605069259711145 -0.0431349958596205507)
(0.474202451142313353 -0.0167718110913978348 -0.0641146963647672152)
(0.430440109130913351 -0.032580941100472674 -0.0549692639192328469)
(0.430274313103817807 -0.0162444971245731228 -0.0546309075058612828)
(0.44384008485828258 -0.0166327634509036322 -0.0553958948241076859)
(0.548897246012459927 -0.0171895341324830239 -0.0842848223682677589)
(0.503929832395908051 -0.033837808558370451 -0.0721438103632426886)
(0.502021868979515173 -0.0168275541338716063 -0.0717458500781111841)
(0.520814186487482234 -0.0173817393253174746 -0.0730260952396997315)
(0.624523533961510835 -0.0174194395204096755 -0.112928251784617045)
(0.578281547042506672 -0.0341945664372133376 -0.0951850194730449461)
(0.572976414753700536 -0.0169005989112747078 -0.094415079874870203)
(0.59923661773346526 -0.0176882355240744679 -0.0955808728354901049)
(0.698489100776909178 -0.0169986361181846193 -0.15158763066676767)
(0.653445305225161532 -0.0345479071689700837 -0.128623871458499933)
(0.643629570808884832 -0.0169804110554755902 -0.127494024264365513)
(0.680162420326625328 -0.0181322594583693333 -0.130842703673810262)
(0.768753086950732856 -0.0155721949127308832 -0.208397955880406938)
(0.72675169725348332 -0.032333255562277681 -0.172589202212763193)
(0.709482278350494044 -0.015688372904642759 -0.170354941743386834)
(0.762145034555818723 -0.0173127998943111844 -0.172564571622099844)
(0.821856571434329108 -0.0128212485878963743 -0.284147092909302512)
(0.791619932009932525 -0.029319537685491226 -0.240510693254106483)
(0.76191224196956675 -0.0135413796704687787 -0.235735648965695432)
(0.836566485588169484 -0.0160677858508933916 -0.247171591050469736)
(0.862253882699566376 -0.0102246469316292152 -0.406398751174892658)
(0.844055284810790174 -0.0225080355450354708 -0.32671277106803559)
(0.79568610896935632 -0.00966700678469967559 -0.316884576749021707)
(0.914692464902676639 -0.0124344174647490219 -0.325991968520348174)
(0.833514688810049198 -0.00449436941445777258 -0.581573604201977568)
(0.866763973203403704 -0.0192703866410976581 -0.483909953855948538)
(0.799064747701007327 -0.00735605438280956866 -0.455217981111871839)
(0.949937077230808558 -0.0126280836186985768 -0.519304806648760886)
(0.732647705591971787 0.010215173559510354 -1.07424801715827334)
(0.869033295620236013 -0.0053379699901059648 -0.680558638296464125)
(0.756832806295462235 0.000886062129412311991 -0.609755635830894316)
(1.12190831015436898 -0.00759242348500901998 -0.710091153817262066)
(0.537423039567145544 0.0390032781934246953 -1.47966520560345849)
(0.510480929305228703 0.0256272321900429707 -1.06313799859972291)
(0.96063823231948986 0.0140367912735658608 -1.63637389951257006)
(0.05711023197916891 -0.0416975561581637497 -0.0198277489256521861)
(0.0289922652803643877 -0.0501005627412674862 -0.0189241634332797982)
(0.0282556324493487138 -0.0365764416385813765 -0.0187725350765714678)
(0.0287854637955828919 -0.0367210378549721467 -0.0190788167007830654)
(0.124027077054175774 -0.0463510829583311454 -0.0219372335879025743)
(0.0904807687283956663 -0.060994391561124163 -0.0206244872220632536)
(0.0892135382964349688 -0.0466155926072534879 -0.0204086449304421089)
(0.0908887481356088212 -0.0468764678312810212 -0.0207422138804229765)
(0.18880852172640919 -0.0458066564199325621 -0.0253074793186651784)
(0.15559093941964422 -0.0600354264739087345 -0.0231482393855750555)
(0.154407075002698763 -0.0457813945951396906 -0.0229121017297069726)
(0.1574401079030881 -0.0461295524409220253 -0.0232752909392345796)
(0.253213723329883345 -0.0457523987530608842 -0.030510878050846818)
(0.220431846392393188 -0.0598274407289918903 -0.0273101952499153235)
(0.218610496818305328 -0.0454286078836679055 -0.0270525076464106194)
(0.223259428063074888 -0.0458839180324681906 -0.0274706032335182079)
(0.319891534291996571 -0.0464311829637137144 -0.0380001321696745581)
(0.285790667629767181 -0.0606087318508891013 -0.0334666994141084792)
(0.282884622616198234 -0.0455546980222993406 -0.0331673980700070634)
(0.289562258796797589 -0.0461365142287625818 -0.0336736021862231658)
(0.388928184494478857 -0.0478727433651776682 -0.0484841246124382147)
(0.353483165055378579 -0.0624155153524679346 -0.042168127267825227)
(0.349186846443679755 -0.0466213937301269282 -0.0418086358314348275)
(0.358529289619961555 -0.0474009312804635971 -0.0424371485468054005)
(0.460276478065633043 -0.0496601547794204845 -0.0629983779177083481)
(0.423592340538411605 -0.0646966025041138815 -0.0542567405006902717)
(0.417453176650404711 -0.0481871743959025808 -0.0538130719776693522)
(0.43039863667198669 -0.0492807425426214918 -0.0546236775979827768)
(0.533868519686448884 -0.0509455497364302776 -0.0830440074680198481)
(0.496476828140829829 -0.0670791617175397342 -0.0709453855576474696)
(0.487692574686184765 -0.0498155187012347608 -0.070366392875539252)
(0.505559827141529472 -0.0513639882754745383 -0.0714340019275243321)
(0.608569523692328973 -0.0514688082166870897 -0.110880639146927848)
(0.570803639500616966 -0.0681765928168746871 -0.0939875721708847839)
(0.55835958496264293 -0.050243148007983067 -0.0931624870083063439)
(0.583191269426635461 -0.0524391448221803586 -0.0947257052876434441)
(0.682318449101968927 -0.0503937206785797648 -0.149625443004495484)
(0.646040574463684125 -0.0685034109012869902 -0.126120055788556895)
(0.628358154488254717 -0.0500861252404333282 -0.124821797210631469)
(0.662867130665056203 -0.0532025549885671231 -0.127178196091237761)
(0.753243913896684991 -0.0467607883025283819 -0.204701939586462711)
(0.719859468450914086 -0.0659369315152308622 -0.170744283208626668)
(0.694567973705665365 -0.047134888222477328 -0.168491216732546606)
(0.743770384443783628 -0.0514699533733550402 -0.172653679652050224)
(0.812370153795595851 -0.0400233289334238074 -0.283076371412839589)
(0.787181940978330386 -0.0596330212984660032 -0.235461480805628232)
(0.751664730774661782 -0.0413648794972037992 -0.230717721587300334)
(0.820621189823351194 -0.04761782906274558 -0.238788177588422496)
(0.856034232661824879 -0.0323746250963650242 -0.404223973749091248)
(0.842724744475328413 -0.0496220575739484207 -0.3261298174439477)
(0.791186431569775306 -0.0320504237953181045 -0.317395442548685514)
(0.900016655788178244 -0.0399921123130620795 -0.332811267793796384)
(0.847593217106833108 -0.0224850502423747448 -0.582894987950435262)
(0.869485184719412274 -0.0403338995084376387 -0.475882137215332124)
(0.801042562911831624 -0.0235905502952072875 -0.449526817958126157)
(0.949740858940975707 -0.0351213322097733843 -0.499157166612132608)
(0.759438089180406561 0.0284563539267581322 -1.08597582674164683)
(0.874654502738849926 -0.0274070205028942686 -0.683685203389299834)
(0.764632859035948242 -0.00819370556030069377 -0.607571275008394251)
(1.09383297940143098 -0.0317477882928065003 -0.730069727119893819)
(0.563192952264564894 0.110227573601865511 -1.47987612282881686)
(0.567032454400443586 0.0840860394923849952 -1.11735006673717074)
(0.979091796406322601 0.0467418036425375355 -1.64995787895160939)
(0.0590885258396870935 -0.0695509667628863848 -0.0197209017296908692)
(0.0297324613437756485 -0.0765222290962357526 -0.0187614107487543876)
(0.0291987363670337674 -0.0630953455808154068 -0.0186219600548583053)
(0.0297335615225069773 -0.0633607507829865441 -0.0189418657065321162)
(0.123578501512051256 -0.0752370434926203785 -0.0218354930197357348)
(0.0910643110707856085 -0.0898277705902584961 -0.0204787868262418724)
(0.0900829461918226659 -0.0756571287546456278 -0.0203066129187410085)
(0.0917549483287080359 -0.0760890381732396565 -0.0206486512043069469)
(0.187872583614443894 -0.0744624523613846706 -0.0251509553168252006)
(0.154794850244840992 -0.0887955621213925433 -0.0229604521137250529)
(0.153780376973962268 -0.0743217844199285521 -0.0227792141134762031)
(0.156774702867106625 -0.0748750469158301346 -0.0231489581087742161)
(0.252487743781140639 -0.0749488655032846396 -0.0302660166131769812)
(0.219156247646263125 -0.0887569639571796909 -0.0270339662638758166)
(0.217671285987722007 -0.0739687091559320387 -0.0268432444446926322)
(0.222252881202054886 -0.0746741151271623355 -0.0272663835724477194)
(0.31914511802033424 -0.0767840885329372363 -0.037634694512259155)
(0.284527991221237231 -0.0904904787038376818 -0.0330687764384184485)
(0.282117252158147924 -0.0751069073853036229 -0.0328557400836710159)
(0.288697653663456288 -0.0760271754625605062 -0.0333680675653480613)
(0.388291409809259358 -0.0794322647262160342 -0.0479407431560773048)
(0.352277144593913238 -0.0934651021014960282 -0.0415971714799736048)
(0.348577117447757823 -0.0773633879947207698 -0.0413525636079770734)
(0.357778060550546784 -0.0786107067654006342 -0.0419882851371347621)
(0.459940858344490944 -0.0823466988753023682 -0.0622037481406293863)
(0.422465779743052272 -0.096942486062675623 -0.0534269771964693344)
(0.416990141329876385 -0.0799946551412319962 -0.0531461949611986492)
(0.429733294247963471 -0.081740124127756067 -0.0539495608421525219)
(0.53398106607591922 -0.0845611476844727317 -0.0818889502605123776)
(0.495756255135041679 -0.100515758763647989 -0.0697582547589923191)
(0.487700288282704286 -0.0826041661053104892 -0.0694078503544243858)
(0.505281551545282426 -0.0850560079314817002 -0.0704675702863625519)
(0.609376971135614176 -0.0854849323098448438 -0.109226988812513873)
(0.570632136875193652 -0.102422688717032848 -0.0922848154870675036)
(0.558930406390090062 -0.0836029002288917328 -0.0918058569827283899)
(0.583368709749480296 -0.0870699842056148754 -0.0932795195163048929)
(0.684589981690642668 -0.084219816708616474 -0.147238895992687996)
(0.647056989931195536 -0.103082085438114354 -0.123715622212032111)
(0.63003773748640568 -0.0833204153727438862 -0.122876506776679259)
(0.663983921215360429 -0.088135158517703982 -0.125177848059087687)
(0.756615473011454376 -0.0788277593114031366 -0.201503824427792161)
(0.722592882102999434 -0.0998770014126122291 -0.167334231826686802)
(0.697782312082073419 -0.0795766544561055111 -0.165760293953063159)
(0.746308677008687082 -0.0862646414638651854 -0.169617757401959501)
(0.81726077608787695 -0.0688949749143692725 -0.27851492683673662)
(0.791632005842227371 -0.0904411130876346253 -0.231007939052831929)
(0.756356881707577644 -0.0703723040421485313 -0.227249377515329032)
(0.82429208626471806 -0.0796607032483414162 -0.234958714712594136)
(0.862047070834905838 -0.0563807748870295417 -0.397787980910188632)
(0.848292577464299535 -0.0769384143343577742 -0.319502700079868474)
(0.796277300505999097 -0.0569152324704690835 -0.312130992789003525)
(0.904344414642903605 -0.0696813457416843862 -0.326953807591052248)
(0.853055622542346126 -0.0419809532717850264 -0.576672352654197362)
(0.87739849838292916 -0.060204628593596668 -0.466463067542156773)
(0.809860276942946711 -0.0414902605630383739 -0.443134256903459145)
(0.953957373677307707 -0.0576497665679551463 -0.490868236029316729)
(0.742297261501785099 0.0536089850694083381 -1.07758549947646975)
(0.879562469742770192 -0.0384328297336740954 -0.675766332318979868)
(0.764998173441622686 -0.0180525425709375936 -0.602099066548210882)
(1.10112065032572315 -0.0535232610920609725 -0.722602838633990885)
(0.548381729684450869 0.176267747931609375 -1.46145590975761963)
(0.546965001646485427 0.15673603886950091 -1.10405767978982805)
(0.957161580158012115 0.0887757211212694824 -1.63179740115286265)
(0.0601651344966225507 -0.0970265409936938023 -0.0195192958453053907)
(0.0301006184452431332 -0.103430790408941889 -0.0185308977107949829)
(0.0297343587769962579 -0.0898277749317090146 -0.0184078452798136089)
(0.0302674414279892751 -0.0902216149173146048 -0.018744606522780153)
(0.122943686989274562 -0.103601622416956654 -0.021603745920231187)
(0.0911368762191971105 -0.117904739565172431 -0.0202225444056430212)
(0.0903931661215077453 -0.103731614013608725 -0.0200901691535643814)
(0.0920446621761435574 -0.104322384709610763 -0.0204406983015850176)
(0.186495993676499744 -0.103238442257146706 -0.0248434630607756723)
(0.153740851072585921 -0.1172277905632442 -0.0226442777870841279)
(0.152865237094264139 -0.102793599262023194 -0.022513739977338517)
(0.155800661993139938 -0.103545818026349296 -0.022887039872376988)
(0.250933577913328931 -0.10440215672334785 -0.0298367260891172874)
(0.217458660643412072 -0.11760790300167405 -0.0266059924527012152)
(0.216146773877914034 -0.102816016846024094 -0.0264779253226639644)
(0.220625909427915323 -0.103773729817907084 -0.0269017441849176107)
(0.317440775395687158 -0.107292245819991819 -0.0370312534061328913)
(0.282629595716604065 -0.120307841893263739 -0.0324783070827671383)
(0.280486788354957162 -0.10486045765491378 -0.0323428583390895086)
(0.286915104596231596 -0.106116011071628907 -0.0328599211265569596)
(0.386556994981409552 -0.111132809541460459 -0.0470834055203656621)
(0.350308912338960665 -0.124503266033857585 -0.0407722862770024189)
(0.346956457695107245 -0.108213034222520169 -0.0406325833542872036)
(0.355933778160458181 -0.109916732909075554 -0.0412722050716979108)
(0.458420758113532167 -0.115278862670724208 -0.060981483814832281)
(0.420537532107482681 -0.129280206702038408 -0.052256251522092019)
(0.415455351799597417 -0.111981169648920686 -0.0521256691503501901)
(0.427882170039712628 -0.114361383680134335 -0.052922209524227222)
(0.532942074466976279 -0.118544119105482432 -0.080154119985547459)
(0.494213103163612777 -0.134147001217770845 -0.0680972984744047521)
(0.486605686875116794 -0.115708770458734983 -0.067973757226485132)
(0.503728088753907843 -0.119046971411972929 -0.0689951158854557739)
(0.609233446229733411 -0.120173023553209399 -0.106773448886585742)
(0.569800278155085937 -0.137017374897586836 -0.0899365863618432071)
(0.558504665192327221 -0.117397626684179524 -0.0897994226532225492)
(0.582325028830305458 -0.122115484200336188 -0.0911743127459193475)
(0.686289209247981424 -0.118838064428551562 -0.143810958046030862)
(0.647764443795439959 -0.138398658115396339 -0.12040421107019228)
(0.631050497541419952 -0.117458730195895478 -0.120054629442530647)
(0.664136014006906805 -0.123986985902676136 -0.122193790430584454)
(0.760135211866328153 -0.111519581958877387 -0.19683834645172657)
(0.725525379766342682 -0.134461514595694082 -0.162778210633574005)
(0.70092701174138472 -0.112685382665680539 -0.161898450787650722)
(0.748305941715285972 -0.121734820114699285 -0.165426561483326129)
(0.82331227794308981 -0.0982046115949165299 -0.271995712295963754)
(0.797007082395526645 -0.12217654529854606 -0.224786088637066922)
(0.761690454455900778 -0.0999179713001420305 -0.222036819381761841)
(0.827956379918375451 -0.112537966848173382 -0.229350298242562894)
(0.869806148554453262 -0.0801862289728988986 -0.388177786711836781)
(0.856453131398408285 -0.10478979581765055 -0.310668207658661155)
(0.804033491302766024 -0.0822356872488844703 -0.304609386814403083)
(0.9101460239103214 -0.0993118982735657907 -0.318984304962710297)
(0.86325390198028118 -0.0552641200098217961 -0.565557047206939445)
(0.887606165496887534 -0.0805032950946779485 -0.453460771854952371)
(0.819971698477148681 -0.0585127224725811024 -0.432225982186991875)
(0.959676761977620418 -0.0813683555625136778 -0.478647659647253698)
(0.7389071239686823 0.0853619466835186802 -1.05963674260013052)
(0.892251370890098094 -0.0418401311316548355 -0.663632658901239347)
(0.777939409562691586 -0.018843804534463781 -0.593001676567091907)
(1.1050164258664823 -0.0673663842674119134 -0.710347028239890599)
(0.546133566236030377 0.24729940237815129 -1.43990525102545308)
(0.539321859125064917 0.233290524856526016 -1.08487759467931499)
(0.945316012672464345 0.134583804825148812 -1.59962086262048198)
(0.0605193438090349881 -0.124463414895434735 -0.0192341462711326135)
(0.0301995427438256081 -0.130508939540062735 -0.0182347982970185625)
(0.0299410483464362907 -0.116804598588009012 -0.0181305065006587031)
(0.030465061847491124 -0.117327633296581885 -0.0184916330618264055)
(0.122156896987920788 -0.131653921660309009 -0.0212630762724959552)
(0.0908109326178207221 -0.145480161399131586 -0.0198714746238132789)
(0.0902594263460437668 -0.131486270151222467 -0.0197775059858891489)
(0.091873872122427272 -0.132231663589272158 -0.02013919807602816)
(0.184915540520173838 -0.131769447458493894 -0.0244068071790096743)
(0.152450774882251755 -0.145306974855450188 -0.02221523040309345)
(0.151745574187462789 -0.130963157395226487 -0.0221365049804854372)
(0.154599879162598708 -0.13190759773702565 -0.0225091993886649966)
(0.249016673987934561 -0.133684266767346877 -0.02924757344635108)
(0.215483165749287553 -0.146306969703756867 -0.0260416652452731961)
(0.214398413894906742 -0.131479124619244853 -0.0259776639842568616)
(0.218745635611272971 -0.13267971015937588 -0.0263968027810101216)
(0.315305139527012446 -0.137688255835379414 -0.0362193399536366659)
(0.280312970557962171 -0.150031138850205414 -0.031717066155459217)
(0.278499134761100553 -0.134463140495164807 -0.0316523037870866664)
(0.284732876160554205 -0.136033407392703004 -0.0321756727005708468)
(0.384343931008478523 -0.142832546219126388 -0.0459451322787287897)
(0.347823084485918532 -0.155511253958150381 -0.0397219732417840449)
(0.344896341900049586 -0.139001322858356341 -0.0396737583200556451)
(0.353587466404119477 -0.141131353412399796 -0.0403218640761154046)
(0.456420879282498138 -0.148338596357989821 -0.0593720661816644762)
(0.4180686103888267 -0.161710969852025765 -0.0507790506501982694)
(0.413488751077369765 -0.144047188497872597 -0.0507800805430709268)
(0.425505480985919227 -0.147017783357810905 -0.0515732055330648184)
(0.531549925952059632 -0.15281529885403769 -0.077879764850700528)
(0.492135843721584865 -0.168020063395068725 -0.0660041549230133556)
(0.485119807804904768 -0.14901767734518595 -0.0661009681246618463)
(0.501646622079544691 -0.153192801768711417 -0.0670657653064914705)
(0.609086866472738131 -0.155430694940294795 -0.103567348545449744)
(0.568654168814577088 -0.172101676699428302 -0.0869843033947878125)
(0.557930883343009332 -0.15160694476748704 -0.0871807635349143573)
(0.580964633670958741 -0.157513014668689749 -0.0884277410383505352)
(0.688416931382966335 -0.154165359466199248 -0.13937146365773545)
(0.64852452296382368 -0.174595207392371138 -0.116244232203103814)
(0.632386620014044998 -0.152398417477217163 -0.116405564258702118)
(0.664355909520740973 -0.160543296907409816 -0.118283102525300082)
(0.76479814298338944 -0.145130899712456851 -0.190725952818914246)
(0.729045795011491027 -0.16996698246626385 -0.157099354921733908)
(0.704929896844148196 -0.146534218486391227 -0.156932660826682585)
(0.750765552421606586 -0.157832329930029047 -0.160049137949411308)
(0.831703038156517693 -0.128501739692321759 -0.263458583999764295)
(0.80398852226822326 -0.15531619397864585 -0.216872810843578179)
(0.768804289376243788 -0.130701555831269134 -0.215132213042393133)
(0.833154020937868278 -0.14657884284012529 -0.221940419005659001)
(0.881508620917330954 -0.10453225903358053 -0.375951192801776912)
(0.867885309834669716 -0.133808815346063564 -0.299711446000230086)
(0.815071868935934862 -0.108509638520445095 -0.294925852394632759)
(0.917924396230401896 -0.129589429207209894 -0.308692261815613989)
(0.877920291805886155 -0.0660143540190259448 -0.55153638354925183)
(0.902591911883319553 -0.101058243068444492 -0.437699808329252538)
(0.834597976458235635 -0.0757822240356530868 -0.418760324713777832)
(0.970255894933762963 -0.105526615392916773 -0.463060011936923921)
(0.742387456317409322 0.121665140317085002 -1.04390116732656346)
(0.906608659214090729 -0.0396510909966081085 -0.649896274097249926)
(0.798233109890629455 -0.0153446351371834336 -0.579910543621773522)
(1.10751537263646638 -0.0775622509262111071 -0.696006292628786105)
(0.551761558006431785 0.327388245609035455 -1.42066415002558699)
(0.542874482127428948 0.314480170569068462 -1.07107123614280786)
(0.941963136637039122 0.185823527861757459 -1.57079364896793372)
(0.0604304165891486333 -0.151698084910859204 -0.0188721266496992245)
(0.0301206855509349412 -0.157565822964107038 -0.0178776135605240513)
(0.0299448936177144805 -0.143843461141729079 -0.0177908136813153678)
(0.0304530895012825771 -0.144494657009349131 -0.0181884971226862341)
(0.121149683644527897 -0.159282250985112478 -0.0208236287544107702)
(0.0901633828654205827 -0.172655343318135146 -0.0194360891040555421)
(0.089791706332600224 -0.158778293412758509 -0.0193769704948220794)
(0.0913533875037220028 -0.159671160436534149 -0.0197544694088421791)
(0.183075188991303039 -0.160014804111014458 -0.0238500884693569719)
(0.150889664559155728 -0.173011080215266372 -0.0216817727754590531)
(0.150382175977765709 -0.158750309410043006 -0.0216579686316095039)
(0.153133619693353706 -0.159878642531479376 -0.0220210747110787287)
(0.246685876411778499 -0.162822253198852962 -0.0285111579543813401)
(0.213167192253528731 -0.174782134455257893 -0.0253511407361637423)
(0.212350078085617899 -0.159957929245113567 -0.0253510404884150775)
(0.216539700092989895 -0.161391404832276986 -0.0257583269176818765)
(0.312651476860109023 -0.168020978353523587 -0.035219699443606603)
(0.277518537474014504 -0.179617919919566188 -0.0308054254863723738)
(0.276077230284353714 -0.163968611841934286 -0.0307943758371415979)
(0.282079907071360048 -0.165829869290255894 -0.0313317169329554376)
(0.381544069249932116 -0.17456870742592831 -0.0445558916132535315)
(0.344749330010335642 -0.186465700216946639 -0.0384764178570498952)
(0.342303765943532179 -0.169771210141227119 -0.0384910410498655528)
(0.350652359374979294 -0.172287265567561798 -0.0391620260218506835)
(0.453807014157062705 -0.181583063338000866 -0.0574111393915471557)
(0.414956770768658834 -0.194226879208086955 -0.0490330266948760876)
(0.410963692694988558 -0.176225723120391448 -0.0491352845481059647)
(0.422475186157700799 -0.179728000261874465 -0.0499333644182383268)
(0.529633980090212009 -0.187501024538129307 -0.0751086934671006679)
(0.4894041943629589 -0.202167493044539709 -0.0635193705769560718)
(0.483080881687195429 -0.182613544981581832 -0.0638195392247199733)
(0.498893368667236603 -0.187563184896698792 -0.0647127038979675717)
(0.608692112931476292 -0.191449247210392942 -0.0996611870524418131)
(0.567025791538166346 -0.207773509075501767 -0.083475610740071815)
(0.557024379881941645 -0.18641560148190145 -0.0840009262696722464)
(0.579085823840574943 -0.193413443296543419 -0.0850708220736328957)
(0.690714109169077384 -0.190528201699097566 -0.133972123467102328)
(0.649131693460579529 -0.21179403675895242 -0.111304224482280611)
(0.633759819438381999 -0.188381145578301462 -0.111997462794328526)
(0.66435261640579768 -0.198008885131111645 -0.113486748726329842)
(0.770532724171763883 -0.180147544949998017 -0.183246212946397757)
(0.732982710883800181 -0.206743103190173749 -0.150385648263806682)
(0.70953296478550032 -0.18156125926586858 -0.150908465785302481)
(0.753558388685397484 -0.195040257884826401 -0.153510754087992446)
(0.842839025289973676 -0.160279220802971856 -0.253125672844044192)
(0.812696726559554272 -0.190521555910215606 -0.207449463850144789)
(0.777786688880298782 -0.16322898965110727 -0.206672124452981054)
(0.839886969402095729 -0.182166160528456994 -0.212810468851364426)
(0.897681025453741954 -0.129372712587242811 -0.361460061527705823)
(0.883585880570762816 -0.164568194486121255 -0.286708406045080744)
(0.829808433879762219 -0.136074880546053073 -0.283370773993143865)
(0.928223828250593685 -0.161236089214483014 -0.296141112566822851)
(0.89528402327256007 -0.0729289286126251074 -0.536059698877250357)
(0.923635633740834128 -0.120434817689853133 -0.419202226100979292)
(0.854082485778456246 -0.0927868607675504248 -0.403360494852659679)
(0.987211978597487438 -0.128743159729694606 -0.444244518548503942)
(0.746811001875886671 0.167963051294075572 -1.02665925679627401)
(0.920901026468014972 -0.0299608891117424739 -0.634555296028266991)
(0.816885590389775373 -0.00432442506978716109 -0.568279392710405951)
(1.10349021160663074 -0.0799647356684974331 -0.6808751191321879)
(0.558550599410797655 0.419264303636958657 -1.39849455470351614)
(0.548292358837680571 0.406614945938555739 -1.0615999746752347)
(0.934713005173995137 0.250090004910453023 -1.54167994331436953)
(0.060024803459344446 -0.178701986371535171 -0.018441576014880369)
(0.0298934755729593007 -0.184468285915933367 -0.0174685098564405783)
(0.029798170265004878 -0.170794647893725032 -0.0173930135812091873)
(0.0302829665871072115 -0.171567698882316572 -0.0178424420697123956)
(0.119884742442328052 -0.186538820608392997 -0.0202942331251038215)
(0.0892187045845188043 -0.199458900021092872 -0.0189243071679540478)
(0.0890336072035061016 -0.185701719682715288 -0.0188964179633224032)
(0.0905228345269249446 -0.18673300762877687 -0.0192945431570024604)
(0.18092956576347205 -0.187943580797559323 -0.0231828250422658269)
(0.14901696498418518 -0.200308960971723099 -0.0210481796890535193)
(0.14874185318473801 -0.186164394979092929 -0.0210912893339173478)
(0.15136862188515654 -0.187471022869939163 -0.0214247776643416848)
(0.243909592797083824 -0.191748641767803069 -0.0276454082681547759)
(0.21045231212508686 -0.202966456440933168 -0.0245470628623365855)
(0.209950280220936147 -0.188183480162696065 -0.0246097021473344925)
(0.213964202692520339 -0.189840840776742847 -0.0249958945325586442)
(0.30943359746915905 -0.198235913191741664 -0.0340621438998156834)
(0.274201400135904438 -0.20902358613673272 -0.0297710664459500396)
(0.273176609182066155 -0.193312251037893762 -0.0297830033224916746)
(0.27892110236830514 -0.195430696836727091 -0.0303506594789751671)
(0.378093013203456507 -0.206308991524872642 -0.0429535529386724652)
(0.341041639988000689 -0.217339149313621804 -0.0370733992307041571)
(0.339127779071161095 -0.200480964668845019 -0.0371069941941492842)
(0.347082012671420304 -0.203322158953489651 -0.037823256519438915)
(0.45049787560018778 -0.215009310882840504 -0.0551412578802850106)
(0.411131608601405296 -0.226812587756505979 -0.0470596244493098545)
(0.407801529375212024 -0.208497708851355573 -0.0472247420831196849)
(0.418721393851326174 -0.212452526911306006 -0.0480362608288936593)
(0.527075266020068156 -0.222647204848587077 -0.071886287849927219)
(0.485926064482552489 -0.236603475781967915 -0.0606905179110458146)
(0.480388837178594486 -0.216518014770572864 -0.0611730650518813243)
(0.495377478552096018 -0.222146611742376821 -0.0619762962453621752)
(0.60790817506744943 -0.228325696927160121 -0.0951186481699105579)
(0.564790090806400857 -0.244103688300459143 -0.0794666845663366123)
(0.55563635018662505 -0.221925822762817804 -0.0803217192219784215)
(0.576531551330902281 -0.229875347701009813 -0.0811307461766196392)
(0.693038096054825581 -0.228171635947659601 -0.127717749278985049)
(0.649405091102005949 -0.250101879138417083 -0.105716456031669209)
(0.635000230026098178 -0.225545734225820943 -0.106919474294860706)
(0.664039847930177118 -0.236522195230834648 -0.10786418668972772)
(0.77732417243242391 -0.217128605618452014 -0.174588899167553907)
(0.737028923817320658 -0.245185379758587341 -0.142821522614589053)
(0.71458667259829256 -0.218184641039623678 -0.143933293691866165)
(0.756577227546757936 -0.233650158708095412 -0.145896811908434398)
(0.857377907346037249 -0.19430785204696116 -0.241032197051181785)
(0.823414256312630988 -0.228734040324456933 -0.196715344788160079)
(0.788925822998021165 -0.198295502607808816 -0.196842576420326903)
(0.847999800819550398 -0.219931575476120134 -0.202108580630458001)
(0.920524243738615633 -0.154214119896275481 -0.344450570618354157)
(0.905492290430638724 -0.198262330479016091 -0.271110438790101493)
(0.849579483629401278 -0.165846224226567585 -0.269816342570960321)