/*--------------------------------*- C++ -*----------------------------------*\
| =========                 |                                                 |
| \\      /  F ield         | OpenFOAM: The Open Source CFD Toolbox           |
|  \\    /   O peration     | Version:  2206                                  |
|   \\  /    A nd           | Website:  www.openfoam.com                      |
|    \\/     M anipulation  |                                                 |
\*---------------------------------------------------------------------------*/
FoamFile
{
    version     2.0;
    format      ascii;
    arch        "LSB;label=32;scalar=64";
    class       surfaceScalarField;
    location    "0.0299999999999999989";
    object      alphaPhi0.water;
}
// * * * * * * * * * * * * * * * * * * * * * * * * * * * * * * * * * * * * * //

dimensions      [0 3 -1 0 0 0 0];

oriented        oriented;

internalField   nonuniform List<scalar> 
20536
(
-3.77571287876961714e-06
9.84984745954190374e-07
-1.41260518529809726e-06
3.2387802871845134e-07
2.21281101367860748e-07
-3.26543253240274845e-06
1.84196555278543733e-07
3.8281300400286574e-07
8.56885500525713249e-07
7.16126514096586374e-07
-6.23185861621812265e-07
-9.56858577266597777e-07
2.83360933889563491e-07
-8.48393012449062838e-07
6.84987084088455814e-07
3.44053340865817974e-07
2.35439509663478616e-05
-3.80797151590696992e-05
-2.36664496325785385e-05
2.81452351611952371e-05
6.11995099690259192e-06
-6.70295834767939138e-06
-1.09129890232493454e-05
2.95326683176276941e-05
2.68012939888725779e-06
-2.24935772210602742e-07
-7.7533808888626699e-07
4.13867319931883479e-06
9.59589210406444443e-07
-1.15701711643023485e-09
-1.14539899241399225e-07
2.28287221584927874e-06
4.33812103093785867e-07
-2.98931285942740967e-08
3.41171713006191437e-07
2.08842541212008788e-07
-7.1234354881281419e-09
-1.92848581638670828e-05
-5.6103926162956865e-06
4.38909260127045909e-06
-1.09224699188605215e-06
-1.28919306212500265e-05
-9.3375345740722803e-07
5.24225878983219048e-06
-2.30257760945382868e-07
-1.08563436010139869e-06
-5.61214371809665726e-07
4.25621323600603856e-07
-4.13921076850467642e-07
-1.21430288238406167e-07
8.05895950341272707e-08
6.28971865529915315e-08
4.9710888642050476e-08
-9.53315941848614294e-09
2.34948466109775374e-08
-1.80852047206965985e-07
1.65962171626625083e-05
-2.99264766740908426e-07
-2.10352986836017597e-06
1.80192207109607532e-06
-1.55929445868553114e-06
-1.61752107541614508e-08
4.05811091031089003e-06
1.36486890438578212e-06
-4.34686345190709004e-07
-1.91510225635962853e-08
-3.32084005269024763e-06
1.17045895294391766e-06
-1.66798463014698584e-07
-3.97488416556867103e-09
-7.69690052330408212e-07
3.79149649202792235e-07
3.62940750799418327e-08
-1.8464044077207368e-07
3.78648120317920266e-08
-2.96492785702540251e-08
-2.25985550135036472e-08
1.65826289842111151e-08
-3.90046905332675331e-09
-4.32626726630655799e-07
-1.42746862415860368e-08
-3.21918383113808218e-08
-1.36119771877041992e-08
8.15867168805735997e-11
-1.56974902054759876e-08
-1.4339551796211593e-08
-3.20802281141065876e-08
1.43206728930968581e-08
-2.34299419009495686e-08
-2.1398889704259578e-09
-8.00267221811720954e-09
1.80809127141525162e-09
-2.99706281405997853e-09
1.50833895190432199e-08
-2.20233563209975729e-09
-8.84094684764031509e-09
7.65240008952247851e-09
6.41474383620673692e-09
5.09977244972770829e-10
1.71006021020041752e-08
2.34858078228775105e-08
2.88614568965544631e-08
-1.27145297210207594e-08
-7.42185556397285534e-08
-1.36658968993972434e-08
-9.88803207376630387e-11
7.85517153248905374e-09
1.23988317542692438e-08
-1.06066819423405464e-08
-9.22181952998575128e-11
-1.42929218176258284e-08
6.59543056686513034e-09
-1.47761889884904055e-10
-2.06139669357024945e-08
-1.00090697511617987e-09
-4.07208632828245679e-09
-1.10085616501825075e-09
1.44354308586242338e-08
2.03725593065501736e-09
-3.22979316721332501e-09
-2.22576902312664323e-10
2.0791372006125515e-09
1.18780580475004802e-09
2.45882838512307821e-08
-2.29312940595982958e-10
1.16277303135207336e-11
-1.60976060343537902e-10
5.1102878547372796e-11
-1.34427600258431805e-10
-4.93373602867541152e-12
-1.85239173974259664e-10
-1.5941781059969315e-12
-7.87524883733693609e-12
-3.94592427670805778e-11
-8.08692672056852297e-11
-1.63030994876268945e-10
-2.20931680130277947e-09
1.52330839343590545e-09
2.09890752166492169e-09
-1.4936521443306627e-08
-1.4378695552021511e-11
-1.2348115560263474e-14
8.01328202276840726e-11
-1.95376607915501337e-10
-4.17362520104533487e-12
2.83471414765595858e-14
3.35082364946029286e-13
6.14647142767827004e-13
-3.21772136085429966e-12
-1.00154465011685421e-13
-5.83898288201611472e-12
-5.09482667770824607e-15
-3.72821191922956722e-16
-6.57750327565519214e-12
5.37419048260897901e-13
-4.91455116351205281e-12
-1.46944859923493024e-13
1.34446775173313756e-11
2.02413322472518802e-10
-3.42169839645285958e-10
-1.62146036921003137e-13
-1.07743258417162235e-18
2.5932159510493624e-15
2.71290934665553343e-16
-2.19239745538920617e-14
-2.95710353401906984e-22
-1.21085495530404452e-13
9.3093718246625053e-15
-5.68076140447884612e-17
-1.27124719136530035e-20
-1.31414306538914593e-13
1.0600834711373271e-14
-1.37032847220994697e-19
-3.59319650378755444e-16
5.80974690771654883e-17
-1.14660183366424609e-16
-1.89541333328884097e-17
-7.6081288890874337e-19
5.26700336738578752e-12
-3.6425908507009068e-16
-5.32216509722482961e-23
-7.36645142700711126e-21
5.84838006090791867e-19
-2.05783841866864661e-17
-6.10614405429922171e-22
-1.92355839175353121e-23
8.86200814045534346e-25
2.78783894649470503e-24
-1.246463828044584e-20
-2.56085497192093817e-24
-5.26161242364533606e-22
3.18609300810134346e-22
-2.76169857246402995e-23
-4.79864823672144133e-21
4.58945462125348272e-21
-1.34985320334924429e-19
-9.96636660891044704e-21
-1.06122688391035548e-24
2.20862872828377035e-20
-8.16288721880561579e-19
-4.01454807059014298e-23
-1.66446247610600219e-25
7.37213067863022729e-22
-1.79433551427804285e-20
-9.39256625877304523e-25
-4.28701024369156604e-27
3.16576571168089552e-24
-5.61846762175278005e-23
-2.67935906849649293e-24
-1.80304952178332369e-27
6.00365969352237016e-26
-3.50675713251011599e-25
-3.08774156926109852e-26
6.95247907333164207e-25
-7.1239200499168682e-24
-5.04804102437352765e-23
-1.95910419053308493e-26
-1.6616856552317999e-36
-1.7886303827102482e-26
-4.68072132041357425e-26
-3.47545044992602649e-35
-2.36980541271234389e-25
-1.03310829518175927e-25
-3.99670738750545297e-34
1.06726771976359725e-26
-1.0100379325217174e-24
-3.96630727515129244e-27
-2.53004576804949516e-33
2.68185792520376314e-27
-2.36598259334387286e-25
-1.19598430306112818e-27
-6.75006696752540739e-32
3.64454644091414206e-29
-7.0192391441256205e-27
-2.08593864685985892e-27
-1.4650936087947287e-30
4.26955699620110568e-29
-5.59043532550781291e-28
-3.79983194045066138e-29
1.17626503296882799e-27
-1.58451256139127805e-26
-7.69532411999736317e-26
-1.70172125088390417e-36
-5.81528537951484213e-42
6.97793950273921445e-39
-3.5818357661384408e-35
-2.02129284122658649e-40
-6.11680263285556594e-37
-3.55489209612164479e-34
-9.14352661618669388e-39
2.91446421028275833e-37
-2.54797019916642581e-35
-2.40104922037465074e-33
-4.50445126650713625e-37
3.04693292318417196e-35
-4.92643266932049222e-34
-4.98387141105694978e-32
-1.74501989143877897e-35
1.01875149892399909e-33
-1.3464703598039877e-32
-1.71170224793404177e-30
-7.80316019068593525e-34
2.80876125069795615e-32
-4.73450885803045439e-31
-3.33013465326408959e-32
1.20183672359302175e-30
-1.72453991933455654e-29
-1.06600463143413129e-28
-6.27960371578282824e-42
-1.09168612121223653e-48
4.90591263307608602e-43
-1.80793307183489296e-40
-1.0850498543628513e-46
7.61610479224180214e-42
-9.16954890981565778e-39
-1.89677845897060013e-44
-2.31343086751765536e-41
-4.80433781344883488e-41
-3.44174019207359917e-37
-2.43899053093858153e-42
1.13462000942906161e-40
-2.57937650237869784e-38
-1.56059435677587634e-35
-3.68844046599158977e-40
8.45426745613427156e-38
-2.16860075549997002e-36
-7.11774766827527527e-34
-5.12003909327309468e-38
8.0863157894971946e-36
-1.4001935872389402e-34
-6.63728286225130433e-36
6.30663013938585837e-34
-9.16717284182234943e-33
-8.98503223244445166e-32
-8.31584168311901333e-49
1.96293931949907073e-50
-1.10253878631528994e-46
1.61272710381911377e-48
-1.61508394083979243e-44
-1.19650052631217186e-47
8.18163058437970186e-47
-2.41023311429233435e-42
-6.79821684310447142e-46
-2.3880660757564334e-44
-3.57464878099817069e-40
2.52657587650894935e-43
-1.01765551261056122e-41
-7.21394805623357961e-38
1.12763779657742434e-40
-2.33858246445092949e-39
2.476584805517573e-38
-3.83955501461466623e-37
-1.02906792904559465e-35
3.85240251169548018e-06
2.15726358984206979e-06
-8.94709198671611046e-07
1.17727327091680936e-06
-1.40093148528942478e-06
5.30746700139571987e-06
7.58901063289850113e-07
1.64366087695505664e-07
-5.39321758743854288e-07
3.23609349852180464e-07
-1.00696781209389019e-06
1.27678397319153616e-06
-4.69432513897920441e-06
-2.09251731909977916e-05
-2.66366808190585701e-06
-2.63829454605779657e-06
-2.13678551116024771e-06
-1.14608247349969253e-05
-1.72853839958002991e-07
-9.29931608528912941e-08
-3.31471713107302376e-06
2.69162347019292287e-07
-3.49100397272558467e-08
-7.31365977851709451e-07
1.77264381548852307e-07
-7.35487894332586177e-08
2.56504620697358656e-07
-1.54301928238859791e-06
-4.38977925223586014e-05
1.7563474668419851e-06
5.0471425117932459e-08
-3.75780916322313996e-06
-1.95207305688117643e-06
4.2525536599690106e-08
-7.88850348293927068e-07
-2.88623142171536363e-07
1.48306261960987756e-07
-1.57117968538676116e-07
-1.07994798509700743e-07
6.51078701177769085e-08
7.6131409155918579e-08
4.86896137765815182e-08
-2.95938756298291098e-06
-9.76197916078082704e-08
-1.37258991714673384e-05
2.0765041275334823e-06
-1.55823916221790739e-08
-4.5855737024744099e-06
2.05138530943831322e-06
-9.18736361671042703e-08
-4.05419628322166624e-06
1.07086845224994852e-06
-7.9063693773947858e-08
-1.1603963205627016e-07
3.80469661452865377e-07
-3.1667208752924571e-07
6.69911302452333229e-07
1.85857329153807255e-09
1.78003760715756452e-09
-1.28696868815820923e-07
-1.53961304989178406e-08
-1.49692094925068741e-08
-9.48140546788218739e-09
-8.6516875154417762e-08
-4.45931482567453232e-08
-1.82055996409896407e-08
-2.68199500318884048e-07
-6.12032716214441704e-08
2.23063613989575414e-08
6.09686679368143001e-09
9.21589821082745797e-08
-1.16013140651495126e-07
-6.17182342710901459e-09
8.45555672183330063e-09
-5.61865713956725694e-09
-1.8338067525036337e-08
-6.20018293126900736e-10
-1.64999908245731132e-08
-4.82939711851781605e-08
-2.1662439766536976e-09
-6.96404865893102124e-09
-1.00153755607902334e-07
-3.17290589442927182e-09
-5.72411481089229879e-08
-6.25630162517995117e-09
-1.42743277654825762e-07
-5.36263853738815078e-08
-5.87522003215552001e-10
1.03113901912659508e-09
5.46300717075018762e-09
-8.59014317933182146e-10
1.78584637508021782e-11
6.71187666731224994e-10
-1.25231766351078405e-09
1.29234097887822318e-10
-2.19475879148164691e-09
-2.43471327531564837e-09
1.7047093881727676e-12
-2.21180932274008076e-09
-1.56832494407355246e-10
-5.06077742262957786e-09
-3.56348623628160918e-09
-1.66056525875192214e-10
8.58529116878735097e-11
5.81826596899752291e-10
-9.89572090479585599e-11
-7.70458471132367108e-14
3.63538521754921925e-11
-1.94899630821150143e-11
4.53322297579852701e-12
4.10645465431594885e-11
-1.86816672834768249e-11
3.48526932918879473e-13
-5.84859069311848842e-12
-4.61599881385743071e-15
-6.10273484765278575e-11
-1.1757632409706571e-10
-4.21221937183919671e-12
-3.61815266216450012e-12
4.00011128093429664e-11
-4.40064760508263355e-12
-3.62157521791879826e-19
1.41057220435933071e-13
-2.57049032720502458e-13
-1.54849326202498922e-21
3.11243119537107314e-13
-5.67608164035382564e-16
-2.52918578327785184e-20
-3.10577782860445977e-14
-2.93268511060932756e-19
-2.24346917041325257e-16
-5.05023637006766027e-15
-2.19377325069628067e-19
-2.07466987424641225e-20
1.4712718786351356e-13
-1.54237326055515183e-22
-5.40054222176028288e-22
5.96165043006994218e-21
-1.69844097470518797e-21
-3.35393851902902754e-24
6.92243740660099951e-24
-2.17469627867069168e-20
-5.69346541361309613e-24
-3.2543965815215075e-21
-1.24430245324106219e-23
-5.13855340108793531e-20
-2.51005894311263706e-19
-1.90538344600916045e-22
-1.11534611838235833e-26
1.21709986187928552e-22
-3.32109029485483991e-25
-1.69072086743318417e-27
6.54349999829920709e-24
-4.42794750494488878e-25
-5.57673644567224271e-29
1.72109689651074422e-26
-4.55037378654325055e-24
-2.97697900005665927e-28
1.41433611673519965e-26
-5.90118861569620077e-27
3.81714406981827167e-25
-2.24729541761962508e-23
-1.024118027785479e-27
-1.87916198690648375e-35
7.41062309761142245e-30
-4.26893997680994452e-29
-5.14303098907098319e-34
1.86731353798405341e-30
-4.9694518380955986e-29
-1.13562652998319814e-32
1.50082888142777814e-30
-3.79750031817340611e-28
-2.27246107853512377e-31
1.4281295610432871e-29
-6.33099321895857077e-30
5.36707326315084633e-28
-1.58476152730210708e-26
-1.33401806204708107e-35
-1.74793599765602234e-39
-5.6153923977192492e-36
-4.68883447313411288e-34
-8.81840936271163829e-38
-2.45982610477735826e-35
-1.0775399362486803e-32
-3.4015851861506123e-36
1.32544380429707541e-34
-2.55268653921292877e-31
-1.13740691148273495e-34
9.10754908540186153e-33
-5.28256447939497381e-33
5.33713888643177103e-31
-1.76880124709459813e-29
-1.0975067329018195e-39
-2.91425008604694505e-45
-6.29399551410589059e-40
-6.87469430161532764e-38
-5.18792095243481198e-43
-2.03998269686369835e-38
-2.19160557970310584e-36
-4.37230751124743056e-41
-7.08249553197990699e-38
-1.1817979579957083e-34
-6.61661132173105703e-39
2.23535816873336338e-36
-9.22621329643117076e-37
2.80831574281915738e-34
-1.37098656067078257e-32
-2.68302388844699286e-45
-2.48102056567642617e-46
-2.50629959325284413e-43
-1.65282242752012626e-44
-4.26629312587200056e-41
-9.86447143980156292e-43
-9.08947179869519205e-39
2.40787837594066277e-41
1.112537219657658e-38
-1.37057724407977944e-36
7.21525399393334058e-08
1.9053309473831288e-07
-1.81380940306393724e-06
1.18346363936417388e-06
-5.27537193315360378e-07
1.50923405855276605e-06
1.10497502897768945e-07
2.88880057218301803e-08
-9.09720369579215037e-07
2.36503951880409691e-07
-7.04077931646658887e-07
4.72627500327259492e-07
7.9157516899178077e-06
-3.87471574869236894e-05
-1.03220475668640799e-05
1.83952816742787248e-06
-1.76683808769901008e-06
-7.52172343670620717e-06
5.56735224391188595e-07
-3.37032900744820243e-07
-2.04944846431691427e-06
3.40262473292391672e-07
-2.75589459736696786e-07
-5.38329667848914777e-07
1.80542283129432005e-07
-3.2088881662591095e-08
1.83784030380104794e-07
-6.129278204989941e-06
-3.52220190525733847e-05
-4.38052591042900694e-07
1.0052140574647964e-06
-1.06891758624487428e-05
-1.39484989766722799e-05
1.12024040265063009e-05
-2.67303887644093196e-06
-9.26449984571015767e-06
5.43133665529331615e-06
1.05003011577240954e-06
4.20577719622245997e-06
1.17080058567739298e-06
2.25293254614517908e-06
2.13765947306686831e-06
1.01620735304789556e-05
-8.49819029914601262e-08
-3.23089749168398944e-05
6.29223149359310271e-08
-1.71537154885729924e-08
-5.44561182073503328e-06
7.35137829079394627e-06
-6.16322871902823713e-07
-1.85453972644684149e-05
1.53531961330529549e-05
-6.38924481114417113e-07
-6.6785932717261111e-06
1.88407527761897408e-06
7.12318949246983419e-06
6.31457023905296307e-06
9.78012477462937168e-08
-6.1278066033527287e-08
-1.50645940907009291e-07
1.48464433412111143e-08
2.8139433560453776e-08
6.47148738483022261e-09
-6.01542277867915406e-07
-1.12621554715628111e-08
-3.81951875143724128e-08
-1.22602056906935544e-06
-1.52739419479768077e-07
5.71174144216496866e-08
2.88629923568550216e-07
5.85135309529368369e-07
-1.64753394614896981e-06
-1.9138823638369385e-08
-2.55817611157250164e-08
-4.0094869176603786e-08
-3.40012503980771111e-08
3.55191613118142456e-08
-2.04767969378939265e-08
-3.43078022961760434e-08
1.0940695922995377e-08
-4.57166263381954056e-08
-1.87068667463614354e-07
-2.31861405084955065e-09
-5.84347363887068692e-08
-2.37604088682290683e-09
-9.31507859283668234e-08
-1.74602020349999503e-07
-2.23086780567885676e-08
-4.42751430741236399e-10
1.22203830152652969e-09
-6.77413773740888093e-09
5.94510534966354896e-10
1.60000334504269436e-08
-8.72571829705445431e-10
8.61177800615817912e-10
-7.75824134448902425e-10
-5.00773618550462544e-09
-2.26326468709155218e-12
-2.14740326983530228e-09
-1.27106546746846096e-10
-8.56234708345739589e-09
-1.38091172029934201e-08
-1.0295085866115659e-09
-2.83817223416535543e-11
7.72495218880268328e-10
-8.15133200872252488e-10
-9.61719508543599035e-12
4.5925503659927558e-10
-4.34524606400460118e-11
1.09268691693257359e-11
2.69153669232088902e-10
-5.59297359537341054e-11
7.67954012970229679e-14
-2.00304004643863068e-11
-5.68809018488850049e-15
-3.3539293070460757e-11
-4.38754405375832445e-10
-2.22487295116449913e-12
-1.41527371455030877e-13
6.33308907659300557e-12
-1.02652128782558286e-11
-6.30172619289606452e-21
7.19246074148873201e-13
-1.77887644551711048e-13
-1.74560181573681333e-20
1.57967037909516026e-12
-3.73677785287973618e-16
-2.76854771370838851e-19
-1.25215455845780349e-13
-6.06412919936189522e-18
-1.21604724577476174e-17
-6.24728130273888304e-15
-7.21727576188174226e-22
-1.14557329688479164e-22
2.89820374185335509e-15
-1.50372566570697554e-21
-6.08204562512008482e-24
1.21936492017620714e-22
-1.85072933964454846e-20
-1.83348160913698585e-24
7.44740842563667824e-23
-2.86720352726657223e-19
-2.47828067878771273e-23
-2.95266673567196495e-23
-7.26823470600733245e-23
-1.5515397999240623e-25
-6.36512811960946429e-18
-5.49535527317664019e-25
-1.0620982740671089e-29
-3.36806563330546634e-31
-8.78422132531770084e-26
-7.77549378233692974e-30
-3.83094846717164218e-30
-1.89189357141737383e-24
-1.48037971416523586e-28
-5.4030605917358933e-29
-2.43875728575492158e-23
-3.12157363694760407e-27
2.58596438751413861e-26
-7.74024982155478779e-26
1.66500474129801099e-24
-1.37630969185598136e-22
-4.253839427428034e-30
-9.35866047693244352e-35
-3.35784313604330017e-33
-1.01490665705150401e-29
-2.88945241046539195e-33
-4.27432361778957039e-32
-1.51423377724979792e-28
-9.69240976974984184e-32
-4.67050824879251744e-31
-4.05592600797335023e-27
-2.80767702765811245e-30
2.84869367392327397e-29
-8.86332149414586085e-29
3.58991256414423848e-27
-1.93578260869074091e-25
-1.01355475723465583e-34
-7.65773986885521661e-39
-1.04573252008747371e-36
-2.99863386510744312e-33
-4.50825811986566763e-37
-2.16923471521260121e-35
-9.68703093384282675e-32
-2.68507285904282793e-35
-3.48710665138856725e-34
-3.18584523104670053e-30
-1.37895349940638932e-33
1.4023211068274953e-32
-6.928484488221861e-32
3.80167904964648849e-30
-2.3957007356441944e-28
-8.35736637929541744e-39
-1.15987944479203786e-44
-5.44820394002652263e-41
-4.64506752173436523e-37
-2.21158526698034225e-42
-2.44725603494490383e-39
-2.63277596156756266e-35
-4.12385514667753439e-40
-8.71740277417376605e-38
-1.52454186580576724e-33
-6.82034529057997193e-38
-5.97560414459008667e-37
-1.02295789070854013e-35
1.74451717019453511e-33
-1.75561567358824407e-31
-1.10927463412109687e-44
-1.29629328597608932e-47
-2.23674509057142049e-42
-2.30947121202637039e-45
-4.15312860846180731e-40
-2.93739056518527974e-43
-9.21889057469987793e-38
-1.05338153398084366e-41
5.74557088788777642e-38
-1.48305130903360776e-35
-2.09648342425332529e-06
-7.73281330224110843e-08
-1.22978235476847382e-06
5.13685000578797581e-07
-4.0281045469624451e-07
-7.02475694608769724e-08
-4.13266852979872234e-07
-3.98100942523173368e-07
-1.07459838690924722e-06
1.03365296097600223e-08
-8.03412139701421521e-07
6.84336080233532244e-08
-1.84275626032689596e-06
-3.61638343170441482e-05
-8.30991682707021056e-06
-1.45946661856701867e-06
-4.49865666407274249e-06
-6.56829620799677543e-06
1.13596852929963588e-07
-3.59486409866517379e-06
-7.94789542064455043e-07
5.19046405465640482e-08
-6.08496399779208944e-07
-4.51390611878044372e-07
-1.98307023983393507e-08
-7.73643963321500316e-08
5.52810420506263824e-08
-3.37045454626825812e-07
-4.69594756446710382e-05
-1.39590029116744006e-05
1.32588352930942468e-06
-1.06798304149427496e-05
-1.23671524688861751e-05
-2.59537047251094615e-06
-7.63046346645991715e-06
-2.32947308131193256e-06
-1.72862022089912736e-07
-2.54640525722038336e-06
9.25771612937482231e-07
-7.30924621746180563e-07
7.83012069141628789e-07
2.07195946206136334e-07
-1.43067164912259041e-05
-3.44470173504644713e-07
-9.63643613006294573e-06
1.89158754903175622e-05
-1.55048319476361872e-07
-4.85737552020373167e-05
9.41279435231337906e-06
-4.14114096912527946e-07
-1.58978576944892436e-05
8.61477243168639456e-07
8.07681162773085826e-10
-6.79831161228079605e-07
6.30386952767100595e-07
1.70913943709023705e-06
6.9740991780474754e-07
3.97188228119506055e-08
-2.00683746175190849e-07
-4.91136071438952727e-07
-1.13701584692478797e-07
9.23719805695354066e-08
-1.05765258278515793e-07
-3.74528136299920941e-07
7.7914524004143037e-09
-2.83295114346547397e-07
-7.45091492506501267e-07
-1.79297137057321652e-08
-1.8008422432968015e-08
1.17801215883329788e-07
-8.23417704877148708e-08
-9.59514301890535479e-07
-8.92469655116085987e-08
-7.64143472998868798e-08
-8.9817763082879902e-08
-5.44634607408799365e-08
2.26881652562864684e-08
-1.70751988365678346e-08
-1.4363454230524821e-08
1.14186287216271767e-08
-1.25367278660649504e-07
-8.3815350574592091e-08
-5.77988015613906417e-09
-7.218247785542606e-09
1.25482492928155933e-08
-1.56295506115668047e-08
-7.58181234106104118e-08
-5.9525545568412792e-08
-3.54913672113034673e-09
-1.44954234677842726e-08
-1.87704910322079213e-08
5.15453063078088569e-10
-2.3096607901509334e-08
9.28152477941042434e-10
1.28354556799186551e-09
-2.03329867681981248e-08
-9.20552419601551107e-09
7.76077103736621304e-11
-2.0146658505430706e-10
1.42933318662953731e-11
-5.64331307886214596e-10
-4.95919491082305864e-09
-2.17020715059287138e-09
-7.22581663026468963e-12
-6.83670332620970884e-10
-1.62068382410817916e-09
-5.68446567048920584e-12
-3.42308066192867332e-10
-9.89232804042095605e-11
1.0841467967976215e-12
9.41380665713780897e-11
-3.8861638115089449e-11
1.75371991388499809e-12
-8.9876807537824168e-13
-3.23251655186484721e-16
-9.80124694106422908e-13
-5.71201727898773015e-11
-9.7948942746378489e-13
-3.28052917440930631e-15
-6.4215520407959058e-13
-4.39712009170101789e-12
-7.7042532786620859e-16
-1.4701537842778693e-12
-1.5315962362296175e-12
-1.27461171998313963e-16
-1.76473914060911895e-13
-7.7497699817185328e-17
-1.66312220265600785e-20
1.02287649608525257e-13
-1.74553428216307409e-19
3.73172274701610514e-18
-4.15403059215539752e-16
-5.92649869073874881e-17
-1.09923242408986201e-27
-2.95119291492265476e-16
-1.02476133331668344e-17
-2.38657181822579019e-26
-7.98195324315279075e-16
-1.23398434431215719e-21
-4.74668573453312089e-25
-1.37662056519700797e-16
-1.78130258895053811e-20
-7.58334356737861117e-24
2.13085686678325891e-23
-7.00498113947492046e-24
1.4295641185474315e-21
-1.93594524162095139e-19
-8.36446157960515088e-28
-3.87565377291725692e-32
-3.71726041224606612e-31
-2.46396497565415959e-26
-1.33401182730880774e-30
-8.29267384600650169e-30
-4.99345870246748788e-25
-3.11738869916588455e-29
-1.09038036462610069e-28
-8.03998854648783593e-24
-6.72647519543916887e-28
-8.73370844384272455e-28
-8.9639854251349305e-27
7.37100121352137521e-26
-1.8467979292252122e-23
-4.31241659080416779e-32
-8.740490115755969e-36
-2.02325463218948255e-34
-1.41438364713919144e-30
-4.90481018475999507e-34
-6.24226445384877559e-33
-3.35700526686213969e-29
-1.7760811799531306e-32
-1.13448648657281464e-31
-5.35607437683067074e-28
-3.08719320428619789e-31
-5.61357870032109318e-31
-1.00159227162193221e-29
5.25225752064663721e-29
-2.65546666589284536e-26
-9.89590917974499767e-36
-4.57643505174584122e-40
-3.53559514727429455e-38
-5.17091379159999927e-34
-5.108744767729403e-38
-1.6169880782769773e-36
-1.02086947680012493e-32
-2.00263420571615695e-36
-2.41153448917563478e-35
-3.34140482096397725e-31
-1.14352657134780824e-34
-3.66067330378534672e-34
-6.17683759304240753e-33
2.50726666442285794e-32
-2.79217619303078083e-29
-4.93672918295371186e-40
-4.60903856622578977e-46
-1.12219145933965178e-42
-3.39342752879632035e-38
-1.12929025401767069e-43
-7.15645970757148461e-41
-2.09356331865254661e-36
-2.36634891006730424e-41
-3.51936930086570388e-39
-1.22039027044332729e-34
-4.29305441761845781e-39
-1.08064845450945632e-37
-6.91348161991208114e-37
4.43157988336873611e-36
-1.53983825002595452e-32
-4.73900171528917368e-46
-1.86471050750640216e-49
-1.13889957206043705e-43
-4.36966565430797977e-47
-2.39984215861595558e-41
-7.54474129828457741e-45
-6.03503691924677104e-39
-7.53787425816130556e-43
7.82496477848132322e-41
-9.83573236956061905e-37
-1.56018546815472806e-06
-1.73679525257340575e-07
-4.38260594743409893e-07
4.14808325391766878e-07
-2.63732541286169075e-07
3.26558298939685912e-08
-4.7867871984260906e-07
-3.04066736916582625e-07
-1.83234733607850787e-06
-6.31040211770537523e-08
-9.88842417719546639e-07
3.50657229553763047e-08
4.14667825173246541e-06
-3.23920085952582646e-05
-5.2779612186592659e-06
4.45180045156218522e-07
-2.34399596842307867e-06
-4.10725392159186138e-06
1.54383606166339577e-07
-4.50487103176130104e-07
-1.07639501192403077e-06
6.64915426226515409e-08
-6.57121019211600094e-07
-1.726739265211556e-07
-5.72342071313827345e-07
3.17657418529142956e-08
5.03338387374558887e-08
5.64938162822099801e-06
-2.45960861304098819e-05
-9.3714568159379303e-06
1.0502646183225348e-06
-3.70663077834527758e-06
-7.61129616259575779e-06
-1.08740896040469207e-06
7.66312248226720372e-07
-2.07536878680458106e-06
8.18565004623927843e-07
-1.95993316588334863e-06
-8.57157254475763317e-08
-1.30943788390262965e-06
7.25325941119759914e-07
4.09831935399439975e-07
6.67402229260386735e-05
-6.25673893491761551e-07
-3.51649757402438567e-06
2.25860857696095105e-05
5.12977866645825214e-07
-7.29931425957661417e-06
4.4058511995042558e-06
1.75162194948174151e-06
-1.18980567623121911e-06
1.00311894819079745e-06
-4.7290837304602313e-08
-1.14883782691395131e-07
-1.42281849332308242e-07
4.61120679140620986e-07
5.84762500048920407e-07
3.85791447884775012e-07
-7.83829802053279558e-07
-8.73487072277865864e-07
-1.47312986790265215e-07
5.16963488425407361e-07
5.4382341776408521e-09
-1.09279573120240135e-07
6.53100700920223519e-07
2.91141777608560786e-08
-1.62210602451869268e-07
-1.66208947255415952e-08
-8.37897373765597961e-09
1.08074641427888598e-08
-9.89329267687611665e-09
-4.47948434160417791e-07
-4.71890039991336718e-07
-1.04903487515537395e-07
-1.5873789450511268e-07
-1.63122427783380258e-07
4.3595216789676234e-08
-7.28777833335299857e-09
-2.01873067142681021e-08
9.37244891654024527e-08
-6.58861565352544067e-09
-3.47622687348228498e-08
-1.26855074732460421e-10
-9.75027834706228114e-09
7.47127452412252327e-10
-5.50958238047335469e-09
-3.62328808188394878e-08
-9.28240603906112591e-08
-3.84532124793957716e-09
-2.27635251976589287e-08
-7.4633704246167114e-08
-5.19517663434514804e-10
-2.51994052094395548e-09
-1.25970719049317881e-09
3.8020533230851554e-09
-1.13824278350566957e-09
-7.58628751721447754e-10
2.57472029321430003e-11
-7.35503648748259342e-10
1.9759475592243273e-12
-5.53178126682368106e-11
-5.29223647185298436e-10
-3.77312779339693512e-09
-1.71612620868870033e-11
-1.28633129895230673e-09
-4.56039049650889039e-09
-3.92816525838441705e-11
-8.20971688781079254e-10
-2.79702351027053505e-11
2.4966436026715481e-11
-2.56940881586321501e-11
-2.60361723270705117e-12
-9.00094684586036822e-15
1.8738531809247648e-13
-2.17121627547223248e-17
4.71962466154847603e-13
-1.79909443973050009e-12
-9.37972489708993372e-12
-1.49408885566811754e-14
-9.17574089754176255e-12
-3.04468318430272298e-11
-3.41637910815429065e-14
-1.44633704696672287e-11
-9.73598160373791291e-14
-1.09114293339218449e-14
-4.46227318179722617e-12
-2.33231872425583289e-18
-4.52098796204724723e-22
4.78141218764767686e-15
-7.72617264482838586e-21
1.02237681098694524e-18
-2.10050517559543184e-17
-3.33495510452003588e-15
-3.12411860627327636e-29
-1.01239364506214599e-14
-8.68482569673096232e-16
-5.65939335820049375e-28
-3.60147577230023205e-14
-2.75038793492380079e-23
-1.0194611063681201e-26
-1.09257600643018655e-14
-4.68775387882312663e-22
-3.28890911048352808e-26
1.06424934922107362e-23
-3.15919478580578626e-25
1.79712516840295694e-22
-6.65603776582035673e-21
-3.09056984609248503e-29
-1.23725309945906536e-33
-9.68485064803897764e-33
-5.44307803013925799e-28
-3.14882917621117002e-32
-2.44965707918688502e-31
-1.08415204469948525e-26
-5.65936615240600757e-31
-1.82354690954216133e-30
-4.44481753894429602e-26
-1.30104509346350904e-29
-5.8966962131463878e-30
-3.39552331649273287e-28
1.98546898511636939e-27
-8.88595313658794318e-25
-1.34269510066601384e-33
-1.91938533293733208e-37
-2.62699215803330958e-36
-3.87411802313906587e-32
-7.97551360704273158e-36
-5.36736047442299436e-35
-6.54589380422630092e-31
-2.60198551528759323e-34
-1.02334298531084048e-33
-1.82960994884915405e-29
-9.24161912509840949e-33
-1.65528968140094407e-32
-3.22517222309049961e-31
3.0185564729575406e-31
-9.78744791990974766e-28
-2.26204468617533281e-37
-8.13099350545687551e-42
-4.2392222843337351e-40
-8.25367421195662616e-36
-6.63470182820310972e-40
-1.45278106314166726e-38
-2.92100523049354458e-34
-4.81046788786417783e-38
-4.28090514427232879e-37
-1.06043180283055189e-32
-3.06923434845559066e-36
-9.3365593728626554e-36
-1.77385392824026413e-34
-5.90709733072603109e-36
-8.85941331966295947e-31
-9.04234808963541547e-42
-5.87962776849971254e-48
-1.1256217906019663e-44
-7.3843713106776563e-40
-1.74645487787062976e-45
-9.00981786498889471e-43
-5.21542357172802241e-38
-4.23523077807783814e-43
-5.48474130221961375e-41
-3.42612332909114644e-36
-8.5379329601066942e-41
-2.30912470985569664e-39
-1.47863560528502935e-38
-2.79254618816719177e-38
-4.37412856878428908e-34
-6.05110960610243575e-48
-1.66242704849846876e-51
-1.77718150482410122e-45
-4.983510581148579e-49
-4.32707154405320144e-43
-1.0648261133875427e-46
-1.15360790588319103e-40
-1.4452096820973329e-44
-5.31316396458069541e-43