/*--------------------------------*- C++ -*----------------------------------*\
| =========                 |                                                 |
| \\      /  F ield         | OpenFOAM: The Open Source CFD Toolbox           |
|  \\    /   O peration     | Version:  2206                                  |
|   \\  /    A nd           | Website:  www.openfoam.com                      |
|    \\/     M anipulation  |                                                 |
\*---------------------------------------------------------------------------*/
FoamFile
{
    version     2.0;
    format      ascii;
    arch        "LSB;label=32;scalar=64";
    class       volScalarField;
    location    "0.0299999999999999989";
    object      alpha.water;
}
// * * * * * * * * * * * * * * * * * * * * * * * * * * * * * * * * * * * * * //

dimensions      [0 0 0 0 0 0 0];

internalField   nonuniform List<scalar> 
7248
(
0.00266391436172873537
0.00514907030153581059
0.000668855555174745903
0.000698685318847744102
0.0812137064166795486
0.00279376650147289754
0.000583868906254709163
0.000306570785339863657
0.000328801442592169387
0.0200987351741229239
0.00337418296524901688
0.000152806292092231709
0.000182556223078334022
0.000155954699000329167
0.028683284474134766
-0.00016295780300408741
-4.63193330190733921e-05
5.91316409317618758e-06
2.62150596211665164e-05
1.93216784031735457e-05
2.41472275980804285e-05
1.63508774883726141e-05
1.37580514952906513e-05
1.3448589723143215e-05
1.14262065028164119e-05
1.1430550663917765e-05
3.02278104972868536e-06
2.94753339002641805e-06
1.39161342550306447e-05
3.64562204809648296e-05
1.45205347912567936e-07
6.94177453886589781e-09
5.30608636759978613e-09
1.02914998534097913e-08
7.46744393167304399e-06
-6.206647759108314e-10
5.04688915541430829e-10
6.21139112835534637e-11
-1.56970081954659734e-10
5.02135102994375906e-07
-1.17964980725901572e-14
-1.17769196626902693e-13
-1.37460327710657526e-12
-1.54844825059663395e-14
-4.43537684010021921e-11
-3.48160721196049447e-17
3.1544199988652053e-19
-7.3766143102380141e-19
-1.62421811943235393e-17
-1.44512611537171815e-18
-9.82630787374831883e-20
-6.16517459224894267e-21
-6.01099791319234691e-22
3.03145130767641781e-20
-4.4257922841209555e-25
-4.8404075347926346e-25
-6.09622684167223338e-24
-3.62659452181564417e-23
-8.47326269390046952e-26
-4.49743214122135723e-25
6.67838529545686804e-23
-1.40494746144656636e-35
-1.66723283772591575e-35
-6.23530526748598975e-32
-2.48733860524522943e-32
-8.64665882968610172e-30
7.31492709653473125e-28
9.43983562607014876e-26
-1.32873556188387618e-40
-3.91375811387990314e-38
-9.50890484170309745e-38
-1.02124560315497142e-34
-1.18331666035148542e-34
5.4427929618785383e-32
7.3250529434421036e-29
-3.24859857735878401e-46
-6.61370809698044598e-46
-3.40997729908086178e-42
-2.3151244643852118e-41
-4.39808463664721759e-39
2.5949802309743807e-35
4.48335257719308292e-33
0.00322175923663291968
0.00943590192002997409
0.00040797088564338747
0.000562424067883569379
0.0449717641310305796
0.000759960275818135429
0.000458771440810262386
0.000425621320672390493
0.00023056295544533745
0.027506954358891042
0.00118994558115452075
0.00049062226772421402
0.000233248757177392319
0.000143481807936839221
0.0211495016992106072
-0.000152961189334062874
6.99669385924236862e-05
0.000283077325598376996
0.000247606864087657099
1.14667987449203112e-05
1.42336915974946584e-05
1.13386703895028915e-05
0.000151908317178183454
0.000165100402117138986
6.2507041149590696e-06
1.82330482016676077e-06
2.67156197734707429e-06
4.18447871852163042e-05
0.000100073226126528068
1.92683146728025888e-06
1.70931759915364482e-07
1.49740660251523285e-07
3.90885339059074746e-08
5.75965981080048473e-08
1.32280910746626492e-06
-6.12825261785891195e-09
5.05917712022590043e-09
6.27988921329239712e-10
-3.96330825281971839e-09
-4.49730242752794969e-09
-3.08129949835541744e-11
-4.87725631497714701e-11
-9.50105615147378716e-12
-3.04981415994619718e-13
8.73007197443959489e-10
-2.35315629991900725e-18
-7.93276060694704093e-21
-2.85514776599462336e-18
-1.98089963948777663e-17
-1.4890896579400172e-21
1.16559157926508784e-23
-1.08631515910510234e-22
-1.75187343063002125e-21
6.59720140594502367e-21
-9.94919111131114987e-28
-1.83514325249290008e-29
-1.58207930338045831e-26
6.92879148728506932e-26
1.16168982003948424e-23
1.06745467621790679e-35
-4.16815251593583755e-33
-1.85006389522975407e-31
4.12391108240079482e-29
1.33932865578897082e-26
-7.24026065247294081e-38
-2.40379404345948251e-38
-1.27852281145914589e-33
9.17946937192251041e-33
9.84981997718986415e-30
-4.3302782632769587e-45
-2.90129643765478902e-40
-8.32561323603107897e-41
2.86514307334976816e-36
5.14651904448507082e-34
0.000418614805324706593
0.000804683445398847626
0.000391032771629753616
0.000320780050320874531
0.0887651666076166579
0.00042048213838581411
0.000341468795273607646
0.000373089763883865401
0.000194531666948889113
0.0583085139845573308
0.0156834347678965098
0.00126824818511869493
0.000149767915186571659
0.000144062722284765368
0.0987972829111503498
0.000326721744604653954
0.00585503196645672727
0.000283974511194920746
0.00100736648929756166
1.08002468991174533e-05
2.46792646894116702e-05
3.56324609720873114e-05
0.000117739176044793969
0.00173395310417912354
7.09269265401977283e-06
1.30383702717644902e-05
1.91786987324360347e-05
4.02050618971446317e-06
0.000260485965888507384
7.08232255193220455e-07
4.61508437652691902e-06
3.1374777196535272e-06
1.99612588570390304e-06
1.14390431456750431e-05
6.87542722531349117e-09
-3.77791284907033832e-08
-1.70138257024578293e-07
2.76659075302417593e-08
2.59681570542216532e-07
-2.19000052142074549e-09
-2.45199753795772789e-09
-4.880326707038265e-10
-7.49902110369467038e-12
-2.34484426772571211e-14
-1.09265531126425125e-11
3.70989742589898726e-19
-5.89562282765959835e-19
-1.34733359195067055e-17
-4.21366089829575336e-17
-1.13257855365340127e-22
-2.61892313454813605e-25
-1.36737252941712896e-23
-2.612028342324812e-21
4.47772826189476698e-20
6.23094801980894481e-28
3.70837105639785278e-29
-5.34669900267825937e-27
8.77818645142700903e-25
1.2419404632223524e-22
-4.17916949399441598e-34
6.11088023885980628e-33
-2.89503441073137174e-30
3.16019060704472741e-28
1.64467836777266259e-25
-9.99928228649508427e-39
-1.43664759931452113e-35
-1.10445712382794455e-33
1.38989218507817112e-31
1.1753057007839277e-28
-9.04049458834883686e-43
-1.7257336980929497e-43
-2.39729732860615732e-42
2.68569096989815232e-35
5.0772132023527185e-33
0.000487142757702090719
0.0002542756103386758
0.000328783177550610851
0.000137647356101556302
0.0464266385025058001
0.00107953833271803531
0.000404993755133792224
0.000210655509618557581
8.19928934277401795e-05
0.0928209806658177872
0.00334153263951126375
0.00116260259772700981
0.00318055081563604382
0.00204908820258741095
0.0949139778954862789
-0.00070457615206061914
-0.000410632027166224153
6.03563043295672597e-06
0.00479778724924833592
3.42792286567219899e-05
2.07376657648508636e-05
9.5597146028572128e-05
0.000528412030200126818
0.00158661116009981441
1.14069343171320023e-05
3.58239810400397989e-05
4.08695040259072717e-05
6.9240310798904204e-06
2.24486067351110622e-05
6.95165269294409212e-07
2.33395789252957346e-05
1.13699821159921754e-05
2.65130292113917708e-06
3.29144510991932011e-07
-5.43823926509255593e-08
8.79572424855792048e-07
-7.31766404915046569e-08
-3.83300225343022804e-09
-9.35371171638845521e-12
-1.59804476163215277e-10
-8.73065708382479313e-11
-2.86004311453830577e-11
-6.09600814877453004e-12
-1.21052451803337881e-15
-3.15108784052108566e-13
-2.41746547659007372e-14
-5.16777307374809504e-17
-1.08580834217555723e-19
-2.21461885275738132e-19
-3.6280092559234464e-25
-6.45334430955331288e-26
1.40889149931315691e-25
-1.74034099959212413e-23
5.71527290406012069e-21
-1.62086122910307568e-30
1.40761681552648326e-30
7.34936934856097514e-28
-1.60716298514115754e-25
2.34408549684913265e-23
-1.7083642401593281e-34
-3.76583978316017625e-33
-9.54800480339213445e-30
3.38093697962714192e-29
2.4296419771172914e-26
-2.75802503207908954e-38
-2.27810688756280889e-35
-3.03060278651347987e-35
5.81131841571157117e-33
1.23336869988003735e-29
-1.81331819731896255e-45
-2.02381416986789366e-42
-7.41282553626243226e-41
1.94355661042137752e-36
3.90896513364643996e-34
0.000559596660087542446
0.000130396110718206511
0.000422510748443228582
0.000170207004885607237
0.0661393927691949629
0.000929983365536110715
0.000428495730504820571
0.000184578726590455412
0.000473615748262615969
0.049308885574998941
0.00137203330514038446
0.000758631448793616481
0.000464572518912710663
0.00136932236407208852
0.0393890368935789631
-0.00152462500023260359
0.00282947253522285863
0.00105260289026903311
0.000567999916333341149
5.53366717459215086e-05
0.000475419665798051114
0.000851146363811171943
1.43719970784783182e-05
6.84942682141725229e-05
2.73434899364851931e-05
0.000176141137910485379
0.000338673071932398841
6.97404224017401506e-07
1.60467597096678089e-06
1.55279799873507311e-06
6.08400484779100258e-06
-3.01110442365618236e-06
-1.36127889342444337e-07
7.59203476497649021e-09
-2.48511080755937631e-08
8.93917669250150073e-07
-7.23068654576368774e-07
-7.94725441908645912e-10
-3.19524138700349678e-10
-1.28693082058577804e-09
-5.90184125034496114e-09
-1.236036380941802e-09
-1.00718281628656272e-11
-3.67021016974467432e-16
-3.18951519895584157e-12
-1.60847782991898197e-12
-1.12846377904208933e-12
-1.48406015196793807e-22
-3.28690477888562348e-19
-2.64533190268837211e-27
-6.88963710445496904e-26
-4.6045555349039326e-27
-1.55761618060686806e-25
6.82976123304170591e-22
-1.82270643314497532e-31
-3.0768010454426426e-31
-7.08306741131964932e-29
4.65976413222783127e-27
7.66205695823135117e-25
-7.31526763290756455e-36
-1.76337426337149926e-33
1.040794759387497e-35
8.15714808605002859e-31
6.57710199824324622e-28
-3.40573511410500135e-40
-5.38995902750793424e-39
-1.74055716630981891e-37
2.26491054656599667e-34
2.97043225173290576e-31
-3.53433137908007787e-47
-2.10748167254405108e-44
-3.56848005516747251e-44
3.27787161643826532e-38
7.04946820022915737e-36
0.00269760030988142746
0.00163991141117722874
0.000323460553111652423
0.000137595174056377018
0.0191922328855697599
0.000567639105094671671
0.000170220169330641312
0.000151008766583760284
4.15922637660664336e-05
0.0560532450155882683
0.00135163711395562417
9.85227306447521958e-06
0.000125016821090646006
0.000135078955375577135
0.0147166224371199778
-0.000980951755999127538
-0.000260238587259426564
2.89530124351388549e-05
2.77066972055742885e-06
3.17053718331211532e-05
4.47972894124269646e-05
4.73354189221101429e-05
2.39565950201681492e-05
6.53614457377536527e-06
1.14716710026528611e-05
4.31116399686784954e-05
3.88621341978514684e-06
-2.31969573191295866e-06
2.10107652771353967e-07
1.89938101144498636e-05
4.33594786689762442e-05
3.02768961282621102e-06
3.01841730251182205e-07
-7.86766918119068395e-09
-1.82917211472204557e-07
5.68724809405531265e-06
1.74158063765306679e-06
-3.34260029826860687e-09
-2.50450509040382759e-11
3.80305460565575752e-09
1.55917931415027848e-07
2.79476801650691188e-07
-1.66229298092953444e-12
-3.01558530623082113e-16
6.30309571983056476e-11
-4.12948042763526105e-12
-1.53569970517727028e-14
-1.89814288068596094e-22
-3.04797649685499294e-20
3.70505497734140436e-28
-1.45900994907852162e-29
7.85719229434805957e-29
-4.68359321433434195e-27
9.9403482031515321e-24
-7.07985167160533784e-35
-8.47126558941448897e-33
-1.32997978364020767e-31
1.41739156701073188e-30
1.14255478200942754e-26
-2.46491543200193248e-38
-3.52165120724011521e-36
1.09032538610832374e-35
-2.64973343329470829e-33
9.74640912188445296e-30
-2.09713426546276273e-43
-3.01741105478307606e-41
-6.75307851648642824e-38
-3.79392055124500563e-35
4.69916404450595214e-33
-1.94903254003545934e-51
-1.40889739369345473e-44
-4.29643329357725821e-42
4.75294364860336171e-40
1.09122395446230102e-37
0.00614290434639995584
0.00407365619769724067
0.000279971722631937531
0.00244064601020817966
0.0832808129279030834
0.000724542789232043871
0.000274787427789296957
0.000145558774629550206
5.90822107463064139e-05
0.116025250275527098
0.00235044602950595016
0.0014637170981218878
0.000151318030083629656
5.93274503258449154e-05
0.135986221652796446
0.000337384064659701456
-0.000127756963703135144
0.000114616415038553901
8.62139686926747831e-06
0.000269276996692116197
0.0015243280574012961
0.00153038415773820561
0.000137084411929371409
-2.07988599076264981e-06
0.000110733866050958702
0.000778044370951762017
0.000905550460841026013
3.26702359096791586e-05
-3.91067706168872546e-07
7.59479085632768441e-06
2.10991754246278227e-05
4.90174398828796553e-05
1.3299772038648926e-06
-4.10113780216412258e-08
-2.32259492286836484e-07
2.33651575299254046e-06
4.10161959980150946e-06
3.35910159047704578e-06
6.10359172848966546e-10
3.99005875200208681e-08
1.92355779733361957e-08
-1.19285240070188782e-08
-1.5802650220749297e-11
-3.14742407336662458e-20
1.34837492386407121e-09
-7.4812066031060737e-11
-2.52444351323708887e-11
-5.31054226936680085e-26
-9.6596074940661263e-24
7.38195986761955501e-34
3.93174315913254044e-30
1.28256051067797881e-28
-4.21215389898629336e-30
9.4102867427133923e-26
1.59725643254556568e-37
-9.51666489877329569e-36
6.62305994445101254e-34
-9.33805767288558697e-32
1.08023513914869322e-28
3.4773312707298173e-42
9.48615652692981427e-40
-1.60225561107725506e-36
-3.52556029755392172e-34
1.07565604762531032e-31
-7.42693819619376635e-49
-6.11902471481477769e-41
-1.09444130244324477e-39
-1.12615495696237352e-37
5.74539432163240972e-35
-2.00054189353817384e-51
-8.20195524932482604e-48
-2.43345736122232038e-46
5.79619380479384302e-42
1.40306588790633944e-39
0.00404468973657311735
0.0107860932220599365
0.000840743873997663979
0.00208580603246338783
0.0669545345601374325
0.00877300099227911259
0.000801174319152203889
0.000308349685382557212
0.000144600833963419743
0.0904798068149217094
0.0149322146850236794
0.0016967293788368084
0.000396233090656328052
3.3294845004599709e-05
0.154169944948452375
0.000594127356877314767
0.00201608913126733466
7.19306814819395483e-05
-2.63712307229933929e-05
0.000254896352562027594
0.000382227431690045918
0.00606969325008541432
0.0011225283041762929
-3.48749764408262806e-06
0.000110169014554549564
0.000254498429286210558
0.00323074918696064205
0.000451832191652556665
-7.96344179782774025e-07
1.7604577807166882e-05
0.000138796698111480005
7.28127149184186614e-05
4.64469483738796267e-05
3.48320341846482063e-06
1.09374134326674163e-06
1.49995011451401445e-05
5.01524186811827683e-06
5.13532114088191103e-06
3.44968129567580566e-07
2.72268621659010297e-08
7.10904429701242767e-08
2.59517547562051319e-08
7.62680632462777629e-08
9.69137459301477401e-24
-1.43015658815165609e-10
-1.27523186849008416e-10
-7.89088047023304362e-12
-4.56124063878425558e-28
6.69279257424190016e-27
7.58599742627297948e-34
2.88079618723623731e-32
1.07588225499042744e-30
1.63471880232471265e-31
4.46020334169343451e-28
-3.41108625297097173e-40
-7.68164599710128821e-38
4.42074352498476721e-37
2.10399863922604913e-35
6.7109875537322936e-31
-3.13083167901450933e-42
-3.86559938627265307e-40
-9.64463744993216743e-39
-1.51837662958847822e-37
8.20671139368045077e-34
-3.69157278318104064e-45
-4.72692184768097362e-43
-2.26484462088756377e-45
2.20640812657617193e-42
4.71832263427631804e-37
-2.77268436498775153e-52
-9.29540964108263995e-54
-3.21441291364902801e-52
-1.22951135095837069e-44
1.25639054398247269e-41
2.76223864233248511e-05
2.81122201749275838e-05
1.39644801765031756e-05
8.97652104605145201e-06
0.0457616100670551057
0.000241162917379629191
2.65758176894532023e-06
9.39821012691565422e-06
2.72709743668260789e-06
0.0796566303270925535
0.000562049019286362992
0.000143725443011000643
6.7644341438429645e-07
1.8043370866172582e-06
0.0982634607127714499
0.003536397592747697
0.000956603363194333646
0.000195118662123082665
1.84484827521670977e-07
0.00439333709982267593
0.00441298753117205008
0.00149774151882920326
0.00199111286561556812
0.00111825668028197526
0.000163228126154501955
0.000354687321126357345
0.000288304507210261011
0.00048666944784809857
0.000253236354400845529
4.60237459916634112e-07
1.30245447313202633e-06
2.36611185563778363e-06
2.00521786688780244e-06
3.45068729403854987e-08
7.14167700805080163e-08
4.28913242569899756e-07
1.25745722147605408e-07
1.89951599033010549e-08
1.77320031754010865e-10
1.96496626930873862e-09
6.29657034313553971e-08
5.30031128876526546e-09
1.93410067303492852e-10
4.09504357902345037e-11
3.98227708685770441e-10
4.03203164991849633e-10
1.27407241102535609e-10
4.52260152853845188e-12
1.14985871812677351e-13
-1.36672030610847783e-12
1.87136210050318049e-12
6.85890475207346361e-13
1.67578305960261939e-14
2.37026426170768192e-14
-1.27449263882644981e-12
-1.32892349095761834e-13
8.23619963255220223e-14
-2.51354399402603987e-15
-2.07623238912606733e-15
-3.14540660754873951e-17
3.49350815737944271e-16
-2.18096454941640876e-26
-2.13732191084712574e-25
-7.11326438095688554e-25
-2.89515977176830517e-22
-4.71930664214068731e-21
2.22832693376622753e-20
1.93666765132297307e-18
-3.09062450122840234e-32
-2.52107369501652178e-30
-6.85891618480851069e-30
-1.23359074111504779e-28
9.0247432205817458e-28
8.2825743047697783e-24
4.71499980956603747e-21
-2.49412027547692794e-38
-5.33655591854105594e-36
-5.96982479847302041e-35
-1.65216734615639615e-34
-1.63946038066258491e-30
1.24129590481639091e-28
2.95884335141333433e-24
6.93355360062289979e-05
6.51689888051960311e-05
1.69870397889729504e-05
4.83160676500718673e-05
0.030414351322734387
0.000338834007053566649
8.37483081374279796e-05
1.17492962500375346e-05
9.29404384592518105e-06
0.0155367537817956425
0.000197162339251796218
9.3271590918880568e-05
3.06353885582697546e-05
2.59869815064130946e-06
0.0909123099726106554
0.000143704789453125544
0.000182143140808307621
9.80710395185155115e-05
7.95996459003747784e-05
0.000220289743092328479
0.000103899340206482129
6.0955801580156338e-05
0.000241209406851765535
0.000478111389931644946
0.000294680500233933937
2.59124369193210442e-05
2.94648640530710844e-05
0.00021385439443272501
0.000106238323812429488
5.39738524816864651e-05
8.30231721743959167e-06
1.17507014333863745e-05
1.63621571140762456e-05
5.35530677216322155e-08
4.38831858257711928e-07
1.05602815566611062e-06
6.67707824521186131e-07
3.94762695188029606e-08
3.07373578644321564e-10
4.39551268597782447e-08
1.39512380059411329e-07
3.29317453040940278e-08
2.61978518971763971e-10
5.82862846645557023e-11
1.45805372364663129e-09
6.59143625902649778e-09
8.79324465284050365e-10
5.16425735735392174e-12
9.05640203446390447e-14
-7.55768541889647828e-12
4.74991327852859248e-11
4.27780126626688572e-12
-3.61967216896614224e-14
2.15807441870197195e-14
2.17688677429016734e-12
-1.97473129138331343e-13
-1.18889386679467843e-13
-1.84536325066972487e-13
-4.15872937034407784e-14
-2.44719704969272847e-16
3.46274090905098926e-16
-3.41639798520868099e-29
-2.35252427447751143e-26
-5.50995279139595418e-25
-2.4300883626539756e-23
-3.50299653498065896e-22
5.20082461960605321e-20
1.88743595750887884e-18
-2.7631917184122323e-34
-3.92859147764918283e-31
-1.26401838478252486e-29
-3.72977299441038823e-28
1.81843346017528831e-26
5.55413420434959574e-24
3.89612843786630069e-21
-3.02085705702685546e-40
-1.39015964060778857e-36
-9.58213643407597965e-35
-4.86946387552027641e-33
-5.91072892875102606e-32
5.94918249714487752e-29
1.4543166936216565e-24
0.000150744179380249849
0.000154019270966175527
0.000209328801616032666
7.22150420559643008e-05
0.00290675731936532742
0.000454905262319088566
0.000281289468996580609
8.83391088741468356e-05
4.08855805741196489e-05
0.00110758560723859677
0.000244686608958259667
0.000177684543569421789
9.79143334241398719e-05
3.04118112274012405e-05
0.0632708778949769846
-3.80437495522365372e-05
4.37545340207818811e-05
9.37002275386513735e-05
5.21181424558765405e-05
0.0216190395233639178
2.56947491166120835e-05
2.3828640416252299e-05
4.04071557962529276e-05
2.80821714445400864e-05
-2.68302339019601434e-06
1.17671576618788503e-05
6.04465976875382171e-06
1.35679446355548002e-05
3.1487758464406107e-05
7.21319439503193899e-06
4.98629876026037937e-06
7.28402888282894372e-07
3.98184485001204015e-06
9.48448997864340332e-07
2.87279030191286818e-07
1.18400029448399338e-06
7.04256083463207604e-07
2.16858210700745152e-08
2.09014622604459237e-11
1.97539681012150597e-08
9.63314329809964186e-08
1.11709966233469976e-07
1.13759216401424269e-09
7.17867129659301399e-13
9.75136516232032056e-10
3.60688983681285847e-09
5.16180027822928508e-11
1.93088949211602302e-13
2.58472267745381982e-13
-3.76274968342915312e-12
8.91007182763162671e-12
2.03373721793460104e-13
-1.73876351932052716e-14
7.94434738518698477e-15
-3.78307810982310532e-15
5.92750513923466527e-13
2.6173072328819602e-13
-3.87340694000616278e-14
-6.36471134512884287e-15
1.13519739928946496e-15
5.71569410423068982e-17
-1.6058284298881215e-28
-1.87263930454087843e-28
-1.87705515107613764e-28
-1.10940762175066519e-24
-3.39660236542338088e-23
9.27791839738505288e-22
2.31109337973027512e-19
-1.16616978653821978e-33
-7.49065824412388039e-34
-1.10532732809009489e-32
-2.81297687215456585e-29
9.87127505264020393e-27
7.71285946334239039e-25
3.49730727502880432e-22
-9.95327300048774648e-40
-9.15998970789285231e-39
-1.17057881831228468e-37
-2.96643297751127445e-34
-6.51400304063002222e-32
1.00643935203270463e-30
7.81659786225368957e-26
0.000623625892578179926
0.000248296732370865622
0.000759075039082181399
0.000218099388395075135
0.00229630820363327208
0.000812415346326237037
0.00041170097110732821
0.000254844633674695563
0.000130508491991571498
0.0147680801159712494
0.000551164315221149568
0.000302654936445270414
0.000165050156731288348
5.97805436531775435e-05
0.0931757383047400467
5.20691681700745379e-05
2.52057155094690701e-06
6.90661233150314911e-05
2.77291766591754219e-05
6.48520471651823044e-05
0.000195137922050853921
1.12725423897152791e-05
1.20523451667300106e-05
7.71335032225163117e-06
1.72921826366846283e-05
5.14477275119000665e-06
-1.6132330579822207e-06
-7.56047325608755467e-08
-1.51359688470041104e-06
4.68073794392830494e-06
5.12209933633431753e-07
9.88142808363511973e-08
-4.68321642106373787e-08
1.53296228119689936e-08
1.03584149341640791e-06
3.71316809452720619e-07
1.01979503561866932e-07
3.86149841792162966e-10
-9.30205822906572462e-12
1.04209834663652324e-07
7.813144464694866e-08
1.70318441012503214e-08
-3.67604086479566952e-11
-6.79628284075502984e-13
2.12093244942166136e-09
9.55508244484255453e-10
2.87798884694099756e-11
-3.97189347667314297e-13
3.60100543297366316e-14
-4.23765307380389318e-12
-6.11884411635272392e-12
-1.78207554700227047e-13
-3.7037913932054668e-16
4.03156347597029097e-16
-2.01339343079013564e-15
-7.59809529641577893e-16
-1.03252175290324414e-14
-1.41255681500378101e-14
3.55632450673495397e-16
2.13918254113293005e-17
2.66016309711649682e-18
-8.32938057680982502e-31
-3.51081831142578389e-28
-4.24179320176204088e-27
-3.755763792336085e-26
-2.2524401079696836e-24
2.39604793137934659e-23
8.73829034542408145e-21
-8.49367959566816184e-35
-1.36878269084172761e-33
-2.10259753409752762e-32
-3.27049460818856908e-31
2.18830759321130616e-28
2.18735664570170823e-26
7.24902226917279801e-24
-6.64660678211404904e-41
-1.13626815525316052e-39
-3.2652622368215449e-37
-2.57455382488191469e-35
-1.07169545421101971e-33
5.3011285424747657e-33
1.15488041246898398e-27
0.000225297925038604155
9.35055300579751666e-05
0.000745827489095467807
0.000286361855788762559
0.0107458408036052305
0.00159321430608989835
0.00081534667138966478
0.000402553188616003776
0.000454242142262861043
0.0241849303372303967
0.00274498533263647232
0.000673603974914494127
0.000381080407177048538
0.000538457248382888908
0.0942426090894774721
-0.000353128434155246934
0.000623099873303439009
0.000151548807370740975
8.74508414973787209e-05
0.000138253833369990494
7.53302612091433574e-05
2.47087263124979122e-05
0.000159945042434098621
1.27539835422878591e-05
6.83048856540752805e-05
-9.3415072854949005e-06
-4.42027781043177126e-06
-2.3587943390756486e-06
-1.49439900069686122e-06
1.05317222985799725e-06
1.13276205456229327e-07
6.69535141551108463e-08
-1.07546256485084626e-08
-5.12640623252271889e-08
4.1567187201387263e-07
6.51873831138518289e-08
3.51070568063864212e-09
-8.5680904262915028e-10
-6.69287834323819826e-12
1.40938616392764544e-07
1.92007660421344951e-08
-1.78084609088294304e-10
-3.39815061375995033e-12
9.33321122772943174e-13
5.99889592925647041e-09
1.00201209352458634e-09
-1.83821187102500939e-12
-8.17608930581759834e-15
2.31281253569035204e-14
8.9212460136546303e-11
1.20529917444767823e-11
-8.42901539902775959e-15
-2.34265838862573662e-17
9.92394271477711933e-17
-1.43028162804179885e-18
-1.93622437395688117e-16
-6.98099229555581093e-18
-4.66311629754641671e-17
-3.32333181879333224e-18
-7.00971696543103269e-21
1.65851751851460233e-19
-2.73313312111874526e-32
-5.53307517126671795e-30
-1.95901285953538632e-29
-4.17856905520575306e-28
-1.46998141674181882e-25
1.11633667463943567e-24
4.15203934636404281e-22
-4.00692483751187506e-37
-2.05809707144440983e-34
-3.52575433399621303e-34
-1.73708253805609711e-32
-1.19760331398332652e-30
1.38925474497955031e-27
5.4541183422500538e-25
-5.88473588082608157e-42
-3.87074799938417516e-40
-8.67993903944623127e-39
-2.06998014933221358e-36
-1.94000974524814079e-34
3.19141416872838627e-33
1.41039574403658147e-28
0.000278379246365118016
0.000179189137676982372
0.00304599284824198617
0.00145636677349666576
0.0313751163933578131
0.0032543519559532102
0.00157669461046988429
0.00364202758597520103
0.00348937626369674909
0.0568313499733797411
0.00178089220490876493
0.00133470494157689927
0.00149093465911876409
0.000889420129750120077
0.0371003028565849019
0.000127056069395672759
-0.000121689873146878496
0.000196462479740779712
0.000161874332525521362
7.88269267982325266e-05
7.549682877831011e-05
6.32434880425042817e-05
0.000110046742761232561
2.72021048289652594e-05
2.04056971150070905e-06
-1.50621034760585906e-05
-1.95864817856567172e-05
-4.60893053052531843e-06
-6.7992103713453926e-06
2.4344057206129207e-07
-6.70284091796926033e-07
-2.42842728923710971e-09
-4.65375857638660045e-08
-6.04811215600582108e-08
3.45481060166342515e-08
-2.29944152582662159e-09
-7.07152687224093092e-10
-1.41146540701814325e-10
-4.01234375847275898e-11
6.63252575068368374e-09
-5.50874715864244399e-10
-9.37373160057548821e-11
-7.63545303149582499e-13
-2.03377912597430955e-13
-1.94897976394925184e-12
4.15345085620978501e-11
-2.6747513463034749e-13
-7.94026993246170175e-16
-2.53222323736188452e-16
3.28275598193688256e-12
6.47752941005833189e-13
-6.25309891502156251e-16
-2.12304821359552073e-22
7.02348426544695349e-18
-1.24277802597932214e-19
-4.89073167621590052e-18
-1.78098071092862201e-18
-1.7424820956235511e-19
-9.80660483992035708e-20
3.33316155842922132e-22
2.98419295477154826e-20
-1.49056042974642608e-31
-7.88888130107974439e-30
-6.29101902109120661e-30
3.85721592791738205e-28
-1.89411585485906157e-27
6.63882650944922423e-25
7.259462044079734e-23
-3.33825748392219928e-36
-2.97626619052312607e-35
-4.39376159362986243e-34
7.69342923225208146e-35
1.75381309764511918e-32
2.10089522780932436e-28
9.6147834501148271e-26
-1.44836530431113731e-42
-5.12175218888171118e-41
-4.8060002072599832e-42
-3.4807111895507674e-41
-5.707457069169937e-41
1.63957803503111974e-33
1.89123776885343656e-29
0.000842464344516710316
0.000239113764238790198
0.00260368608448300308
0.000434973005742689809
0.0339277561397232572
0.00318343234824199029
0.00234004065908893647
0.00895133477187128046
0.00418673200443569517
0.0123279424074280754
0.0012131428111589967
0.000594006977604499202
0.00104081873324888587
0.00141196792801163268
0.0024909398321498015
0.0005420950617050299
0.000231250918543217328
3.9781162533316996e-05
6.69047195956634064e-05
0.00910641974208926779
0.000492537157122282122
2.52730246387461995e-05
4.74669950234787125e-06
1.41507292289421594e-05
0.00723061134466817211
-9.38057820058408475e-05
-2.5705488528615597e-05
-2.06343279290295953e-06
-1.30259932740779726e-06
1.86884893706309058e-06
8.05078383184905198e-05
-3.13113100777634888e-08
-6.42265762611864413e-08
-4.81863046022426256e-08
3.87125303700353011e-09
-5.45379339786254285e-08
1.81434120634798372e-11
-1.86465126926298189e-11
-1.06084464364738818e-10
1.56964286060423191e-10
-3.4797233550470116e-11
-2.48982174363945121e-13
-8.91944957010394959e-14
-2.22088834818650753e-14
6.55470003143710655e-13
-3.60954091091614916e-14
-4.3510442991508652e-15
-7.23550294644695855e-18
-2.21054174407791944e-18
-1.01134998373067622e-15
-1.16751604501429772e-15
-5.80034647818999767e-18
-2.78004467540854028e-21
1.31723069483539064e-18
-6.2138163717994129e-23
-1.79202221230810695e-21
-7.39114322268748783e-20
-4.63365402425839896e-20
-1.38705466975587549e-21
-2.23799004077462477e-23
4.91345808317610762e-21
-4.28444262457957851e-34
-7.54414555422388502e-33
-1.54710352998189415e-30
-1.29498119956438834e-28
-2.26683433525637744e-27
1.18032094172837629e-25
1.01611478690443721e-23
-1.0221731277746739e-38
-6.04640297161088518e-37
-7.84308131091970165e-35
-2.08763606010478984e-32
1.2675584430021892e-33
2.70366858301766562e-29
1.11849786151387395e-26
-7.39637616505691199e-44
-6.59736399196427653e-42
-3.70963262729869246e-39
-7.72848147983744148e-40
-2.29479576525039963e-41
6.19909965432359781e-34
1.33085105435065317e-30
0.00081927723216949455
0.000373982915308090956
0.000455246595259104349
0.000309632123986721829
0.0747264928943884577
0.00372018159889889351
0.000758870364252321695
0.00213580014911387726
0.00201703178654475497
0.0253571380668945329
0.00137546497211475378
0.000445652885344587242
0.000744251321470464858
0.000537538749506017636
0.0370092471164913256
-1.32164587845673469e-05
-6.63734233513757753e-06
8.82057974616298089e-06
3.57547034535112722e-05
0.00156097793106667348
1.94425814474548077e-05
1.79172199871558498e-05
3.29201910306326017e-06
3.36159109898964135e-06
0.00315970485551542212
0.00240356727261110091
-7.53750766159160202e-05
-7.2492632790042793e-07
-3.96572259487422991e-08
0.000524802340945508257
0.000214870399621589273