/*--------------------------------*- C++ -*----------------------------------*\
| =========                 |                                                 |
| \\      /  F ield         | OpenFOAM: The Open Source CFD Toolbox           |
|  \\    /   O peration     | Version:  2206                                  |
|   \\  /    A nd           | Website:  www.openfoam.com                      |
|    \\/     M anipulation  |                                                 |
\*---------------------------------------------------------------------------*/
FoamFile
{
    version     2.0;
    format      ascii;
    arch        "LSB;label=32;scalar=64";
    class       volScalarField;
    location    "0.0299999999999999989";
    object      p;
}
// * * * * * * * * * * * * * * * * * * * * * * * * * * * * * * * * * * * * * //

dimensions      [1 -1 -2 0 0 0 0];

internalField   nonuniform List<scalar> 
7248
(
3.32291405039767085
1.65498337852772259
1.25193132488417991
-0.123409900726520583
-44.1069343294455791
-13.6506644327618769
0.194789855325333328
0.256533600437117038
-0.506912076693523339
-42.4636575324189991
-12.8060265785555778
-1.69843431730002958
0.315547690812868264
0.0522038975303042996
-5.54579269809131858
-13.346262816985444
-3.76841307539284909
-0.157134579175582711
0.0111844037149637643
-6.28483400441899054
-5.99731342443213222
-5.29523185687538689
-4.1791950727198266
-3.03163783978491885
-7.0311229776238573
-7.16031359415202306
-6.09499694468559738
-4.71096985310700767
-3.96398947758896281
-8.23807530625203199
-7.58412813884356218
-6.32262744842185409
-5.41241383998301817
-4.73117668783150425
-7.59105406897737556
-7.12222673896353431
-6.40653702348720877
-5.79678189769166252
-5.27837288015604855
-7.30365231153291816
-6.95043742093502104
-6.5079910718304026
-6.09190558338387067
-5.71370500209302001
-7.26055830800006952
-6.9764721248725321
-6.67141764514177904
-6.37123723679511222
-6.09183399518726443
-7.28857078511049217
-7.08157167334172488
-6.86368920783869019
-6.64659426805614384
-6.44019974745306278
-7.6144037279346577
-7.50653451021073259
-7.37538965856724715
-7.22867767287381735
-7.07403761558685851
-6.91885291775833799
-6.76974454796310265
-7.66965777122487058
-7.59225530859974018
-7.50140583956219764
-7.40093292486546073
-7.29541645505518321
-7.18945306353126234
-7.08724484126659071
-7.75811442572942145
-7.70774663030440355
-7.65016102798255027
-7.58762713589042193
-7.52283801523246698
-7.45848483976555965
-7.39694592691982677
-7.85287209736501524
-7.82978111000112431
-7.80380383158246094
-7.7765396535662008
-7.74950301751846204
-7.72392899520738663
-7.7006703191035939
2.27269444946776034
1.6481696607282359
0.470118752003205742
-0.640699005422851187
-39.2512125208514675
-6.29122567151004297
0.846295876546878212
0.471512021738130116
0.140249040864396601
-34.835995948302525
-15.0885084214569147
-2.18204167355131951
1.38589218448167273
1.20032324475806762
-9.71624471115801214
-10.6712978335230222
-8.33923222232849426
-1.54397550693317509
1.82026300580082978
-6.34080987119598127
-6.56713523466253513
-6.46984235036386579
-5.24193842107519714
-3.19374793427435222
-6.04869268855140696
-6.56979742462278526
-5.79314826384363712
-5.0614283126495021
-4.14704379509540555
-7.45604621924539579
-6.96148194529533804
-6.0757619310985449
-5.42992333968373586
-4.80854750149943833
-7.02723772531663116
-6.89631532528690627
-6.3203102307219492
-5.80736137733456204
-5.31916337122504057
-7.08958542283552351
-6.83670018947487623
-6.46805595659230548
-6.09248816417512362
-5.73357709570367913
-7.15774582574528395
-6.91404727329285507
-6.64283331893409201
-6.36546690035889906
-6.09998957349601145
-7.22870263822761405
-7.04222585824506719
-6.84207907564249496
-6.63862417585075715
-6.44189610974111382
-7.3378138281109706
-7.20228259804714721
-7.05785651196979291
-6.91113070847148947
-6.76852328173180062
-7.47717335224006785
-7.38330284613162302
-7.28388728060364343
-7.18317343366867433
-7.085202913096035
-7.63534305086484455
-7.57670176163936215
-7.51549676842008818
-7.45424132083899682
-7.39522168497423582
-7.79689620343585599
-7.771568611737246
-7.74625755910075497
-7.72208128222881562
-7.69986893934040229
1.252259965838872
0.918483705387853178
0.14115705075280216
-0.624283248232192722
-19.3644861240519504
-6.87489547144195257
0.346010935082096349
0.420130335133567012
-0.246603885745688256
-42.3852813866645874
-21.3170519119621815
-5.12490360527386635
1.35699212850854423
1.56717918457197802
-9.38693652019986757
-17.542417280315977
-10.7003115205091444
-3.13085231156616839
2.47398425605411365
-6.64264356827043301
-6.88315475259337983
-6.67012919015155781
-6.39972377153793115
-4.49642718726827972
-5.5918994417694794
-5.80726510087834313
-5.69151053984615363
-5.42645454623802692
-4.6522342878448697
-6.84824722466058589
-6.73631503671893217
-5.90939118578474609
-5.44233860212670972
-4.87825833097915851
-6.75690710735469935
-6.71172963776010789
-6.25257550967955034
-5.80454489833290399
-5.35536759231663506
-6.94492228471484463
-6.7322404384394039
-6.42758417124479919
-6.08487564351662424
-5.74704552153953152
-7.05571637697643617
-6.84687172094316576
-6.60809904103340173
-6.35349547580243623
-6.10247629901304656
-7.16469361991260278
-6.9979533269739429
-6.81559831287177964
-6.6260659553676593
-6.43954423335919302
-7.29737885938657183
-7.17285947636738808
-7.03866737693474143
-6.90057965437003684
-6.76478001380337801
-7.45156152845883302
-7.36407171470614763
-7.27071426571328683
-7.17533440283354018
-7.08175358164105884
-7.61990395606660176
-7.56503850155222057
-7.50737969661273219
-7.449243856389411
-7.39279808488325241
-7.7897357230046147
-7.76640992572347599
-7.74281601846722989
-7.72001232843068053
-7.6988428315737103
0.790490762013350778
-0.12248410973579249
-0.0842442722907574826
-0.537407616570713564
-28.5184252947061907
-10.5694118763473863
-2.65341780811795758
-1.16784795127654339
-0.7292861384214957
-59.1409050292012921
-26.1146857826904863
-12.545345496484444
-4.43060709227990834
-1.34335929509837904
-17.1329583134444761
-19.4567612422897689
-13.356968908607918
-7.55725828190427862
-4.38348068079618969
-8.58076079281642556
-7.80824970207658176
-6.94604125378759996
-6.89995641000579685
-6.21273072226542844
-5.39415787823915416
-6.14621329402351346
-6.53053546405609531
-5.90942108971066293
-5.10040424955867167
-6.1333990507247913
-6.0259883847828597
-5.85725086726334609
-5.52240227553686758
-5.02086205276297459
-6.54532424958409553
-6.46229089116880573
-6.20829908545987141
-5.81446965744599353
-5.39614769908537273
-6.80885337726466666
-6.63640228869187521
-6.39234433894866338
-6.07716553391139946
-5.75582351902539546
-6.96407426293313492
-6.78379916039146291
-6.57312625892936797
-6.3377078644889453
-6.09975733142534438
-7.10425825461576199
-6.95429829792615806
-6.78765046999521271
-6.61068093634992859
-6.43381923046941928
-7.25825053223383687
-7.14348657619920147
-7.01856278260402977
-6.88850217694242772
-6.75923210450229561
-7.4266083331170698
-7.34493163129269977
-7.25717278947149502
-7.16680799560107573
-7.0774239262204981
-7.60490893201814977
-7.55355045857227392
-7.49919033326996409
-7.44398432455392367
-7.38998052707162589
-7.78299581677364749
-7.76147433626119998
-7.73943288678073937
-7.71788621791546792
-7.69769860660237626
-1.07771156258577872
-0.353413166352272601
-0.962040374515789498
-0.751809911564955691
-35.3686591135372339
-11.0557733689481719
-3.93540081465585967
-2.6520410040250999
-1.64147735608035594
-53.8570451742649254
-27.222305486841762
-12.1474913990755713
-5.69660129539683879
-3.14560529725901805
-22.1814069277436658
-27.0242436961027579
-15.5098669366271871
-8.15175134303586191
-6.07624740717966993
-14.8605655712871894
-10.8154164260368226
-8.27437908358267649
-6.63732374433710248
-5.82516945426675292
-8.36266398715487824
-7.37916645725000464
-8.04939444709741814
-6.3478310943541425
-5.24134090154061916
-5.90413627777603356
-6.60962333548081737
-6.68987290875422946
-5.72514553038353302
-5.12071893500307862
-6.54053687272181694
-6.43833198945286345
-6.33290243057719326
-5.84515298339316036
-5.41081030393816498
-6.75555384851618257
-6.59651783746731368
-6.38713570023504662
-6.06546089364681418
-5.7511010004608405
-6.89642493834903458
-6.73435437989019192
-6.54192092003327641
-6.31701335653435958
-6.09042394109202956
-7.05364516827595978
-6.91567051529869037
-6.76067866443831278
-6.593537888341376
-6.42522930468762343
-7.22381634877593726
-7.11678306746733824
-6.99937956484193347
-6.87609902073138279
-6.75262971050336969
-7.40415682715735812
-7.32744425761110296
-7.24446588420022053
-7.15844589655114127
-7.07277094804355588
-7.59140217198751976
-7.5431041242882122
-7.49160756295914609
-7.43895301585287783
-7.3870984912538038
-7.77717536980255808
-7.75711653212018426
-7.73635737234114096
-7.71588403483076846
-7.69656179456633094
-2.36743319452866974
-0.627402347053098275
-2.13532353218241955
-1.11390720853837188
-25.0062620484018296
-9.44613977054988041
-3.90117857704881743
-3.06270299670777169
-2.23334876479339561
-43.7754657747156557
-27.7102702696182419
-9.12483855721179182
-4.49602817763949858
-3.58568871124144684
-16.4708075292517933
-16.6648568801803236
-10.6392067661494707
-6.26403752130439706
-5.11409770970796806
-15.2012633326085407
-12.3195309800932122
-8.17612853808057771
-5.56574094945452202
-4.62347710147439983
-8.92768462552258768
-9.17456735518405786
-8.17647003264362482
-5.67011792514069946
-4.70501132562295687
-6.27344896172681299
-7.12646080617298416
-7.36349353124713435
-5.78822161468906238
-5.05072116429819662
-6.52677919205444645
-6.45252454962169697
-6.4132470381101534
-5.82169396796963579
-5.36031620976939305
-6.68987642337568733
-6.53302814142234389
-6.33491760409757632
-6.02216325289594767
-5.7221615732820581
-6.84142944606621928
-6.6852402904356083
-6.50063452891038374
-6.28710529700782672
-6.07306435311455317
-7.0130821279851121
-6.8819524816673443
-6.73433929119364105
-6.57503140504537775
-6.41451869067477976
-7.19585878122075151
-7.09428108998751128
-6.9823842549424624
-6.86443176639573593
-6.74581267407632268
-7.3857397861856251
-7.31287960050860075
-7.23362251341484264
-7.15104290120174735
-7.06837741673299558
-7.58033274244071542
-7.53447047945167547
-7.48524140797022852
-7.43461576404017954
-7.38449227492834925
-7.7725885102240202
-7.75360423328090231
-7.73381307035517196
-7.71418344869571637
-7.6955616528679549
-2.89989165334355903
-0.596387847698462537
-2.15550168801235698
-1.30733424049930225
-2.58704346107751348
-5.07612340748214308
-4.27559917980248105
-3.17553529301455395
-2.14805116841790378
-45.1957096204819209
-16.9387113011820745
-4.89116720183315223
-3.92206696475719685
-3.02552123770492321
-15.4558963328924506
-23.015767481361106
-3.28173554979424154
-3.78511400520352481
-3.91120903062202929
-9.04595574989682838
-9.62285721851004361
-6.19104783759407251
-4.27046764235911169
-3.51541157518004566
-5.10694187673770195
-5.79508142198015808
-6.09826934107588237
-4.7860252986083438
-4.11652371152425278
-5.85864274093693105
-5.86180020604168028
-5.6338580824428055
-5.1879204840577211
-4.81105850053230544
-6.39009909097942241
-6.13980995315028899
-5.90283779471824754
-5.58166225502662527
-5.26035840765750518
-6.61119611184162093
-6.41343129189007222
-6.19418031065909691
-5.93071386844325676
-5.67468386600931662
-6.79588581028983718
-6.63446318617419539
-6.45262694430218176
-6.25144566076190777
-6.05189658620041548
-6.98317431599208316
-6.85443913066228383
-6.71111444424597892
-6.55825971326387247
-6.40424010284974088
-7.17583510687778325
-7.07751379290959903
-6.96918925003815914
-6.85506529560529287
-6.74004833710663664
-7.37262005252905439
-7.30234996109597656
-7.22562034467547587
-7.14543591614407259
-7.06490786279473593
-7.5724797027376054
-7.52829867908906181
-7.48063139495553209
-7.43141339891081731
-7.38250541942272154
-7.76941987729707773
-7.75113141263497507
-7.73198686935992008
-7.71294201037290161
-7.69481542702702459
-2.95299203270747768
-1.08080260533617434
-1.26433657544676503
-1.55315411409996074
11.183205895168328
0.687752254509703675
-1.73384514276940482
-1.76173635976719245
-1.72357506116569459
-29.4793897262953237
-5.77872411790219331
-0.737641446227691233
-1.88129262802929764
-2.06361801962996783
8.4945149699447029
-5.05319865587833039
6.24573977215559317
-1.11269980681341618
-2.13222638506688789
-7.1177204294552805
-4.17680320130848504
-1.38978950773199017
-1.77840005431079629
-2.44043544159963632
-3.96080634198870696
-3.37505206404188973
-3.26221965786652923
-3.51061799400960917
-3.57411694462448581
-5.08601619399856908
-4.63025007178943859
-4.21729323533928024
-4.56327628294457099
-4.55181731034661485
-6.28765938781063749
-5.81890787268598597
-5.38378177719474849
-5.32042135048837661
-5.1516920477248842
-6.55419969250633194
-6.30668628716805024
-6.0469802577508398
-5.84468750226586398
-5.62982092074025076
-6.76957799557503925
-6.59600323908999009
-6.41050469220082952
-6.22390214450290902
-6.03551994666549607
-6.96686588127662354
-6.83777854666105789
-6.69605691288920646
-6.54745126226124707
-6.39748966449910217
-7.16526750740825413
-7.06836564649395349
-6.96175665428822565
-6.84969280941365444
-6.73664572843847065
-7.36577793756889498
-7.29679884875802731
-7.22133917615437593
-7.14238718400965134
-7.06297367384891661
-7.5684019700439924
-7.52507654789774882
-7.47820409639430128
-7.42970724354407608
-7.3814264820324178
-7.76778148093573151
-7.74983333768022398
-7.7310182611525482
-7.71227900140769673
-7.69441333244941461
-5.45696598531396848
-3.03483765372959624
-4.62926636075071141
-1.7835950835890797
-12.6298998802155182
-8.10254706013043879
-4.7012382194200395
-4.11390737783373339
-1.86692619127193526
-33.9652557981871723
-17.2215074635895924
-5.55139171855449387
-2.6459501361925124
-1.55225333247570285
-37.3752860479117999
-27.5975721613800218
-10.7515497553791199
-3.78110961181268124
0.039892179413658635
-8.11671864426407019
-3.86380066683065948
-4.36754995595566076
-1.157994921174339
1.27772294345044379
-6.96097939132188781
-4.43152915756108889
-3.7632409616562974
-2.59953573125273207
-1.39687893342380853
-6.37242774417694324
-5.65114054575399916
-5.00934940339182511
-4.08702159949805299
-3.4165790699373213
-6.93869148623683252
-6.24451032959568231
-5.62286601877551906
-5.0144940441343957
-4.53826255690627356
-7.1120248549033338
-6.57012672562665934
-6.10686581980713417
-5.66982784364937142
-5.29688622975503343
-7.23772901579197114
-6.8393803548016443
-6.49186219310881274
-6.16237386375443741
-5.86777071334988243
-7.34349078742863526
-7.06284825517281334
-6.79985330451239633
-6.55101017969422283
-6.32426180319262699
-7.81176686305103907
-7.64098016523873191
-7.45006554256768538
-7.25469371800530816
-7.06352002766030385
-6.88134158455924805
-6.71336679584081164
-7.80637903309949088
-7.69413320334499318
-7.56803485190381497
-7.43632648817875719
-7.30523206672878977
-7.17935967508465733
-7.06254713165089676
-7.8482301489519779
-7.77689133920086118
-7.69824344889340484
-7.61663508244680365
-7.53586176434385191
-7.4588774061814469
-7.38788072898335546
-7.89906840696490953
-7.86533120894625526
-7.82890235914414845
-7.79229969110820875
-7.7575459080907514
-7.72607815761278527
-7.69875256276370212
-3.87962865578577887
-3.12443356243098691
-2.21752168466616029
-0.83288441331023555
-29.4028816329119778
-14.0599947996239738
-3.71140186439661335
-2.62859353103105287
-2.23913677447944526
-44.4172726061488135
-17.5172624037687683
-4.94733018865441387
-2.42994883613453849
-2.07510221801767525
-6.67079058582453399
-17.6366086537138642
-9.04181754217849232
-4.58560360713156889
-2.4393701819262068
-10.7329976798512838
-9.04775168068245605
-6.42835420571003358
-4.42299446472460644
-1.77764750232490698
-7.94644136851419791
-6.49134342293627142
-5.19944989410149727
-3.85553307257213618
-2.48523678355488498
-6.89904917854232025
-6.00847335446545117
-5.16782656432454957
-4.36965105330562853
-3.69089347373138832
-6.98797097986980731
-6.31680146894829342
-5.67095192419645944
-5.08911341306467779
-4.62093499528688678
-7.09646928093270546
-6.55650558403429873
-6.12690524771252853
-5.70422910220044699
-5.33221017347754067
-7.22474064093624335
-6.83181164245782391
-6.49993671605996415
-6.17690109380162511
-5.8831688530346522
-7.33907549170864648
-7.06359683202536992
-6.8050455875625202
-6.55806934317833434
-6.33182445219845036
-7.79780738005138563
-7.63398080677422453
-7.44808962645884165
-7.25531885063620763
-7.06599025450945994
-6.88479344100861201
-6.71724186686449087
-7.80126828101813086
-7.69087687113861573
-7.5666390529704346
-7.43629206390591868
-7.30619562100630127
-7.18096940066176881
-7.06449202282125821
-7.84565781965016029
-7.77509847130853338
-7.69728777655814689
-7.61639414352297361
-7.53616162469142559
-7.4595404382024677
-7.3887637387207068
-7.89751700347867214
-7.86427219107005726
-7.82831294327543681
-7.79206927610327682
-7.75755977845125955
-7.72625034071377925
-7.69901468604637795
-3.62655154170153038
-0.603966934305938619
-0.992457937860893313
0.361162689712870577
-44.8164973669888482
-13.3863243307881454
-1.19564275431676492
-3.51060815064747
-1.50190926263555102
-60.680582944125689
-17.0429498699099433
-3.6600088934092847
-2.53783475963529703
-1.30136636213506707
-26.6711869453485804
-14.3716775872690157
-7.10996828855861907
-3.71806769658566694
-2.13604522165743127
-10.7882514702742895
-9.0100555221513865
-6.01560693249490352
-4.12896472909058421
-2.53218912992756184
-8.0137796010511515
-6.81521195903807264
-5.2343889136320394
-4.0922250474297952
-3.11322731577187328
-6.93609074581250873
-6.28636384405945048
-5.36518603687659468
-4.62289371199284282
-3.97044431301225353
-6.95029491392377263
-6.44473412949084423
-5.78736746619411502
-5.22416944533959082
-4.7448863815033997
-7.08104008900747317
-6.61579832673799295
-6.18986765457321475
-5.76569884838709612
-5.38867830376000168
-7.22202942709780249
-6.84807580890576784
-6.5255768639823879
-6.20503981035590702
-5.91058882315831458
-7.33702395672633578
-7.07067957177327333
-6.81707334163734746
-6.5718807701031503
-6.34605317751253661
-7.77984341254570921
-7.62392266022183573
-7.44545329899824093
-7.25742246739007602
-7.07100292401817399
-6.89136354419350639
-6.72453142566813966
-7.79268698277459126
-7.68518312162289075
-7.56410784328028107
-7.43627086103722945
-7.30796896333462787
-7.18392721325969852
-7.06810387485832514
-7.84064984877485571
-7.77159762588097003
-7.69536217167274028
-7.61581921281567009
-7.53660944275870026
-7.4606966998814821
-7.39037468353656468
-7.89457845170577777
-7.86221776519067816
-7.82709722363578209
-7.79152990298878301
-7.75751954886660933
-7.72654596591530574
-7.69949895968008491
-0.442743384889286773
2.96607129494127397
-1.11469170992465871
2.17991513470385101
-39.6947947275580049
-7.41233461149977035
0.620400311245839831
-1.03908676240567255
0.708196117233427902
-62.6703417615622271
-14.8513147314347158
-1.45075175942066714
-1.09937452322625884
-0.449886432813529247
-7.51379506835320399
-11.4145262792066333
-4.99387100441128418
-2.77680862626822211
-1.57949558440806648
-9.86163638971871137
-7.26864253897126389
-4.85837967672752225
-3.81577406196725955
-2.6482925157463475
-9.26980246270294472
-6.90457300130946905
-4.83481606201424885
-4.08385384270800511
-3.3829350852490343
-7.62422769612830464
-6.58499812193724754
-5.61443776712371623
-4.79816860558833813
-4.17873734475415759
-7.15230288317018381
-6.69871438685635745
-5.96072947983401047
-5.36363175636728062
-4.87126658892552911
-7.12137915032002944
-6.74787188334548915
-6.27586528020477896
-5.84213492366528353
-5.45753060737847218
-7.23408790176432603
-6.89799840606384862
-6.5683527587904047
-6.24339103316464339
-5.94684949142477848
-7.34000209411745796
-7.08629993606149178
-6.83488058883749083
-6.59041445760155042
-6.36490261175369199
-7.76183232159482639
-7.61403219206312176
-7.44349172187568797
-7.26122628552193561
-7.07786806494498411
-6.90005686603757962
-6.73421922150670493
-7.78161237712049481
-7.67794268608199637
-7.56073993544955325
-7.43612108024588725
-7.3101218737920961
-7.18764425902280379
-7.07282015132244535
-7.83342777980271698
-7.76653999990186783
-7.69245045672904482
-7.61474866307605591
-7.53695714356037527
-7.46206471872068899
-7.39243772625508111
-7.89050124992881852
-7.85929737579977061
-7.82528506151236947
-7.7906495973544585
-7.75735108153190289
-7.72686726322187933
-7.70011018093800725
1.76159908585649116
2.82259313281145596
2.1590110309523256
2.407903848180728
-28.9396514736531856
-7.7824421780491928
3.25430470876403533
2.76758946023396835
1.49421434686153098
-53.5810949080490531
-9.99499830833029002
0.135285521414735932
0.288970707389749393
0.345609672053868167
5.47785015453081314
-11.0642802525921269
-5.02917136637539386
-2.07940204174648802
-0.946018108258884549
-7.38417606510913949
-5.78546795561373628
-4.54649944635433201
-3.92600971328929438
-2.72883374314877969
-9.47652822517753179
-7.03799814216876207
-4.70122408551628901
-4.13992033686400607
-3.54874377438456268
-8.10465168667711566
-7.13352318962933918
-5.8888609074398488
-4.95504778253462064
-4.33046962387438583
-7.47697838010616955
-6.90457327975127289
-6.14635420224611373
-5.49412707852812332
-4.98292650258696934
-7.30104003603590623
-6.8573714711114695
-6.37776390896130252
-5.92186966829861561
-5.52684257363496645
-7.29549255225982751
-6.95804513929641466
-6.61794799604410855
-6.28564908050086313
-5.98570747606140063
-7.35389009292094276
-7.10563383460858233
-6.8547390709536673
-6.61087795595186556
-6.38583669008159571
-7.74531749700579208
-7.60567359895804795
-7.44223750759137914
-7.26523002333791013
-7.08507798460804228
-6.90933047471132955
-6.7448851884744796
-7.76832143193884228
-7.6691643758093857
-7.55624780149506314
-7.43520304712552704
-7.31187853194730408
-7.19133623386210008
-7.07788627578219387
-7.82399119696480394
-7.7598000562343783
-7.68829492581235385
-7.61282959886740596
-7.53681572867748706
-7.46325725246495786
-7.39458530418590687
-7.88538759611423146
-7.85553088310491976
-7.82282388944408869
-7.78931672680166365
-7.75690570661620793
-7.72705832168546891
-7.70070549706071805
3.34807482797616363
2.86320463240159384
4.31228877826327128
2.14333989580162498
-28.9294975737504387
-2.92604089751626972
5.55244295671325805
2.99268156910996375
1.93577773092680161
-26.762010041264034
-11.4762675717863587
1.64658320092099775
2.5450021824931035
0.58589600317251378
7.92098289615614704
-2.35499672389679482
-5.42728768014719698
-2.56751502995242653
-0.459581132874423925
-5.90265174367409529
-4.35635634210045364
-4.82321644623820056
-4.01904782026804774
-2.64603170176233427
-9.7068440998647656
-8.21148732899437839
-5.0332284640016276
-4.33997888804671117
-3.68615209253745757
-8.32454326208751461
-7.62191872872481113
-6.22581527660868339
-5.13938889838382185
-4.46121649800001663
-7.60706092732450401
-7.04422095774634371
-6.28204228679292331
-5.59797912729920899
-5.06960656663403597
-7.42530532126087373
-6.95329475921620777
-6.44940171567448495
-5.98513533191069769
-5.58582838614017607
-7.34673844578936208
-7.00690208273224435
-6.65792840377850226
-6.32193366506152987
-6.02122145959760147
-7.36380158157297959
-7.12038247108916256
-6.8712930399582266
-6.62913412090191212
-6.4056104035827568
-7.72810373396248984
-7.59537546400990582
-7.43809935584329374
-7.26652613740036468
-7.09014059158806553
-6.91722513146761209
-6.75485717085878168
-7.75186989871384657
-7.6575967029234322
-7.54927228168850206
-7.43224830468928399
-7.31213448448706771
-7.19407301804992283
-7.08246234404837249
-7.81201549975461518
-7.75091917225590077
-7.68237722401492018
-7.60953878477538037
-7.53569097987836667
-7.4638239692255679
-7.39640487405284563
-7.87916719829405565
-7.85080558829544817
-7.81956178578672834
-7.78735024993414715
-7.75599909705795021
-7.7269535563402405
-7.70114742274827613
3.50801093269140774
2.75381651651506276
4.54040345328429851
1.38387984577443302
-29.0213810843155215
-0.975784376500753226
11.1125992630688799
3.49107189832945508
0.363935450722816967
-13.3531565670853638
-6.03662228592765615
2.19648272765105101
2.67938459249527394
0.338394826206726229
12.8119672621906986
2.7320376644085469
-4.72766018166603619
-2.37448198916697173
-0.649015905791983094
-8.09276333416294591
-3.83694076061560807
-4.80208781835886001
-3.87772171525860454
-2.86853979570574058
-10.6475579172055497
-6.69369280745032658
-4.55779454213455359
-4.14574311359421266
-3.75377020683016305
-8.24570285463341079
-7.8744708838106412
-6.39252033179907997
-5.24935266627360431
-4.55357143417592791
-7.53891282867139445
-7.11367970991011322
-6.37055784938638059
-5.68382748306361929
-5.14364824164773093
-7.43236733544473527
-6.99340268955269195
-6.49335071229718253
-6.03239253142511078
-5.63639436068902455
-7.35469198985993344
-7.02304770561663716
-6.67884534374237759
-6.34972337426286071
-6.05247639178061636
-7.35784059410935676
-7.12227362896856064
-6.879074407577777
-6.6421028988431825
-6.42201398720286676
-7.70279988039001129
-7.57712657638298737
-7.42685773525153525
-7.2617237135812811
-7.09066042367888727
-6.92201781713688646
-6.76280622598929604
-7.73037677986701599
-7.64141282939230848
-7.53824884421973973
-7.42593171295481103
-7.30981697539886977
-7.19498345855634991
-7.08583203150731222
-7.79704214350777836
-7.73934905201087986
-7.6741537713415493
-7.60436235200343802
-7.53311566748640971
-7.46335158132744514
-7.39754089216178379
-7.87170205848971527
-7.84495158768413159
-7.81532206562466847
-7.78457955430265436
-7.75448184413587871
-7.7264266210466257
-7.70132677740108829
3.10010352663300903
2.32056820705261613
1.72287142126505799
0.11821633734493453
-47.366415190540522
-10.7580604352557359
4.13062023704075365
0.307619660074214707
-0.871534509146223435
-43.4661964637946454
-8.02227372323400445
-0.650986542485517461
0.52543374301541057
-0.423050053391152758
8.01135922053109084
-7.42532041178153079
-3.39927637380832515
-0.985828420256529725
-0.715770192935142546
-5.31594675006769002
-4.53331863950139535
-4.39683162213393253
-3.63360912757150256
-2.87796517023826492
-7.8953327136590481
-6.09276670719049562
-5.20313799769292906
-4.21751851901099428
-3.82356923178883168
-8.55273357542174395
-8.15759474166557652
-6.50636466840510685
-5.34537646542867861
-4.63728634743003099
-7.73204641465473141
-7.27961562922533822
-6.44599866730108317
-5.7592700706089488
-5.21884389159190842
-7.42139348774505869
-7.01480963183091077
-6.52033789157143762
-6.07172394669317317
-5.68075555768985119
-7.33512049293482704
-7.01551321907424352
-6.68482607711498389
-6.36639156256619909
-6.07598823230549812
-7.33323967859798831
-7.10946758239957965
-6.87668235401009742
-6.64802720745871056
-6.4336010787615745
-7.66474978288839548
-7.54747830009122023
-7.40595823673647491
-7.24909835003041358
-7.08533595507607661
-6.92265775800607575
-6.76789174044359587
-7.70276015490375521
-7.61951125658254469
-7.52223408867625309
-7.41546957137681506
-7.30425594643432952
-7.19348484411114608
-7.08749087938739564
-7.77892792589849069
-7.72484526491146895
-7.66334626477770442
-7.5970200726782382
-7.52881816740598353
-7.46158115929509957
-7.39774841491232849
-7.86290521904959583
-7.83789435266895751
-7.81002179276187025
-7.78093778845404849
-7.75229642251146167
-7.72541643690260749
-7.7011753520641415
4.19300134756942988
4.1308878327305969
3.9147786982858217
3.88775296010347882
3.05882905052670528
3.65626890357290435
3.65506417904332048
0.201068681356242784
2.56380414049241256
3.35674408023795623
3.4206868036907121
4.79862759873347855
4.43606193867304199
4.67733235880330067
4.23308810305082517
4.80866908860909348
4.55781571845824729
4.03942871862960473
2.19664962140306486
4.30463009095609195
4.2564000798831696
3.79061860571224774
4.80943243148523791
4.3806138986988028
4.78579092708657861
4.21845253738918569
5.74083035744880643
4.87998858740903518
4.10600818880951479
5.49619107131628049
5.63392601336759924
4.78286684505880455
3.94434858794269694
4.52006997634839536
4.19409722853566702
4.33224814771715305
3.96105466238205572
4.58643957541064218
4.15164448568206179
3.74441850920167241
4.77231140886099858
4.43679826928014887
3.97636293168364885
3.5331948872083716
4.33933796149275963
4.01290237391638183
4.04848304717236651
3.7384413083706689
4.0480177619597999
3.77570754369798678
3.47704970855892892
3.86292491384544157
3.74365244170732003
3.50802567846400226
3.21474565082064867
4.16786475650276689
3.8172355529521047
3.80016811855253778
3.49605189521146631
3.67460197195720806
3.459604193340728
3.19001579436024763
3.45357150229931964
3.31881635927982988
3.12633068030883177
2.88426188202482026
3.88600762097899644
3.53589187745734623
3.46441950473623761
3.19399405264022995
3.17140200929309124
3.08049585082298938
2.87721968777461612
3.03823434589072505
2.82847683331769728
2.70518062647598212
2.54582341786359034
3.7405127756549672
3.31965947791938554
3.28415771181322569
2.95580924435140791
3.09782714158032668
2.93619881362180468
2.6538439518204191
2.93501628540941972
2.69478651931395996
2.51520932346786319
2.3223062945559203
-0.680216212592143155
1.42891101103258311
2.61700126864240579
2.88238408103054056
-0.0764140749848323253
1.21973277622053411
1.86006246701241817
2.0024335105052633
-0.300853012797344554
0.591331934228367384
1.08535880858694833
1.1901419626918992
-0.624676788365279734
0.133449876842321569
0.466664843902012905
0.475703660032857911
1.66598575491214573
1.58046288497349696
0.857780089777107957
0.188664217663785383
1.23877996646060673
0.467240237503511402
-0.28305622109376305
-0.791872513988286286
-1.3586536553941837
-1.55646258958346717
-1.74858331691754731
-1.92244524648871851
-3.15760800488365678
-3.0279093291664001
-2.96404035258335874
-2.94928058573118612
-4.23410091876708261
-4.0341861561816188
-3.90026223982368059
-3.81424864197361302
-5.01776353567746369
-4.81492934824032393
-4.66349611709329537
-4.55275073861910862
-5.63296061947118254
-5.45151079072934941
-5.30700590770034442
-5.19454144712954502
-6.13756066737441053
-5.98766565869586209
-5.86320095633171334
-5.76226409330769851
-6.57235595894505398
-6.45641046557427511
-6.35754577296045564
-6.27516219863520952
-6.9635485721107111
-6.88112998103601736