/*--------------------------------*- C++ -*----------------------------------*\
| =========                 |                                                 |
| \\      /  F ield         | OpenFOAM: The Open Source CFD Toolbox           |
|  \\    /   O peration     | Version:  2206                                  |
|   \\  /    A nd           | Website:  www.openfoam.com                      |
|    \\/     M anipulation  |                                                 |
\*---------------------------------------------------------------------------*/
FoamFile
{
    version     2.0;
    format      ascii;
    arch        "LSB;label=32;scalar=64";
    class       volScalarField;
    location    "0.0299999999999999989";
    object      rAU;
}
// * * * * * * * * * * * * * * * * * * * * * * * * * * * * * * * * * * * * * //

dimensions      [-1 3 1 0 0 0 0];

internalField   nonuniform List<scalar> 
7248
(
0.00243066878102245589
0.00225486082646261105
0.00583018508760944128
0.0061006547796427545
0.000173310286954403143
0.000579130988157707644
0.00268034047864339296
0.00453924467571456026
0.00769103938389840373
0.000426918474701261353
0.00150260896548347605
0.00636421712144815896
0.0106417796933997184
0.00983125953752241391
0.000406218670694061073
0.00129448252440906154
0.00420424647304524536
0.00917082411695817161
0.0141870274677675934
0.00969231575131919605
0.0118798192154221226
0.0112202363155976328
0.0153804946314756892
0.0160856056243714254
0.0161440521767822857
0.0158103055796234189
0.0143232513755497011
0.0139999101260671489
0.016290726941380021
0.0190797603598525239
0.0178576690086653146
0.017613045283868211
0.0175159407600107564
0.0183612447140267115
0.0159656580663184756
0.0208337421971650991
0.0220321031282624258
0.0216826085361847137
0.0210898460407837399
0.0211859258543095168
0.0258408399639122495
0.0251643944948263323
0.0233459382886514535
0.0226260902146296974
0.0254962145119184552
0.026487704562389032
0.0272110989275966345
0.0261218006690851455
0.0255686562693656465
0.0264953429281443373
0.0268158509659435079
0.0271196489129325244
0.0271390025086239613
0.0270058271402955664
0.0263645352053811094
0.0267496813407088474
0.0270671035941745033
0.0273325872516649755
0.0275355640902431656
0.0276336619691752786
0.0277133567172320079
0.0268115372878539662
0.0273099338387025221
0.0276273732869158212
0.0278490737256886431
0.0280367634973110805
0.0281838868679383271
0.0283250492926565567
0.0272914378746219426
0.0277270653366631682
0.028095541873694882
0.0283482526699107701
0.0285223460969833698
0.0286775842075021464
0.0288324783576462546
0.0252977990411676068
0.025982102857605438
0.0266240584609620246
0.0271991372244556155
0.0277010457767603371
0.0281531522883457022
0.0285927608374471447
0.00201940257127911993
0.00122912803887830391
0.00498631885507791993
0.00436413278076428022
0.000300680661351541349
0.00136660679037865318
0.00442607392742885158
0.00996398972108781221
0.00987097913179941534
0.000485809647634133682
0.00372121753324155353
0.0108110990099037629
0.0155053496473087239
0.0137014342768103804
0.000395305610189621308
0.00251222058789099534
0.00276638598671621709
0.00566861976131979341
0.00746468918587679837
0.00928139907304904345
0.013133973446162208
0.0094318259357838545
0.0113011873602919428
0.0112341436568089079
0.015003536724065741
0.0126056377734522357
0.0105867723459132299
0.0114158663505271579
0.0136677579147071945
0.0131438051494399168
0.0216104849190567744
0.0179861490718421467
0.0171405094110192759
0.0193640311014983864
0.0162041481634582069
0.0209968861529058956
0.0212925465544616908
0.022704702154034806
0.0218618736111027973
0.0217855489736980476
0.0246088708209339126
0.0250476890304738541
0.0245950994699459802
0.0239250036850147188
0.0249855033788309554
0.0260816742982488727
0.0270593776276476759
0.0265625051465123094
0.0261492384174705321
0.026392986992927997
0.0268407384789924007
0.0272065570376450253
0.0273338129445802429
0.0272826652618140784
0.0271732652382980985
0.0274391442409628178
0.0276519755619897625
0.0277722452146277332
0.0278553232621660887
0.0276769769629763539
0.0279372706749836143
0.0281219249651862568
0.0282620310016872892
0.0283895356566895261
0.0280856978921032417
0.0283724292061297914
0.0285712612151939327
0.028717747918473556
0.0288572363870066122
0.0266175412691144336
0.0271813636509956012
0.0276841236560258497
0.0281306174598370089
0.0285515820276820015
0.00528091404808624185
0.00357980062495615124
0.0074890724366901756
0.00554252283254056018
0.000235454401338687963
0.00134219496117284911
0.00420614587756362821
0.00814343361223178984
0.011290881051595222
0.000288914506817696134
0.000989165361865256909
0.00161668833343885554
0.00182027359943072236
0.00313118504270668051
0.000177760411587520853
0.00150362459975793067
0.00115232651056895404
0.0013097398460498674
0.001253071128343644
0.00481785146218390199
0.00979596920477627392
0.0100848945756633942
0.00799554770287961777
0.00459672173748528878
0.00664469639807683653
0.00945224790176565563
0.0135366448696648441
0.0110920365329011828
0.0103881885035129254
0.0100077816297207342
0.0116791281219313647
0.0177563692357677327
0.0190042289804447234
0.0189968547125039453
0.0152995362675510723
0.0189803790471412374
0.0216814019848357506
0.0244386051832149315
0.0233237246284933655
0.0211047129033000679
0.02375561376132505
0.0255366782629484791
0.0258938089271930003
0.0255495522308583807
0.0247398146366992963
0.0258322732711000654
0.0268728505460014595
0.0269688183201327036
0.0268808599833437294
0.0264737396172201739
0.0269308855820540663
0.0273238455161848998
0.027495918403908793
0.0275098009597046674
0.0272129617093302481
0.0275144965090565741
0.027765046340592521
0.027916685063007849
0.0279931290045458032
0.0276707344273208616
0.0279733637076372242
0.0281906853821317811
0.0283523342389563407
0.0284641842210582169
0.0281011846268596037
0.0283726127788070277
0.0285991364613613387
0.0287661996542089918
0.0288942748922431554
0.0266406400617762162
0.0271852747043906939
0.0276825372086210754
0.0281297928346395838
0.02853953111369395
0.0029627291182180702
0.00419812165485707912
0.0051276820888977474
0.00666367628920867556
0.000365707359529467016
0.00175447287131027412
0.00404335812892820008
0.00835580486022203389
0.0180638043026645004
0.000220671520186699192
0.0010532206020414049
0.00159867868191426168
0.00301593815481807212
0.00568431035318290971
0.000160373327436915422
0.000518469703058416958
0.000667082922372553167
0.00207168702525171479
0.0025726700124013846
0.00397766986064661873
0.0113355652389930776
0.0093277450554225122
0.00943629300482630093
0.00602845814008974492
0.00484912206149135366
0.0101611996233214302
0.011965082124206966
0.0136710170497488064
0.0129337527668173299
0.00656322415940771217
0.0120402333558837071
0.018824394509078371
0.0201803929273912004
0.0197947201283580308
0.0106956329493769851
0.0180054123460195691
0.0222776291414467677
0.0246710972948075043
0.0250488843353615445
0.0199807120203488245
0.0233840850229978039
0.0260416133190651509
0.0263034104666200197
0.0265616114334438214
0.0247149433233060239
0.0258335893600532378
0.0268342860030769854
0.0271983493817086336
0.0271195183023343923
0.0264723301496271705
0.0269691411283336339
0.0273859103687129728
0.0276096183139792131
0.0276217582459539757
0.0271930241681013866
0.0275338713864553865
0.0278234922336387629
0.0280185472493992074
0.0280987176361217235
0.027700015674772465
0.0279829243612783121
0.0282247242857746224
0.0284167726903317187
0.0285368670503421025
0.0281502660380290315
0.0284009357782901289
0.0286144746747285759
0.0287980980550306166
0.0289352481958241002
0.0266914584617630214
0.0272155621348172498
0.0276984749198120155
0.0281400298560462586
0.028544034266102452
0.00440830048250653948
0.00491565562910327176
0.00431707845915216357
0.00612287444972374473
0.000247890458145088991
0.0020467158410311069
0.0061597280128640429
0.00790743930151572606
0.0123061117543698251
0.000271599836056783293
0.00139634168155682611
0.00421081735430270387
0.00528332918562250588
0.00493937764352193366
0.000188808757560765474
0.000339930487334250001
0.000971519666676787892
0.00385397803067429783
0.0048120642176399742
0.00303697168207889842
0.00783040857188019301
0.00676798454668396925
0.0106214042148009141
0.00887194185913485825
0.0039733243750355576
0.00759555760268479721
0.00830198173044825044
0.0107681509806042824
0.0117444476495744687
0.00895217270458444243
0.0126408091655991379
0.0146767702084831843
0.0196995134030966378
0.0218915476646963404
0.0148498253748968606
0.0191732317127530291
0.0228754910596274882
0.0262083796714909847
0.0261486637475824915
0.0214519019508412657
0.0243675865341086845
0.0265702755355522457
0.0268297513385586349
0.0266061687128492791
0.0249854280115807091
0.0261187819967109922
0.0269933056478505878
0.027333587236187111
0.0269886170400529014
0.0264989720944347022
0.0270203301991459831
0.0274725058196328351
0.0277585111895269944
0.0276868896315404997
0.0272837532533749053
0.0275996234417878218
0.0278838442480497696
0.0280897765611973285
0.0281845263763864026
0.0277986727579761679
0.0280491928866405602
0.0282712772345146898
0.0284574998805633902
0.0286020028364855489
0.028234358450429986
0.0284586707251062929
0.0286530381652873416
0.0288215817651150674
0.0289697891603729954
0.0267641388373166221
0.0272662779252970493
0.0277319708200663498
0.0281590815102711438
0.0285558866310342239
0.00467409988643109359
0.00389798590780237979
0.00399041724816183614
0.00477894334450264247
0.000706082780597963567
0.00217838311522893305
0.00388031645905386477
0.00861946093889589919
0.0118811313941438301
0.000271826519251058569
0.00156344931357509402
0.00247560562818457128
0.0104146709442366793
0.00733064537421164539
0.00032286887978776464
0.000714701686145186661
0.00203793473928750397
0.00977241697232792556
0.00751575109078721215
0.0032956836331701528
0.00827203668613811852
0.00628671484038315423
0.00572159949806454616
0.00572380945550442829
0.00455895615173745709
0.00533756072524795271
0.00570601441113127283
0.00686295547398984955
0.00746413779139335452
0.0109011986974935256
0.00989061883140946937
0.0108827989576989661
0.0124077116906979781
0.0150125214488642314
0.0187170833186083851
0.0191456719462421744
0.0207159544927972075
0.0187830370870826178
0.0208897192353262769
0.0232781262180317
0.0251169918749449168
0.0252697067972999824
0.0230093710160064954
0.023963945597438318
0.0256515618063638887
0.0265082066124074783
0.027047989693909414
0.0261618014825715714
0.0261995223216993887
0.0268504322197028154
0.0272778709915743427
0.0276171890055109011
0.027643981906860654
0.0276167569456014471
0.0275081481307463058
0.0277690358876603767
0.0279963855514036263
0.028137989664435082
0.0282317741891239329
0.0279567079835576181
0.0281642402344480895
0.0283503829978553473
0.0285072592791863581
0.0286435518026241925
0.0283453211512405545
0.0285390753733070074
0.0287085831278290418
0.0288567020400212204
0.0289937638059435815
0.0268475933513899374
0.0273277839527316345
0.0277748589736422948
0.028185889602415682
0.0285693628687266332
0.00172955173857220596
0.00202241850206584658
0.00409672500331154793
0.00383068981180272137
0.000253465085427579209
0.002122915233558266
0.00434673507386964565
0.00688677929144937504
0.0111278084167634687
0.000182747250844396988
0.00123459985785100233
0.00261878757441752312
0.00780645542125295994
0.00829627855246492865
0.000107010749187047598
0.000467454236243724629
0.00108943512294431373
0.0138410753647412055
0.00974212992610338016
0.00394786738089963982
0.00299502028974965627
0.0038740195635618745
0.00762203750308777274
0.0073906639752762248
0.0100668809680658309
0.00589655461960641916
0.00556031432531070655
0.00987537667440159007
0.00928884917880327607
0.0122297544908951863
0.0112111986108004314
0.0105944979438871954
0.0184336693123753163
0.0223896882365606856
0.0206929932930350301
0.0214503458002909438
0.020709223889557541
0.0267004154050535097
0.026977890608496858
0.0254590801318725357
0.025701826743958843
0.0264272205299746037
0.0267953877873477291
0.0262924889060755125
0.0267130648078379093
0.027324208897373279
0.0279807330243779101
0.0275892004443655109
0.0271680043678608103
0.0274041639827238559
0.0277694551882980249
0.0279961645867801492
0.027957678400710801
0.0278911574144192972
0.027822255619135438
0.0280197794186093189
0.0281785320593931146
0.0282641596285674555
0.0283195578588168462
0.0281492663973876601
0.0283101116770931791
0.0284540730776037393
0.028574462005957358
0.0286797571919957181
0.0284670596752123091
0.0286293641525387325
0.0287720162858817012
0.0288972598687440851
0.0290154179498361177
0.0269262504690771023
0.0273872331437567673
0.027817017388159955
0.0282130438333009874
0.0285829939267166766
0.00232571164209568288
0.00120096395983808704
0.00789132763252014917
0.00474816874193354811
0.000275758268155396405
0.00119873168279839766
0.00490442365469120553
0.0115286011530952928
0.0150598766113511709
0.000201662835488772399
0.000795729369272739134
0.00250357718813744648
0.00537426791551538514
0.0191981520297192475
0.000130896839788127251
0.000773769043519290166
0.00109906664697150339
0.00382818178828412282
0.00881412781124583412
0.00720182676000837019
0.00472296371043981825
0.0018375656708822768
0.00723534437726618823
0.00855630915694961282
0.0110038705490382496
0.00918244790591920407
0.00450580434483581135
0.0126722086467100942
0.0135856561827530451
0.0110483793725789162
0.0128999773225882026
0.017470938184109927
0.0209190820958147401
0.0208816328661077973
0.0227388429971091058
0.0227098649828021346
0.0246679751472250984
0.0264431187914118057
0.0252781008751507864
0.0264459436212063012
0.0268615719651706109
0.0277774660450626557
0.0286577192948209228
0.0271505571048487084
0.0276569261463513807
0.028037845590031911
0.028642453457460023
0.0284010473028385446
0.0276551521720180826
0.0280595782038246706
0.0282633870881457659
0.0283339504650574336
0.0282349690023518049
0.0280333946207345294
0.028124863192059122
0.0282446980160638191
0.0283300904939626612
0.0283621052099519468
0.0283587132199629513
0.0283011050410505588
0.0284154964233425365
0.0285188757363574151
0.0286048261432875241
0.0286804514246282033
0.0285420380837032861
0.0286755051925778812
0.0287938024847323448
0.0288984949574481176
0.0289997596809870514
0.0269491694518093558
0.0273963469164860939
0.0278138000135561489
0.0281995168283487273
0.0285605800779820534
0.00514034577070745374
0.00520617665693951393
0.00575958887264854148
0.0064068113506702282
0.000418400025880126146
0.00736504528912496591
0.00822749078367508539
0.00754252118496599386
0.00725462306089300762
0.000235665412021142818
0.00293080535516489693
0.00631681176570295967
0.0140278996360515568
0.0196141296360912154
0.000214619658668137162
0.00103789125100321863
0.00161557393893685766
0.00244024116575461674
0.00446389469284183896
0.00214315344495445573
0.00147377865606617168
0.00301875012428979303
0.00466720524299543867
0.00814408698781832543
0.00600878787962808893
0.00712187600655213044
0.0120699438072284851
0.0117227661364365902
0.0137890218795303915
0.0181492332019308443
0.0235168435315386108
0.0220717006033224958
0.0207683454502973104
0.0223283498049031311
0.0234057729414970973
0.0247815026459562888
0.0257914611545053928
0.0256258226745021828
0.02594240890846089
0.0245922047137495901
0.0266417405962664708
0.0281272928444222595
0.0285310778347270325
0.0279295849869575299
0.0273402064672320123
0.0272046053243580783
0.0281596066817118365
0.0284955660150674091
0.0282329759521788293
0.0281182216272370458
0.0279097392560455071
0.0282352630823631372
0.0284346347993132617
0.0283463382793206695
0.0269165207330712836
0.0275631709759904149
0.0280369031089078534
0.0283085836097115608
0.0285518919767701503
0.0286947763653506542
0.0286243628793167101
0.0270034860927426332
0.0276042440885003217
0.0280767013809544441
0.0284500030461827848
0.0287328017929773041
0.028938914699322877
0.0289988847691870881
0.0272860583683015578
0.0278228432258802137
0.0282622629117204732
0.0286124149376973981
0.0288879555602714819
0.0291187004648898809
0.0293255150759714374
0.0254050618019340708
0.0263278518928636192
0.0271291779388461787
0.027813737488792508
0.0283945712146399763
0.0289135144393531385
0.0294357127488301742
0.00915106411259680556
0.0105497039044866146
0.00755164060903123092
0.0166760265946164915
0.000446657530143845479
0.00430362935368716268
0.00953656596557041561
0.0117046677409070529
0.0156572089383231021
0.000741607444628920409
0.00508682283241986
0.0111521614126075166
0.0146295149055591621
0.0137650103439583248
0.00021931123385697491
0.00146547327241037043
0.0062012599744058856
0.0103275758646808151
0.00923474375992480549
0.00616830671627913336
0.0062528664698038687
0.00709931943062932364
0.00997578784196294886
0.00988487361723464422
0.00680124818772805031
0.00868177165245744356
0.00964652243475686705
0.0112824220392017168
0.0125611670125016384
0.0149936355273147456
0.0147010212367823107
0.0182052692506296659
0.0185457445258159215
0.0207358441001444932
0.0223849666765350425
0.0185218975136828695
0.0219822012220501316
0.0250495662985551065
0.0262229423771350584
0.0260416003987587255
0.0232861929832798853
0.0254353617108694294
0.0272682030952408026
0.0274793365289540126
0.0270100141219017306
0.0263024531628097309
0.0274827924182046678
0.0280071201884147525
0.027777928719501032
0.0274244518896500193
0.0275264195003502958
0.027929262133995679
0.0281525794997760544
0.0280868680196304267
0.0266349713433790165
0.0272729666797369916
0.0277717755519645317
0.0280926032159708114
0.028356171349070463
0.0285175608361463023
0.0284829212248084891
0.0268472105546514635
0.0274564512482502569
0.0279446296037886809
0.0283238163535815719
0.0286053535952078726
0.0288205705927437814
0.0289097608479186169
0.0272567115016636267
0.0277799412114819594
0.028211877111816025
0.0285574770367041757
0.0288301166778857816
0.0290594590613103866
0.0292688493877305903
0.0253935412066954788
0.0263055349593632991
0.0271008952199146003
0.0277807802611829344
0.0283595467385632481
0.0288752906289565063
0.0293972444133079602
0.00390205031429263598
0.00534680521067506381
0.00399307782072659805
0.00743955846750130826
0.00180001310847429838
0.00511539268753212484
0.00842020828086066479
0.00597687089647622963
0.00864559733034987558
0.00134173612734096118
0.00219603380862068345
0.00378758837176980953
0.00820627108491688018
0.0120537976321760561
0.000230137341187938629
0.00333584906622566351
0.00657669675570332016
0.0101712892890881857
0.0140667888741791026
0.000607018202214367722
0.0134150442410618503
0.00893585815355162419
0.0113197952319841616
0.0113703982259131878
0.00398182174654623366
0.00855345598993925531
0.00860554746022772037
0.0113246679977906228
0.0118873624840268571
0.0158657996086127677
0.0126434661051156132
0.0166501289450684126
0.0163336507827579365
0.0184952182331582574
0.0230518756777987159
0.0174971379578722462
0.0205053916821789917
0.0230711956488031389
0.0236010763207718313
0.0249191908217351078
0.0219011859305964333
0.0242450030351611806
0.0261504086819511518
0.0262299250649758453
0.0258434296579896916
0.0257716689583382605
0.0272161681813488932
0.0277091304380186684
0.0274201904240092761
0.0268591150284950946
0.0272045476048375506
0.0277379201604921535
0.0279663106398892122
0.0278981766510906955
0.0262861900893467844
0.027061279909956288
0.0275470033004009095
0.0278983074993164604
0.0281764741303903096
0.0283388350765873716
0.0283761629288591735
0.0267137348397207507
0.0273157025211107178
0.0278021159761109755
0.0281709347357573386
0.0284402435399291227
0.0286504911911745104
0.0288140578212249948
0.0272282378131105292
0.0277286784676561426
0.0281463183303942363
0.0284800663873078473
0.0287432899348574605
0.028966371364073807
0.0291762537153547157
0.0253656552414595581
0.02625402166450869
0.0270334929577510201
0.0277018008655117894
0.0282728307509962778
0.0287793690204935296
0.0293001497603951576
0.00740845044616307308
0.00980894554342291725
0.00457468331595493622
0.00852782749491773524
0.00267241201955770733
0.00295121246299576883
0.00651495773443822729
0.0081269047033687182
0.00849706451653507028
0.000973121933800688435
0.0015989502486966204
0.0034700531284371167
0.00583745466390846353
0.0101433436433117467
0.000220508970321680952
0.00246735826379268193
0.00428308652554130684
0.00686402394822015378
0.0105288370157679279
0.0117351415048701935
0.00851338500052535932
0.00653851074846382302
0.00912870130245397281
0.0119904697548000923
0.0102834730288751657
0.00805915007167487714
0.00718895079223976982
0.0115986466091862125
0.0127360266021928729
0.0115477641457269482
0.0118227201146483673
0.0135753106440875508
0.0141568921636209249
0.0166705071985506249
0.0177575716477303518
0.0171151810242651144
0.0216469725979526947
0.0205523807414583898
0.0216776268924346593
0.0221427390588596132
0.0215726283043785293
0.024444800491288117
0.0248144332068697716
0.0248584973854289772
0.0247660011410009671
0.0255646736185835832
0.0271855421497828355
0.0268945244121443043
0.0267857835409937954
0.0265283065579858604
0.0270750021647017912
0.0275909190744062505
0.0276472588769863109
0.027684733968086437
0.026016782584203476
0.0267951143213449039
0.0273704488648042095
0.0277530478357987595
0.027955477785642429
0.0280892099702365894
0.0282344498863788193
0.0266162035583458328
0.0271889029847531931
0.0276557766701298613
0.0280077938457009776
0.0282658609620237145
0.0284734662460811652
0.0286708142581000407
0.0272166265431244801
0.0276850725102705843
0.0280809548881719405
0.0283992349093223802
0.0286519402435889727
0.0288682963177760293
0.0290777237393174195
0.0253318278093865798
0.0261878272793128787
0.0269451918023244918
0.0275982763179536891
0.0281602785694359189
0.0286596879750287102
0.0291752200093520972
0.0100930887117026448
0.0193123018212681616
0.00655150133332258171
0.0105117525933818307
0.00146029726540698648
0.00331353452276699888
0.00477758078936134627
0.00536138216585343302
0.00856434419921268605
0.000548974864350550802
0.00105304815603785972
0.0034356407895762206
0.00549960581406547591
0.00794951776694131224
0.000192699297652458649
0.00112850219712036124
0.00275786154598209408
0.00502733912773640872
0.00803959677284564293
0.00934668889081436034
0.0083864354288298755
0.00567074444778745482
0.00746828799779991701
0.0105596634218360196
0.00745836914236457354
0.0057953874998210508
0.00575990742741719873
0.0104360966359947106
0.0144442646484006319
0.0129348885293625419
0.0105035486379893208
0.00934199448887924715
0.0142040095288242293
0.01697742971647501
0.019459675310885282
0.0191681120500793896
0.0180018235939723922
0.0186635753313805115
0.02070810384782008
0.0239772911099838636
0.0243364114527580382
0.022956160388942215
0.0232794299296196737
0.0237718036814115984
0.0252926942650316504
0.026545494487502961
0.0262166906055033115
0.0260198608316464589
0.0262471807861967797
0.0264829327531515279
0.0270426314451796719
0.027118394958880996
0.0271526661737009345
0.0272959239305686496
0.0258639360881077404
0.0265806369246073676
0.0271056954658632047
0.027452438411019655
0.0276530522679353484
0.0278056591541687367
0.027978585943118299
0.026582375735138726
0.0271071189487163758
0.027538847454844681
0.0278670916525730859
0.0281128610814514387
0.0283157507877439298
0.028516955944239808
0.0272368691553037355
0.0276657270669421022
0.0280328540419767479
0.0283308953566481399
0.0285707858184852982
0.0287789605236665157
0.0289845869339387975
0.0252962208589340397
0.0261213825027558286
0.0268512497434382873
0.0274856033645221355
0.0280360753479506862
0.0285294615524657562
0.0290359099355951764
0.00664687923924677307
0.0172818700487751241
0.00295482796797430069
0.00665931041720192653
0.00062597266027855235
0.00286474427701221245
0.00348100492707528394
0.00234842528220739841
0.00405022860641208841
0.000332058809488182903
0.00172276677910098699
0.00354383965749871434
0.00387759298828090461
0.0056393395651824418
0.000335592281033082447
0.000950769863250850215
0.00204340666195045951
0.00429182139602894523
0.00689718856802072709
0.00797390051553479272
0.00450681764339863535
0.00660431712686811775
0.00796836533891589344
0.0115110118346585851
0.00811226817712552319
0.00460137083490871814
0.00595009465373473167
0.0103176318103646771
0.0141550947085937739
0.016202717715180507
0.0121419094029813508
0.00830347232004373728
0.0119508299662964314
0.0149369736327980875
0.0217788803234725964
0.021725856211076245
0.0174076051861175307
0.0174884060993591023
0.0184335695761506727
0.0247572994526321331
0.0243683748023079717
0.0223649605075803073
0.0222679486801996424
0.0225127772016628785
0.0258310292167480415
0.0261285580105394231
0.0257761990568046752
0.0258437844434574113
0.0263301608434622532
0.0264671757725790588
0.0266765844589402536
0.0267558770976602314
0.0268691626173208839
0.0270578220439348927
0.025855519744111103
0.0264895726614394755
0.0269549078461810178
0.0272634748003452894
0.027451209704189114
0.027602974108405811
0.0277779843422983584
0.0266244435979949741
0.0270894491102323109
0.0274772717084049156
0.0277764602066087746
0.028005943564647251
0.0281983552777739371
0.0283938056039987133
0.0272650263399490181
0.0276797591333845308
0.0280133292675762459
0.0282877208178194638
0.028512020415591699
0.0287092307082674816
0.0289068126992072343
0.0252650001121185047
0.0260672623232928412
0.0267659964613660289
0.027379330454846397
0.0279163806298402956
0.0284015394715639823
0.0288960386094955397
0.00577658803348795116
0.0120195957842501172
0.00146878214926634328
0.00384713278255074346
0.000332656215626851411
0.00168003296333014973
0.00136828064784790416
0.001197459672129001
0.00275224209005313315
0.00104707752956296985
0.00226536567601774578
0.00412239604059033097
0.0043303166850000201
0.00621109110274142232
0.00128300895501456459
0.00275783108474527295
0.00456008138719471694
0.00787979972850326622
0.0110498583920544523
0.000782005487264683902
0.00206418701764789648
0.00679350791084282202
0.011572865914349053
0.0126257114257985782
0.000503104952965217575
0.00171753224718515008
0.00582324760373343058
0.0118365849039841712
0.0129930601305690112
0.01363235499725759
0.0111981747635241397
0.00979899164737510313
0.0124713610942386172
0.0143032479567782693
0.0214699037829151271
0.0202236601852585525
0.0166496642328979906
0.0176616653118898022
0.0191068016470791677
0.0252149161930435954
0.025507014631987613
0.0224467398620667828
0.0219787470718200463
0.0222274239643200505
0.0257700390142824969
0.0259484032493919707
0.0259276345675224888
0.0257494789373143816
0.0256257231843926292
0.0263288497556189542
0.0265751966472737716
0.0266737634649468619
0.026703420117703186
0.0266587741822185004
0.0259723123457964271
0.0265062817427523731
0.0269148142504370101
0.0271986631075188841
0.0273696500936049733
0.0274753477777385756
0.0275871417311533244
0.0267390987827012261
0.0271367520730745292
0.027477457838261922
0.0277475875108878917
0.0279589401432894548
0.0281300157431118233
0.0283048274621921156
0.0272686443756529895
0.0277237990930652399
0.0280273294990140628
0.0282768351349814012
0.0284840296331211815
0.0286669097193188761
0.0288515545550676114
0.02525089992826118
0.0260216883634519017
0.02670099690405979
0.0272926052506426188
0.027815299494807353
0.0282897032916725084
0.0287686260908039428
0.0114660166392675927
0.0111793308970112998
0.00215543697083943765
0.0113952898491086699
0.0001896008246140522
0.000662568028678972489
0.0011434107932698672
0.00162953179664551023
0.0035397121782159242
0.000427167844844866969
0.00142515860452764663
0.00878716466788946257
0.00773586928491470319
0.00987568164769703216
0.000300534260497992731
0.00211676277713846112
0.00821685490272128227
0.0115518409946653942
0.0132602924643920247
0.005264371028960017
0.0113784518065921207
0.0104248984986076102
0.0124551052759126653
0.0142651306405708334
0.00288145868718933619
0.00413534315677965662
0.00829736840903766426
0.0124646027975106616
0.0144081508632089121
0.0136203113474625617
0.0133116031590557824
0.0158416389496568721
0.0156209157303107745
0.015239852249876536
0.0194107119342181444
0.0219592684105275084
0.0193467032525566594
0.0193799572714454527
0.0203752103567195163
0.0238673963281082133
0.0258967305040267125
0.0235478915595045968
0.0223841741644990773
0.0225238669364079026
0.0260380875909178994
0.0264678232791027215
0.0269465559219976246
0.0259888057543946165
0.0255262397981025589
0.0264113198348308875
0.026742034015948473
0.0270043142906609725
0.0269848073324739333
0.0268768382194297731
0.0261827391221881346
0.0266052384382943173
0.0269687156699485418
0.0272461420100337491
0.027441074075362417
0.0275329868468813868
0.0276266509120086344
0.0268091534968838315
0.0272376875721672546
0.0275326559847172483
0.0277787835101274694
0.0279780211189081321
0.028133912545780123
0.0282910810443218995
0.0272675594556274631
0.0277397675795083426
0.0280743772641474029
0.0282994261855914961
0.0284897467250829518
0.0286582774933784659
0.0288283350253745289
0.0252606570782709858
0.0259886205045814674
0.0266552077161392904
0.0272341316497880827
0.0277426277966497346
0.0282056415395551159
0.0286658306409299929
0.00881803493485136536
0.00961588128493652029
0.00832137887629984599
0.009390212914755015
0.00678292142696330057
0.00801076656281457522
0.00926006653104053355
0.0046303813665136773
0.00565167549016874077
0.00797551134381154457
0.00982136938110289917
0.007798561976409598
0.00916201978192262081
0.00744814039822015283
0.00907601830553326702
0.00500783049868447697
0.00689792871955377963
0.0088308558424545526
0.00355940109313550518
0.00506631739302342531
0.00723938292575793466
0.00910299269996778411
0.00869009908471502293
0.00985280721968883472
0.00941308468954189098
0.0103455775605294578
0.00628202921383135861
0.00823526510495424871
0.0100964174585138396
0.00332490992044871076
0.00519673464184303938
0.00726900032708903496
0.00951389370382510827
0.0108083826000540551
0.010971833197981869
0.0124542565334370622
0.0119570394913365869
0.0116855877912596124
0.011920234777939508
0.012164774094297906
0.00957050011060091299
0.00925938338572799766
0.0108003526545809407
0.0120171508143320453
0.0134117300695917162
0.0121330884411131931
0.0138563694414517904
0.0133705926320064651
0.0140369993230231062
0.0132357558769061554
0.0134991001323611186
0.015352848478495806