/*--------------------------------*- C++ -*----------------------------------*\
| =========                 |                                                 |
| \\      /  F ield         | OpenFOAM: The Open Source CFD Toolbox           |
|  \\    /   O peration     | Version:  2206                                  |
|   \\  /    A nd           | Website:  www.openfoam.com                      |
|    \\/     M anipulation  |                                                 |
\*---------------------------------------------------------------------------*/
FoamFile
{
    version     2.0;
    format      ascii;
    arch        "LSB;label=32;scalar=64";
    class       volScalarField;
    location    "0.690000000000000391";
    object      p_rgh;
}
// * * * * * * * * * * * * * * * * * * * * * * * * * * * * * * * * * * * * * //

dimensions      [1 -1 -2 0 0 0 0];

internalField   nonuniform List<scalar> 
7340
(
11.5112825670143817
7.86758707725434903
7.42533359882518429
6.7933284243049572
6.385959694284014
6.07417727078418057
5.96403343823030241
5.96362076794366658
6.00192676510068157
6.14372471109574381
6.85178231064065546
8.41643809949158239
6.84064093167000031
7.24610628332596818
55.6173153193965462
898.141618533790279
7.30646359904431986
7.1403386612278803
6.96083456470231354
6.57523274560637017
6.18533321447663376
5.95126346065423562
5.88080280831895763
5.86738993414096033
5.77802118007268461
5.91024865322004089
6.71797181537113897
10.9982601805845004
4.53229535278077478
6.20953930280422561
36.3875971386480757
975.594673146188484
6.47526729978547078
6.75579241527325269
6.70426176771716165
6.46437897926898852
6.1328147398130195
5.90078936563562895
5.81537431520900672
5.84354381193289818
5.67526097569446808
5.8044434498363966
6.89421752509381758
16.8475418253326019
-4.14943182738172389
4.70641352061287677
75.4921907035028568
1053.98326870080018
6.02994741118390554
6.52251323097038149
6.69520384576449334
6.5232385234926733
6.11416644368825501
5.85495983170745493
6.31396443903970894
6.1370503570824102
5.68627889019124222
6.00046382721709559
9.01957984749193464
9.36581236366395764
-9.31979224493548841
4.92705484781194336
172.064035744160691
1135.06386654793755
3.12336006165425051
3.9880291065781539
4.92930478852476117
5.81454461932183353
6.48302362970229495
6.69181298183521722
6.49154577746961703
6.10278133986894922
5.85574759155685065
6.43018521875626181
6.40771420558526739
6.44759766517032062
6.37013674169605171
14.3227378710748638
25.5170812831068616
-0.705312204556615141
5.48233334107413928
247.480970240448158
1215.04732253655561
3.02983424235041321
3.81234591937937228
4.79053585076014965
5.68255600196631683
6.36576131293961378
6.75884439175368357
6.95925804812146431
6.51225014393982438
6.23891077289684581
8.96838173375904191
8.86309359991503776
6.52476814394508953
6.56429390218959252
9.11166972522921981
66.6318397911601039
0.327942378455004735
6.32260624947159311
232.525896065001803
1282.6206041897683
1.58192311018986276
2.14855121823254747
2.91240051476132455
3.76458949754241301
4.6066708258643132
5.56909602009885063
6.29066890249656563
7.39682702211404663
8.5886831193258395
12.0539131139866722
20.4278609046838291
21.4825311674638009
13.9505285398695182
7.36717295257013038
8.94469289432660197
26.2210527107173021
153.953034201767878
7.17141658961220685
8.14596856255727708
190.311340696475611
1352.7976286704029
7.93873281856054458
7.43705818114723449
6.93653441122534886
6.64921486210262813
6.43205499308106443
6.36363070781627727
6.47132057699602115
6.59716312685206407
6.87083808121851813
7.9022034578818543
2.91937683529799852
22.1606966584829905
2.72697153138567305
41.3807434824975431
961.794965257191961
10.2439911037547802
7.04041400026778685
6.84533882523253467
6.64510061447631895
6.38656456711125031
6.23162559665643112
6.23757152306905649
6.32824745067291161
6.36612682236555472
6.57106729562811331
7.80083635236858264
8.13209530794681967
31.124314070561752
6.00903284828534368
35.8373825275692255
1042.47937751455561
6.46894534647512387
6.54788352368989646
6.56336101809948769
6.43156701278190379
6.25036176126718068
6.13512431031594208
6.14891517882197469
6.22354516065095797
6.2216112001930286
6.39134861377806907
10.5052443972427394
10.1878372122054301
40.805296510474605
-2.20126585195394719
84.6810044678829996
1112.13811052510869
5.85902838131256232
6.25897571195541502
6.43528101201733538
6.38367687681801144
6.22149699851233073
6.10184153099348503
6.065821248411436
6.13469059535565986
6.15557367180079407
6.38131433875091592
16.9765704765655769
33.2810456740915441
18.8504007354238645
2.36062014003733811
172.524090395814284
1193.70261148601367
3.08579116637375872
3.98867581534326288
4.87768642776363848
5.60611640796166988
6.19721286961466067
6.48787589077428173
6.42065066476366209
6.21922608265792398
6.07236899386065687
6.01998813817747358
6.67601856902030466
6.33335312959625174
6.79500516285531209
9.98698168773221084
59.0381107292992411
44.1016401006351089
5.63914865143876742
391.215737422586869
1268.96654644111186
3.00808968712391289
3.83786939681847672
4.73994956692672531
5.58055095883178787
6.20750848039841863
6.52031856787760766
6.46281344431736926
6.25365087471020509
6.06599495254551879
5.99947092207592814
7.13777190153476759
6.61882415748118635
7.35827950144044607
11.6460089233930955
110.890593414278641
93.9471115225559998
9.91076851690819183
323.920027821888084
1338.22135351479733
1.54421370268016922
2.16067293456674081
2.95504920561937023
3.8133884092014978
4.71775877285954692
5.58008901407828972
6.21381476072233152
6.67696048823740007
6.8457109608101776
6.61277157363082591
6.35527927508461499
6.22031712055097596
6.9902201051474071
7.79802813628435398
12.0925981164980509
52.6627685085059838
195.139337046375971
280.668120350527545
5.5118961312781245
141.586975068608012
1393.71436632119912
7.7343962521588665
7.05754961527397295
6.82641304716111286
6.69522706508138565
6.68309762273021768
6.77232071965362259
7.03664405355198674
7.32896983587482787
7.82289710580567288
8.88216698242741387
11.6427242956871879
-4.78840629903274095
22.0407306170404489
146.710954143083057
1062.6808438935509
8.56198419310310221
6.68372427665027047
6.61004062183452668
6.53449013765857778
6.48554046722982402
6.47134647367714333
6.59841570761416651
6.84289932449271454
7.10697281926554858
7.47918254980005326
8.62338720551539417
1.37916569612021345
37.3931878334847525
35.7118217186298921
100.87123368015942
1135.38853399786763
5.94294592982335956
6.27894750016107661
6.37859092351106582
6.3704868665984451
6.32525754938174778
6.34470955656392377
6.47095007055970672
6.69429726243153311
6.97093864552112219
7.34532973195326022
8.31480772901161735
10.486688976536195
84.2325603708577688
72.6317833785159905
146.671452753160509
1205.17604905902067
5.64498436402285098
6.04020898211794943
6.2488711333140996
6.29614466273260209
6.27599257087856177
6.28518691048591815
6.38201234879742518
6.55810702840212567
6.78409089077168037
6.94227134891035824
9.17486651381918072
12.747090184749478
98.481347579635397
116.123668288676427
371.46521664963268
1279.63632472729205
3.04249734917372638
3.92433535848184656
4.76195637902676339
5.42416876716918583
5.9390140171108099
6.24153682701073986
6.32054994643444346
6.29393845952395026
6.26577318662057703
6.29982570633548278
6.40368078841782751
6.51833909164173075
6.86309414379665306
8.02500722769540076
21.4122452248749475
117.985415067191568
321.399655696917421
656.989102920406822
1341.88833731775662
2.9650583794675045
3.74491120619914364
4.56664653327170544
5.32920747431662978
5.97220310158249656
6.35675107538372686
6.394663880573626
6.30579471778698775
6.2544638432170947
6.27278580224789017
6.36903357934283765
6.4787833217763442
6.85769036411254884
12.0500291156647492
56.0725366250017458
251.1783001820815
262.27763389719172
854.806907974716523
1383.6090923964166
1.48020687329408607
2.10304117833912407
2.90677718767640947
3.72466616394196004
4.62926613326283132
5.4410065000240051
6.01935909201873631
6.32596546258303594
6.42259563731785299
6.29347432735502554
6.25252461771940027
6.28767698870726388
6.49295545058729573
7.06345553427266282
9.71335646081423754
20.6867452625502004
201.28225271290043
443.599691672999995
26.8649741308868606
265.887398442415417
1481.52086130203452
6.94595201165890153
6.62866553245538359
6.78828263826992107
6.83215433961789831
6.84508174491708576
6.98558162183237474
7.25571652976162884
7.6219409030175127
8.08761917026693844
8.8830632212190519
10.1784452518607544
7.6346629691317478
0.600767870613792221
131.224941453457632
386.262655430454799
1202.23447697044367
5.88023932435470442
6.34644087371297605
6.49756774810153281
6.54803569615961489
6.61927939818481992
6.76518863431055184
6.97266398783980978
7.3499817844287314
7.93494831988458493
8.76602816068887769
10.5001709654921171
1.54340477405357546
31.7424707299992868
486.774678304026281
401.773573931782437
1264.75971327683624
5.79898518811900043
6.13606358910275063
6.32323366866820802
6.41533470653531435
6.4768352930927966
6.57218323208780042
6.78722991844246426
7.2256266117414123
7.86759649323013477
8.60683580571867246
10.3958305453025481
11.1820403515670836
28.5139417018361883
583.846211853436216
753.557030296579001
1332.23754164947991
5.57752280864570693
5.95694605365513041
6.18182216427041364
6.29742345004289206
6.35686451227722227
6.45664839137270441
6.70416977732368746
7.1149155766471992
7.74916670979291933
8.57790488548339702
7.68311618784323702
14.6320280547894175
48.5391401382159913
465.385737769053776
1138.42529528479486
1405.97819723117641
3.13499107390792275
3.91888185357398688
4.71371568510583128
5.36321272826432338
5.82820619694538333
6.12651483505353145
6.26915703727126061
6.32429768469779408
6.42219313425965854
6.62142290529446687
6.9691776349189567
7.44750742184397385
8.05261792834468615
9.00384620779781741
14.2677789397380792
63.4472260041007416
901.278977327272969
1215.56169227158239
1468.89747061400612
2.93113358860885365
3.70243126626565822
4.49491129134366041
5.22216064241579048
5.79138453098636941
6.17373949170721126
6.34066379747630648
6.34879708992326641
6.41766072743797711
6.59992263219607178
6.89102441958004519
7.24173298277863431
7.86105988240865816
10.4097254035066893
26.6382469330394898
135.593583967893295
967.747661062168845
1255.69951184509091
1506.72503104176144
1.41210420754563093
1.99708166464581738
2.76723272841113577
3.57381479032359595
4.44991287857286544
5.29495067809418174
5.90334864646590329
6.23944189287596274
6.34375749566250402
6.35677549370333406
6.44302942359922248
6.62740147109493893
6.9631881779037359
7.66113303372216681
9.21250420073102916
16.8608633820279969
42.8928228897079578
320.451230233920455
911.318465788524691
1123.39857425301193
1514.79448062151414
5.72790998293227194
6.22662741910185957
6.49719750283113751
6.63984844440770505
6.76191402315111834
6.88054488108429307
7.04565345539084298
7.32240704779199714
8.05245799434841203
9.99981980246918845
13.9225185497143418
18.9065507180403358
79.2472187961916177
494.657156316949056
1105.69217095615431
1357.15130861549642
5.46081304601668904
5.9776587351702295
6.30262384811442633
6.48115869221022756
6.53372046973167553
6.66299454116994472
6.84907200937231853
7.32246310949591361
8.38467061658028179
10.7733847784143375
15.102954401769022
20.222589075838858
32.3878249765180186
920.332518897716795
1195.83957113516931
1376.53834517247628
5.48025450247673174
5.93129831336828506
6.21443867159795982
6.38422734438708339
6.47755471518834014
6.56580836400701884
6.82260729609455296
7.55611363707869099
8.65193520459222754
10.9573121609909805
14.9275841415232566
13.3449064207325883
48.0757492460623155
766.064547927533795
1248.45687643699853
1426.36859562506265
5.34237095068136991
5.85594036409669894
6.14877324550148341
6.32785193176005922
6.39851355625233165
6.55915122268654738
6.9589932115881119
7.72367378819438244
8.99472140669464792
10.7796708199872526
13.5619391040360462
15.4628025494237669
44.8826278224620765
244.660502456078461
1321.70018131709867
1489.61942515653573
2.97493065799646406
3.64510621478384245
4.38179021948503511
5.111332742052908
5.68814826004602114
6.03344895001612702
6.24470152655880462
6.38231361980875533
6.58564607743047681
6.97246064013157785
7.67460037093724878
8.72752657514968
10.0833481915970111
10.4100129935662569
14.8038956066755016
58.5449090077358747
412.99141586504453
1371.79265867821937
1548.38199281073275
2.71181472442949989
3.43153533152327128
4.16303116334144541
4.91718712868287167
5.52384014320717487
5.97023205922427014
6.25984331160860119
6.42985365940044939
6.61695036238103818
6.97767461609721895
7.60538404149152658
8.40382943187146125
9.3842854825669022
10.8232857227374577
17.8267712428933258
117.761636875505573
1072.93877069219525
1422.46717567288761
1607.9816600784668
1.35272080237300441
1.8700044166065819
2.50688156490214276
3.26618485151620863
4.01443778627085823
4.7677429545221548
5.42640264477603829
6.00804261584464694
6.33991571400745535
6.51115692427562109
6.67160335251016789
7.01882305790387395
7.58401836987367517
8.33517982823927106
9.95788599816481401
14.58694319637031
33.5837916312276832
153.847197723517013
1343.58794714273699
1476.128322030258
1667.42072421616376
6.32832360473543876
6.69737839429891402
6.95270390774570668
7.08909004457535818
7.08717776859917326
7.22840652726887267
7.81609592000028197
8.9688847729949579
11.2748667255351389
16.3924788043515264
24.7247440634622109
40.2059177583159908
77.8654808521218769
486.269453780917388
1243.44904188807436
1494.97006513784822
6.09636779841041321
6.5616368112526855
6.8656768909760677
7.02831287554026662
7.04357210909561537
7.14501171424821635
7.60437303053174585
8.86969874621552101
11.2047449427633481
15.4640812013484972
22.1541849570852669
36.2117995825404364
66.0133041604526198
756.296407644761757
1229.74174424257853
1456.80459060930684
6.0126270008272682
6.42335499190102244
6.71661530872222645
6.86670785934207029
6.92298413597937579
7.13947577729824445
7.56129764243990099
8.64595088953370272
10.8074698586737732
14.6181260576473413
20.1598285821326826
30.0095131720108519
49.3673375252969393
416.260270670917919
1147.77353195290812
1449.99195736018237
6.48585008658586659
6.14823854688346394
6.44987147936382499
6.56368617928937237
6.76292243006228233
7.04091154358723426
7.55832354937057804
8.70060124009356528
10.7574884158446693
13.423884770812414
16.6199435771632054
22.084682358365832
42.4661891534514311
88.3867553731377598
1161.33805593073907
1522.07624879292189
5.53353850069375941
4.90738521626757329
5.61345881317330342
6.66736199101598004
6.06959156814991463
6.13996668957069325
6.36803239974825441
6.51910851224690635
6.90192244109973885
7.62964163763350722
8.43968428610517307
10.1237336059983853
12.2458597253091295
14.4004739567913163
16.7709452328242357
34.7370335886468737
114.332833700970824
1452.79623895988834
1570.83730758923616
4.33556119403072238
5.47218744567367654
6.13205228264784452
5.67042913963077222
6.51532565423083021
6.56066692682559527
6.6797630994357311
6.38019537496369615
6.7839281096636439
7.82293432651476284
8.14930159755805761
9.45410431797002815
11.2431523035267489
14.1835903180284113
17.1015677845235885
36.9691008989282821
145.219750967547299
1519.23596909559069
1623.33608922586745
1.24870678697746507
1.72397271917443184
2.32244984647341468
2.97897765360594002
3.80436848433794816
5.10863261918649947
5.74799691108814059
6.30211783800057379
6.15206258809814699
6.4170604168876304
6.75632141028881783
7.45812717268316572
8.18753063808055614
9.76997040469042588
12.2141734490909624
16.1600019492127558
20.8472290215878147
53.7503257998718738
311.596470680900325
1595.69971987558392
1680.78197283834834
5.95480550893130722
7.24984151105465724
7.89665308329312676
8.26905834297595987
8.97138476092021975
10.7979899965409025
12.4281504935382756
16.9679053572537732
22.5055270167890136
28.9899196345320469
36.7133763404587441
49.0680928801597673
84.2074898435157593
162.428338887359075
1199.67212637008038
1571.33403832054228
5.83808897876520838
7.02510395322000836
7.33922372910512966
7.6129237384378019
7.92039618714875182
8.3950442685765303
10.0581637794530661
13.1380626285479369
16.6700552333291334
22.3139819857522923
29.755396063669366
44.9485692693394796
68.511905542910398
124.241650117861539
1175.40342265503864
1439.99129739010573
6.50080924141238103
6.8792917447627806
7.14581808609921598
7.68770008932408722
7.98478843924298065
8.26991070740646883
8.81790815838387054
10.3791212551306913
16.856033056513926
24.6411254878822064
24.23233757912584
38.2166469666681508
59.8812948633919078
121.042535532243051
1019.03489688428817
1280.79496793928706
17.5460445260066891
11.8627284553007382
11.7236795102910918
12.6486472682148836
12.3620489752057523
12.0150088218516711
14.6012039590541427
22.9860572736131701
31.4547454918806544
27.3088845642131481
19.6534700245634788
27.4774129821695965
49.6556895856818983
90.5686072731375162
497.265767753072623
1457.9095073285946
6.16194832702722461
17.477918763671294
23.6498434675286688
22.8679849863369391
25.3216591608819606
19.8500349025603491
17.1417332977010446
17.6378637160684519
20.4860390352732153
22.7295047134086232
24.0295717977720678
21.4113100466460473
15.5534741041765479
16.6968424783698559
22.4732957892364773
38.1295802934602506
65.1063925912784924
186.289473155341625
1500.3863552397911
3.34327063938335067
4.71011742432147695
7.89587773996476816
13.8377703777161898
15.7728775955446814
16.0503921297851448
11.4119031559880781
11.876984825336331
18.0829542884459542
20.0624396844073125
19.003907095534089
16.931377325381515
20.5848068189984694
19.8113619305918611
24.9142823704727512
35.2892853405222837
92.5164058044847479
264.272425685949429
1558.96927435207385
1.38306017533907921
1.94336199082655781
2.59509687076654005
3.26483400186130091
4.36222754492786535
6.88308334707741398
8.751462551664142
8.66788911182529276
6.53758028678437952
7.14777844776231674
8.70134578916334789
10.3595850772256046
13.7395094237911906
18.4948672926037112
18.1233087507451174
22.7106565390655959
26.9932276818244326
33.156467885769608
134.280976801228235
890.550760652657118
1640.65381855403575
-11.5330601821868299
4.7173963201843554
5.75110003357844146
9.52213282567271868
14.9986777274065179
19.9918936300234584
26.484430748924769
31.5566828242973543
37.5402989045854412
51.5611786519889037
59.4041970426254835
62.3646063809888602
72.2465437426001245
106.307937550153028
1044.62618500395274
1553.56254526511816
1.85001754565808274
4.47404467827243746
7.92244879123559098
11.3016485757942
18.1612906896779052
20.0107041735178797
23.545669265570023
28.3909674435807489
35.6030541624195749
57.0690207433460515
66.4752179510409036
67.6639965869744771
68.4262917487107245
76.824266327824219
1025.01460722230399
1430.52788652372215
7.82669537421457839
38.7571020759707991
51.1643399148836338
48.7450184826914779
55.898166649790717
57.2965399337278285
54.8473642055000639
46.8124151423965813
57.3204109190200768
61.1657299606854252
66.9650387928800939
71.2748019339313004
63.4687951042956655
62.6101495047731973
828.055973633123813
1343.03957720707513
10.8338104694484034
56.1119561668267011
59.1273376785093419
59.8398033227709263
58.6916005517106214
60.5726432676122286
61.9685864328695004
61.9637930665881527
61.3705258935075193
61.5257397095828082
64.9641019492839433
66.669600777585984
57.0947545070376563
58.710074045102445
370.391261786846314
1337.9678665378301
8.47296368527204002
11.6118955740624337
6.73776989896461842
6.65221538687667291
34.9840784095954191
62.2597540593648517
62.0081871915434917
62.5190533150750483
62.7681778008068036
64.1766475802929648
64.4151681475247102
63.1275696111385756
61.0916532809085311
61.8185576484005068
46.6486255301762682
52.4182092470926619
56.348056854800987
40.7827923221633242
1284.39933043855558
6.86902845551925001
3.65375901634594946
3.97617590947421284
5.78370547251531786
9.37756875867272122
59.1406930533945783
64.4424932472416145
66.2342513663896284
66.3958584021793854
65.6169680060924208
63.5196952912083077
60.8044471290635187
52.3167164347474198
43.310131132195643
36.9956735878784855
48.3237477464841945
55.6509525221283994
38.1599791062500913
1084.55613507066482
1.15482638000416005
1.71723615061343349
2.38323054835395309
3.1063420734678262
4.20961001175543803
5.56327566448564959
7.79096228243178679
21.8218212383287309
61.4286234796216135
65.8470989866760164
67.8345631667821607
65.1111356491146012
61.3165276655956575
51.1700569962967506
31.2915797676382041
29.5512762493061594
34.2431936658875244
44.7069590166721014
55.7363897209025083
60.0870153100641815
1398.17081021929675
4.14937588041832761
4.4648290399812316
4.66475886411632956
4.72934960093152235
4.76727454141549689
4.83370209665049799
4.92129459029510841
5.02977665270458463
5.1514398267771444
5.2703990727566552
5.37643857184085672
5.47187978990487167
7.93838831686903834
87.9624793271433418
940.606725906262454
3.7214387435499745
4.12436797776233455
4.4585920889551387
4.66606356885109808
4.69921535440025639
4.70983900477055695
4.75909314531347061
4.83975883103629467
4.95012657541227519
5.07976587200452823
5.20397489685178627
5.32019140992697803
5.39008707877450455
5.45507836429003934
140.936300181355762
1019.59564745786383
3.663569065914694
4.09132270248226337
4.42434151973876233
4.6199010725936418
4.61127542694525872
4.57682482987143935
4.61164193839243985
4.70218644141924536
4.83367858980907794
4.98317292622868813
5.12536360397701074
5.25824668024153397
5.32162209080192916
5.41194477245804428
198.186549973574529
1104.0099848146665
3.5944486623645453
4.01546586442254494
4.28929679003299746
4.41087931960014767
4.32713322728998584
4.32028017417620536
4.39521997351697191
4.52441743184256762
4.68601154776258344
4.863180942186621
5.01916179820792419
5.18731319141926939
5.25616571779146469
5.32910273653351041
197.03089873634238
1187.6572925227083
2.28293930800074962
2.65088638355373085
3.06396161493572139
3.49463936107307216
3.83848000089131558
3.984425108685552
4.1343636047391934
4.0155446793432219
4.03339486043487394
4.14952996982557298
4.31788716564077468
4.51724829712415854
4.72976723902025764
4.90940606726521889
5.11322113175361359
5.19782390123707128
5.30782593765353461
131.798781015002277
1272.47087926658037
2.23221989500174134
2.58241222546925542
2.9718341611239194
3.34268622253144843
3.57540756336483811
3.64658740154666061
3.55353323674837762
3.66183659291249874
3.74011138110915065
3.87836862363667745
4.09759694498652038
4.33731661936135371
4.58480677630191913
4.79469538263803052
5.03796088945555276
5.1567359724236157
5.35572850459229777
142.799804490129276
1355.6610514104857
1.64993746612206738
1.89859561657388953
2.18472477226536599
2.50570621578800656
2.84424643913541519
3.13136706009294707
3.25253432139543586
3.18980928333348679
3.07802467653560718
3.16693134848855573
3.37276957962609503
3.61199361908891481
3.88207129518200533
4.15512927951319089
4.43318629001879394
4.6746247782883934
4.95416772944901318
5.14534370439414612
5.25032917065729432
228.385405756798718
1422.87041348544813
4.0716933593058382
4.39316422891331371
4.59271142223270612
4.64879255507688161
4.69667786228519102
4.79448229957511973
4.90701592812540976
5.03688311175463266
5.1778062409664587
5.30969127063072754
5.42400624437052237
5.54876266709445254
6.72005782786265993
71.8532275683732991
820.034246677245733
3.61196550336908251
4.02705759553970655
4.36861002498630047
4.56549057771030142
4.5881937264284014
4.6114579883402147
4.71299933329042187
4.82062441914287554
4.95102435908628724
5.1009846966830148
5.24336246246615545
5.36618888409025274
5.44843365911090949
6.14738749000158347
99.1851358416608662
669.439599736506011
3.55426552583510658
3.98347619250316942
4.29326584034018044
4.42642510732502092
4.41739125659129872
4.44444420734353685
4.54570798171821622
4.66972471995720451
4.82343860603855834
4.99764964243046705
5.15682699205251094
5.30363285800809781
5.36757917910868443
5.55616315908827563
125.476371302862248
736.748282627036474
3.48633798249667848
3.87179594238366898
4.05329721189837766
4.05066663442111619
4.02540135784299835
4.13563998644329267
4.29028392627192279
4.49056590397030142
4.66487076235822418
4.86847607279825745
5.04886155162527395
5.23700599963305713
5.27992455891065759
5.51934533670796945
76.4454084434717771
1152.29538636883535
2.22959316525865248
2.57250656963740765
2.96638352507808767
3.36891259787564978
3.64249578362545545
3.62840619981351376
3.57774907837165657
3.84489195839883058
3.90176823832105191
4.05759763768958326
4.25322076632532298
4.4857863781429792
4.72467310111399463
4.93103495912364309
5.17165058437666403
5.218609743387435
5.57597116089185363
59.6468655297761572
1242.85156685236871
2.17591961438792625
2.50543838116522766
2.87289699686756395
3.2060129911470292
3.32405602614698825
3.26779006038576947
3.29226622327336749
3.54067476656257885
3.72060575883858347
3.8158123763900309
4.01726351754089883
4.3012022105216241
4.57472478520336345
4.81089755408527342
5.10123000947234129
5.18363766786624058
5.61030294935892737
149.895909592922578
1325.20700207330424
1.79846009605403401
1.86516331184575468
2.12343376636824033
2.4259332283825592
2.75064068973218978
2.99794618264092705
3.01878330659187677
3.0538645627194847
2.93890531829139912
2.93058880332230043
3.19567287288864454
3.49446209621712711
3.81113189109346395
4.12081008062602905
4.41953082159702149
4.6918534454751315
5.03834126959637452
5.25965889565100753
5.68010145290111179
180.844352220615235
1362.59586080400459
3.71848110852332514
4.12128710814645061
4.47547106733017142
4.69695423435002013
4.66930499273937372
4.65765378981116385
4.75280319062858236
4.88402266427099185
5.04964212710688631
5.22609317613897861
5.38752427266432399
5.53885563955166482
5.74743835953021431
6.37757442329558444
71.7410751640453555
836.84682096001427
3.61978992487475582
4.07167877590408889
4.44842575480885305
4.93737050737699867
4.94542374196331558
4.61325509606723028
4.6334856484887359
4.77932571335446177
4.95209511353828002
5.13871272791617439
5.31671268636658212
5.4841685740105941
5.63318182751331253
6.13428146655295059
134.954302913270766
900.047735455310317
3.54174532213019155
4.00202183968254932
4.66680862948204833
6.00558187428032131
4.90718640788733484
4.27907840179739285
4.42957756796342839
4.58832498126177502
4.80925085352780535
5.02121447392741693
5.22185265021345746
5.42190181346836031
5.47456044632133132
6.18968594510035786
177.070835164688845
913.211234360525168
3.44003966797625527
3.84357315062984828
5.59350373424869396
5.52131836217174499
5.02203834805198657
3.884747257848014
4.13642975466153029
4.39283800978293559
4.61502081816495657
4.8748263160456089
5.10219724976627997
5.34950248646821969
5.46342804118811642
9.06875937301522583
53.4140695208039205
774.267768067972042
2.19044529321464054
2.52191750815869087
2.90314375932393043
3.28345505600316434
4.10912344248462968
4.96169227470469121
4.97021379029862143
3.93126151556627601
3.559295054807047
3.80157716456496297
4.11585320013024525
4.42092857496678793
4.71614525805449247
4.97195796512017463
5.25932125093838909
5.32844863463007545
6.54423057625739091
65.7320295837978961
1191.64894109203055
2.11907719870606526
2.43811543002683617
2.7849419948556009
3.08264732374029471
4.02810299793970295
4.11692112618808004
3.3333580822293345
2.99241057535217969
3.27210666680009243
3.55874670475737487
3.88339616466406845
4.22923278475222908
4.55377155125468214
4.83368020159042011
5.2325630785637598
5.3552907445802731
6.2353469899175602
151.811196983826505
1278.7511444414331
1.60891304344366581
1.79795610723782984
2.05309220653176228
2.3450963167558494
2.66185274798724336
3.06412682254078605
3.01920796827927118
2.57424145733528187
2.39163257592240219
2.66868895351711455
3.05260720582739387
3.35132256095557679
3.69340219989107954
4.04623515133768752
4.39343949650896715
4.71987700142142064
5.16652353827246991
5.4800475125090653
6.13014139728597485
184.066713974320862
1336.88338579839274
3.96913757298808534
4.40427536976378953
4.7672361002586765
4.94736756470613503
4.85337092442994056
4.78638033330954382
4.92899862603382033
4.91701514316458699
5.08611253206242075
5.31543823818739636
5.51649368851267674
5.75037745965090519
6.16721544615263806
7.21997110849130497
82.5238655705101962
815.362021315601623
3.86145751653503089
4.38806051777395023
4.81707678327386279
5.18622509368038997
5.24404814708069633
5.18632656058935826
5.52741700537525293
5.18413852668372677
4.96865458683449912
5.20670071213375163
5.42449168769119883
5.69875680113537175
6.19613373479210772
7.60706263325901944
129.776673923222091
894.443006546285687
3.77055045517870546
4.35516617285796137
5.23712164776623723
7.71895487042904715
8.86488678828800225
7.53303715166115317
5.46710201920778172
4.60893628884403306
4.82263096763183796
5.06000983747475352
5.31031527236134604
5.63853393845771311
6.19935613682792397
8.8100462180169874
146.245293679279797
957.09678546722364
3.6594937984910576
4.1904133159363699
7.73772058615701308
10.0329260553807877
10.5511086367188298
6.49833532888151755
4.48669334559852562
4.20680950681568522
4.57339611923281453
4.89309291879414765
5.1751728917130535
5.57132568636746406
6.04801236864530267
9.87706024997982901
108.401804246536884
1034.16477404301918
2.21009392339019373
2.57143965984429324
3.008219422200483
3.46392326912070914
4.26042306611800914
9.59625308768044327
11.2169918067358569
7.07354235536398868
4.79810555693840968
3.67971714353849233
3.96351975276231316
4.34993037625135948
4.72268396277808744
5.04407423882162398
5.5099605560442857
5.89968684712019353
9.6080221011678475
134.43806379615819
1102.76436057390833
2.09823238886832364
2.45131078901315158
2.84346592190176262
3.22270601344899621
6.85846854117083371
7.69039905711312066
5.13675030375189756
3.13510314467034235
3.27296289689544428
3.50889364417493033
3.784603498241216
4.15358449940150098
4.55624445266699674
4.92269847832371532
5.33634904561414469
5.74906158842290882
7.66640470173125088
156.859820791895316
1185.37835274989243
1.50392475630865197
1.72848083222058135
2.01241672552128437
2.3450859863750777
2.68085920899252761
3.22983707198789816
6.65380365139219698
3.36384656284880235
2.83008991270914034
2.65435058940044133
3.00712057265945854