/*--------------------------------*- C++ -*----------------------------------*\
| =========                 |                                                 |
| \\      /  F ield         | OpenFOAM: The Open Source CFD Toolbox           |
|  \\    /   O peration     | Version:  2206                                  |
|   \\  /    A nd           | Website:  www.openfoam.com                      |
|    \\/     M anipulation  |                                                 |
\*---------------------------------------------------------------------------*/
FoamFile
{
    version     2.0;
    format      ascii;
    arch        "LSB;label=32;scalar=64";
    class       volVectorField;
    location    "0.360000000000000098";
    object      faceForces;
}
// * * * * * * * * * * * * * * * * * * * * * * * * * * * * * * * * * * * * * //

dimensions      [1 1 -2 0 0 0 0];

internalField   uniform (0 0 0);

boundaryField
{
    inlet
    {
        type            calculated;
        value           uniform (0 0 0);
    }
    outlet
    {
        type            calculated;
        value           nonuniform List<vector> 0();
    }
    top
    {
        type            calculated;
        value           uniform (0 0 0);
    }
    bottom
    {
        type            calculated;
        value           uniform (0 0 0);
    }
    left
    {
        type            calculated;
        value           uniform (0 0 0);
    }
    symmetry
    {
        type            symmetryPlane;
    }
    interface
    {
        type            calculated;
        value           nonuniform List<vector> 
181
(
(0.627561898759622205 -8.18089834600057474e-06 -2.06971327548053772e-05)
(0.594859243394781356 4.11337510693584561e-07 -2.21101544448348441e-05)
(0.561390087986025743 1.6189136809457569e-06 -2.20014994058987947e-05)
(0.529414297520685251 1.90809150341965716e-06 -2.15133859099803078e-05)
(0.498995951650817671 2.31622256226613251e-06 -2.08594915882354111e-05)
(0.469270870261002004 2.85928067703427856e-06 -2.02718888039224824e-05)
(0.43971609973648923 3.58399310605267962e-06 -1.97705087184193003e-05)
(0.41023853846470798 4.49950754506361347e-06 -1.91815517744073382e-05)
(0.379984091716912886 5.58991868869731021e-06 -1.85870715382122844e-05)
(0.347487595254178327 7.11536109176093044e-06 -1.81546681345401349e-05)
(0.311325431220584092 9.41157538673173153e-06 -1.8173422888192614e-05)
(0.269325468647592603 1.18588174205226193e-05 -1.77914903991648591e-05)
(0.220132481050408946 1.46186424417790367e-05 -1.72526495786131551e-05)
(0.164765386131380281 1.76739434738157985e-05 -1.70679879704077761e-05)
(0.107234389778231409 2.05470492003321374e-05 -1.67808396991283878e-05)
(0.0593282456583869647 2.18180693804857927e-05 -1.63037490689934985e-05)
(0.720789639684075722 -4.51749547901980846e-06 -1.30621655956707966e-05)
(0.686154184505825215 9.69986036294138953e-07 -1.47582023390950656e-05)
(0.65040189412248528 1.95697083250714079e-06 -1.45770845469667426e-05)
(0.614830087021300709 2.59903798683870107e-06 -1.42442094004501922e-05)
(0.580049499234685184 3.25445326997080704e-06 -1.38748956883929678e-05)
(0.545815013041861308 3.99488547082071361e-06 -1.36076162981968399e-05)
(0.511494179607650867 4.85281311615491563e-06 -1.33064625740166387e-05)
(0.476799656159524909 5.86786800728963514e-06 -1.29660155249448272e-05)
(0.441289311259052741 7.07769139722962729e-06 -1.25865218607764969e-05)
(0.404034919789026059 8.60291109418219684e-06 -1.223266329738231e-05)
(0.363945132452222042 1.07715708720504753e-05 -1.22364308844569727e-05)
(0.319002613214741271 1.3349453692811483e-05 -1.22721168185737746e-05)
(0.267461731062921759 1.58879553542123476e-05 -1.19209792193734568e-05)
(0.2100035548651632 1.88219753053851476e-05 -1.17961579501967098e-05)
(0.148604521172113063 2.18726706765640153e-05 -1.177300460493841e-05)
(0.0907574888839595972 2.36675231272995275e-05 -1.17255155406910974e-05)
(0.763516446557909845 -4.54223454516140526e-06 -1.03750242917308902e-05)
(0.728899677785465383 1.08728720887207963e-06 -1.15640176933848141e-05)
(0.692658688631108577 2.42353027055119364e-06 -1.17143664672234698e-05)
(0.655831369434285993 3.29591659944234542e-06 -1.14326135329324884e-05)
(0.619441789921083563 4.11421956689668048e-06 -1.10858645950398203e-05)
(0.583409755346047554 4.95555281318805261e-06 -1.08774924243164541e-05)
(0.547109867637557867 5.92030651723146077e-06 -1.06925285577810447e-05)
(0.510412025746637577 7.05453185499396151e-06 -1.04842021646408136e-05)
(0.473101986492926674 8.29147243506464662e-06 -1.02626521966427725e-05)
(0.434434868692217535 9.76503788860470096e-06 -1.00581776188664525e-05)
(0.393317453327902633 1.2056454935238379e-05 -1.02987054715715332e-05)
(0.347761547064181664 1.45872581192544041e-05 -1.03975441167533836e-05)
(0.296040159721010276 1.69337393734418782e-05 -1.01397039853403142e-05)
(0.238115572789100144 1.97146764832542791e-05 -1.00250568145153706e-05)
(0.174985626254468701 2.28462672273730942e-05 -1.00629637361121351e-05)
(0.111746523280038618 2.48376774021841807e-05 -1.01048785699731817e-05)
(0.779941078944253796 -3.29462984252516532e-06 -6.11472273194566703e-06)
(0.745131322762382919 1.34138281378198865e-06 -7.59087863891565727e-06)
(0.708474335874865857 2.64344984255131059e-06 -7.63959832675799258e-06)
(0.67110923414898338 3.59376433789403726e-06 -7.37812474826553987e-06)
(0.634217939570563827 4.54065819863636207e-06 -7.18929716605837499e-06)
(0.59772612996910135 5.4847434403742973e-06 -7.11058987427668972e-06)
(0.560821394896687586 6.51762007686152955e-06 -7.041145613362179e-06)
(0.523236528766147235 7.73398086575255439e-06 -6.94545421107921437e-06)
(0.484955960843402201 9.0351459673266105e-06 -6.81131729748941381e-06)
(0.445444635507981579 1.04667716047381124e-05 -6.67633398336173057e-06)
(0.404050640888243773 1.22953428254058995e-05 -6.62988368752254357e-06)
(0.3588152927893416 1.52288488076514872e-05 -7.00119967362422513e-06)
(0.30776146694117773 1.75560390638432307e-05 -6.94132971949033197e-06)
(0.250398049506653453 2.01270282414853821e-05 -6.87705933458092977e-06)
(0.187408344396991833 2.30632737327038038e-05 -6.89927622454839062e-06)
(0.122929899989534977 2.52493561678290978e-05 -7.0138122831959334e-06)
(0.78867635677373471 -2.65076369799681084e-06 -4.92767386162543155e-06)
(0.753992746082064902 1.44485417611798759e-06 -5.57113301559931215e-06)
(0.717535512624081329 2.75923263829014924e-06 -5.68081888047283304e-06)
(0.680235853134603441 3.80150298034334412e-06 -5.60693216359114127e-06)
(0.643250129016953998 4.86515507171573838e-06 -5.54782003512623967e-06)
(0.606614164098296271 5.89586097107421591e-06 -5.50522929005979331e-06)
(0.569522667458999376 6.9833503229225035e-06 -5.43728649917480204e-06)
(0.531635256355547314 8.24659383966984821e-06 -5.35191097043479825e-06)
(0.493023389968648251 9.60951641532446275e-06 -5.24373658754736214e-06)
(0.453412423019991462 1.10846910372953785e-05 -5.15311281777910775e-06)
(0.411646269971601086 1.27226521752218871e-05 -5.074340517225953e-06)
(0.36703338193093854 1.47422214738926333e-05 -5.04859778259222345e-06)
(0.317415872544952404 1.8138658653086612e-05 -5.38924707820407977e-06)
(0.260770610621200771 2.05385419789305584e-05 -5.32014915563514322e-06)
(0.198305020098270307 2.32802650577821268e-05 -5.30209736857387944e-06)
(0.132627197504022992 2.55471636981256194e-05 -5.40314314143427431e-06)
(0.792257536200338119 -2.03996929213816245e-06 -2.60664027564140029e-06)
(0.757689475031319559 1.5570013241277184e-06 -3.52275147811543908e-06)
(0.721418773488787468 2.82876348314674561e-06 -3.62851500538950575e-06)
(0.684252050151042068 3.91766779455950894e-06 -3.60036113840775714e-06)
(0.64718276625566884 5.03876748914426078e-06 -3.56541537230379732e-06)
(0.610362205098746169 6.11297243741922671e-06 -3.53643887456151838e-06)
(0.573043740350595021 7.24413134434638058e-06 -3.49233935839451772e-06)
(0.534947721646877095 8.5396076275253512e-06 -3.43777424637801376e-06)
(0.496031855497682861 9.96339592467352864e-06 -3.35098594337016919e-06)
(0.456212087002471733 1.14770629366432156e-05 -3.2504923115099276e-06)
(0.41458868805752519 1.31011060245165271e-05 -3.18130154663400229e-06)
(0.369922587945070547 1.50284610693370144e-05 -3.14161187112389391e-06)
(0.320643566330772845 1.80672102341554814e-05 -3.27776804448870529e-06)
(0.264782638233690026 2.09202141964499544e-05 -3.34789932066413167e-06)
(0.20272624928913896 2.35542772887175323e-05 -3.34770278737971406e-06)
(0.136701329467149746 2.5712633088368388e-05 -3.44160391762366562e-06)
(0.794345799370992478 -1.92709218929051714e-06 -1.48177837634376648e-06)
(0.759660069950489958 1.67831448313812694e-06 -2.02014839631149144e-06)
(0.723551065849713737 2.90525516294456851e-06 -2.07775043860097012e-06)
(0.686756899545275301 3.9926356841056004e-06 -2.08783586977808588e-06)
(0.649943417693837011 5.14276497999712997e-06 -2.10471549618904911e-06)
(0.613151717813003927 6.20275118772677565e-06 -2.11705269356423347e-06)
(0.575775842766335422 7.3593732121769325e-06 -2.12613997922602368e-06)
(0.537786015087524549 8.85122927952366803e-06 -2.10877627846501067e-06)
(0.498411711617182174 1.08153640928497456e-05 -2.11820999449081699e-06)
(0.45796077158868248 1.17896250675761494e-05 -1.90680047115945482e-06)
(0.41674900202908477 1.34567266900842869e-05 -1.8410964259791524e-06)
(0.372328555322871013 1.53748994435111214e-05 -1.80340657144389416e-06)
(0.323418814063558824 1.76433855065425281e-05 -1.80308531899567711e-06)
(0.268572223356162543 2.10097136721021058e-05 -1.89757423117200874e-06)
(0.207371573562403849 2.36428278690824555e-05 -1.90376682570444017e-06)
(0.142817615060524067 2.58509394330704904e-05 -1.92600463242283009e-06)
(0.795059821871658579 -1.65622928092876235e-06 -4.78498469810443567e-07)
(0.760296131984624868 1.73650484578671098e-06 -6.40309213105240983e-07)
(0.724203456860728512 2.95898307650737568e-06 -6.60113909433045798e-07)
(0.6876387636703023 4.05162016803964769e-06 -6.70879820798239156e-07)
(0.651114134520430876 5.14927853097062927e-06 -6.8632877265772349e-07)
(0.614458696006573435 6.17184748255531651e-06 -7.02421375230097318e-07)
(0.577364677410397431 7.61915860368869508e-06 -7.45424999102349257e-07)
(0.538614244840263545 9.71637763699570801e-06 -7.73567076173194195e-07)
(0.498384047321328905 1.05694251502647299e-05 -6.62056357486056894e-07)
(0.458551371361155147 1.19144372352453256e-05 -6.07823109977496351e-07)
(0.417421928307003087 1.3586286674436961e-05 -5.79501182687814544e-07)
(0.372995301900608867 1.5517443027593683e-05 -5.61461379838705898e-07)
(0.324200854254913629 1.82037928648177574e-05 -5.71655363465972557e-07)
(0.269210090800071133 2.12636741830871405e-05 -5.76349441439989444e-07)
(0.207625137981207575 2.39173674489943866e-05 -5.56496082244674641e-07)
(0.141485850148292569 2.60295816820590204e-05 -5.29934933900056874e-07)
(3.37218716816305609e-05 1.51627721725425138e-05 -0.0438575430947796482)
(3.32414367420834662e-05 -8.1895873463150005e-07 -0.0731319301184595316)
(3.23783653210274038e-05 -2.71817117725918406e-06 -0.0835460552504448534)
(2.9818516353467394e-05 -3.91361740806092172e-06 -0.0791172726164863921)
(2.62129337043986582e-05 -4.55404049371475284e-06 -0.0673473628108913897)
(2.29436379178198426e-05 -4.19904181708413019e-06 -0.0579506402145717886)
(2.19140760465583164e-05 -3.72163652070481823e-06 -0.047279586321780552)
(1.81592902387325432e-05 -2.44691216518408631e-06 -0.0321605074998364687)
(1.96441200427242083e-05 -1.08466096969702865e-06 -0.0281716211888968122)
(1.34177152440921946e-05 -3.18743366663052827e-07 -0.00167768784330854341)
(1.29740129224008692e-05 2.35185976665346796e-06 -0.00102027426870235664)
(1.15173380892996136e-05 3.96287905217414873e-06 -0.000921360434857430529)
(1.01098292574358593e-05 5.31644893652525285e-06 -0.000794430435455625926)
(8.08427019242319811e-06 5.36428742753285473e-06 -0.000490724028461643849)
(4.94188029061980232e-06 5.39284121039482032e-06 -0.000615696198682193414)
(2.52903096126371065e-05 1.12415851125301091e-05 0.0367079794926224237)
(2.39011307243214776e-05 -5.28521129457295883e-06 0.0127993980039110139)
(1.97958065671088167e-05 -1.01211542093328983e-05 -0.00501120481614152936)
(1.15510177396127437e-05 -1.04473113327683291e-05 -0.01379818936360468)
(2.48996629050964595e-06 -4.40262595178628947e-06 -0.00516912578618375883)
(7.79487778522323013e-07 -1.88871899930109354e-06 -0.00754714032098240551)
(1.90974561554935088e-07 -1.51714488712222043e-06 -0.00458147424954697454)
(-3.34077446934330993e-08 -1.83898875488594314e-08 -0.00445649136405721052)
(-1.20936142675322991e-08 -2.68474242367966204e-07 -3.14664558518590949e-05)
(-2.86578134671144911e-08 -2.66170362688522421e-08 -0.000536540065541296846)
(-3.03321372728484274e-08 -2.01420397084580313e-08 -0.000538071666883234824)
(-3.18299551112587537e-08 -2.13138276531885599e-08 -0.000557443922259384444)
(-3.08592531765011222e-08 -1.9895748439334487e-08 -0.000563122053312315927)
(-3.24887673960034761e-08 -1.76924514312685973e-08 -0.000557064237908238918)
(2.14493550468998232e-05 5.52144001611903405e-06 0.110906306409116334)
(1.5660044523209283e-05 -6.61439587349857408e-06 0.0660765455838571575)
(3.8626696399099861e-06 -5.59079943260964896e-06 0.0218931220884699337)
(-5.33286608947402709e-07 -3.008916817480997e-06 0.00203374030946852028)
(-1.67121242425626574e-07 -1.30315593931841002e-07 -0.00183268490368570657)
(-8.47939700270338326e-08 -8.19850159414245427e-08 -0.0025547349899990514)
(-1.1818088864168521e-07 -7.2711436550870751e-08 -0.00240985833318860384)
(-2.70657495649388299e-08 -1.97442906999742942e-08 -0.00191518339871569565)
(-2.56589921936402806e-08 -2.78365711005124519e-08 -0.0011908241059660873)
(-1.64191671016199257e-08 -2.01340739631483929e-08 -0.000922226591706067013)
(-2.95776142554523268e-08 -1.61321374823439499e-08 -0.000780730325485903408)
(-2.54590032900933335e-08 -1.19382234593228814e-08 -0.000749305247190565132)
(2.09285949364026296e-05 1.80072746064503682e-06 0.0734780799719060712)
(1.25771003283158101e-05 -7.83422440697570669e-06 0.0315417954688029661)
(3.61971381128828985e-06 -2.58039873162691963e-06 0.00568173761511194843)
(4.95569731479512618e-07 -2.53314587936677832e-07 -0.000653773625426171644)
(3.36658092007525265e-07 -3.4403679321531362e-07 -0.00218028100635062755)
(1.96359975713794421e-08 -6.55261852190997989e-08 -0.00213118382313161065)
(-2.24767792589789297e-08 -2.81041654299683015e-08 -0.00144409719834842653)
(-4.29369070039656654e-08 -2.42149371230965902e-08 -0.001060781268090357)
(-2.22603995765328236e-08 -5.02842527946613747e-09 -0.000886833716618509716)
(-4.31645037677763971e-09 9.88396535614083161e-10 -0.000797646324998622686)
(-2.87147804309545003e-08 -1.66828359909547558e-09 -0.000768676312392319299)
(-2.69202271604947392e-08 -2.8062043461972483e-09 -0.000752320868657066532)
)
;
    }
    procBoundary0to1
    {
        type            processor;
        value           uniform (0 0 0);
    }
    procBoundary0to3
    {
        type            processor;
        value           uniform (0 0 0);
    }
}


// ************************************************************************* //
