/*--------------------------------*- C++ -*----------------------------------*\
| =========                 |                                                 |
| \\      /  F ield         | OpenFOAM: The Open Source CFD Toolbox           |
|  \\    /   O peration     | Version:  2206                                  |
|   \\  /    A nd           | Website:  www.openfoam.com                      |
|    \\/     M anipulation  |                                                 |
\*---------------------------------------------------------------------------*/
FoamFile
{
    version     2.0;
    format      ascii;
    arch        "LSB;label=32;scalar=64";
    class       surfaceVectorField;
    location    "0.360000000000000098";
    object      Uf;
}
// * * * * * * * * * * * * * * * * * * * * * * * * * * * * * * * * * * * * * //

dimensions      [0 1 -1 0 0 0 0];

internalField   nonuniform List<vector> 
20789
(
(0.0486723748283010571 -0.0124862139911970579 -0.023667738008428283)
(0.0252599152094078877 -0.0217154818599052217 -0.0223555770294061942)
(0.0242355931680913218 -0.00993505086698046221 -0.0221505775545570473)
(0.0247581419561005225 -0.0099050621381360747 -0.0223172081036575633)
(0.116158638206054557 -0.0154685736329056613 -0.0262746744959295696)
(0.083051269755509638 -0.0301386937014609321 -0.0247532318905276383)
(0.0810127638529706678 -0.0150332326391182762 -0.0247217515498491143)
(0.0826834250895409489 -0.0150191053987178396 -0.0250111441539462333)
(0.18534363310014626 -0.0158764709534516026 -0.0297132733328311881)
(0.147685962251802388 -0.0309132868299265978 -0.0272523074425878448)
(0.145134448776509356 -0.0158438302828319 -0.0271861206138368748)
(0.148012455368888296 -0.0159135396954490707 -0.027514784697294823)
(0.252634969265456144 -0.0152742899736613702 -0.0351163376532015875)
(0.216419312623476967 -0.0301026159774802175 -0.0315038718056331116)
(0.218950909588000703 -0.0157562917676255763 -0.0314703475371717473)
(0.223842833634509658 -0.0159475877739613248 -0.03186099317061937)
(0.314593273172297128 -0.0141729785788546787 -0.0430125937526097193)
(0.277958293016024705 -0.0277794611721535745 -0.0379145516841011276)
(0.280781443825039445 -0.0145596640050950719 -0.0378238323056706988)
(0.288197024922881018 -0.0148283760813492961 -0.0383086787145749189)
(0.373171133136294297 -0.0133353879027003682 -0.0540684905636007671)
(0.337032763658339285 -0.0263857388747657691 -0.0471728499710438454)
(0.338694718166913988 -0.013508432453551043 -0.0469848712227518908)
(0.349131540824818565 -0.0138266846260564399 -0.0476870985522964419)
(0.429778962214854066 -0.0128246320429644973 -0.0696077192026332559)
(0.394625418991528698 -0.0255785975793647903 -0.0599478694287160496)
(0.394374684593611524 -0.0128442259807320623 -0.0595604010769432354)
(0.408742040424352637 -0.0132242660312881354 -0.0603994705847371999)
(0.48393519356724396 -0.0122543203724220021 -0.0902868009154165901)
(0.450373521768642426 -0.0249380516397513519 -0.0778291577005202767)
(0.447571670890655859 -0.0123954217799722849 -0.077284637587941879)
(0.467025461452246049 -0.0128997634638678121 -0.0790218644811072207)
(0.534950293403758881 -0.0114576369590298991 -0.11913241109320738)
(0.503552637347523868 -0.0235068237063825736 -0.101155949703789549)
(0.497166080687045264 -0.011579141956752961 -0.100047148684769063)
(0.523710637549743896 -0.0122235889138624064 -0.101714102438384454)
(0.578741133607237779 -0.0100835143524692049 -0.156638709185333125)
(0.552309207277106418 -0.0218610399545260854 -0.134517169877533455)
(0.540817779173854762 -0.0105615651477833708 -0.132919810014702655)
(0.576721978963651516 -0.0115355116198561109 -0.137716765547687775)
(0.615593841451752444 -0.00844417304979766005 -0.210969312871460396)
(0.594837507597111292 -0.0183107290640199052 -0.176394620501048455)
(0.57576903568761173 -0.00860579321230182069 -0.173044762705475946)
(0.626142078635316013 -0.0098414538154495048 -0.176908303261195748)
(0.635893302509794367 -0.00622136790326098012 -0.280311298465951597)
(0.627132113776196265 -0.0159317909260206156 -0.240922142084569135)
(0.597626306853199174 -0.0069870372723192754 -0.235577874440118212)
(0.666098545917699569 -0.00868563792296407448 -0.2493975361059656)
(0.647187044225651653 -0.00476877535406284268 -0.389310315894531689)
(0.647592859184995984 -0.0105212093875675355 -0.317139394250553375)
(0.60380651024977583 -0.00391993556840987325 -0.306938248990609064)
(0.706547694307087304 -0.00556018991382690835 -0.317941847140522538)
(0.603241671942639557 -0.00396529213841467255 -0.537603041701146145)
(0.641511745035166392 -0.0107387960988673831 -0.457175275173823448)
(0.583515742426164552 -0.00378450531404931571 -0.428610755852191161)
(0.710065837653891974 -0.00702321750412648015 -0.489150959542080044)
(0.526771704454039313 0.00243008154082244472 -0.893099354593988926)
(0.625445742114106751 -0.00906936654896829675 -0.614149586322282781)
(0.538991157506403806 -0.00314056230581676726 -0.560985782132809585)
(0.832258786949571672 -0.0087797838176062442 -0.647097875766268094)
(0.334790207825227282 0.0138024458319128875 -1.18838484022757962)
(0.325640334898078698 0.011550135840570774 -0.870497810600649902)
(0.682077353172504508 0.00201572701458314039 -1.31113450651654273)
(0.0521306387824418405 -0.0390215688750197298 -0.023441070911505546)
(0.0268696066607204062 -0.0449838934886965039 -0.0223521129032017429)
(0.0257718975292944921 -0.0324386879404324341 -0.0221473978449973422)
(0.0263068184358574222 -0.0323399493974557209 -0.0223454271981678512)
(0.117664761239776872 -0.0456825330605827654 -0.02573086483718591)
(0.0854791011214915686 -0.0594146301974727217 -0.0245080228717441256)
(0.0834562122485302399 -0.0455680076324956052 -0.0241560979935955093)
(0.0851063313919131481 -0.0455600369673438768 -0.0244549976691744476)
(0.181143146119488674 -0.0448834119364955736 -0.0290429059153897717)
(0.149137286949902387 -0.0592913203101627165 -0.0269539418669531225)
(0.147308199226809267 -0.0455807023933332417 -0.0265903606767572652)
(0.150334880797746318 -0.0458003410252957391 -0.0269209683729955199)
(0.241500732117877037 -0.0427109720499631584 -0.0343020858365326517)
(0.211508234781531773 -0.0571109026208383441 -0.0310349414646594116)
(0.209080802750910927 -0.0437585464831434651 -0.0306940021994187885)
(0.213843196807932984 -0.0442461287960903907 -0.031059262251040793)
(0.30114063295251392 -0.0404620949594354656 -0.0420748079025352675)
(0.271610720160792518 -0.054506848702136651 -0.0373389651543335546)
(0.267987836672914204 -0.0410702663250730945 -0.0369816276990086387)
(0.274955679783623341 -0.0417475420956643639 -0.0374230291001081961)
(0.35944045635343469 -0.038948467713529028 -0.0530522288361591488)
(0.330520578309464463 -0.0525915182351485225 -0.0464499816392560383)
(0.325352723468852578 -0.0391495058700397566 -0.0460068867388172612)
(0.335147074600651462 -0.0399779121552673034 -0.0465962453295679438)
(0.41613330031097534 -0.0378779797635081031 -0.0681693079266031121)
(0.388283931820709471 -0.0512179592555781216 -0.0591453904677423301)
(0.381133006435831534 -0.0379120923818093425 -0.0585211429312148257)
(0.394605211627311492 -0.0389366130576574224 -0.0594062141335437929)
(0.470652357644959829 -0.0364375033879274293 -0.0886983064888931944)
(0.444399139028114232 -0.049847054166443576 -0.0764947102745806851)
(0.434631356407290115 -0.0367683571368246642 -0.0755616728256301162)
(0.452902033341768817 -0.0381005703689175426 -0.0769184408839367062)
(0.522150851995804133 -0.0341950115762515369 -0.116540708488115638)
(0.498054862745757998 -0.0475040067615699682 -0.0999401934285389648)
(0.484832738517394279 -0.0346826302894072749 -0.0984917376568233277)
(0.509606954877740659 -0.0364223341733835582 -0.100709847924052825)
(0.568075644255641166 -0.0306197510478077757 -0.154273081193248812)
(0.547756761686648552 -0.0440548400214068256 -0.131824198216909161)
(0.529968551553418488 -0.0317058353413930336 -0.12953020286422437)
(0.563452264429412208 -0.0341640883612150184 -0.133095916033163286)
(0.607317549661539946 -0.0261885214992121571 -0.206347449714157194)
(0.591615780679510928 -0.0387280539210523786 -0.174918688499815206)
(0.567607329580703368 -0.0269036830781718937 -0.171201835403009761)
(0.613908646978354788 -0.0300638311412551144 -0.177154950562559588)
(0.633032053585187326 -0.0206600903450405472 -0.277750237869170913)
(0.626363266998609558 -0.0326746565781795839 -0.235402200331056216)
(0.594191151391135652 -0.0220296905098156769 -0.228843376682956734)
(0.656907502313462399 -0.0261913588153986111 -0.239471968626772141)
(0.644685422994602964 -0.0162236474488336307 -0.385004353529844967)
(0.648099865603732672 -0.0247470404350876513 -0.317119918966756398)
(0.603720154930934783 -0.0149193988026913357 -0.30599148802823356)
(0.699215778980430303 -0.0198822012193433303 -0.32408479198793233)
(0.609432737500401389 -0.0171123804817256073 -0.533721819794960251)
(0.64284792062033802 -0.0197398245052528773 -0.448612359415234696)
(0.587731760136130377 -0.012251357141609619 -0.421247807624505088)
(0.712513330318827465 -0.0195371430652058961 -0.470585751569566724)
(0.536339228199399942 0.0030362478116751565 -0.909435071955871921)
(0.623885096317899568 -0.0298543270908401825 -0.613897697186305491)
(0.533769004481431719 -0.0153160321329522051 -0.549234997367633482)
(0.802504092588859241 -0.0295593019727004025 -0.655777129599568132)
(0.341587877965849163 0.0383831931911326751 -1.19263643833790622)
(0.351760191210815032 0.0334537868725093626 -0.915049979448986361)
(0.665533407029424429 0.00543413419233615934 -1.34263469078775355)
(0.0555529103868895313 -0.0655874525881995629 -0.023419064863440326)
(0.0282751416826839928 -0.0698036996594848108 -0.0223522326584910357)
(0.0274469732217360735 -0.0571986489570471129 -0.0219736263826087325)
(0.0279924918269843677 -0.0570181890840059311 -0.0222325502206629708)
(0.118615774029979998 -0.0737631934508616582 -0.0257310999015113347)
(0.0875187573121015694 -0.0876248347274540401 -0.0245328614756317211)
(0.0858822113197671988 -0.0738980298012047315 -0.0240999377419531882)
(0.0875249637030437039 -0.0738322304241618016 -0.0244641606813610218)
(0.181238077766621986 -0.0721090236455197153 -0.0289459774162227623)
(0.149725277234652732 -0.0873090395103148509 -0.0268731819455864142)
(0.147984865126487258 -0.0732693858506427986 -0.0265021226469762325)
(0.150934430532025904 -0.0735781064007772073 -0.0268731093758624723)
(0.241866200923203795 -0.0692631596464534927 -0.0340718207824603075)
(0.21147465366820084 -0.0842382856439066324 -0.0307819820440070821)
(0.209228042480610166 -0.0702839324241158886 -0.0305081581091764149)
(0.213883755954309696 -0.0709980713163172739 -0.0308711427215296354)
(0.301552557308352343 -0.0667992140879593577 -0.0417141388910543323)
(0.271677606157293194 -0.0812302961449970079 -0.0369225740392475077)
(0.268340864543406887 -0.0673418409992735389 -0.03669611943929732)
(0.275201778458411539 -0.0683771736342931313 -0.037088363897650363)
(0.360195917409855737 -0.0649523072076292757 -0.0525431432708392404)
(0.330867449861650342 -0.0789103910221109484 -0.0458792515234895323)
(0.326027273454999544 -0.0651755070066659253 -0.0456090957185637316)
(0.335705592358241378 -0.0664827390140112495 -0.046119321443940639)
(0.417390006961375959 -0.0632819855024024935 -0.0674707928157199099)
(0.388995651635395956 -0.077026761985271211 -0.0583878588605366844)
(0.382200362088962076 -0.0634267279123880007 -0.0579641830532805769)
(0.395529261289834178 -0.0650540227428352963 -0.058742609368326891)
(0.472563376447462991 -0.0609955749007186354 -0.0877365972142264278)
(0.445678656760632841 -0.0750011538328028138 -0.0754902328063612599)
(0.436292964925286131 -0.0614863511027099741 -0.0747819253931370359)
(0.454370839018691408 -0.0635451525929864036 -0.076047229437454858)
(0.524683963432272638 -0.0574048357014519256 -0.115223683157332543)
(0.500030973038310456 -0.0717112949331499133 -0.0985832955724393473)
(0.487173338767622588 -0.0583129906842377935 -0.0974050967637926229)
(0.511687209887910943 -0.0610165517402915247 -0.0994903780680043009)
(0.571517744807538364 -0.0520414985173813238 -0.152469805523475527)
(0.550589340913323344 -0.0666133466637598148 -0.12999284667785449)
(0.533084074260640195 -0.0534815742315419632 -0.128022753404683942)
(0.56623513066420883 -0.0571278491856883133 -0.131509858459953916)
(0.611092707514839906 -0.0449431087597465598 -0.203973439116714228)
(0.595283090792507186 -0.059174783038140423 -0.17243187778559449)
(0.571368837928708184 -0.04652336712991198 -0.169198388416842593)
(0.617275055133996498 -0.0513287372550387533 -0.174914255815074832)
(0.637130105583355588 -0.0362579000496687717 -0.274771881428641951)
(0.630678573146614907 -0.049480792717367883 -0.2321763693384645)
(0.598540457820668337 -0.0379252455916914005 -0.226241187544247879)
(0.660815942216501639 -0.0442003296433891232 -0.236709278445402183)
(0.64683661260933456 -0.0276045095643011572 -0.380727924852146182)
(0.651614984692993171 -0.0379198677430940059 -0.313171338991673209)
(0.607004395707652744 -0.0273551455423780183 -0.302792896722526184)
(0.701691554255969074 -0.0358630587820236157 -0.320510682087765231)
(0.610090671810233465 -0.0306884965811203836 -0.528788236806580492)
(0.644827314300761456 -0.0272288960340514238 -0.442643973462267637)
(0.590507483084198093 -0.0192455304230951148 -0.416911689274372499)
(0.713623501223912604 -0.0290211097191536878 -0.464553011753022049)
(0.51969073255571796 0.00503521856198189954 -0.897099063568339794)
(0.620377108598341387 -0.0410882729716877393 -0.607637417886417119)
(0.529502795861505726 -0.0286256207170239585 -0.546433496565079335)
(0.796141817139670582 -0.047938135852091987 -0.649257016800048992)
(0.325054582468763731 0.0567643777416468945 -1.17206517551742739)
(0.331019241859709379 0.0605034735985053793 -0.897523052832011503)
(0.643023052669490003 0.0129451485938733204 -1.32270814117963353)
(0.0578267081705899633 -0.0921172693693178973 -0.0234660292706824342)
(0.0291925734433144367 -0.0956945651603194336 -0.0225073149275290645)
(0.0285837670553751484 -0.0827084530563649556 -0.0218774041899438276)
(0.0291292569493199933 -0.0823571421736057629 -0.0222573508199674155)
(0.119412793514279594 -0.101429540057456857 -0.0256749435197068006)
(0.0888889055391896832 -0.115231273907644802 -0.0245828638392700631)
(0.0875655809274935443 -0.101422412635719522 -0.0239840479545449653)
(0.0891506966063028566 -0.101179616561102304 -0.0244534757684694952)
(0.181189197065204283 -0.0996001796313056298 -0.0287091865733707374)
(0.15020517745512682 -0.114977622804541046 -0.0267163931810633186)
(0.148562932101049511 -0.100944625470831342 -0.0262892747016165024)
(0.151371239320706397 -0.101278017090372013 -0.0267139109173368736)
(0.241741244978363745 -0.0962787777421116875 -0.0336327353007942823)
(0.211390685145028651 -0.111323231088470961 -0.030365770080104236)
(0.209105872849714935 -0.0973370804261074751 -0.0301506464425216163)
(0.213586991287195493 -0.0982799044392695387 -0.0304963808567882931)
(0.30148132257644511 -0.093416460826308334 -0.0410876866716826869)
(0.271630250069731849 -0.107932810453416808 -0.0362768551727329497)
(0.26821593904179325 -0.093991695124232999 -0.0361962686887012386)
(0.274901023898263264 -0.0954104995424043673 -0.0364989133030543256)
(0.360391611524147615 -0.0911005204262334833 -0.0517239671131870041)
(0.331089635262407644 -0.105276573107421473 -0.0450305724611383962)
(0.326165652758625746 -0.0913824729918575884 -0.0449579093656021361)
(0.335658008724705081 -0.0931863135024002948 -0.0453255134143350225)
(0.418064111333347643 -0.0888586805784451483 -0.0664072988511780482)
(0.389604274211864166 -0.1029614521136753 -0.057312427778605339)
(0.382726980439241693 -0.0890744639333823224 -0.0571161483286124483)
(0.395828774760958235 -0.0912995901790902842 -0.0577210960383115063)
(0.473942421602617903 -0.0857951049960485324 -0.0863369311645741933)
(0.446896269123886913 -0.100377450475484117 -0.0741085972744758015)
(0.43743356263245492 -0.0864523591232865263 -0.0736437118177044187)
(0.455205326832578749 -0.0892299387281242501 -0.0747267609671155436)
(0.526902000227743694 -0.0809494630919575103 -0.113352459092961294)
(0.502095738849765438 -0.0962029765291013694 -0.0967759545993844283)
(0.489132675223735935 -0.0822250624484008458 -0.0958614406422386295)
(0.513225144358055774 -0.0858610926638844474 -0.0977697171278556904)
(0.574897250118684533 -0.0736930601980919225 -0.149954918939973425)
(0.553776589880199621 -0.0896156191435546062 -0.127563743187164291)
(0.53608162584006247 -0.0756474564803843452 -0.125899621280348817)
(0.568662231113893135 -0.0805257732064882381 -0.129241848015731686)
(0.615330582176300545 -0.0635861606771570276 -0.200634808007344734)
(0.599792901955756186 -0.0799273943956779753 -0.169147621247410229)
(0.575508041170941564 -0.0661810886516083358 -0.166352383788010733)
(0.620676418584555023 -0.0726975599578251752 -0.171917018288152562)
(0.641839391649047464 -0.0508829505958690795 -0.270575826901495731)
(0.636111533284874575 -0.0663957638887147511 -0.227820007438129885)
(0.603504688427158098 -0.0534496417827931974 -0.222520405503073282)
(0.664926013703900809 -0.0621289266006382068 -0.232787088096172656)
(0.649593812925552849 -0.037221354158280158 -0.375087387601794775)
(0.656899144358252252 -0.0501376814028470091 -0.307753398485875407)
(0.611602629406392873 -0.0381905449869849381 -0.298260300055985861)
(0.704946055760993007 -0.0499339432390679405 -0.315803201233613273)
(0.610926859196672112 -0.0374193302723423646 -0.521493154542104431)
(0.647443782992210171 -0.0333854662779683731 -0.434973728225929168)
(0.592933720383011731 -0.0240797635031404431 -0.410733983979063522)
(0.714753686406872646 -0.0375458377636151419 -0.45741785971974197)
(0.508422310928478338 0.0109644807708932021 -0.882603529835505274)
(0.618426351582423095 -0.0457576919435437462 -0.59832308517358368)
(0.528702348835128011 -0.0321998235767235394 -0.540093259780534907)
(0.787148345149693895 -0.0569057825564038416 -0.640547355043964983)
(0.314752298976747502 0.0756503071374299285 -1.14866410008403097)
(0.318388227657340206 0.0840993866537267515 -0.883223984604719292)
(0.62603894284063788 0.0206893515651187312 -1.29738316642608575)
(0.0591798893632852208 -0.118993162049259735 -0.0236241494961166934)
(0.0297371881612703282 -0.122283137533411912 -0.0228108710431646211)
(0.0292980299829498289 -0.109027196992000433 -0.0218404499854141822)
(0.0298257119404729439 -0.108323524647161065 -0.0224130214231725265)
(0.120066805939451834 -0.128916027747008 -0.0256243135006265776)
(0.0897275849370092055 -0.142589206808049679 -0.0246900431361667429)
(0.0887011799037960291 -0.128866033115903611 -0.0238778744492414187)
(0.0901575803338947046 -0.128273917104094165 -0.0244717996635103498)
(0.181250550989261378 -0.126879505970564882 -0.0283729766877968172)
(0.150554014615430359 -0.142407838872554787 -0.0264922373667059625)
(0.14907090010472826 -0.128353985711683882 -0.0260130831378418415)
(0.151641832256566328 -0.128627231619816401 -0.0264878000629751552)
(0.241793507142484848 -0.12313798323730063 -0.0330098899520429173)
(0.211444057464416912 -0.138382950974256486 -0.0297747194255701016)
(0.209184778984252168 -0.124221016888367661 -0.0296620320262339018)
(0.213411183894732792 -0.125381114227252843 -0.0299654054089148886)
(0.301708840332210237 -0.11993240975978009 -0.040219740962188652)
(0.27180989915796655 -0.134640208816744295 -0.0353953931043343092)
(0.268366849374153338 -0.120497760297382434 -0.0355176245621723063)
(0.274821957309400011 -0.122311649730805369 -0.0356742731291995949)
(0.360935436949504918 -0.117269519481891474 -0.050619033126556745)
(0.331578229472325958 -0.131667400172779392 -0.0439137831153788502)
(0.326625041322734511 -0.11755957785195803 -0.0440938185674898397)
(0.3358914410053363 -0.119863794621135444 -0.0442295668931018057)
(0.419149917322977683 -0.114593497048053106 -0.0650137262019030715)
(0.390521840022333755 -0.128993146593099073 -0.0559450654177004875)
(0.383635603320645002 -0.114849101919818036 -0.0560180740457381365)
(0.396471186857974889 -0.117651682705953026 -0.0563352606201040426)
(0.475858770079227 -0.110866520063324106 -0.0845476207092860504)
(0.448484051237794612 -0.125969394239447446 -0.0724168439853851154)
(0.439054247962839594 -0.111693666050442439 -0.0722021706769164356)
(0.456465762115874252 -0.1151345587654342 -0.0729782335375736974)
(0.529944152639552191 -0.10489708933702227 -0.110987238693587426)
(0.50469918549866144 -0.121064003418255309 -0.0946113029322566274)
(0.491785012690233059 -0.106522362903904516 -0.0939049082140598346)
(0.515360446089372037 -0.110998634647486813 -0.0955511583674586162)
(0.57948551435018969 -0.0957789484825209286 -0.146756445494601123)
(0.557869871405730966 -0.113218673870899053 -0.124630101970978902)
(0.540142388865795797 -0.0983454893606371949 -0.123186191673246195)
(0.571995296403646769 -0.104359714877395732 -0.126355666114676718)
(0.621323736365514856 -0.0825198660468531853 -0.196332820678195241)
(0.605783154778774424 -0.101258447969967857 -0.165074919373677215)
(0.581255238794934126 -0.0862513209269364922 -0.162633134014217945)
(0.625442301725647409 -0.094412636181484183 -0.168105841683152457)
(0.64867002375011551 -0.0652228717099584687 -0.264997579022509533)
(0.643597100730709748 -0.08361920527568735 -0.22227673612654042)
(0.6104926913254628 -0.0691282566634864731 -0.21762442134759924)
(0.6708109538218332 -0.0801964978850567278 -0.227763579371303093)
(0.654826385263580169 -0.0457270159875099447 -0.367639739110009911)
(0.664795898674841679 -0.0616348783414625567 -0.300617819412704268)
(0.618788195373478511 -0.0482554288576092366 -0.292061255921437779)
(0.710336001221443136 -0.0632502722679596785 -0.309583417210012035)
(0.613108011623382132 -0.0409306453481687385 -0.511803658857408195)
(0.652696635461155972 -0.0377437441077177679 -0.425196925470882059)
(0.597600346435675611 -0.0273286048562134051 -0.402615763324444542)
(0.717979485335607182 -0.04470441387667487 -0.448415437481896217)
(0.498785402820092816 0.0202229153159235175 -0.864383655422110375)
(0.617965687681192422 -0.0443742041033178131 -0.586378445026450312)
(0.529431877564704667 -0.0311018739953886729 -0.530701491395814573)
(0.777090945408438261 -0.0617913708420035554 -0.62955474012836421)
(0.307776826611956045 0.0984930578557898784 -1.12163757852133239)
(0.309307655420894945 0.109044316263954777 -0.868988784765753919)
(0.61531687155825554 0.0346141455993378006 -1.26666818916652169)
(0.059901813121539374 -0.146069355211855684 -0.0238767646832146706)
(0.0299781067437214568 -0.149319021739764635 -0.0232039418006088349)
(0.0297052545787640163 -0.135944406032210335 -0.0218213889970079351)
(0.030184184834036891 -0.134600412859685326 -0.0226469037679331783)
(0.120470110337275879 -0.156219391966483961 -0.0255579670022461278)
(0.0900814189997018178 -0.169849780422164753 -0.0248018831954870921)
(0.0893761919090512585 -0.156181623555447069 -0.023815612924834844)
(0.0905975575691058965 -0.155006309531811742 -0.0244980595579156711)
(0.181323436785472636 -0.154058311819283478 -0.0278939801044792504)
(0.150721765679961678 -0.16970174312562461 -0.0261311158608674397)
(0.149440644181589449 -0.155562228175509187 -0.0256748078451985787)
(0.151652274419809857 -0.155684630327588253 -0.0261706207733117396)
(0.241960469822853103 -0.150017418991417517 -0.032160222577861497)
(0.211589698480107696 -0.16543846135451204 -0.0289460385990577204)
(0.209359906494077347 -0.151085125879593329 -0.0290231923019372805)
(0.213242771917462715 -0.152483254466257823 -0.0292345348190033473)
(0.302135476834014483 -0.146493363530029397 -0.0390894352575245144)
(0.272197881836652944 -0.161335409420758302 -0.0342486514552367144)
(0.268702408960063033 -0.147048406612100058 -0.0346576918687069718)
(0.274877082411974394 -0.149308288430240077 -0.0345591352480855638)
(0.361718062937306351 -0.143510230863961752 -0.0492398154065226065)
(0.332302245196894941 -0.158016127385795957 -0.0425351378844873798)
(0.327304997288429378 -0.143807022712572841 -0.0430443288140995514)
(0.336317229633531167 -0.146641538357403789 -0.0427794490678731487)
(0.420501826259847278 -0.14048231778084036 -0.0633481832011825452)
(0.391675796643065344 -0.155034005902633637 -0.054339300288826213)
(0.384795146941949884 -0.14077063293764086 -0.0547298604283031412)
(0.397347652206972823 -0.14413207633705627 -0.054559342018290824)
(0.478128244199638952 -0.136250178632971009 -0.08248052620835572)
(0.450319911955677832 -0.151728459331552906 -0.070528053279626135)
(0.440986418069247321 -0.13723713318192704 -0.0705407663053490702)
(0.458008502062810186 -0.141252963447362434 -0.070835453325957129)
(0.533640925608399708 -0.129401618069872382 -0.108254166209648048)
(0.507732464835767838 -0.146396121804541618 -0.0922154501161097651)
(0.494946414960740544 -0.131341031081956272 -0.0916186450744875674)
(0.517918138768973746 -0.136499160210149711 -0.0929383657054290019)
(0.585244021032037542 -0.118591507907802554 -0.142948575850055076)
(0.562909873033719199 -0.137680614151584529 -0.121216244507676318)
(0.545177057756280226 -0.121825023634064583 -0.119915291494061008)
(0.576123872505424073 -0.128793791946335001 -0.122969870860214991)
(0.629241626657325304 -0.102059236528817182 -0.19101883482202231)
(0.613458860327922184 -0.123577199426131878 -0.16007912999988505)
(0.588650764249830538 -0.107086045822778586 -0.158020614118469599)
(0.631591893497683632 -0.116766467269260932 -0.163549238476735526)
(0.6580922382115304 -0.0794616216842138484 -0.257896976516735321)
(0.65362900077946029 -0.101523730474162216 -0.215262530895707932)
(0.619874877159652726 -0.0851924848856644573 -0.211414731429431291)
(0.678761908968005701 -0.0986230453666886997 -0.221578886672310293)
(0.663255132058949703 -0.0528795283539563732 -0.358175005773576471)
(0.676012050086153726 -0.0727202838438736759 -0.291430833905669762)
(0.629020413158365765 -0.0575543537384476805 -0.284108361202715931)
(0.718330935625936307 -0.0759011697896990051 -0.301690065976161159)
(0.61762518674656941 -0.0403687106067806972 -0.49977171163992401)
(0.662162145641584932 -0.0398561540937486733 -0.412925063682630211)
(0.605556936625418984 -0.0282934250503992929 -0.392415551909927274)
(0.724167772585226688 -0.0498901461329487941 -0.437200454658663806)
(0.49103484606774328 0.0346438287719320337 -0.843632368125672771)
(0.619716983909003982 -0.0368948226369341659 -0.572085564803343161)
(0.532373275988021866 -0.0243223158137538878 -0.518700763928076625)
(0.769975119822166709 -0.0609846437919094805 -0.616266915471745391)
(0.304232492043080394 0.126252122114816706 -1.0929468797603108)
(0.303021977041857238 0.137059986015060059 -0.852096439068133926)
(0.603486292918474665 0.0559942671386893936 -1.23305386525534244)
(0.0601088909723419274 -0.17329493976969626 -0.0241290603128812564)
(0.0299559272007505206 -0.176577091671001773 -0.0235525727991371114)
(0.0298202256811178588 -0.163247855103602596 -0.0217576457687798999)
(0.0301940286092255497 -0.160864188130625113 -0.0228434872750352888)
(0.120565274630597366 -0.183470684452456095 -0.025375032054108404)
(0.089996054089088659 -0.197060025172375364 -0.0247683101887139628)
(0.0896025318879175581 -0.183514400350173579 -0.0237697670731180956)
(0.0904503081455844404 -0.181488591486315048 -0.0244510599311012176)
(0.181382965152169007 -0.181217491933641589 -0.0271831743554459132)
(0.150740082382934543 -0.196960148561754228 -0.0255073190768200821)
(0.149650988073252694 -0.182693635661676845 -0.025229946670317225)
(0.151367610161325078 -0.182612689542943712 -0.0256864591212625747)
(0.242287423518782047 -0.176891906830010659 -0.0310344674764329344)
(0.211891861653489499 -0.192506657905583189 -0.0278136494371766865)
(0.209645758548603678 -0.177935908460268771 -0.0282126104973679896)
(0.213099173259089447 -0.179655867785228684 -0.028211623035816407)
(0.302797784680371496 -0.17299249331480876 -0.0376943540821995937)
(0.272873250545946966 -0.187937418478889923 -0.0328309032539839951)
(0.269272279313817586 -0.173575467384587234 -0.0336438516670912666)
(0.275130603583406852 -0.176374463475000409 -0.033060821559948439)
(0.362739356977752447 -0.169679322836910867 -0.0476346227667910002)
(0.333304214407142751 -0.184178259491858537 -0.0409368634741926751)
(0.32823503378372676 -0.170009658553504917 -0.041875888478232634)
(0.336994057167946337 -0.173416221254812736 -0.0409187240598699042)
(0.422066262406834591 -0.166415314023589028 -0.0615191703672698167)
(0.393039785115490037 -0.180936164727866139 -0.0525957845015635542)
(0.386183973921817525 -0.166740465988283515 -0.0533455762752534507)
(0.398479586096215144 -0.170616964450146485 -0.0524148701084870966)
(0.480701594271361388 -0.161975789577617379 -0.0802629771873801662)
(0.452344316647738609 -0.177622776680070926 -0.0685661951671786007)
(0.443166199497338154 -0.163083019253162098 -0.0687510206655243261)
(0.459804987587177472 -0.16750065065700967 -0.0684194035936313144)
(0.53807272314610155 -0.154698386161384621 -0.105177528414137966)
(0.511260088933213952 -0.172424589076557111 -0.0895816183390479859)
(0.498629048608375369 -0.156877152797098268 -0.0890281917014787982)
(0.520901139061396679 -0.162417163822136695 -0.0900886447279317104)
(0.592462964677996973 -0.142548476119600642 -0.138346798657506403)
(0.569148431065884863 -0.163428012485034135 -0.11703457083662995)
(0.551400970096783571 -0.146447730327591341 -0.115988701809600081)
(0.581216326490816337 -0.154047468491123413 -0.119136708716468129)
(0.63957500288452751 -0.122668481860453524 -0.184322826073570867)
(0.623161489066300534 -0.147417200128779152 -0.153646523186814293)
(0.598081501277252903 -0.129153730189590477 -0.152302332353200703)
(0.639459314378112542 -0.140125300422589916 -0.158105057266335197)
(0.670965354847771644 -0.0940083624862502465 -0.248796388284642733)
(0.666792125231926769 -0.120623224562626835 -0.206195431365728155)
(0.63225709236230998 -0.102019453974436541 -0.203620695389175654)
(0.689275430731632888 -0.117779214500686208 -0.213917283458284757)
(0.67628077707257972 -0.0585315907549939923 -0.346180891814723501)